Membrane in water
40167
    1TCq1    O1    1   0.270   2.583  11.320 -0.3173  0.3186 -0.0164
    1TCq1    C1    2   0.190   2.520  11.233 -0.1735 -0.1915 -0.4668
    1TCq1    O2    3   0.209   2.511  11.113 -0.6688  0.4318 -0.7548
    1TCq1    C2    4   0.064   2.545  11.289  0.5078  0.1080 -0.2516
    1TCq1    C3    5   4.689   2.605  11.211 -0.8822 -0.5513 -0.2413
    1TCq1    C4    6   4.566   2.631  11.268  0.2855  0.2112  0.2029
    1TCq1    C5    7   4.539   2.587  11.389 -0.1102 -0.5026  0.2687
    1TCq1    C6    8   4.637   2.522  11.465 -0.0890 -0.0692  0.1098
    1TCq1    C7    9   0.036   2.501  11.418  0.6532 -0.0231 -0.9353
    1TCq1    C8   10   4.615   2.555  11.607  0.0420  1.3884  0.1281
    1TCq1    O4   11   4.522   2.633  11.631 -0.1750  0.0596 -0.1790
    1TCq1    C9   12   4.459   2.699  11.189 -0.5543 -0.4827  0.0791
    1TCq1    O5   13   4.342   2.703  11.239 -0.5932 -0.4715  0.8840
    1TCq1    O6   14   4.495   2.771  11.096  0.2714  0.7578  0.4390
    1TCq1    H1   15   0.236   2.599  11.411  1.1456 -1.0456  0.7764
    1TCq1    H2   16   4.702   2.644  11.111  0.2427 -1.6113 -0.5053
    1TCq1    H3   17   4.438   2.618  11.410  0.2269  1.8538 -1.6155
    1TCq1    H4   18   0.112   2.448  11.476 -0.8306 -0.4664  0.5949
    2MPD2     C   19   4.614   2.434  12.104 -0.5403  0.7562 -0.4081
    2MPD2    C1   20   4.589   2.551  12.043  0.3289 -0.2001 -0.0400
    2MPD2    C2   21   4.615   2.554  11.905 -0.6471  0.1168 -0.1600
    2MPD2    C3   22   4.661   2.446  11.829 -0.1577  0.5413  0.3883
    2MPD2    C4   23   4.702   2.337  11.907 -0.1687 -0.2437  0.9687
    2MPD2    C5   24   4.678   2.333  12.045 -0.1892 -0.5262  0.2562
    2MPD2     H   25   4.604   2.645  11.847  1.0181 -0.3099 -1.1584
    2MPD2    H1   26   0.024   2.247  11.868 -0.1709  0.2615 -0.2077
    2MPD2    H2   27   4.584   2.417  12.207  0.3721  0.4035 -0.1991
    2MPD2    H3   28   4.699   2.240  12.097  0.4887  0.4641  1.7594
    2MPD2     N   29   4.686   2.463  11.687  0.5917 -0.4083 -0.2471
    2MPD2    H5   30   0.025   2.397  11.641  0.6796 -1.2531  1.1098
    2MPD2    N1   31   4.509   2.647  12.096 -0.1312  0.0928  0.7965
    2MPD2    H7   32   4.488   2.722  12.031  0.3721  0.0933  0.6329
    3TCq1    O1   33   4.257   3.499  10.670 -0.0500  0.4368  0.5218
    3TCq1    C1   34   4.341   3.607  10.658  0.2406  0.5421 -0.0669
    3TCq1    O2   35   4.402   3.633  10.554  0.2501 -0.0967 -0.4451
    3TCq1    C2   36   4.322   3.701  10.763  0.4613  0.0150 -0.0247
    3TCq1    C3   37   4.418   3.804  10.767  0.1416  0.3448  0.8548
    3TCq1    C4   38   4.384   3.921  10.826  0.9901 -0.9434  0.4261
    3TCq1    C5   39   4.262   3.938  10.883 -0.4282  0.0024  0.0670
    3TCq1    C6   40   4.166   3.836  10.873  0.3036 -0.0363  0.1116
    3TCq1    C7   41   4.191   3.720  10.813 -0.0708 -0.5143  0.1424
    3TCq1    C8   42   4.032   3.844  10.931 -0.1147 -0.2872  0.2464
    3TCq1    O4   43   3.976   3.736  10.944  0.5322 -0.2285 -0.2551
    3TCq1    C9   44   4.486   4.020  10.849  1.0649  0.1565  0.3027
    3TCq1    O5   45   4.460   4.118  10.918  0.4261 -0.1281  0.3034
    3TCq1    O6   46   4.601   3.993  10.811  0.1370 -0.2308 -0.3194
    3TCq1    H1   47   4.237   3.467  10.761  0.0597  0.5746  0.5943
    3TCq1    H2   48   4.519   3.791  10.729  0.1953 -1.6129  1.6608
    3TCq1    H3   49   4.239   4.035  10.925 -0.4494  0.6718 -1.4703
    3TCq1    H4   50   4.115   3.648  10.783 -0.1432 -0.1427 -0.5673
    4MPD2     C   51   3.644   4.051  11.185  0.2011  0.1323 -0.2820
    4MPD2    C1   52   3.723   4.162  11.136 -0.3501 -0.3212 -0.4342
    4MPD2    C2   53   3.843   4.133  11.074 -0.5327  0.1533 -0.3103
    4MPD2    C3   54   3.875   3.998  11.037  0.3950 -0.2639 -0.5518
    4MPD2    C4   55   3.791   3.904  11.084  0.4802 -0.3239 -0.0877
    4MPD2    C5   56   3.677   3.924  11.159  0.6790 -0.8775 -0.7950
    4MPD2     H   57   3.898   4.217  11.032  2.5018 -0.1838  2.9716
    4MPD2    H1   58   3.811   3.798  11.071  5.1728  0.3841  1.4017
    4MPD2    H2   59   3.550   4.057  11.238 -1.4572 -0.8292 -3.1042
    4MPD2    H3   60   3.619   3.839  11.192 -0.4814  0.6624  1.1236
    4MPD2     N   61   4.004   3.970  10.975 -0.0769  0.1968  0.2995
    4MPD2    H5   62   4.066   4.044  10.944 -0.0681  0.1495  0.2052
    4MPD2    N1   63   3.692   4.304  11.163 -0.2157 -0.5695  0.4924
    4MPD2    H7   64   3.757   4.373  11.127 -0.6959 -0.4283 -0.0979
    5TCq1    O1   65   1.125   1.044  11.745 -0.3486 -0.0407  0.0167
    5TCq1    C1   66   1.068   1.035  11.869 -0.6048  0.2983 -0.1207
    5TCq1    O2   67   1.117   1.094  11.966  0.3808 -0.0857  0.0396
    5TCq1    C2   68   0.992   0.912  11.872  0.4998 -0.1042 -0.1128
    5TCq1    C3   69   0.973   0.859  11.993  0.3801 -0.3105  0.1366
    5TCq1    C4   70   0.876   0.762  12.006 -0.1467 -0.1631  0.2672
    5TCq1    C5   71   0.797   0.739  11.903  0.0524 -0.1194 -0.3047
    5TCq1    C6   72   0.806   0.809  11.786  0.4133 -0.0198 -0.5792
    5TCq1    C7   73   0.911   0.891  11.759  0.6060 -0.2143  0.0964
    5TCq1    C8   74   0.714   0.753  11.684 -0.6883 -0.4302  0.1451
    5TCq1    O4   75   0.629   0.668  11.713 -0.6943 -0.3753  0.4493
    5TCq1    C9   76   0.842   0.720  12.137  0.2888  0.3918 -0.4476
    5TCq1    O5   77   0.926   0.756  12.226 -0.2760 -0.0130  0.6466
    5TCq1    O6   78   0.752   0.637  12.145 -0.0656 -0.5517 -0.4697
    5TCq1    H1   79   1.121   0.964  11.688  1.7436 -1.8632  2.4418
    5TCq1    H2   80   1.033   0.888  12.078 -1.1585 -0.8235  1.4053
    5TCq1    H3   81   0.704   0.685  11.917 -1.6706  2.4240 -1.7426
    5TCq1    H4   82   0.929   0.939  11.664 -0.5221 -0.6272 -0.3243
    6MPD2     C   83   0.728   0.841  11.327 -0.7169  0.2101 -0.7514
    6MPD2    C1   84   0.704   0.762  11.442  0.6890 -0.3307 -0.3903
    6MPD2    C2   85   0.648   0.633  11.424 -0.0461 -0.3603 -0.1030
    6MPD2    C3   86   0.605   0.593  11.299 -0.9802  0.0490  0.6511
    6MPD2    C4   87   0.628   0.668  11.187 -0.5205  0.2049  0.4124
    6MPD2    C5   88   0.692   0.789  11.205 -0.0010  0.5151 -0.3010
    6MPD2     H   89   0.653   0.555  11.499 -2.7914 -2.1730 -1.8057
    6MPD2    H1   90   0.599   0.651  11.084 -1.1832 -0.3827  0.6991
    6MPD2    H2   91   0.785   0.933  11.325 -0.2530 -0.0926 -1.6060
    6MPD2    H3   92   0.711   0.855  11.121 -0.9988  0.2663 -0.7275
    6MPD2     N   93   0.551   0.462  11.287 -0.3450  0.2184  0.1484
    6MPD2    H5   94   0.563   0.401  11.368  2.1585  1.3223  0.6111
    6MPD2    N1   95   0.753   0.810  11.564  0.3659  0.0069  0.2899
    6MPD2    H7   96   0.791   0.904  11.561 -1.1374  0.5923 -0.5929
    7TCq1    O1   97   1.885   0.323  13.701 -0.0695  0.5152  0.0172
    7TCq1    C1   98   1.978   0.355  13.603 -0.4302  0.0816  0.8961
    7TCq1    O2   99   2.090   0.409  13.619 -0.6273 -0.4623  0.0976
    7TCq1    C2  100   1.907   0.339  13.474  0.2775  0.3017  0.5385
    7TCq1    C3  101   1.889   0.448  13.392 -0.1582  0.6858  0.6155
    7TCq1    C4  102   1.842   0.420  13.263 -0.6220  0.6868 -0.4845
    7TCq1    C5  103   1.815   0.291  13.215 -0.4712  0.1114  0.4360
    7TCq1    C6  104   1.845   0.188  13.299 -1.0266 -0.6603 -0.3340
    7TCq1    C7  105   1.894   0.215  13.428 -0.2519 -0.0943 -0.7921
    7TCq1    C8  106   1.826   0.049  13.264  0.8105 -0.5974 -0.2263
    7TCq1    O4  107   1.882   4.689  13.334 -0.0964  0.9302  0.1860
    7TCq1    C9  108   1.813   0.529  13.171  0.8987  0.0505 -0.9848
    7TCq1    O5  109   1.742   0.504  13.068  0.2920 -0.4266  0.1071
    7TCq1    O6  110   1.858   0.643  13.203 -0.7102 -0.5740  0.1078
    7TCq1    H1  111   1.792   0.308  13.672  0.9490 -1.2774 -2.3934
    7TCq1    H2  112   1.905   0.548  13.431  2.1438 -0.8515  3.5721
    7TCq1    H3  113   1.795   0.274  13.109 -1.1510  0.4606  0.5123
    7TCq1    H4  114   1.896   0.131  13.497  0.8036  1.0951  0.6084
    8MPD2     C  115   1.704   4.381  12.981  1.1100  0.4123  1.1679
    8MPD2    C1  116   1.714   4.389  13.117  0.2739 -0.2674 -0.2433
    8MPD2    C2  117   1.749   4.511  13.169 -0.4252 -0.0314  0.4694
    8MPD2    C3  118   1.752   4.623  13.087 -0.0835  0.1416  0.2861
    8MPD2    C4  119   1.714   4.615  12.957 -0.3365 -0.0425  0.5074
    8MPD2    C5  120   1.692   4.494  12.904  0.3006  0.3979  0.6587
    8MPD2     H  121   1.761   4.518  13.276  1.8704 -1.9310  0.3440
    8MPD2    H1  122   1.708   4.705  12.896  1.2085  1.0206  1.9231
    8MPD2    H2  123   1.689   4.289  12.926  0.9736  0.1200  1.6886
    8MPD2    H3  124   1.678   4.494  12.796  0.0522 -0.1697  0.6908
    8MPD2     N  125   1.771   0.023  13.144 -0.3522  0.3727  0.1195
    8MPD2    H5  126   1.764   0.109  13.092 -1.3896  2.0745  3.0798
    8MPD2    N1  127   1.697   4.271  13.196  0.0591  0.1326  0.2961
    8MPD2    H7  128   1.670   4.188  13.144  1.0273  0.9183 -1.4538
    9TCq1    O1  129   4.057   3.678  10.386 -0.5312  0.3468  0.1821
    9TCq1    C1  130   3.988   3.562  10.385  0.1096  0.0451  0.8909
    9TCq1    O2  131   3.866   3.576  10.383 -0.0767 -0.3726 -0.4959
    9TCq1    C2  132   4.072   3.484  10.296  0.4335 -0.4830  0.5598
    9TCq1    C3  133   4.018   3.421  10.186  0.4567  0.7301 -0.5184
    9TCq1    C4  134   4.099   3.333  10.112 -0.0577  0.5700 -0.6220
    9TCq1    C5  135   4.226   3.304  10.159  0.8631  0.3220 -0.1075
    9TCq1    C6  136   4.280   3.363  10.268 -0.4717  0.2863 -0.0014
    9TCq1    C7  137   4.201   3.453  10.343  0.0704  0.6010  0.7087
    9TCq1    C8  138   4.403   3.299  10.320  0.6000  0.2424  0.2159
    9TCq1    O4  139   4.448   3.206  10.255 -0.2077 -0.7273  0.3495
    9TCq1    C9  140   4.040   3.270  10.000 -0.4719 -0.2767 -0.2365
    9TCq1    O5  141   3.912   3.276   9.987 -0.5834 -0.2334  0.3017
    9TCq1    O6  142   4.101   3.172   9.957 -0.2646  0.6085  0.4859
    9TCq1    H1  143   4.151   3.655  10.368 -0.8644  0.4329 -1.6339
    9TCq1    H2  144   3.917   3.439  10.152  0.0890  2.0541  1.2074
    9TCq1    H3  145   4.282   3.231  10.101  1.3412 -0.4830  1.3847
    9TCq1    H4  146   4.229   3.489  10.441  1.0128  0.1345  0.6093
   10MPD2     C  147   4.676   3.271  10.438  0.4192 -0.7380 -0.2087
   10MPD2    C1  148   4.562   3.304  10.508 -0.6019  0.3080 -0.3670
   10MPD2    C2  149   4.570   3.326  10.646 -0.1083  0.0072  0.1344
   10MPD2    C3  150   4.679   3.299  10.723 -0.4530  0.4713  0.0192
   10MPD2    C4  151   0.067   3.255  10.653 -0.1683 -0.9288 -0.0493
   10MPD2    C5  152   0.063   3.249  10.516 -1.7788  0.9250 -1.3513
   10MPD2     H  153   4.487   3.382  10.688 -1.1641  0.2081 -2.2496
   10MPD2    H1  154   0.166   3.237  10.693 -0.0314  0.0899  0.0505
   10MPD2    H2  155   4.674   3.254  10.332  1.1871  1.2736 -0.5588
   10MPD2    H3  156   0.156   3.212  10.475 -1.7943 -0.7780  0.1826
   10MPD2     N  157   4.688   3.309  10.866  0.1622 -0.3898 -0.1606
   10MPD2    H5  158   0.050   3.277  10.911  0.6228 -1.3254 -1.6831
   10MPD2    N1  159   4.443   3.341  10.443  0.1907  0.1673 -0.1469
   10MPD2    H7  160   4.387   3.407  10.495 -1.2030  0.0180 -1.4578
   11TCq1    O1  161   0.636   2.719  13.956 -0.0332 -0.1441 -0.3012
   11TCq1    C1  162   0.723   2.753  14.055  0.2057 -0.4257 -0.2518
   11TCq1    O2  163   0.839   2.735  14.060 -0.0404  0.0036 -0.6584
   11TCq1    C2  164   0.676   2.889  14.074 -0.0104  0.0168 -0.6298
   11TCq1    C3  165   0.770   2.982  14.044 -0.0592 -0.3656 -0.4112
   11TCq1    C4  166   0.731   3.110  14.017 -0.3096 -0.5117  0.3100
   11TCq1    C5  167   0.598   3.139  14.021  0.2868  0.2946  1.0527
   11TCq1    C6  168   0.505   3.040  14.037  0.0053  0.0597 -0.6112
   11TCq1    C7  169   0.543   2.915  14.067 -0.1586  0.2383  0.3502
   11TCq1    C8  170   0.369   3.084  14.053  0.6401  0.1053 -0.2225
   11TCq1    O4  171   0.352   3.201  14.091 -0.0180  0.2137 -0.0479
   11TCq1    C9  172   0.826   3.214  13.999 -0.4134 -0.1051 -0.0663
   11TCq1    O5  173   0.937   3.180  13.960 -0.0198 -0.2067  0.0782
   11TCq1    O6  174   0.779   3.331  13.983  0.4053 -0.4651  0.0405
   11TCq1    H1  175   0.541   2.736  13.973  0.3943  0.7910  1.1683
   11TCq1    H2  176   0.876   2.967  14.059 -0.0213 -1.3459 -1.6021
   11TCq1    H3  177   0.557   3.239  14.017 -2.4294 -0.8049  0.7810
   11TCq1    H4  178   0.479   2.848  14.123  0.8710 -0.5208  0.6306
   12MPD2     C  179   0.070   3.112  14.099 -0.3049  0.5451 -0.1509
   12MPD2    C1  180   0.127   2.998  14.051 -0.7492 -0.1245  0.0965
   12MPD2    C2  181   0.054   2.895  14.017 -0.1054  0.4236 -0.2026
   12MPD2    C3  182   4.636   2.904  14.020  0.2172  0.5831  0.3597
   12MPD2    C4  183   4.583   3.014  14.080  0.7526 -0.5229  0.2978
   12MPD2    C5  184   4.660   3.122  14.108 -0.2891  0.3518 -0.1434
   12MPD2     H  185   0.102   2.807  13.975  1.3314  0.5551  1.1676
   12MPD2    H1  186   4.479   3.038  14.098  1.1678  0.5331  1.2975
   12MPD2    H2  187   0.123   3.197  14.140 -0.9143 -0.9760  3.8409
   12MPD2    H3  188   4.614   3.208  14.158 -0.9425  0.1723 -0.4332
   12MPD2     N  189   4.553   2.795  13.981  0.4522 -0.0592 -0.4050
   12MPD2    H5  190   4.598   2.724  13.923 -0.5090 -0.4231 -0.7040
   12MPD2    N1  191   0.273   2.987  14.024  0.3352  0.9095  0.9260
   12MPD2    H7  192   0.307   2.895  13.997 -1.4359  0.9092 -1.2344
   13TCq1    O1  193   4.709   2.889  11.025  0.4868  0.5295 -0.1833
   13TCq1    C1  194   0.051   2.867  10.909  0.3160  0.1430 -0.1597
   13TCq1    O2  195   0.175   2.865  10.898 -0.2326 -0.6228 -0.5680
   13TCq1    C2  196   4.673   2.869  10.804 -0.3031 -0.4412 -0.0355
   13TCq1    C3  197   4.717   2.865  10.675  0.1639 -0.8585 -0.1618
   13TCq1    C4  198   4.641   2.911  10.578 -0.0657 -0.2328 -0.4075
   13TCq1    C5  199   4.529   2.985  10.613  1.4076 -0.2385 -0.2730
   13TCq1    C6  200   4.480   2.978  10.744 -0.4255  0.4574 -0.1847
   13TCq1    C7  201   4.550   2.916  10.837 -0.0232 -0.3741  0.3553
   13TCq1    C8  202   4.349   3.019  10.769 -0.0138  0.0474  0.0046
   13TCq1    O4  203   4.293   2.972  10.867  0.4428 -0.3233  0.2410
   13TCq1    C9  204   4.690   2.903  10.443  0.3063 -0.1227 -0.7919
   13TCq1    O5  205   0.077   2.841  10.421 -0.1067  0.1664  0.2549
   13TCq1    O6  206   4.605   2.912  10.352 -0.4409  0.8581  0.2627
   13TCq1    H1  207   4.618   2.854  11.020  0.1880  0.9962  2.4253
   13TCq1    H2  208   0.090   2.826  10.649  0.2604 -0.7792  0.0760
   13TCq1    H3  209   4.473   3.039  10.537  0.1026 -2.3583 -0.8238
   13TCq1    H4  210   4.507   2.929  10.936  1.2316  1.9673  0.5744
   14MPD2     C  211   4.100   3.174  10.554  0.4458 -0.6322 -0.0103
   14MPD2    C1  212   4.148   3.119  10.673  0.0793 -0.3390  0.1600
   14MPD2    C2  213   4.077   3.134  10.792 -0.6964 -0.1966 -0.1442
   14MPD2    C3  214   3.962   3.206  10.795 -0.3816 -0.2165 -0.4246
   14MPD2    C4  215   3.917   3.256  10.679  0.4593  0.1624 -0.1334
   14MPD2    C5  216   3.976   3.234  10.558 -0.0054 -0.0337 -0.2825
   14MPD2     H  217   4.116   3.102  10.889  0.2947  0.0059 -0.4717
   14MPD2    H1  218   3.835   3.327  10.678  0.5640  0.2566 -1.6413
   14MPD2    H2  219   4.137   3.150  10.455  2.3036  1.5548  0.1645
   14MPD2    H3  220   3.926   3.263  10.466 -1.2093 -1.4266 -0.0746
   14MPD2     N  221   3.903   3.262  10.912  0.3633 -0.5563 -0.0461
   14MPD2    H5  222   3.842   3.342  10.899 -0.7235 -1.1434  1.3859
   14MPD2    N1  223   4.281   3.072  10.662 -0.5423 -0.1175  0.3945
   14MPD2    H7  224   4.332   3.085  10.575 -1.3927  2.9320  0.3564
   15TCq1    O1  225   4.214   2.437   2.393  0.0186  0.0488  0.4262
   15TCq1    C1  226   4.325   2.443   2.472  0.0945  0.2100  0.3387
   15TCq1    O2  227   4.326   2.477   2.590  1.0754  0.1496 -0.1339
   15TCq1    C2  228   4.395   2.330   2.429 -0.0330  0.3700 -0.3382
   15TCq1    C3  229   4.354   2.215   2.477  0.6685  0.2308  0.0307
   15TCq1    C4  230   4.422   2.102   2.440  0.2158 -0.2554  0.5049
   15TCq1    C5  231   4.533   2.110   2.369  0.0364 -0.0160 -0.8307
   15TCq1    C6  232   4.572   2.228   2.311 -0.3407  0.2568  0.7298
   15TCq1    C7  233   4.497   2.341   2.340 -0.1591 -0.3464 -0.1841
   15TCq1    C8  234   4.654   2.214   2.194 -0.2337  0.0700 -0.4583
   15TCq1    O4  235   0.013   2.123   2.194  0.4161 -0.5853  0.0861
   15TCq1    C9  236   4.373   1.972   2.488  0.6378 -0.4710  0.0558
   15TCq1    O5  237   4.254   1.963   2.533  0.7094  0.4274 -0.2818
   15TCq1    O6  238   4.447   1.870   2.472  0.1465 -0.1097  0.4974
   15TCq1    H1  239   4.235   2.381   2.316  2.4967  1.1597  0.2742
   15TCq1    H2  240   4.271   2.227   2.546  2.1790  1.0353  1.7128
   15TCq1    H3  241   4.583   2.020   2.338  0.2515 -0.1511 -0.0680
   15TCq1    H4  242   4.542   2.438   2.325  2.1353 -1.2271  0.9101
   16MPD2     C  243   4.678   2.446   1.900 -0.0889 -0.1857  0.5846
   16MPD2    C1  244   4.703   2.334   1.978 -0.5816 -0.7247 -0.2482
   16MPD2    C2  245   0.082   2.243   1.944  0.2945  0.5390  0.1255
   16MPD2    C3  246   0.151   2.263   1.824 -0.5277 -0.2374  0.5491
   16MPD2    C4  247   0.134   2.379   1.755 -0.5396  0.3437  0.2505
   16MPD2    C5  248   0.034   2.465   1.792  0.2758  0.7318 -0.2691
   16MPD2     H  249   0.099   2.148   1.994 -0.3145  0.0968 -0.5170
   16MPD2    H1  250   0.191   2.411   1.670  1.1240  1.4889  1.8007
   16MPD2    H2  251   4.602   2.517   1.932  1.3044  2.2542 -1.5644
   16MPD2    H3  252   0.023   2.555   1.734  2.5198  0.9473 -0.3451
   16MPD2     N  253   0.243   2.159   1.780  0.0482 -0.4715 -0.6793
   16MPD2    H5  254   0.261   2.089   1.851 -2.1360  0.4239  0.7369
   16MPD2    N1  255   4.633   2.319   2.103  0.0232  0.1010  0.4618
   16MPD2    H7  256   4.581   2.404   2.124 -0.5649  0.1217 -1.1276
   17TCq1    O1  257   3.813   2.608  10.474  0.3130  0.2863 -1.0261
   17TCq1    C1  258   3.835   2.645  10.610 -0.4908 -0.4728  0.0748
   17TCq1    O2  259   3.768   2.610  10.705 -0.1528  0.1322 -0.5685
   17TCq1    C2  260   3.970   2.691  10.613  0.2596  0.0069  0.8453
   17TCq1    C3  261   4.011   2.758  10.500  0.4320  0.3603 -0.4746
   17TCq1    C4  262   4.141   2.801  10.489  0.6905  0.4081  0.0080
   17TCq1    C5  263   4.224   2.768  10.595  0.0872  1.0219 -0.3825
   17TCq1    C6  264   4.179   2.711  10.706  0.0937 -0.0305 -0.0648
   17TCq1    C7  265   4.049   2.671  10.721  0.4078 -0.0710 -0.5850
   17TCq1    C8  266   4.276   2.668  10.801  0.4833  0.0086 -0.0701
   17TCq1    O4  267   4.226   2.656  10.911  0.5263 -0.2287 -0.0475
   17TCq1    C9  268   4.183   2.888  10.387 -0.0521 -0.8227 -0.1975
   17TCq1    O5  269   4.302   2.917  10.384  0.2088 -0.3796  0.4471
   17TCq1    O6  270   4.112   2.898  10.283  1.0252 -0.1961  0.5783
   17TCq1    H1  271   3.884   2.625  10.409  1.6855 -1.5361 -0.0066
   17TCq1    H2  272   3.940   2.783  10.423  1.1618 -1.5378 -1.7743
   17TCq1    H3  273   4.328   2.797  10.601  0.7330 -0.8386 -2.5945
   17TCq1    H4  274   4.007   2.628  10.811  1.4678  0.6827  0.2600
   18MPD2     C  275   4.467   2.500  10.940 -1.2454  0.0888 -0.1661
   18MPD2    C1  276   4.487   2.542  10.809 -0.4108 -0.1238  0.5885
   18MPD2    C2  277   4.608   2.518  10.746 -0.2019  0.0087  0.0590
   18MPD2    C3  278   4.693   2.437  10.815  0.6212 -0.1000  0.3709
   18MPD2    C4  279   4.677   2.379  10.933 -0.1415  0.0414  0.6877
   18MPD2    C5  280   4.554   2.415  10.998  0.6502 -0.1853  0.3296
   18MPD2     H  281   4.616   2.574  10.653 -0.3025  0.4847  0.3349
   18MPD2    H1  282   0.032   2.325  10.983  0.0787  1.7703  2.2140
   18MPD2    H2  283   4.376   2.517  10.996 -1.6897  1.1584 -1.2022
   18MPD2    H3  284   4.533   2.369  11.094  1.2872 -1.7278 -0.2634
   18MPD2     N  285   0.101   2.434  10.768 -0.2092  1.1438  0.1329
   18MPD2    H5  286   0.164   2.379  10.826  1.4009  1.2295 -1.5149
   18MPD2    N1  287   4.386   2.616  10.745  0.0775  0.2977  0.0495
   18MPD2    H7  288   4.390   2.635  10.645 -1.9091  2.2928  0.3648
   19TMC2    C1  289   1.050   2.714  13.752 -0.1923 -0.4129 -0.0618
   19TMC2    C2  290   1.007   2.795  13.654  0.2180 -0.0058  0.3601
   19TMC2    C3  291   0.872   2.790  13.619 -0.1743 -0.5235  0.0229
   19TMC2    C4  292   0.969   2.620  13.810 -0.4010 -1.0812 -0.5520
   19TMC2    C5  293   0.846   2.603  13.755  0.2913  0.3820 -0.5054
   19TMC2    C6  294   0.791   2.698  13.671 -0.1347 -0.1698 -0.3154
   19TMC2     C  295   1.165   2.757  13.825 -0.0031 -0.1199  0.2176
   19TMC2     O  296   1.257   2.799  13.756 -0.0446 -0.4706  0.0453
   19TMC2     H  297   1.072   2.874  13.619  0.3273  1.6048  4.1715
   19TMC2    H1  298   1.022   2.553  13.877  0.1970  1.2940  1.3667
   19TMC2    H2  299   0.684   2.699  13.652 -0.9484  0.5200  4.2031
   19TMC2    C7  300   0.769   2.484  13.796  0.0482 -0.5259  0.0909
   19TMC2    C8  301   0.816   2.880  13.530 -0.0851 -0.0018 -0.0666
   19TMC2    O1  302   0.666   2.461  13.737 -0.5037 -0.2090 -0.4039
   19TMC2    O2  303   0.704   2.876  13.482 -0.0821 -0.2782  0.0070
   19TMC2    O5  304   0.885   2.997  13.548 -0.0771 -0.5136  0.3151
   19TMC2    H5  305   0.945   2.990  13.625 -1.7740  1.2366  1.8029
   20MPD2     C  306   1.354   2.858  14.029  0.3620  0.1293  0.2564
   20MPD2    C1  307   1.228   2.821  14.056 -0.2112 -0.0914 -0.4885
   20MPD2    C2  308   1.194   2.836  14.191 -0.1073 -0.2464 -0.0634
   20MPD2    C3  309   1.281   2.892  14.286 -0.6592  0.2222 -0.3834
   20MPD2    C4  310   1.406   2.940  14.252 -0.7799 -0.1379  0.0463
   20MPD2    C5  311   1.441   2.915  14.121  0.1985  0.4269  0.2778
   20MPD2     H  312   1.090   2.809  14.210 -0.2342  0.4971  0.2920
   20MPD2    H1  313   1.478   2.981  14.322 -1.6182 -0.8194  1.3173
   20MPD2    H2  314   1.398   2.855  13.930 -0.8939  0.1443 -0.3010
   20MPD2    H3  315   1.541   2.944  14.091  0.6618 -1.2376  0.1769
   20MPD2     N  316   1.239   2.912  14.416 -0.0407 -0.3136  0.5283
   20MPD2    H5  317   1.291   2.977  14.473  0.4725  1.3407 -1.8055
   20MPD2    N1  318   1.138   2.767  13.958 -0.3779  0.4660  0.6173
   20MPD2    H7  319   1.041   2.761  13.986 -1.0654 -2.2909 -2.3933
   21MPD2     C  320   3.328   3.965  14.115 -0.4365 -0.5010  0.5704
   21MPD2    C1  321   3.414   3.863  14.156 -0.0400  0.3243  0.1891
   21MPD2    C2  322   3.360   3.755  14.221  0.9081 -0.5963  0.0985
   21MPD2    C3  323   3.228   3.746  14.253 -0.3380  0.6488 -0.0590
   21MPD2    C4  324   3.140   3.844  14.202 -1.1481 -0.6576 -0.5029
   21MPD2    C5  325   3.193   3.953  14.138 -0.2635 -0.2330  0.4290
   21MPD2     H  326   3.433   3.679  14.247  2.0933  0.3148 -0.5646
   21MPD2    H1  327   3.034   3.839  14.227 -0.5412  1.4417  2.4670
   21MPD2    H2  328   3.367   4.046  14.055 -2.8980 -1.4581 -2.3495
   21MPD2    H3  329   3.134   4.038  14.105  2.0574  1.7506  1.3326
   21MPD2     N  330   3.177   3.641  14.326 -0.5185 -0.8481  0.4524
   21MPD2    H5  331   3.076   3.637  14.322 -0.4250 -0.1716 -2.1276
   21MPD2    N1  332   3.550   3.863  14.123 -0.0637  0.4164 -0.2230
   21MPD2    H7  333   3.604   3.792  14.171  1.2497  0.3271 -1.8418
   22TCq2    C1  334   3.257   3.541  14.387 -0.0474  0.9049 -0.4955
   22TCq2    O2  335   3.374   3.510  14.372 -0.3735 -0.1505  0.0222
   22TCq2    C2  336   3.185   3.439  14.460  0.5216 -0.5409 -0.4133
   22TCq2    C3  337   3.259   3.337  14.518 -0.3384 -0.2717  0.7681
   22TCq2    C4  338   3.199   3.261  14.611 -0.1499 -0.0124 -0.2966
   22TCq2    C5  339   3.068   3.272  14.643 -0.1833  0.8313  0.3627
   22TCq2    C6  340   3.000   3.382  14.589 -0.2642  0.4351  0.5827
   22TCq2    C7  341   3.055   3.461  14.488  0.6281 -0.4182 -0.7236
   22TCq2    C8  342   2.882   3.430  14.667 -0.7632 -0.3040  0.0678
   22TCq2    O4  343   2.869   3.389  14.782  0.2098  0.1012  0.4807
   22TCq2    C9  344   3.274   3.151  14.670  0.4963 -0.5723  0.2802
   22TCq2    O5  345   3.230   3.076  14.761 -0.0279 -0.4647  0.4421
   22TCq2    O6  346   3.397   3.153  14.650 -0.0206 -0.1116 -0.0623
   22TCq2    H2  347   3.367   3.330  14.506 -0.1435  2.0848  1.1342
   22TCq2    H3  348   3.036   3.236  14.740  2.1901 -0.3087  0.7037
   22TCq2    H4  349   2.998   3.547  14.455  0.0598 -0.4515  0.1843
   23MPD2     C  350   4.661   4.254  14.799 -0.1206 -0.6853 -0.3283
   23MPD2    C1  351   4.686   4.345  14.901 -0.3668 -0.2853 -0.2895
   23MPD2    C2  352   4.643   4.474  14.890  0.2553 -0.0112  0.0183
   23MPD2    C3  353   4.598   4.518  14.764  0.4947  0.1088  0.4508
   23MPD2    C4  354   4.592   4.433  14.660 -0.5161  0.4585  0.3265
   23MPD2    C5  355   4.620   4.304  14.681  0.2595  0.2953  0.4612
   23MPD2     H  356   4.657   4.553  14.963 -0.1680  0.9584 -0.9555
   23MPD2    H1  357   4.555   4.453  14.560  3.1022  2.4728 -0.6378
   23MPD2    H2  358   4.683   4.149  14.812 -1.4990 -0.7744  1.1953
   23MPD2    H3  359   4.596   4.237  14.599  1.1248  0.2160  0.2805
   23MPD2     N  360   4.549   4.652  14.738 -0.6794  0.2071 -0.3278
   23MPD2    H5  361   4.510   4.666  14.645  0.1612 -1.2715 -0.9040
   23MPD2    N1  362   0.003   4.299  15.030 -0.3060  0.0284 -0.2184
   23MPD2    H7  363   4.698   4.347  15.114  0.4245  1.2182 -0.6459
   24TCq2    C1  364   4.559   0.037  14.821 -0.9293  0.0928 -0.5585
   24TCq2    O2  365   4.627   0.052  14.926 -0.5475 -0.1994 -0.0561
   24TCq2    C2  366   4.491   0.151  14.756 -0.1004  0.0163 -0.2743
   24TCq2    C3  367   4.540   0.271  14.772 -0.1249  0.2399 -0.5183
   24TCq2    C4  368   4.510   0.362  14.680 -0.4309  0.1173 -0.0161
   24TCq2    C5  369   4.399   0.341  14.603 -0.2324  0.5975  0.3798
   24TCq2    C6  370   4.350   0.218  14.585 -0.1162 -0.0635 -0.5472
   24TCq2    C7  371   4.382   0.120  14.671  0.2029 -0.2658 -0.5491
   24TCq2    C8  372   4.246   0.193  14.489 -0.2964 -0.4183 -0.2434
   24TCq2    O4  373   4.168   0.278  14.450 -0.1013  0.0388 -0.2531
   24TCq2    C9  374   4.564   0.499  14.690  0.4519 -0.2603  0.3948
   24TCq2    O5  375   4.644   0.516  14.789 -0.0403  0.0255  0.3948
   24TCq2    O6  376   4.516   0.585  14.614  0.0465  0.1393  0.5620
   24TCq2    H2  377   4.623   0.286  14.840 -2.1789 -3.9831  2.9624
   24TCq2    H3  378   4.367   0.425  14.542 -1.8807 -0.3393 -0.0547
   24TCq2    H4  379   4.343   0.020  14.666 -0.4106 -0.0937  0.9431
   25TMC2    C1  380   4.170   1.769  11.352  0.2375 -0.4887  0.0663
   25TMC2    C2  381   4.273   1.793  11.436 -0.0504  0.2260  0.1240
   25TMC2    C3  382   4.248   1.862  11.554  0.7818 -0.7232 -0.1559
   25TMC2    C4  383   4.039   1.806  11.378  0.6792  0.5123  0.2860
   25TMC2    C5  384   4.015   1.868  11.496 -0.4394 -1.0072 -0.4477
   25TMC2    C6  385   4.117   1.889  11.588  0.1063 -0.0025 -0.1140
   25TMC2     C  386   4.201   1.690  11.238  0.0586 -1.2689  0.1643
   25TMC2     O  387   4.307   1.712  11.182  0.1655 -0.0153  0.4760
   25TMC2     H  388   4.370   1.756  11.405  0.7518  2.2833  0.2369
   25TMC2    H1  389   3.960   1.780  11.310  0.4407 -0.5212  0.9645
   25TMC2    H2  390   4.098   1.936  11.684  1.3503 -3.3056  1.7390
   25TMC2    C7  391   3.883   1.895  11.546 -0.3165 -0.0868 -0.9354
   25TMC2    C8  392   4.348   1.850  11.657  0.3772  0.1912  0.0513
   25TMC2    O1  393   3.877   1.919  11.667  0.1060  0.4598  0.0197
   25TMC2    O2  394   4.321   1.830  11.772  0.1034  0.2433 -0.4971
   25TMC2    O5  395   4.472   1.841  11.610 -0.0249 -0.3547  0.8241
   25TMC2    H5  396   4.493   1.892  11.528 -1.5641 -2.1931 -0.7292
   26MPD2     C  397   4.152   1.282  10.945  0.2494  0.1987  0.4467
   26MPD2    C1  398   4.033   1.303  11.003  0.6844 -0.2741 -0.7891
   26MPD2    C2  399   4.014   1.404  11.093  0.2789  0.1697  0.4792
   26MPD2    C3  400   4.114   1.496  11.107  0.0420  0.6143  0.1888
   26MPD2    C4  401   4.232   1.478  11.032 -0.9488  0.6518 -1.0008
   26MPD2    C5  402   4.259   1.365  10.960 -0.1962 -0.9800 -0.0242
   26MPD2     H  403   3.915   1.402  11.138  0.4993  0.3999  0.9712
   26MPD2    H1  404   4.312   1.552  11.027 -0.9915  0.7824  0.1295
   26MPD2    H2  405   4.173   1.187  10.898  0.8526  0.4054  0.3035
   26MPD2    H3  406   4.349   1.359  10.900 -0.4919 -2.5614 -0.3154
   26MPD2     N  407   4.104   1.599  11.205  0.0498 -0.0963  0.7556
   26MPD2    H5  408   4.018   1.592  11.259 -0.2855  0.8399  0.3551
   26MPD2    N1  409   3.936   1.208  10.974  0.2758  0.3032 -0.0125
   26MPD2    H7  410   3.973   1.129  10.920 -0.0478 -1.6261  2.5982
   27TMC2    C1  411   2.719   4.052  11.884  0.5302 -0.2099  0.0903
   27TMC2    C2  412   2.855   4.054  11.863 -0.0731 -0.8603 -0.2418
   27TMC2    C3  413   2.924   4.170  11.894  0.3331 -0.4061  0.9272
   27TMC2    C4  414   2.651   4.165  11.922  0.2592 -0.5027  0.3238
   27TMC2    C5  415   2.724   4.278  11.954  0.4858 -0.2286  0.1922
   27TMC2    C6  416   2.862   4.277  11.950  0.1347 -0.1855  0.0871
   27TMC2     C  417   2.670   3.934  11.951  0.2814  0.1272 -0.1956
   27TMC2     O  418   2.729   3.831  11.927 -0.2024  0.0046  0.0154
   27TMC2     H  419   2.897   3.963  11.823  0.0903 -0.3820 -1.1447
   27TMC2    H1  420   2.545   4.167  11.899  0.4151  2.0002 -0.2050
   27TMC2    H2  421   2.920   4.364  11.976 -0.4546  0.1135  0.4033
   27TMC2    C7  422   2.671   4.322  12.077 -0.6539  0.1425  0.8659
   27TMC2    C8  423   3.060   4.180  11.842  0.1309  0.6292  0.4949
   27TMC2    O1  424   2.567   4.271  12.111 -0.4569 -0.1445 -0.1641
   27TMC2    O2  425   3.147   4.263  11.872 -0.2179 -0.0743  0.0416
   27TMC2    O5  426   3.081   4.075  11.749 -0.0314  0.2307  0.0660
   27TMC2    H5  427   2.993   4.051  11.713  0.3730 -3.3506  1.3893
   28MPD2     C  428   2.371   3.752  12.329 -0.5225 -0.3438 -0.1424
   28MPD2    C1  429   2.355   3.890  12.319  0.1402  0.4609  0.7330
   28MPD2    C2  430   2.423   3.958  12.217 -0.4925  0.6035  0.1615
   28MPD2    C3  431   2.505   3.893  12.133  0.1754  0.2399 -0.6452
   28MPD2    C4  432   2.517   3.756  12.138 -0.1681  0.0537 -0.2474
   28MPD2    C5  433   2.442   3.683  12.232 -0.8044 -0.1364  0.1631
   28MPD2     H  434   2.413   4.065  12.206 -0.1609  0.4002 -1.9729
   28MPD2    H1  435   2.578   3.704  12.065  0.6748 -0.0243  0.5086
   28MPD2    H2  436   2.311   3.697  12.400  1.3867  0.1507  1.8690
   28MPD2    H3  437   2.446   3.575  12.236 -3.4286 -0.3485 -3.1188
   28MPD2     N  438   2.573   3.970  12.037  1.0649 -0.3357  0.4171
   28MPD2    H5  439   2.551   4.068  12.052 -0.4519 -0.4238 -1.2822
   28MPD2    N1  440   2.264   3.952  12.410 -0.3279  0.4452  0.5032
   28MPD2    H7  441   2.215   3.885  12.467  0.5490 -1.4569 -0.9696
   29MPD2     C  442   1.569   1.505  14.012 -0.2772  0.6514 -0.1688
   29MPD2    C1  443   1.651   1.468  14.117 -0.0703 -0.2144 -0.4031
   29MPD2    C2  444   1.709   1.568  14.201  0.6219  1.0161  0.5020
   29MPD2    C3  445   1.679   1.698  14.174  0.6136  0.3526 -0.7826
   29MPD2    C4  446   1.595   1.734  14.069  0.3160  0.3400 -0.1142
   29MPD2    C5  447   1.537   1.634  13.998 -0.2401  0.2222  0.0477
   29MPD2     H  448   1.779   1.539  14.279 -0.5043 -0.7961  0.8389
   29MPD2    H1  449   1.573   1.839  14.050  0.1687  0.5075  0.9681
   29MPD2    H2  450   1.529   1.432  13.944  0.9951  1.0963 -1.3922
   29MPD2    H3  451   1.463   1.660  13.923  1.1178  0.6315 -1.1547
   29MPD2     N  452   1.728   1.812  14.246 -0.2625 -0.5900 -0.3956
   29MPD2    H5  453   1.709   1.903  14.204  1.1524 -0.7891 -1.4687
   29MPD2    N1  454   1.691   1.337  14.146 -0.3327  0.1074 -0.1190
   29MPD2    H7  455   1.768   1.326  14.211  1.0791 -0.7224 -1.9180
   30TCq2    C1  456   1.800   1.806  14.365 -0.0147 -0.0750 -0.3042
   30TCq2    O2  457   1.805   1.723  14.450  0.1410 -0.4166  0.0189
   30TCq2    C2  458   1.845   1.943  14.410 -0.3043  0.3328 -0.7343
   30TCq2    C3  459   1.866   1.970  14.542 -0.3608  0.8708  0.0137
   30TCq2    C4  460   1.932   2.083  14.575  0.1452 -0.4833 -0.1003
   30TCq2    C5  461   1.988   2.161  14.477 -0.1795  0.2443 -0.0005
   30TCq2    C6  462   1.978   2.125  14.348  0.7102 -0.4921  0.8072
   30TCq2    C7  463   1.907   2.012  14.308  0.1571  0.4591 -1.2895
   30TCq2    C8  464   2.070   2.177  14.246 -1.2939 -0.3627 -0.3879
   30TCq2    O4  465   2.094   2.097  14.155 -0.7160 -0.0201  1.0139
   30TCq2    C9  466   1.956   2.111  14.713  0.0077 -0.2770  0.0025
   30TCq2    O5  467   2.027   2.208  14.741 -0.5547  0.5153  0.8060
   30TCq2    O6  468   1.877   2.058  14.792 -0.1526  0.2906  0.3339
   30TCq2    H2  469   1.833   1.900  14.617 -2.0211 -0.0845 -1.6127
   30TCq2    H3  470   2.062   2.230  14.517 -1.6619  0.8493  1.7135
   30TCq2    H4  471   1.909   1.972  14.207 -1.5319 -2.0547 -0.3263
   31MPD2     C  472   4.490   1.050  14.908  0.1579  0.3341 -0.0070
   31MPD2    C1  473   4.417   1.017  14.793  0.1014  0.0374  0.2647
   31MPD2    C2  474   4.360   0.890  14.791  1.2878 -0.3337 -0.1675
   31MPD2    C3  475   4.359   0.808  14.904  0.1221  0.3831  0.3035
   31MPD2    C4  476   4.421   0.855  15.017 -0.9296 -0.5496  0.5771
   31MPD2    C5  477   4.485   0.973  15.016 -1.1000  0.0678  0.2245
   31MPD2     H  478   4.293   0.871  14.708  2.9112 -1.1364 -1.2961
   31MPD2    H1  479   4.441   0.809  15.113  0.9258  2.0056  1.4073
   31MPD2    H2  480   4.549   1.141  14.913  0.1166  0.5498 -3.2064
   31MPD2    H3  481   4.536   0.999  15.108  0.0306  2.6614 -1.1703
   31MPD2     N  482   4.306   0.678  14.915  0.6602  0.2747  0.3227
   31MPD2    H5  483   4.308   0.638  15.008 -0.0175  1.0535  0.6755
   31MPD2    N1  484   4.402   1.113  14.687  0.0469  0.5046  0.3495
   31MPD2    H7  485   4.458   1.193  14.713  2.0039 -0.7710  0.0864
   32TCq2    C1  486   4.250   0.610  14.808 -0.0945  0.6404 -0.8274
   32TCq2    O2  487   4.225   0.652  14.697 -0.0324  0.6711  0.0967
   32TCq2    C2  488   4.178   0.483  14.841 -0.1145  0.2395  0.3265
   32TCq2    C3  489   4.084   0.434  14.756 -0.0247 -0.4456  0.0511
   32TCq2    C4  490   4.023   0.320  14.796 -1.2906 -0.1899 -0.8900
   32TCq2    C5  491   4.045   0.258  14.921  0.6321 -0.1548  0.0552
   32TCq2    C6  492   4.164   0.293  14.979 -0.1978  0.2957 -0.0320
   32TCq2    C7  493   4.222   0.410  14.942 -0.2161 -1.1416  0.1631
   32TCq2    C8  494   4.191   0.236  15.110  0.4397 -0.0828 -0.5480
   32TCq2    O4  495   4.310   0.225  15.142 -0.1716 -0.4040 -0.1504
   32TCq2    C9  496   3.917   0.255  14.722 -0.2147  0.2437 -0.0662
   32TCq2    O5  497   3.844   0.178  14.784 -0.6543  0.1063  0.4052
   32TCq2    O6  498   3.887   0.297  14.605 -0.4207 -0.0219 -0.8074
   32TCq2    H2  499   4.063   0.480  14.659  2.3054 -2.3616 -1.3545
   32TCq2    H3  500   4.003   0.160  14.937  0.4835  0.1287  1.4408
   32TCq2    H4  501   4.309   0.438  15.001 -0.7783 -0.7427  0.7968
   33MPD2     C  502   0.801   2.789  10.253  0.3751  0.4569 -0.1672
   33MPD2    C1  503   0.668   2.762  10.262 -0.0714  0.7341  0.1641
   33MPD2    C2  504   0.578   2.801  10.161  0.2133 -0.1720  0.2125
   33MPD2    C3  505   0.621   2.871  10.053  0.5514 -0.3790  0.8651
   33MPD2    C4  506   0.755   2.895  10.047 -0.4336  0.0012  0.1270
   33MPD2    C5  507   0.843   2.854  10.141 -0.3431 -0.1493 -0.1835
   33MPD2     H  508   0.470   2.790  10.170  0.0472  2.4146  1.3378
   33MPD2    H1  509   0.790   2.951   9.962  0.2429 -0.1886  0.2837
   33MPD2    H2  510   0.874   2.754  10.325 -0.6825  2.9567  2.1357
   33MPD2    H3  511   0.950   2.869  10.136 -0.3018 -0.4267 -0.1393
   33MPD2     N  512   0.542   2.930   9.954  0.1367  0.2161 -0.1770
   33MPD2    H5  513   0.577   3.009   9.902 -1.9089  0.2340 -1.5420
   33MPD2    N1  514   0.627   2.691  10.379 -0.1659 -0.0497 -0.1875
   33MPD2    H7  515   0.703   2.649  10.430  0.8531  0.4325 -1.3261
   34TCq2    C1  516   0.415   2.869   9.931  0.2736  0.3034  0.3074
   34TCq2    O2  517   0.378   2.760   9.972  0.4795 -0.2175  0.5941
   34TCq2    C2  518   0.328   2.939   9.835 -0.2638  0.1218  0.4753
   34TCq2    C3  519   0.209   2.876   9.796 -0.2451 -0.4573 -0.5110
   34TCq2    C4  520   0.113   2.958   9.731 -0.0832  0.0098 -0.2243
   34TCq2    C5  521   0.137   3.099   9.709 -0.3105  0.1877  0.8160
   34TCq2    C6  522   0.261   3.146   9.747  0.3155 -0.5802  0.4166
   34TCq2    C7  523   0.359   3.067   9.801  0.8761  0.1833  0.1599
   34TCq2    C8  524   0.303   3.272   9.691 -0.8473  0.3488 -0.6231
   34TCq2    O4  525   0.423   3.291   9.692 -0.4541  0.0485 -0.1093
   34TCq2    C9  526   4.714   2.898   9.697 -0.4026  0.2391 -0.7971
   34TCq2    O5  527   4.712   2.773   9.705 -0.2113  0.1785 -0.0853
   34TCq2    O6  528   4.617   2.967   9.659 -0.1811 -0.0972 -0.0277
   34TCq2    H2  529   0.189   2.771   9.813 -3.5109 -0.0656 -2.0699
   34TCq2    H3  530   0.057   3.157   9.664 -0.0409 -1.7760 -2.1968
   34TCq2    H4  531   0.449   3.116   9.838  0.8275  0.8740 -0.6460
   35MPD2     C  532   1.993   0.123  11.727  0.4861  0.3695 -0.2299
   35MPD2    C1  533   1.931   0.001  11.739  0.6747 -0.2935  0.5032
   35MPD2    C2  534   1.837   4.681  11.647 -0.3054  0.0154 -0.3515
   35MPD2    C3  535   1.810   0.045  11.540 -0.0006  0.3864 -0.2678
   35MPD2    C4  536   1.879   0.159  11.519  0.4856  0.8186 -0.9131
   35MPD2    C5  537   1.963   0.200  11.617 -0.2933  0.3427 -0.6337
   35MPD2     H  538   1.785   4.586  11.659  0.0336 -0.3406 -1.7367
   35MPD2    H1  539   1.858   0.217  11.429  0.1313  1.9537 -0.1082
   35MPD2    H2  540   2.071   0.159  11.794  0.4733  1.6939 -0.9410
   35MPD2    H3  541   2.007   0.299  11.612  0.2184  0.3164  3.0388
   35MPD2     N  542   1.719   0.008  11.430  0.2116  0.2652  0.0043
   35MPD2    H5  543   1.712   0.071  11.351  0.2849 -1.7456 -1.6345
   35MPD2    N1  544   1.972   4.647  11.847 -0.3184  0.0727 -1.0917
   35MPD2    H7  545   2.035   4.694  11.911 -1.8616  0.2210  0.2902
   36TCq2    C1  546   1.640   4.621  11.424 -0.0378  0.5556  0.8955
   36TCq2    O2  547   1.604   4.538  11.509  0.0016  0.4703 -0.6790
   36TCq2    C2  548   1.582   4.603  11.294  0.0831  0.6571 -0.1573
   36TCq2    C3  549   1.619   4.677  11.182  0.2533  0.1145 -0.7324
   36TCq2    C4  550   1.544   4.660  11.072  0.1123  0.0518  0.1151
   36TCq2    C5  551   1.456   4.550  11.054 -0.0361 -0.5727 -0.0123
   36TCq2    C6  552   1.435   4.478  11.162 -0.4115 -0.5071 -0.6546
   36TCq2    C7  553   1.493   4.499  11.287 -0.6288 -0.0215  0.0031
   36TCq2    C8  554   1.420   4.331  11.139  0.0083  0.5407  0.4174
   36TCq2    O4  555   1.358   4.290  11.041  0.2028 -0.5585 -0.1974
   36TCq2    C9  556   1.565   0.032  10.964  0.7075 -0.3362 -0.2823
   36TCq2    O5  557   1.650   0.125  10.978  0.5411 -0.1325 -0.3080
   36TCq2    O6  558   1.497   0.018  10.860 -0.0750 -0.1461  0.4355
   36TCq2    H2  559   1.694   0.031  11.185  1.0949 -0.6807 -1.3332
   36TCq2    H3  560   1.400   4.535  10.962 -4.2562  3.0795  1.9678
   36TCq2    H4  561   1.443   4.473  11.380 -2.2633  0.8022 -0.6598
   37TMC2    C1  562   4.112   3.545  11.734  0.0851 -0.0457  0.3888
   37TMC2    C2  563   4.180   3.425  11.728  0.5004 -0.1120 -0.3730
   37TMC2    C3  564   4.318   3.436  11.711 -1.0757  0.1670  0.1488
   37TMC2    C4  565   4.165   3.663  11.705  0.5389 -0.1997 -0.4004
   37TMC2    C5  566   4.294   3.664  11.667 -0.4861  0.0579 -0.0552
   37TMC2    C6  567   4.377   3.555  11.677  0.1267  0.5297  0.3748
   37TMC2     C  568   3.972   3.542  11.755 -0.3405  0.0904  0.4850
   37TMC2     O  569   3.914   3.432  11.763  0.3378  0.4807  0.0057
   37TMC2     H  570   4.131   3.329  11.725  0.0798  0.1381 -1.6311
   37TMC2    H1  571   4.112   3.758  11.696  3.3254  1.4161  0.1651
   37TMC2    H2  572   4.485   3.560  11.679  0.0838  1.2850  0.9860
   37TMC2    C7  573   4.347   3.796  11.642 -0.0516 -0.2211 -0.1531
   37TMC2    C8  574   4.388   3.325  11.652 -0.6768 -0.8203 -0.3524
   37TMC2    O1  575   4.288   3.892  11.689 -0.5026 -0.0126  0.2717
   37TMC2    O2  576   4.459   3.344  11.557  0.0212 -0.0684 -0.2832
   37TMC2    O5  577   4.366   3.209  11.706  0.7008  0.2115 -0.7823
   37TMC2    H5  578   4.324   3.216  11.794  1.4463  1.3758 -0.5252
   38MPD2     C  579   3.573   3.777  11.970 -0.5687  0.0677 -0.4176
   38MPD2    C1  580   3.685   3.856  11.981 -0.5820  0.3686 -0.0303
   38MPD2    C2  581   3.804   3.813  11.929 -0.1988 -0.8493  0.0972
   38MPD2    C3  582   3.807   3.688  11.865 -0.4319  0.8053 -0.8804
   38MPD2    C4  583   3.691   3.619  11.834  0.2199 -0.1614 -0.1423
   38MPD2    C5  584   3.574   3.664  11.900  0.8499  0.1040  0.4552
   38MPD2     H  585   3.894   3.872  11.918 -1.7603  1.5952  0.2497
   38MPD2    H1  586   3.690   3.520  11.789  2.3893  0.9042 -2.5241
   38MPD2    H2  587   3.478   3.804  12.014  0.2162  0.3202  1.1194
   38MPD2    H3  588   3.480   3.612  11.890 -0.1674  1.9462  0.5530
   38MPD2     N  589   3.935   3.656  11.819  0.0654  0.7380 -1.0905
   38MPD2    H5  590   4.010   3.725  11.829  0.5393 -0.1120  1.2319
   38MPD2    N1  591   3.691   3.985  12.044  0.1972  0.1380 -0.1559
   38MPD2    H7  592   3.776   4.038  12.037  0.1432  0.4764  1.6331
   39MPD2     C  593   1.240   1.313   1.485  0.4820  0.1886  0.0478
   39MPD2    C1  594   1.169   1.363   1.585  0.1228  0.0129  0.6680
   39MPD2    C2  595   1.030   1.371   1.577  0.5581  0.3261  0.1663
   39MPD2    C3  596   0.970   1.329   1.454  0.1336 -0.3449  1.0348
   39MPD2    C4  597   1.049   1.266   1.358  0.2064 -0.4349 -0.3105
   39MPD2    C5  598   1.181   1.262   1.370  0.2353  0.4108  0.4534
   39MPD2     H  599   0.967   1.424   1.646  0.9190  0.9645  0.0007
   39MPD2    H1  600   1.002   1.235   1.266  1.8992  0.4540 -1.4619
   39MPD2    H2  601   1.347   1.328   1.494  0.6112  0.4936 -2.2145
   39MPD2    H3  602   1.240   1.220   1.290 -1.3395 -1.9237  0.5420
   39MPD2     N  603   0.837   1.347   1.426  0.0678  0.0423  0.1024
   39MPD2    H5  604   0.816   1.301   1.338  2.1464 -2.5613  0.9484
   39MPD2    N1  605   1.236   1.427   1.694 -0.2855 -0.2434  0.2472
   39MPD2    H7  606   1.337   1.424   1.678  0.2550 -0.1050  3.7908
   40TCq2    C1  607   1.174   1.471   1.815 -0.0503 -0.2509 -0.0579
   40TCq2    O2  608   1.061   1.457   1.851  0.7307  1.2698  0.3439
   40TCq2    C2  609   1.263   1.538   1.905 -0.6829  0.6035  0.0120
   40TCq2    C3  610   1.216   1.598   2.014 -0.7100  0.1544 -0.7994
   40TCq2    C4  611   1.296   1.671   2.104 -0.3681  0.2016 -1.2951
   40TCq2    C5  612   1.428   1.690   2.080  0.2491 -0.9669  0.3769
   40TCq2    C6  613   1.468   1.631   1.964 -0.4830 -0.8762 -0.2999
   40TCq2    C7  614   1.396   1.555   1.878 -0.4304 -0.0523 -0.0363
   40TCq2    C8  615   1.601   1.667   1.934 -0.0029  0.8521  0.3284
   40TCq2    O4  616   1.683   1.638   2.023 -0.3819  0.2586 -0.3948
   40TCq2    C9  617   1.242   1.715   2.229 -0.2566 -0.2782  0.0423
   40TCq2    O5  618   1.321   1.773   2.307 -0.5886  0.4632  0.0062
   40TCq2    O6  619   1.139   1.656   2.269 -0.3752  0.7436 -0.7466
   40TCq2    H2  620   1.113   1.583   2.047 -0.8758  0.7194 -1.0655
   40TCq2    H3  621   1.488   1.753   2.144 -1.1633  2.0251 -1.2317
   40TCq2    H4  622   1.435   1.532   1.780  0.4024  1.1116  0.0310
   41TMC2    C1  623   0.802   4.706  14.344  0.2508  0.9689 -0.0090
   41TMC2    C2  624   0.744   0.098  14.307  0.2926 -0.2254 -0.3314
   41TMC2    C3  625   0.780   0.153  14.184 -0.4906  0.4694 -0.0905
   41TMC2    C4  626   0.891   4.638  14.265 -0.5537  0.0619 -0.3659
   41TMC2    C5  627   0.922   4.694  14.144 -0.1542  0.2660  0.6065
   41TMC2    C6  628   0.877   0.096  14.107 -0.5464  0.4581 -0.1690
   41TMC2     C  629   0.755   4.642  14.466 -0.8639  0.3437 -0.2111
   41TMC2     O  630   0.770   4.521  14.469 -0.4023  0.1611 -0.2690
   41TMC2     H  631   0.655   0.138  14.354 -1.1672 -1.4015 -2.0470
   41TMC2    H1  632   0.923   4.539  14.296 -0.1920  0.5422  0.8093
   41TMC2    H2  633   0.912   0.146  14.017  0.9384 -1.1415 -0.4841
   41TMC2    C7  634   0.983   4.604  14.045 -0.4604  0.1712 -0.0458
   41TMC2    C8  635   0.747   0.285  14.161  0.4722 -0.0678 -0.1735
   41TMC2    O1  636   0.994   4.482  14.070 -0.3238  0.2794  0.3776
   41TMC2    O2  637   0.727   0.364  14.254 -0.1766  0.0533  0.1756
   41TMC2    O5  638   0.705   0.309  14.040 -0.5224 -0.0084  0.3784
   41TMC2    H5  639   0.726   0.239  13.974  0.1004  1.1155 -0.6092
   42MPD2     C  640   0.691   4.559  14.746  0.2052  0.0204 -0.3352
   42MPD2    C1  641   0.679   4.689  14.699  0.2543  0.3554  0.2308
   42MPD2    C2  642   0.623   0.062  14.783 -0.0919  0.6980  0.1232
   42MPD2    C3  643   0.584   0.029  14.910  0.5576 -0.4838 -0.5127
   42MPD2    C4  644   0.588   4.621  14.950  0.0397  0.3072  0.5436
   42MPD2    C5  645   0.640   4.522  14.867 -0.5542  0.6557  0.9612
   42MPD2     H  646   0.612   0.163  14.746  0.1505  0.6414 -0.1084
   42MPD2    H1  647   0.548   4.602  15.049 -1.0051  0.5910  0.1727
   42MPD2    H2  648   0.731   4.478  14.686  1.5710  0.7332 -0.3860
   42MPD2    H3  649   0.663   4.423  14.903  0.6269  0.2948 -0.7973
   42MPD2     N  650   0.538   0.124  15.007 -0.2781  0.1712 -0.4581
   42MPD2    H5  651   0.503   0.079  15.091 -1.1792  0.8450 -0.4610
   42MPD2    N1  652   0.712   0.004  14.565 -0.3615  0.2920  0.4251
   42MPD2    H7  653   0.718   0.102  14.538 -0.0582  0.1032 -0.1984
   43MPD2     C  654   1.740   2.767   0.711 -0.0418  0.5477 -0.6943
   43MPD2    C1  655   1.723   2.662   0.800 -0.0547 -0.5538  0.0913
   43MPD2    C2  656   1.658   2.685   0.919 -0.3697 -0.4257 -0.2068
   43MPD2    C3  657   1.615   2.807   0.955  0.4181  0.0207  0.1561
   43MPD2    C4  658   1.643   2.910   0.868 -0.4447  0.3437  0.3152
   43MPD2    C5  659   1.696   2.892   0.743  0.5564  0.2467  0.3631
   43MPD2     H  660   1.651   2.594   0.978 -0.2394 -1.6238 -2.0303
   43MPD2    H1  661   1.611   3.011   0.895  0.2235  0.7706 -0.4904
   43MPD2    H2  662   1.786   2.759   0.613 -1.4937 -0.2299 -1.3020
   43MPD2    H3  663   1.709   2.970   0.670 -0.6344  0.8119  0.7518
   43MPD2     N  664   1.545   2.838   1.071 -0.0542  0.4513  0.5524
   43MPD2    H5  665   1.541   2.936   1.096  2.3411  0.5572  0.5032
   43MPD2    N1  666   1.758   2.528   0.773  0.0583  0.4414  0.2251
   43MPD2    H7  667   1.738   2.465   0.850  1.7711 -0.5448 -0.1364
   44TCq2    C1  668   1.154   2.707   1.485 -0.5059  0.4303 -0.5954
   44TCq2    O2  669   1.177   2.588   1.466  0.3070  0.0241  0.2672
   44TCq2    C2  670   1.243   2.794   1.414  0.1004  0.0338  0.1063
   44TCq2    C3  671   1.219   2.931   1.412 -0.6293  0.1343 -0.1559
   44TCq2    C4  672   1.302   3.003   1.338  0.7070 -0.7821  0.1443
   44TCq2    C5  673   1.403   2.946   1.265  0.6351 -0.5344  0.3383
   44TCq2    C6  674   1.412   2.811   1.260  0.3491 -0.0974  0.4040
   44TCq2    C7  675   1.337   2.732   1.342 -0.2799  0.8760  0.3817
   44TCq2    C8  676   1.494   2.749   1.161 -0.5357  0.1906 -0.4777
   44TCq2    O4  677   1.498   2.626   1.145  0.2263 -0.2088 -0.1817
   44TCq2    C9  678   1.288   3.146   1.348 -1.0215 -1.3095  0.5392
   44TCq2    O5  679   1.368   3.217   1.282 -0.2724  0.0462  1.0203
   44TCq2    O6  680   1.199   3.192   1.416  0.3211 -0.3966  0.3639
   44TCq2    H2  681   1.139   2.986   1.458 -1.2858 -1.8075  0.9976
   44TCq2    H3  682   1.475   3.008   1.212 -1.4611  0.2159 -1.6209
   44TCq2    H4  683   1.347   2.625   1.327  3.1879  1.4179 -0.9488
   45TMC2    C1  684   3.088   4.256   9.333 -0.1148 -0.1613 -0.2918
   45TMC2    C2  685   3.092   4.255   9.196  0.1441 -0.2193 -0.2207
   45TMC2    C3  686   3.184   4.334   9.133  0.3781  0.4345 -0.4179
   45TMC2    C4  687   3.172   4.331   9.413  0.0977 -0.4206 -0.1426
   45TMC2    C5  688   3.273   4.396   9.345 -0.4713 -0.3573 -0.6710
   45TMC2    C6  689   3.272   4.406   9.206  0.9311 -0.2701 -0.4937
   45TMC2     C  690   3.030   4.141   9.395 -0.3269  0.4874  0.1716
   45TMC2     O  691   3.080   4.103   9.506 -0.2879 -0.5001  0.2193
   45TMC2     H  692   3.021   4.200   9.135 -0.7059  1.1217 -0.4621
   45TMC2    H1  693   3.172   4.323   9.521  0.6144  0.4539 -0.0803
   45TMC2    H2  694   3.347   4.473   9.164  1.6555 -1.3868 -0.9822
   45TMC2    C7  695   3.377   4.457   9.429  0.6849 -0.3699 -0.0113
   45TMC2    C8  696   3.208   4.295   8.995 -0.1148  0.2603  0.5477
   45TMC2    O1  697   3.344   4.482   9.546  0.3386 -0.2434 -0.2040
   45TMC2    O2  698   3.167   4.194   8.943  0.3454 -0.1402  0.0444
   45TMC2    O5  699   3.274   4.394   8.933  0.2698  0.1083  0.0196
   45TMC2    H5  700   3.280   4.469   8.995  1.4021 -1.0301  1.2757
   46MPD2     C  701   2.860   3.902   9.470  0.7150 -0.4784  0.0951
   46MPD2    C1  702   2.821   3.995   9.377 -0.3351 -0.6112 -0.3149
   46MPD2    C2  703   2.695   3.985   9.325 -0.4499  0.2207  0.4268
   46MPD2    C3  704   2.607   3.887   9.367  0.6106  0.0269 -0.1616
   46MPD2    C4  705   2.651   3.797   9.456  0.1528  0.4984  0.4092
   46MPD2    C5  706   2.780   3.796   9.491 -0.8134  0.1942 -0.4836
   46MPD2     H  707   2.665   4.060   9.252  0.2720  0.5090  0.4246
   46MPD2    H1  708   2.587   3.725   9.507  0.1953  1.3410  1.6454
   46MPD2    H2  709   2.953   3.911   9.525  1.6057  1.4424 -1.7275
   46MPD2    H3  710   2.815   3.720   9.560  0.5248  0.3416 -0.9894
   46MPD2     N  711   2.475   3.891   9.319 -0.2937 -0.3687  0.2553
   46MPD2    H5  712   2.449   3.969   9.259  0.9666  1.1065  1.6295
   46MPD2    N1  713   2.905   4.107   9.339 -0.6223 -0.0115 -0.0396
   46MPD2    H7  714   2.875   4.173   9.269  3.3474  0.5307 -1.2385
   47TMC2    C1  715   4.386   0.562   9.589  0.0663  0.3452  0.2202
   47TMC2    C2  716   4.412   0.476   9.483  0.1280 -0.1027  0.6715
   47TMC2    C3  717   4.307   0.400   9.441 -0.2553 -0.4462 -0.6855
   47TMC2    C4  718   4.259   0.569   9.644  0.0052 -0.5276 -0.1133
   47TMC2    C5  719   4.165   0.471   9.611  0.1577  0.6486  0.2114
   47TMC2    C6  720   4.185   0.399   9.497 -0.3716  0.3776 -0.0704
   47TMC2     C  721   4.488   0.646   9.647  0.4565 -0.0126 -0.5969
   47TMC2     O  722   4.449   0.723   9.730  0.2077  0.1044 -0.0716
   47TMC2     H  723   4.516   0.470   9.452  0.4247  1.4951  1.3344
   47TMC2    H1  724   4.240   0.633   9.729  5.0335 -0.1302  0.6628
   47TMC2    H2  725   4.123   0.315   9.467  1.1792 -0.8587  0.1699
   47TMC2    C7  726   4.034   0.513   9.637  0.0962 -1.0781  0.6246
   47TMC2    C8  727   4.344   0.308   9.338  0.0138  0.8750  0.3990
   47TMC2    O1  728   4.024   0.631   9.674 -0.4538  0.2246  0.0365
   47TMC2    O2  729   4.292   0.197   9.328  0.4982  0.4910 -0.1633
   47TMC2    O5  730   4.404   0.376   9.237  0.0059  0.0400 -0.1465
   47TMC2    H5  731   4.440   0.466   9.256  0.9086  0.2207 -2.7284
   48MPD2     C  732   0.027   0.781   9.744  0.4780  0.3875  0.0666
   48MPD2    C1  733   0.020   0.656   9.677  0.3994  0.5412  0.1183
   48MPD2    C2  734   0.134   0.586   9.650 -0.3562 -0.0246  0.5147
   48MPD2    C3  735   0.253   0.638   9.698 -0.2384  0.5121  0.5267
   48MPD2    C4  736   0.260   0.757   9.768 -0.0330  0.2508  0.3549
   48MPD2    C5  737   0.145   0.826   9.778  0.0163 -1.2221  0.2463
   48MPD2     H  738   0.137   0.492   9.596 -1.6987  0.6985 -0.8253
   48MPD2    H1  739   0.355   0.796   9.803 -0.4160  2.3990 -0.9242
   48MPD2    H2  740   4.667   0.847   9.762  0.2008 -0.0270  0.2999
   48MPD2    H3  741   0.155   0.928   9.813  2.2054 -1.0124 -1.0047
   48MPD2     N  742   0.364   0.555   9.673 -0.3119 -0.5710  0.3962
   48MPD2    H5  743   0.352   0.476   9.610 -3.2015 -0.3073  0.6142
   48MPD2    N1  744   4.621   0.601   9.631  0.0990  0.5735  1.0641
   48MPD2    H7  745   4.632   0.508   9.591  1.8192  0.7803  1.0784
   49MPD2     C  746   4.003   2.351  10.487 -0.2284  0.0152 -0.4865
   49MPD2    C1  747   4.139   2.360  10.518 -0.3252 -0.7327  0.2899
   49MPD2    C2  748   4.186   2.318  10.644 -0.5535 -0.6532 -0.1029
   49MPD2    C3  749   4.099   2.288  10.748 -0.0654 -0.4630  0.6403
   49MPD2    C4  750   3.962   2.291  10.716  0.4690 -0.1851  0.2789
   49MPD2    C5  751   3.922   2.312  10.587 -0.1752 -0.2661 -0.2449
   49MPD2     H  752   4.293   2.318  10.664 -0.8811 -1.2653  1.6117
   49MPD2    H1  753   3.890   2.260  10.791  0.2084 -0.4233 -0.0742
   49MPD2    H2  754   3.971   2.382  10.388  1.0786 -0.7308 -1.1402
   49MPD2    H3  755   3.814   2.314  10.581 -0.2505  0.9506  1.3984
   49MPD2     N  756   4.143   2.250  10.880  0.3146  0.8189  0.6490
   49MPD2    H5  757   4.071   2.236  10.950 -0.0357 -1.4395 -0.1866
   49MPD2    N1  758   4.243   2.386  10.429 -0.3866 -0.3530 -0.4168
   49MPD2    H7  759   4.338   2.365  10.456 -0.1693 -1.8444 -2.2837
   50TCq2    C1  760   4.226   2.394  10.291  0.0043  0.0307  0.5954
   50TCq2    O2  761   4.126   2.409  10.229 -0.3161 -0.1107  0.5621
   50TCq2    C2  762   4.346   2.361  10.216  0.2193  0.7455  0.2094
   50TCq2    C3  763   4.462   2.414  10.261  0.3653 -1.1367  0.5625
   50TCq2    C4  764   4.564   2.423  10.171 -0.4088  0.8498 -0.3635
   50TCq2    C5  765   4.552   2.389  10.040 -0.2460 -0.0931 -0.4172
   50TCq2    C6  766   4.437   2.336   9.999  1.7000  0.1414  0.4786
   50TCq2    C7  767   4.334   2.317  10.089  0.1950  0.7650 -0.1523
   50TCq2    C8  768   4.438   2.295   9.860  0.3207 -0.1335  0.1834
   50TCq2    O4  769   4.522   2.349   9.789 -0.2766 -0.8723 -0.4226
   50TCq2    C9  770   4.687   2.496  10.206  0.2279  0.0289 -0.5595
   50TCq2    O5  771   4.678   2.596  10.280  0.1001 -0.3194  0.0209
   50TCq2    O6  772   0.069   2.464  10.152 -0.3020 -0.7017  0.5332
   50TCq2    H2  773   4.469   2.468  10.355 -0.5843  2.1142 -1.2341
   50TCq2    H3  774   4.633   2.415   9.972  0.0672 -2.0862 -0.8014
   50TCq2    H4  775   4.236   2.281  10.057 -0.6429  1.6385  1.4343
   51MPD2     C  776   3.030   0.451   1.607  0.5783  0.1076 -0.1757
   51MPD2    C1  777   3.071   0.558   1.529 -1.0015  0.6791  0.1248
   51MPD2    C2  778   3.058   0.685   1.581  0.0203  0.2339 -0.6681
   51MPD2    C3  779   3.008   0.704   1.707  0.2348  0.7122  0.5402
   51MPD2    C4  780   2.972   0.595   1.787  0.2633  0.4035 -0.1098
   51MPD2    C5  781   2.976   0.467   1.737  0.0126 -0.2154 -0.4034
   51MPD2     H  782   3.097   0.764   1.518 -1.3476  0.1217 -1.6661
   51MPD2    H1  783   2.943   0.608   1.891  3.1373 -0.5990  0.8361
   51MPD2    H2  784   3.020   0.355   1.556 -0.6646  0.1626 -0.0432
   51MPD2    H3  785   2.953   0.377   1.793  4.6859 -0.6052  0.8937
   51MPD2     N  786   3.008   0.834   1.763 -0.6276  0.5044 -0.4792
   51MPD2    H5  787   2.946   0.837   1.843 -1.1730 -4.2529 -0.7444
   51MPD2    N1  788   3.107   0.550   1.392 -0.6932  0.0288  0.2358
   51MPD2    H7  789   3.129   0.635   1.342  0.0679 -0.6981 -0.6755
   52TCq2    C1  790   3.075   0.951   1.716  0.4227  0.4283 -0.6506
   52TCq2    O2  791   3.158   0.951   1.622 -0.3507  0.3575 -0.1088
   52TCq2    C2  792   3.023   1.074   1.772  0.1313 -0.3186  0.4213
   52TCq2    C3  793   2.917   1.079   1.861 -0.0898  0.1484 -0.1813
   52TCq2    C4  794   2.865   1.198   1.899 -0.4828  0.9158 -0.1739
   52TCq2    C5  795   2.919   1.314   1.852  0.3766 -0.9542  0.4487
   52TCq2    C6  796   3.015   1.312   1.759 -0.0520  0.3652 -0.6109
   52TCq2    C7  797   3.074   1.191   1.715  0.2840 -0.0548 -0.4942
   52TCq2    C8  798   3.089   1.435   1.741  0.0777 -0.3479 -0.6364
   52TCq2    O4  799   3.053   1.539   1.797  0.1674 -0.0622  0.5173
   52TCq2    C9  800   2.758   1.200   2.009 -0.3523  0.7437  0.7047
   52TCq2    O5  801   2.727   1.314   2.041 -0.5278 -0.2411 -0.9358
   52TCq2    O6  802   2.710   1.092   2.050  0.2523  0.1324  0.5885
   52TCq2    H2  803   2.875   0.988   1.902 -0.1303  0.8392  1.3135
   52TCq2    H3  804   2.879   1.411   1.879 -0.4290 -0.8635 -1.0464
   52TCq2    H4  805   3.153   1.181   1.642  1.6191 -1.6904  1.1906
   53TMC2    C1  806   4.602   4.488  11.641 -0.9304  0.4352 -0.4601
   53TMC2    C2  807   4.695   4.588  11.641  0.1842  0.2886  0.1294
   53TMC2    C3  808   4.700   4.650  11.765 -0.2231 -0.1163  0.5633
   53TMC2    C4  809   4.518   4.449  11.741 -0.5433 -0.3978 -0.3396
   53TMC2    C5  810   4.523   4.519  11.857 -0.3869  0.2789  0.1342
   53TMC2    C6  811   4.614   4.617  11.861 -0.2845  0.1557  0.5617
   53TMC2     C  812   4.630   4.388  11.538  0.4616 -0.1035 -0.4857
   53TMC2     O  813   0.013   4.403  11.477  0.2763 -0.2966  0.3030
   53TMC2     H  814   0.034   4.619  11.559  0.6293  3.3778  1.6419
   53TMC2    H1  815   4.438   4.378  11.722 -1.8721  0.4453  1.9932
   53TMC2    H2  816   4.619   4.679  11.950 -1.9659  0.6746  0.2904
   53TMC2    C7  817   4.395   4.526  11.922  0.0651 -0.2650 -0.5815
   53TMC2    C8  818   0.051   0.045  11.788 -0.4739  0.1040 -0.8109
   53TMC2    O1  819   4.295   4.476  11.878 -0.8044 -0.3523  0.2766
   53TMC2    O2  820   4.719   0.138  11.844 -0.8523 -0.6630 -0.3000
   53TMC2    O5  821   0.151   0.041  11.700  0.3125  0.5415  0.3679
   53TMC2    H5  822   0.170   4.673  11.670  1.0664  0.2287  1.8067
   54MPD2     C  823   4.706   4.110  11.451  0.3940  0.4412 -0.3313
   54MPD2    C1  824   4.585   4.143  11.510  0.3062  0.0071 -0.1077
   54MPD2    C2  825   4.501   4.038  11.550 -0.2119  0.8754 -0.4112
   54MPD2    C3  826   4.546   3.904  11.536 -0.0498  0.3740 -0.0697
   54MPD2    C4  827   4.668   3.882  11.479 -0.4323  0.4891 -0.4673
   54MPD2    C5  828   0.024   3.981  11.437 -0.0031 -0.6078  0.6787
   54MPD2     H  829   4.403   4.059  11.592 -0.6326 -2.2699  0.2067
   54MPD2    H1  830   4.714   3.784  11.477  0.0468  0.7383 -1.6231
   54MPD2    H2  831   0.051   4.185  11.415  0.1834  0.6075 -0.3913
   54MPD2    H3  832   0.123   3.958  11.401 -0.8957  0.6795 -2.6386
   54MPD2     N  833   4.476   3.792  11.585 -0.4510 -0.1230  0.0619
   54MPD2    H5  834   4.527   3.705  11.568  0.0901  0.1052  0.5144
   54MPD2    N1  835   4.550   4.276  11.552 -0.4795 -0.0673 -0.0183
   54MPD2    H7  836   4.455   4.281  11.588 -0.7733  0.6464 -0.8936
   55MPD2     C  837   4.533   2.366  17.611  0.4218  0.3803  0.3225
   55MPD2    C1  838   4.524   2.368   0.048 -1.4185 -1.1123  0.2945
   55MPD2    C2  839   4.498   2.495   0.103  0.0302  0.2320 -0.5327
   55MPD2    C3  840   4.447   2.598   0.024  0.3596 -1.1014  0.1709
   55MPD2    C4  841   4.478   2.602  17.588  0.2783  1.1218 -0.5617
   55MPD2    C5  842   4.516   2.481  17.529 -0.2876 -0.3136 -0.6308
   55MPD2     H  843   4.494   2.500   0.212 -1.2278  2.9324 -0.6936
   55MPD2    H1  844   4.466   2.691  17.527  1.6257  1.4684 -0.3119
   55MPD2    H2  845   4.561   2.274  17.560  3.5485  1.2534  0.4536
   55MPD2    H3  846   4.537   2.463  17.424 -0.4858  0.0146 -0.7276
   55MPD2     N  847   4.404   2.717   0.092  0.4746 -0.7886  0.5701
   55MPD2    H5  848   4.375   2.710   0.189  0.1033  0.4263  0.5511
   55MPD2    N1  849   4.555   2.258   0.129 -0.2355 -0.9337  0.2614
   55MPD2    H7  850   4.602   2.175   0.092 -0.1158 -0.7417 -0.0163
   56TCq2    C1  851   4.525   2.249   0.262  1.0615 -0.4882 -0.0336
   56TCq2    O2  852   4.440   2.317   0.329 -0.3938  0.5482 -0.1554
   56TCq2    C2  853   4.561   2.125   0.325 -0.2350 -0.0696  0.1532
   56TCq2    C3  854   4.591   2.008   0.260 -0.0028 -0.1960 -0.2050
   56TCq2    C4  855   4.605   1.896   0.336 -0.2604 -0.7524 -0.0344
   56TCq2    C5  856   4.607   1.901   0.472  0.2687  0.8862 -0.2519
   56TCq2    C6  857   4.581   2.017   0.531  0.1614  0.7058 -0.9663
   56TCq2    C7  858   4.561   2.128   0.461  0.8237  0.4019  0.4719
   56TCq2    C8  859   4.613   2.024   0.675  0.4541  0.1942  0.2612
   56TCq2    O4  860   4.692   1.947   0.731  0.2129 -0.0760  0.2692
   56TCq2    C9  861   4.643   1.772   0.271 -0.2015 -1.0634  0.3287
   56TCq2    O5  862   4.606   1.761   0.149  0.3643  0.2612 -0.1602
   56TCq2    O6  863   4.696   1.682   0.342  0.3227  0.2578  0.2113
   56TCq2    H2  864   4.609   2.011   0.153  2.8027  2.4228  0.3408
   56TCq2    H3  865   4.626   1.809   0.527 -1.0623  1.9505  1.9477
   56TCq2    H4  866   4.565   2.228   0.505  2.9778 -0.4048  2.1131
   57TMC2    C1  867   3.972   3.277  13.495  0.2143 -0.2059  0.2620
   57TMC2    C2  868   3.911   3.396  13.450  0.2724 -0.2646 -0.0485
   57TMC2    C3  869   3.987   3.482  13.377 -0.5159  0.4801  0.0834
   57TMC2    C4  870   4.104   3.243  13.469 -0.1261  0.1459 -0.5018
   57TMC2    C5  871   4.176   3.346  13.400 -0.2407  0.3889 -0.4622
   57TMC2    C6  872   4.122   3.457  13.352  0.1944 -0.0986 -0.2760
   57TMC2     C  873   3.889   3.180  13.569 -0.3063 -0.5460 -0.1187
   57TMC2     O  874   3.934   3.071  13.596 -0.1184 -0.4608  0.2708
   57TMC2     H  875   3.803   3.409  13.448  0.1644 -0.9108  2.2655
   57TMC2    H1  876   4.152   3.155  13.509 -0.5312 -0.1083 -0.5787
   57TMC2    H2  877   4.186   3.521  13.293  1.6390 -2.5839 -1.4486
   57TMC2    C7  878   4.324   3.335  13.405  0.0263 -0.1820 -0.2122
   57TMC2    C8  879   3.925   3.568  13.283  0.8116  0.1509 -0.1559
   57TMC2    O1  880   4.372   3.448  13.407  0.0183 -0.1886 -0.0180
   57TMC2    O2  881   3.983   3.614  13.182 -0.2207  0.7697  0.1156
   57TMC2    O5  882   3.870   3.659  13.371  0.7470 -0.3689 -0.7233
   57TMC2    H5  883   3.853   3.621  13.460  1.1477 -0.0561 -0.5184
   58MPD2     C  884   3.438   3.075  13.797  0.4801 -0.1004 -0.1410
   58MPD2    C1  885   3.457   3.212  13.798 -0.3671 -0.7117  0.3672
   58MPD2    C2  886   3.575   3.267  13.749 -0.5973 -0.0479  0.2325
   58MPD2    C3  887   3.677   3.188  13.691  0.7824  0.3404  0.3064
   58MPD2    C4  888   3.659   3.053  13.685 -0.9735  0.6756 -0.5788
   58MPD2    C5  889   3.542   3.000  13.743 -0.2554  0.1439  0.2987
   58MPD2     H  890   3.596   3.373  13.757 -0.1680 -0.2686  1.9125
   58MPD2    H1  891   3.729   2.982  13.643  0.5522  1.5740  0.4555
   58MPD2    H2  892   3.348   3.030  13.837  2.2996 -2.3355  1.4097
   58MPD2    H3  893   3.515   2.896  13.732 -1.1387  0.5551 -1.3782
   58MPD2     N  894   3.783   3.248  13.624  1.0173  0.0510 -0.2988
   58MPD2    H5  895   3.792   3.348  13.611  0.4487  0.1861  0.3334
   58MPD2    N1  896   3.367   3.304  13.856  0.0213  0.2436  0.2610
   58MPD2    H7  897   3.388   3.403  13.852  2.3217 -0.3273 -1.5463
   59MPD2     C  898   1.583   3.610  13.006  0.8677  0.3659 -0.0491
   59MPD2    C1  899   1.693   3.603  12.925 -0.4377  0.2427 -0.1529
   59MPD2    C2  900   1.816   3.616  12.987 -0.4118  0.6956 -0.2165
   59MPD2    C3  901   1.828   3.641  13.124 -0.6272  0.2866 -0.3181
   59MPD2    C4  902   1.715   3.634  13.198 -0.1203 -0.2953 -0.1321
   59MPD2    C5  903   1.592   3.616  13.139  1.2172 -0.2525 -0.4066
   59MPD2     H  904   1.910   3.607  12.933  1.1598  0.3962  2.5911
   59MPD2    H1  905   1.716   3.642  13.306  0.6402  1.2863 -0.2729
   59MPD2    H2  906   1.483   3.601  12.965  0.9379  1.1462 -0.3842
   59MPD2    H3  907   1.500   3.616  13.197  2.5195  1.8154  1.6315
   59MPD2     N  908   1.953   3.661  13.188  0.3113 -0.0945  0.1155
   59MPD2    H5  909   1.950   3.665  13.289 -1.6517 -1.6716  0.1327
   59MPD2    N1  910   1.693   3.578  12.788 -0.2331  0.4495  0.9105
   59MPD2    H7  911   1.786   3.567  12.748 -0.9786  1.8287 -1.2228
   60TCq2    C1  912   1.584   3.557  12.709  0.4880 -0.2206 -0.3501
   60TCq2    O2  913   1.465   3.543  12.737  0.4225 -0.1634 -0.6282
   60TCq2    C2  914   1.623   3.527  12.575  0.1315  0.2226 -0.0542
   60TCq2    C3  915   1.549   3.425  12.522  0.2238  0.5360 -0.0207
   60TCq2    C4  916   1.613   3.344  12.427  0.3797  0.0039 -0.1542
   60TCq2    C5  917   1.736   3.374  12.381 -0.1548 -0.4608 -0.4579
   60TCq2    C6  918   1.802   3.488  12.432  0.3185  0.4202 -0.5764
   60TCq2    C7  919   1.749   3.560  12.539  0.2108  1.0160  0.4420
   60TCq2    C8  920   1.909   3.537  12.339  0.0285 -0.2040  0.3802
   60TCq2    O4  921   1.970   3.446  12.283 -0.3028 -0.2894  0.1259
   60TCq2    C9  922   1.541   3.231  12.377 -0.0615  0.3843  0.2462
   60TCq2    O5  923   1.457   3.182  12.454 -0.1539  0.6727  0.5426
   60TCq2    O6  924   1.564   3.202  12.258  0.0692 -0.0438 -0.0798
   60TCq2    H2  925   1.450   3.399  12.557  0.6228 -0.7975  0.1158
   60TCq2    H3  926   1.784   3.301  12.317  2.8034  0.1092  1.1366
   60TCq2    H4  927   1.803   3.652  12.559  0.1462  0.8436  1.4248
   61MPD2     C  928   1.054   0.087  14.632 -0.0788  0.5587 -0.0168
   61MPD2    C1  929   0.977   0.186  14.695  0.3485  0.5924  0.8258
   61MPD2    C2  930   0.960   0.302  14.632  0.1728 -0.4611  0.0846
   61MPD2    C3  931   1.009   0.323  14.503 -0.0956  0.2769  0.1179
   61MPD2    C4  932   1.088   0.226  14.442 -0.2632  0.6566 -0.0551
   61MPD2    C5  933   1.107   0.107  14.507 -0.3935  0.0186 -0.1836
   61MPD2     H  934   0.907   0.381  14.684 -0.5575 -3.5223  3.9656
   61MPD2    H1  935   1.112   0.234  14.337  0.3828 -1.3785 -0.0718
   61MPD2    H2  936   1.072   4.713  14.675 -0.6211  0.4167 -0.1119
   61MPD2    H3  937   1.143   0.020  14.453 -0.7552 -0.9560  1.1547
   61MPD2     N  938   0.979   0.444  14.432 -0.6006  0.3822  0.3171
   61MPD2    H5  939   1.033   0.457  14.347 -0.1198 -2.0271  0.2487
   61MPD2    N1  940   0.928   0.173  14.826 -0.1065  0.5371  0.2475
   61MPD2    H7  941   0.870   0.251  14.855 -1.2266 -0.4111  0.5999
   62TCq2    C1  942   0.958   0.076  14.920  0.0538 -0.2831 -0.2655
   62TCq2    O2  943   1.020   4.698  14.906  0.4518  0.0850 -0.3918
   62TCq2    C2  944   0.924   0.125  15.056  0.4792  0.3979 -0.0416
   62TCq2    C3  945   0.910   0.028  15.153  0.1376  0.8127  0.3542
   62TCq2    C4  946   0.885   0.069  15.278  0.7143  0.3610 -0.3684
   62TCq2    C5  947   0.857   0.203  15.300  0.5617  0.7160 -0.2448
   62TCq2    C6  948   0.865   0.300  15.201 -0.1840  0.0558 -0.1688
   62TCq2    C7  949   0.912   0.259  15.080 -0.2568  0.1496 -0.1070
   62TCq2    C8  950   0.868   0.444  15.233  0.4435  0.6367 -0.2959
   62TCq2    O4  951   0.857   0.526  15.143 -0.4271  0.4811  0.1466
   62TCq2    C9  952   0.883   4.694  15.385  0.3736 -0.2579  0.7334
   62TCq2    O5  953   0.875   4.573  15.358  0.6626  0.5125  0.1321
   62TCq2    O6  954   0.901   0.020  15.499 -0.3587  0.8308 -0.3762
   62TCq2    H2  955   0.937   4.647  15.147 -1.1017  0.6502 -2.4689
   62TCq2    H3  956   0.825   0.232  15.399 -0.2310 -1.3121  0.0748
   62TCq2    H4  957   0.946   0.334  15.009 -0.3904  0.8379  0.5676
   63TMC2    C1  958   0.009   4.471   9.944  0.2339 -0.7282  0.2057
   63TMC2    C2  959   4.698   4.379   9.844  0.6254  0.2096  0.7140
   63TMC2    C3  960   4.579   4.389   9.778  0.2499  0.3704 -0.4794
   63TMC2    C4  961   4.636   4.562   9.980  0.6794  0.0443  0.0563
   63TMC2    C5  962   4.520   4.578   9.908  0.3466  0.0164  0.1314
   63TMC2    C6  963   4.487   4.493   9.808  0.3091  0.1437 -0.4263
   63TMC2     C  964   0.148   4.513   9.958  0.3145  0.2018  0.2687
   63TMC2     O  965   0.168   4.635   9.964 -0.2449  0.0713 -0.2948
   63TMC2     H  966   0.056   4.315   9.811 -1.5989 -1.6787 -1.0698
   63TMC2    H1  967   4.668   4.632  10.057  2.3826  0.0180 -0.6176
   63TMC2    H2  968   4.400   4.497   9.744 -0.2932 -2.2158  0.2329
   63TMC2    C7  969   4.493   4.715   9.881  0.6033 -0.4207  0.3151
   63TMC2    C8  970   4.582   4.333   9.647  0.0960  0.0409  0.0192
   63TMC2    O1  971   4.380   0.016   9.836 -0.1336 -0.5014  0.2146
   63TMC2    O2  972   4.504   4.374   9.559  0.4094  0.8286 -0.2105
   63TMC2    O5  973   4.618   4.206   9.673  0.6486 -0.2798 -0.3121
   63TMC2    H5  974   4.641   4.200   9.768 -0.6384 -0.1144  0.0172
   64MPD2     C  975   0.576   4.480  10.245  0.5171  0.3876 -0.3573
   64MPD2    C1  976   0.531   4.355  10.212 -0.1708  0.4063 -0.4316
   64MPD2    C2  977   0.423   4.329  10.133  0.5150  0.3265 -0.0184
   64MPD2    C3  978   0.352   4.437  10.069 -0.3009  0.1717  0.3418
   64MPD2    C4  979   0.408   4.560  10.104  0.0890  0.8664 -0.9524
   64MPD2    C5  980   0.511   4.585  10.182 -0.3698 -0.2970  0.3828
   64MPD2     H  981   0.393   4.226  10.118  0.2458  0.2312  1.1842
   64MPD2    H1  982   0.366   4.646  10.053  0.0844  0.7571 -1.1354
   64MPD2    H2  983   0.673   4.490  10.291 -0.0679  0.7491  0.7932
   64MPD2    H3  984   0.550   4.685  10.198  0.0628 -0.3529 -0.2782
   64MPD2     N  985   0.230   4.410  10.004 -0.7829 -0.2236  0.3859
   64MPD2    H5  986   0.197   4.315   9.995  0.4454 -0.8109  2.0086
   64MPD2    N1  987   0.616   4.253  10.265 -0.2887  0.5781  0.3366
   64MPD2    H7  988   0.691   4.294  10.320 -0.9479  2.4666 -0.1530
   65MPD2     C  989   1.758   4.287  15.938  0.2959  0.3173  0.3971
   65MPD2    C1  990   1.782   4.279  15.802 -0.0755  0.2343  0.5043
   65MPD2    C2  991   1.827   4.157  15.761 -0.1365 -0.2802 -0.3171
   65MPD2    C3  992   1.848   4.045  15.849 -0.5529  0.4868 -1.0644
   65MPD2    C4  993   1.828   4.062  15.982 -0.3207 -0.7102  0.2395
   65MPD2    C5  994   1.768   4.185  16.024 -0.2514  0.1221 -0.7326
   65MPD2     H  995   1.843   4.145  15.655  0.3073 -1.1782 -0.1541
   65MPD2    H1  996   1.823   3.974  16.044 -1.0860 -0.2461  0.8440
   65MPD2    H2  997   1.710   4.376  15.976 -0.3635  0.1643 -0.0709
   65MPD2    H3  998   1.747   4.197  16.129 -1.4164  0.8643 -1.0564
   65MPD2     N  999   1.879   3.923  15.792  0.6957 -0.3850 -0.4820
   65MPD2    H5 1000   1.869   3.837  15.845 -0.8924  0.3545  0.4096
   65MPD2    N1 1001   1.762   4.381  15.711  0.0920  0.2280  0.3533
   65MPD2    H7 1002   1.766   4.359  15.612 -0.5199 -0.2466  0.4328
   66TCq2    C1 1003   1.732   4.508  15.739 -0.6991  0.4475  0.2042
   66TCq2    O2 1004   1.717   4.563  15.847  0.0083 -0.7525 -0.1854
   66TCq2    C2 1005   1.726   4.592  15.614  0.7188 -0.2318  0.0846
   66TCq2    C3 1006   1.763   4.548  15.489 -0.4561 -0.7416  0.4963
   66TCq2    C4 1007   1.755   4.630  15.375  0.0208  0.2589 -0.9128
   66TCq2    C5 1008   1.698   0.029  15.384  0.1554  0.2618  0.0941
   66TCq2    C6 1009   1.639   0.063  15.506 -0.4075  0.0940  0.4531
   66TCq2    C7 1010   1.659   4.711  15.624 -0.4709  1.0696 -0.3576
   66TCq2    C8 1011   1.560   0.190  15.515  0.0490  0.4172  0.1716
   66TCq2    O4 1012   1.543   0.254  15.412 -0.4908 -0.1051  0.8296
   66TCq2    C9 1013   1.815   4.588  15.250  0.2147  0.0228  0.6518
   66TCq2    O5 1014   1.864   4.469  15.255  0.0079  0.2607  0.0110
   66TCq2    O6 1015   1.804   4.655  15.142  0.0347 -0.0568  0.2503
   66TCq2    H2 1016   1.819   4.455  15.480  1.5732  0.6453 -1.1256
   66TCq2    H3 1017   1.709   0.095  15.298 -1.1774  0.1232 -0.1919
   66TCq2    H4 1018   1.625   0.013  15.724  0.6512 -2.4490  0.9399
   67MPD2     C 1019   1.765   3.656  14.308 -0.3363  0.6709 -0.1486
   67MPD2    C1 1020   1.701   3.740  14.399 -0.0756 -0.4411  0.7677
   67MPD2    C2 1021   1.566   3.756  14.393  0.1118  0.4391 -0.2414
   67MPD2    C3 1022   1.492   3.681  14.307  0.4155 -0.1445  0.2321
   67MPD2    C4 1023   1.561   3.597  14.216  0.2251  0.3556  0.4291
   67MPD2    C5 1024   1.694   3.583  14.219  0.4751  0.3426  0.2074
   67MPD2     H 1025   1.515   3.831  14.452 -1.1527  1.0838 -2.1714
   67MPD2    H1 1026   1.508   3.539  14.141  0.2891 -2.9405  2.9098
   67MPD2    H2 1027   1.872   3.640  14.316 -0.5332 -0.7576 -0.4452
   67MPD2    H3 1028   1.744   3.524  14.143  1.3272  0.6548  0.5296
   67MPD2     N 1029   1.358   3.704  14.284  0.2353 -0.4637 -0.2986
   67MPD2    H5 1030   1.310   3.671  14.201 -0.5121 -3.3985  1.3260
   67MPD2    N1 1031   1.770   3.813  14.495  0.7357  0.2049  0.0019
   67MPD2    H7 1032   1.715   3.880  14.546  0.6378 -0.3104  0.5725
   68TCq2    C1 1033   1.907   3.817  14.514  0.4527  0.3194 -0.0431
   68TCq2    O2 1034   1.988   3.732  14.478 -0.2274 -1.3141  0.3815
   68TCq2    C2 1035   1.937   3.893  14.630 -0.1244 -0.1294 -0.0453
   68TCq2    C3 1036   1.861   4.004  14.656  0.4858 -0.4252 -0.1016
   68TCq2    C4 1037   1.869   4.060  14.781 -0.0154  0.0180  0.6122
   68TCq2    C5 1038   1.945   3.996  14.881  0.2662 -0.4688  0.3370
   68TCq2    C6 1039   2.016   3.880  14.851 -1.4023  0.6321 -0.3476
   68TCq2    C7 1040   2.019   3.826  14.724 -0.3026  0.2168 -0.5505
   68TCq2    C8 1041   2.119   3.821  14.933 -0.0802  0.5074  0.3998
   68TCq2    O4 1042   2.179   3.725  14.884  0.4012  0.4154  0.0465
   68TCq2    C9 1043   1.777   4.159  14.827 -0.2201  0.0080  0.5587
   68TCq2    O5 1044   1.678   4.209  14.757 -0.1760 -0.8986 -0.3248
   68TCq2    O6 1045   1.768   4.175  14.953  0.1078  0.0377  0.1653
   68TCq2    H2 1046   1.805   4.062  14.583 -0.1492 -0.8922  0.0122
   68TCq2    H3 1047   1.933   4.030  14.984 -1.5897 -1.9558  0.6106
   68TCq2    H4 1048   2.071   3.733  14.704  0.6639  0.2478  1.8090
   69TMC2    C1 1049   3.856   0.267  12.433  0.5476 -0.1235  0.1180
   69TMC2    C2 1050   3.723   0.300  12.419 -0.4948  0.5896  0.3590
   69TMC2    C3 1051   3.679   0.352  12.299  0.6624 -0.1874  0.4078
   69TMC2    C4 1052   3.950   0.271  12.329 -0.1088 -0.6441  0.1860
   69TMC2    C5 1053   3.899   0.327  12.215  0.2023  0.1207 -1.1247
   69TMC2    C6 1054   3.767   0.370  12.201 -0.6020 -0.3254 -0.7065
   69TMC2     C 1055   3.890   0.172  12.542  0.0863  0.4828 -0.2551
   69TMC2     O 1056   3.810   0.119  12.618 -0.5974  0.0282  0.4731
   69TMC2     H 1057   3.650   0.274  12.495 -0.5553  2.9236  1.0899
   69TMC2    H1 1058   4.047   0.225  12.336 -0.4484 -1.5197 -0.9165
   69TMC2    H2 1059   3.740   0.415  12.106 -1.2620 -0.6890 -0.6930
   69TMC2    C7 1060   3.989   0.340  12.105  0.0248  0.4337  0.4115
   69TMC2    C8 1061   3.539   0.348  12.265 -0.0471  0.1410 -0.0447
   69TMC2    O1 1062   3.933   0.361  11.997  0.1291 -0.6651  0.4062
   69TMC2    O2 1063   3.454   0.327  12.350  0.1970  0.3573  0.4442
   69TMC2    O5 1064   3.529   0.277  12.152  0.1420 -0.0088 -0.3539
   69TMC2    H5 1065   3.598   0.293  12.085  0.2293 -3.5312 -1.1076
   70MPD2     C 1066   4.217   0.133  12.701 -0.1247 -0.5221  0.2358
   70MPD2    C1 1067   4.096   0.095  12.649 -0.6156  0.0701 -0.3702
   70MPD2    C2 1068   4.047   4.691  12.672  0.2012  0.3086 -0.8965
   70MPD2    C3 1069   4.122   4.601  12.749 -0.5435 -0.1177  0.1167
   70MPD2    C4 1070   4.244   4.641  12.803  0.2166 -0.7205 -0.0389
   70MPD2    C5 1071   4.284   0.047  12.787 -0.0651 -0.2893 -0.0543
   70MPD2     H 1072   3.956   4.653  12.628 -0.6774  0.4215  0.8593
   70MPD2    H1 1073   4.300   4.577  12.870  3.2703  2.2646  0.2796
   70MPD2    H2 1074   4.256   0.234  12.692  2.6963 -1.6318  0.0284
   70MPD2    H3 1075   4.371   0.087  12.838 -0.9688 -0.5419  1.7034
   70MPD2     N 1076   4.067   4.478  12.793  0.5858 -0.2743  0.0868
   70MPD2    H5 1077   4.125   4.424  12.858  1.1418 -0.7413 -0.7943
   70MPD2    N1 1078   4.026   0.176  12.563  0.2706 -0.2419 -0.1224
   70MPD2    H7 1079   4.072   0.251  12.513 -1.0663 -0.4749 -1.6985
   71TMC2    C1 1080   0.679   0.813   1.591  1.2807  0.4309 -0.1247
   71TMC2    C2 1081   0.779   0.766   1.671 -0.1871  0.0242 -0.0047
   71TMC2    C3 1082   0.747   0.705   1.785 -0.5475 -0.1903 -0.4672
   71TMC2    C4 1083   0.550   0.806   1.629  0.8287 -0.6167 -1.2049
   71TMC2    C5 1084   0.521   0.748   1.750  0.1644  0.0154 -0.1655
   71TMC2    C6 1085   0.617   0.697   1.829 -0.7840  0.4536  0.0999
   71TMC2     C 1086   0.704   0.851   1.451  0.0969  0.2636  0.1385
   71TMC2     O 1087   0.606   0.844   1.375  0.3454  0.3976 -0.3808
   71TMC2     H 1088   0.882   0.762   1.637 -0.2076  0.3920 -0.1140
   71TMC2    H1 1089   0.482   0.878   1.585  0.2808 -1.0480 -1.0627
   71TMC2    H2 1090   0.609   0.660   1.931 -1.1538 -0.9240 -0.4312
   71TMC2    C7 1091   0.406   0.795   1.814  0.2466 -0.7177  0.6934
   71TMC2    C8 1092   0.846   0.635   1.866  0.5055 -0.2053 -0.8852
   71TMC2    O1 1093   0.404   0.820   1.931 -0.9329  0.3130  0.1763
   71TMC2    O2 1094   0.815   0.554   1.948 -0.5514 -0.4831 -1.0248
   71TMC2    O5 1095   0.971   0.678   1.847  0.0414 -0.4607 -0.1354
   71TMC2    H5 1096   0.984   0.752   1.785  0.1302 -1.2238 -1.0251
   72MPD2     C 1097   1.008   1.015   1.066 -0.4604  0.0497  0.1818
   72MPD2    C1 1098   0.871   1.026   1.080  0.0464 -0.1981 -0.1266
   72MPD2    C2 1099   0.811   0.976   1.196  0.9548 -0.1563  0.2989
   72MPD2    C3 1100   0.885   0.939   1.306  0.7902 -0.4663  0.0817
   72MPD2    C4 1101   1.019   0.916   1.292  0.2217  0.5117  0.1318
   72MPD2    C5 1102   1.075   0.956   1.172  0.5176  0.0685 -0.1132
   72MPD2     H 1103   0.704   0.975   1.208  0.9202 -1.4181 -0.0247
   72MPD2    H1 1104   1.086   0.870   1.364  0.4059  1.1562  0.3735
   72MPD2    H2 1105   1.059   1.064   0.985 -0.3886  1.5383  1.1276
   72MPD2    H3 1106   1.180   0.933   1.157  0.8806  2.3288 -1.0164
   72MPD2     N 1107   0.830   0.895   1.429 -0.6576 -0.5194 -0.7364
   72MPD2    H5 1108   0.896   0.883   1.505  1.1142  0.6620 -2.0757
   72MPD2    N1 1109   0.793   1.097   0.983 -0.1142  0.1541 -0.2233
   72MPD2    H7 1110   0.700   1.121   1.014  0.6425 -0.9621  2.8647
   73TMC2    C1 1111   1.289   2.269  13.876 -0.5461  1.1846 -0.1817
   73TMC2    C2 1112   1.206   2.320  13.971  0.0855 -0.3763  0.7916
   73TMC2    C3 1113   1.256   2.390  14.076  0.3739  0.0752 -0.7894
   73TMC2    C4 1114   1.424   2.291  13.898  0.5454 -0.1100 -0.1315
   73TMC2    C5 1115   1.470   2.367  14.000 -0.2936 -0.1332  0.3472
   73TMC2    C6 1116   1.390   2.405  14.102  0.3318  0.7925 -0.2745
   73TMC2     C 1117   1.255   2.314  13.743 -0.4685  0.3891 -0.4581
   73TMC2     O 1118   1.344   2.368  13.684 -0.5287  0.0594  0.1517
   73TMC2     H 1119   1.098   2.317  13.959  0.0823  3.9947 -0.2310
   73TMC2    H1 1120   1.485   2.256  13.815  0.9752  1.7890 -0.6264
   73TMC2    H2 1121   1.428   2.471  14.179  3.1442 -1.2551  0.0757
   73TMC2    C7 1122   1.561   2.473  13.957  0.2075 -0.6896 -0.2344
   73TMC2    C8 1123   1.151   2.453  14.159 -0.7324  0.9782 -0.1984
   73TMC2    O1 1124   1.632   2.521  14.041 -0.0827 -0.1702  0.4550
   73TMC2    O2 1125   1.050   2.499  14.105 -1.1919 -0.1765  0.3725
   73TMC2    O5 1126   1.174   2.447  14.296  0.5339  0.2796 -0.7818
   73TMC2    H5 1127   1.263   2.409  14.313  0.3437 -0.2599 -1.0076
   74MPD2     C 1128   0.895   2.426  13.394  0.2628  0.8342  0.4040
   74MPD2    C1 1129   1.012   2.492  13.430  0.8356 -0.2043  0.4811
   74MPD2    C2 1130   1.091   2.446  13.529 -0.3471  0.1993  0.4259
   74MPD2    C3 1131   1.047   2.337  13.608  0.1242  0.5974 -0.1974
   74MPD2    C4 1132   0.927   2.288  13.585  0.0592  0.5825  0.6192
   74MPD2    C5 1133   0.857   2.321  13.474 -0.3494  0.0609 -0.1263
   74MPD2     H 1134   1.188   2.490  13.549 -0.7541  0.2531  2.2646
   74MPD2    H1 1135   0.887   2.202  13.639  2.5823  0.9204  3.0009
   74MPD2    H2 1136   0.840   2.459  13.307 -0.2179  2.4081  1.3011
   74MPD2    H3 1137   0.762   2.273  13.452  0.7503 -0.2939 -4.0858
   74MPD2     N 1138   1.127   2.279  13.712  0.1613  0.2162  0.4614
   74MPD2    H5 1139   1.074   2.214  13.769 -1.6210  0.5609 -0.7976
   74MPD2    N1 1140   1.059   2.585  13.340  0.2439  0.2704 -0.5547
   74MPD2    H7 1141   0.992   2.618  13.271 -0.3895 -0.8484 -0.4932
   75TCq2    C1 1142   1.278   3.777  14.370 -0.0407  0.8424 -0.0091
   75TCq2    O2 1143   1.284   3.801  14.487  0.8940 -0.2611  0.0677
   75TCq2    C2 1144   1.157   3.808  14.296  0.5210 -0.3101  0.0684
   75TCq2    C3 1145   1.034   3.776  14.345  0.8100  0.0206 -0.0025
   75TCq2    C4 1146   0.931   3.775  14.257  0.2957  0.6196 -0.0084
   75TCq2    C5 1147   0.950   3.794  14.124 -0.3233  0.1354 -0.3966
   75TCq2    C6 1148   1.070   3.845  14.082  0.4476  0.5834  0.7497
   75TCq2    C7 1149   1.176   3.843  14.166  0.0560  0.2566  0.2544
   75TCq2    C8 1150   1.075   3.859  13.937  0.0820 -0.1449 -0.3095
   75TCq2    O4 1151   0.974   3.841  13.868  0.1975  0.2603 -0.6204
   75TCq2    C9 1152   0.798   3.733  14.298  0.1927 -0.2925 -0.6838
   75TCq2    O5 1153   0.780   3.752  14.423 -0.1995 -0.5382  0.1545
   75TCq2    O6 1154   0.714   3.694  14.215 -0.4070 -0.1634 -0.8531
   75TCq2    H2 1155   1.019   3.762  14.452 -0.5665  2.0767  0.0782
   75TCq2    H3 1156   0.868   3.775  14.055 -0.0387 -2.2798 -0.0940
   75TCq2    H4 1157   1.277   3.877  14.142 -0.9767  3.4584  0.4372
   76MPD2     C 1158   0.368   4.655  12.718  0.1257 -0.0545  0.2850
   76MPD2    C1 1159   0.399   4.628  12.585  0.9047  0.2807 -0.2898
   76MPD2    C2 1160   0.504   4.540  12.560 -0.3568 -0.2620 -0.0529
   76MPD2    C3 1161   0.569   4.470  12.657  0.6323 -0.1885  0.2234
   76MPD2    C4 1162   0.539   4.499  12.789  0.3464 -0.2516  0.1020
   76MPD2    C5 1163   0.438   4.591  12.815 -0.0345  0.3483  0.0784
   76MPD2     H 1164   0.526   4.520  12.455  0.2520 -0.1695  0.0542
   76MPD2    H1 1165   0.600   4.460  12.869  0.6433 -0.7974 -0.3943
   76MPD2    H2 1166   0.283   4.710  12.756  1.2766  1.2150  1.0560
   76MPD2    H3 1167   0.416   4.611  12.919  0.2437 -1.8935  0.5700
   76MPD2     N 1168   0.670   4.381  12.643 -1.1610  0.2731  0.0360
   76MPD2    H5 1169   0.716   4.344  12.726 -0.2767  2.1514  0.3803
   76MPD2    N1 1170   0.338   4.685  12.480  0.0609 -0.2450  0.4346
   76MPD2    H7 1171   0.350   4.637  12.391  0.9735  0.7598  0.0288
   77TCq2    C1 1172   0.717   4.325  12.524  0.8198 -1.1858  0.4719
   77TCq2    O2 1173   0.672   4.324  12.409 -0.4579  0.2242  0.0355
   77TCq2    C2 1174   0.840   4.248  12.546  0.1374  0.2100  0.0441
   77TCq2    C3 1175   0.885   4.184  12.434  0.1853 -0.7955  0.0977
   77TCq2    C4 1176   1.013   4.179  12.400 -0.3651  0.4581 -0.3236
   77TCq2    C5 1177   1.101   4.238  12.484  0.6034  0.2339 -0.7475
   77TCq2    C6 1178   1.054   4.310  12.588 -0.3324 -0.5848 -0.2025
   77TCq2    C7 1179   0.930   4.307  12.630  0.7930 -0.5600 -0.5579
   77TCq2    C8 1180   1.146   4.397  12.665  0.3587  0.3563 -0.2427
   77TCq2    O4 1181   1.095   4.439  12.769  0.0388  0.1952 -0.4012
   77TCq2    C9 1182   1.052   4.100  12.281 -0.2691 -0.1978 -0.2183
   77TCq2    O5 1183   0.977   4.110  12.176 -0.1030 -0.1732 -0.4765
   77TCq2    O6 1184   1.173   4.074  12.267 -0.0680 -0.4483 -0.7589
   77TCq2    H2 1185   0.820   4.138  12.360  0.6585 -2.1800  0.5551
   77TCq2    H3 1186   1.208   4.222  12.470  0.6379 -0.0393 -0.1508
   77TCq2    H4 1187   0.896   4.358  12.720 -0.2927 -0.3036 -1.1061
   78MPD1     C 1188   1.978   1.025   1.322 -0.2228 -0.1470 -0.2042
   78MPD1    C1 1189   1.988   1.148   1.262  0.0165  0.3135  0.3567
   78MPD1    C2 1190   2.113   1.193   1.221 -0.5110 -0.7916  1.0523
   78MPD1    C3 1191   2.225   1.114   1.262  0.2221  0.3327  0.3217
   78MPD1    C4 1192   2.209   1.006   1.342 -0.1082  0.2134  0.1414
   78MPD1    C5 1193   2.087   0.955   1.369 -0.3689 -0.3640 -0.0733
   78MPD1     H 1194   2.123   1.285   1.164 -1.8377 -0.5771  1.1455
   78MPD1    H1 1195   2.292   0.947   1.380 -0.5059 -0.2932  0.2145
   78MPD1    H2 1196   1.878   0.991   1.347 -0.7643  1.3273 -0.3607
   78MPD1    H3 1197   2.072   0.872   1.437  2.6283 -1.6581 -0.9793
   78MPD1     N 1198   2.357   1.147   1.228 -0.4117 -0.4788 -0.4618
   78MPD1    H5 1199   2.430   1.086   1.263  0.3524  1.2582  1.0239
   78MPD1    N1 1200   1.873   1.215   1.219  0.3907 -0.0372  0.0176
   78MPD1    H6 1201   1.797   1.191   1.281  1.7927  0.4471  1.9119
   78MPD1    H7 1202   1.888   1.316   1.226  0.8535 -0.1933  1.1222
   79TCq2    C1 1203   2.399   1.258   1.159  0.1442  0.1574 -0.3769
   79TCq2    O2 1204   2.332   1.342   1.102 -0.4578  0.6082 -0.1171
   79TCq2    C2 1205   2.547   1.258   1.140 -0.1512  0.5297 -0.0104
   79TCq2    C3 1206   2.605   1.376   1.103  0.3477  0.3214 -0.4993
   79TCq2    C4 1207   2.724   1.369   1.027  0.2088  0.3549 -0.3157
   79TCq2    C5 1208   2.775   1.253   0.979 -0.3288 -0.1090 -0.4767
   79TCq2    C6 1209   2.717   1.138   1.022 -0.3147  0.9535 -0.3886
   79TCq2    C7 1210   2.607   1.140   1.103 -0.0879  0.0098  0.6575
   79TCq2    C8 1211   2.763   1.004   0.997 -0.0312  0.6218  0.6646
   79TCq2    O4 1212   2.753   0.925   1.086 -0.7150 -0.0461 -0.5803
   79TCq2    C9 1213   2.791   1.490   1.002  0.6781  0.0046 -0.1820
   79TCq2    O5 1214   2.880   1.482   0.912 -0.0530  0.0601  0.0085
   79TCq2    O6 1215   2.726   1.595   1.036 -0.0772  0.0119  0.0783
   79TCq2    H2 1216   2.559   1.465   1.144 -0.9294 -0.5536 -0.0339
   79TCq2    H3 1217   2.870   1.252   0.926  0.5202  1.2263  1.0061
   79TCq2    H4 1218   2.548   1.050   1.120 -0.6349  0.1206 -0.7204
   80MPD2     C 1219   4.491   4.348  12.276 -0.1347  0.5865  0.2274
   80MPD2    C1 1220   4.427   4.287  12.176 -0.4595 -0.7812  0.4186
   80MPD2    C2 1221   4.293   4.276  12.180  0.9121  0.4040 -0.2028
   80MPD2    C3 1222   4.217   4.329  12.284 -0.7961  1.1058  0.4901
   80MPD2    C4 1223   4.286   4.380  12.391  0.1619 -0.2740  0.6027
   80MPD2    C5 1224   4.423   4.390  12.385 -0.6279  0.3390  0.1562
   80MPD2     H 1225   4.242   4.239  12.092 -0.3722 -1.3758  1.2634
   80MPD2    H1 1226   4.231   4.415  12.478  0.1070 -1.5943  1.0979
   80MPD2    H2 1227   4.598   4.351  12.285 -0.2620 -0.4199  2.1234
   80MPD2    H3 1228   4.484   4.422  12.469 -0.8061  0.9345  0.0633
   80MPD2     N 1229   4.074   4.321  12.290 -0.6992  0.2171 -0.3292
   80MPD2    H5 1230   4.035   4.359  12.375 -1.7840  1.3188 -1.3244
   80MPD2    N1 1231   4.490   4.219  12.072 -0.4777  0.1124  0.4136
   80MPD2    H7 1232   4.434   4.154  12.018 -1.4345  1.1308  0.1900
   81TCq2    C1 1233   4.622   4.242  12.042 -0.0635 -0.8652 -0.5704
   81TCq2    O2 1234   4.689   4.341  12.069 -0.4328  0.2986  0.2424
   81TCq2    C2 1235   4.676   4.157  11.938  0.0003 -0.8281  0.3796
   81TCq2    C3 1236   0.055   4.210  11.858  0.1532  0.4444 -0.3574
   81TCq2    C4 1237   0.117   4.126  11.774  0.7345 -0.1989  0.0976
   81TCq2    C5 1238   0.100   3.988  11.778 -0.2119  0.1756 -0.5383
   81TCq2    C6 1239   0.001   3.945  11.860 -0.2069 -0.1244  0.2405
   81TCq2    C7 1240   4.641   4.026  11.927 -0.7078 -0.2829  0.2808
   81TCq2    C8 1241   4.700   3.802  11.860 -0.1278  0.3073  0.7860
   81TCq2    O4 1242   0.030   3.742  11.771  0.1357 -0.1007  0.1589
   81TCq2    C9 1243   0.237   4.174  11.714 -0.1425 -0.2074 -0.3726
   81TCq2    O5 1244   0.304   4.090  11.646 -0.3514  0.0231 -0.2588
   81TCq2    O6 1245   0.288   4.277  11.772 -0.2098  0.2563 -0.3253
   81TCq2    H2 1246   0.079   4.316  11.852  1.4863  0.0942 -1.1591
   81TCq2    H3 1247   0.174   3.922  11.733 -1.5358 -2.2260  0.8234
   81TCq2    H4 1248   4.561   3.988  11.991  0.4991 -1.4584  1.0875
   82MPD2     C 1249   2.584   4.339  10.692  0.4869 -0.7341  0.6217
   82MPD2    C1 1250   2.505   4.227  10.677  0.3711 -0.5416 -0.1029
   82MPD2    C2 1251   2.525   4.120  10.764  0.1323  0.1290  0.3050
   82MPD2    C3 1252   2.621   4.127  10.866 -0.6404  0.6640 -0.3202
   82MPD2    C4 1253   2.699   4.243  10.877 -0.0054  0.1574 -0.5766
   82MPD2    C5 1254   2.686   4.342  10.787  0.5784  0.5138 -0.2400
   82MPD2     H 1255   2.467   4.029  10.754 -1.3393  0.7959  2.6903
   82MPD2    H1 1256   2.773   4.254  10.955  2.1766 -0.9063 -2.5219
   82MPD2    H2 1257   2.574   4.425  10.627 -1.8811 -0.0476  1.8881
   82MPD2    H3 1258   2.752   4.428  10.791  0.8346  0.2364  1.6808
   82MPD2     N 1259   2.648   4.026  10.959  0.5144  0.1440 -0.2211
   82MPD2    H5 1260   2.736   4.032  11.009  1.0519 -0.3488 -1.1043
   82MPD2    N1 1261   2.410   4.232  10.572 -0.9088  0.1794 -0.5479
   82MPD2    H7 1262   2.403   4.324  10.531  0.4890  0.5066 -0.0565
   83TCq2    C1 1263   2.573   3.910  10.976 -0.4145  0.4666  0.0080
   83TCq2    O2 1264   2.469   3.875  10.919  0.1556  0.7188 -0.4556
   83TCq2    C2 1265   2.640   3.811  11.061 -0.4356  0.5894  0.0419
   83TCq2    C3 1266   2.748   3.845  11.149  0.3110  0.8812 -0.1089
   83TCq2    C4 1267   2.792   3.757  11.244  0.2307 -0.1705 -0.3421
   83TCq2    C5 1268   2.740   3.630  11.241 -0.9705 -0.3658 -0.2818
   83TCq2    C6 1269   2.634   3.602  11.163  0.1083  0.0044  0.3009
   83TCq2    C7 1270   2.582   3.690  11.074 -0.1314  0.0233  0.3279
   83TCq2    C8 1271   2.549   3.492  11.200 -0.1984  0.2485 -0.2694
   83TCq2    O4 1272   2.432   3.502  11.170  0.3593 -0.2918  0.1991
   83TCq2    C9 1273   2.888   3.785  11.340 -0.0977  0.0371 -0.0102
   83TCq2    O5 1274   2.918   3.908  11.350  0.4009  0.0858 -0.3112
   83TCq2    O6 1275   2.950   3.693  11.395  0.2840  0.1373  0.8464
   83TCq2    H2 1276   2.795   3.944  11.147  1.2839  0.4316  0.4784
   83TCq2    H3 1277   2.761   3.567  11.326 -0.6844 -0.9403 -0.7736
   83TCq2    H4 1278   2.500   3.660  11.011 -0.5950 -2.3727  2.0473
   84TCq2    C1 1279   4.270   2.210  10.908 -0.1990  0.8758 -0.5509
   84TCq2    O2 1280   4.369   2.187  10.835 -0.1554 -0.0818  0.0904
   84TCq2    C2 1281   4.284   2.184  11.054  0.9985 -1.4114  0.0941
   84TCq2    C3 1282   4.402   2.120  11.092  0.1956 -0.3926  0.1462
   84TCq2    C4 1283   4.406   2.078  11.225 -0.1887 -0.1512 -0.5834
   84TCq2    C5 1284   4.326   2.134  11.320  0.1327  0.2896 -0.3945
   84TCq2    C6 1285   4.204   2.180  11.273  0.7207 -0.3785 -0.1181
   84TCq2    C7 1286   4.187   2.204  11.140 -0.1843  0.1305 -0.0634
   84TCq2    C8 1287   4.086   2.187  11.359  0.3720  0.4182 -0.3258
   84TCq2    O4 1288   3.989   2.126  11.319 -0.2792 -0.0055  0.2276
   84TCq2    C9 1289   4.505   1.981  11.264 -0.0615 -0.4430 -0.0512
   84TCq2    O5 1290   4.583   1.953  11.172 -0.1774 -0.1322 -0.1627
   84TCq2    O6 1291   4.523   1.961  11.387  0.5084 -0.3531 -0.0739
   84TCq2    H2 1292   4.461   2.081  11.011  0.6045  0.9324 -0.2005
   84TCq2    H3 1293   4.332   2.096  11.421 -2.3886  2.5164  0.6240
   84TCq2    H4 1294   4.098   2.260  11.114  0.1995  0.1481 -1.3596
   85MPD2     C 1295   3.557   0.315  16.469 -0.1174 -0.7327  0.1658
   85MPD2    C1 1296   3.468   0.331  16.363 -0.1212  0.3608 -0.1772
   85MPD2    C2 1297   3.514   0.392  16.248 -0.5954  0.0908  0.3471
   85MPD2    C3 1298   3.643   0.436  16.236  0.5799  0.0237  0.2048
   85MPD2    C4 1299   3.733   0.423  16.341  0.5507 -0.0668 -0.1331
   85MPD2    C5 1300   3.689   0.359  16.452  0.2472  0.0222  0.0794
   85MPD2     H 1301   3.445   0.401  16.165 -0.2822 -0.4465  0.0280
   85MPD2    H1 1302   3.824   0.482  16.334  0.9789 -0.8676 -1.4065
   85MPD2    H2 1303   3.518   0.281  16.565 -0.5775  0.6631  0.4741
   85MPD2    H3 1304   3.753   0.356  16.540  0.0399 -1.4511  0.1809
   85MPD2     N 1305   3.679   0.500  16.119 -0.1946  0.2575  0.0217
   85MPD2    H5 1306   3.611   0.507  16.044  0.1644 -0.9879 -0.4166
   85MPD2    N1 1307   3.337   0.277  16.362  0.4390 -0.4006 -0.6045
   85MPD2    H7 1308   3.280   0.275  16.278 -0.9810 -2.8492  0.4335
   86TCq2    C1 1309   3.809   0.532  16.078  0.5219  0.3966 -0.4191
   86TCq2    O2 1310   3.917   0.507  16.130  0.1589  0.2179  0.7537
   86TCq2    C2 1311   3.804   0.621  15.963 -0.1121 -0.0510  0.3251
   86TCq2    C3 1312   3.683   0.672  15.925 -0.2407  0.2583 -0.0338
   86TCq2    C4 1313   3.676   0.735  15.805 -0.0395  0.8333  0.3969
   86TCq2    C5 1314   3.799   0.759  15.738 -0.0230  0.2630  0.6625
   86TCq2    C6 1315   3.918   0.704  15.784 -0.1129 -0.2334  0.0155
   86TCq2    C7 1316   3.925   0.634  15.893 -0.3359 -0.2848 -0.3031
   86TCq2    C8 1317   4.039   0.717  15.702 -0.3505 -0.5819  0.6526
   86TCq2    O4 1318   4.146   0.666  15.741  0.2302 -0.2203 -0.1078
   86TCq2    C9 1319   3.554   0.777  15.741 -0.6286  0.1896  0.1936
   86TCq2    O5 1320   3.451   0.727  15.792 -0.4515  0.1800  0.3952
   86TCq2    O6 1321   3.559   0.823  15.625  0.0989 -0.2444 -0.0218
   86TCq2    H2 1322   3.597   0.672  15.990  0.9237 -0.7167  1.5031
   86TCq2    H3 1323   3.783   0.799  15.638 -0.4989 -1.4375  0.0618
   86TCq2    H4 1324   4.015   0.578  15.916  1.4335  2.3762 -0.6648
   87MPD2     C 1325   0.791   4.322   0.561 -0.4879 -0.5472 -0.7322
   87MPD2    C1 1326   0.765   4.429   0.651 -0.1739 -0.1659 -0.1630
   87MPD2    C2 1327   0.637   4.488   0.651  0.9674  0.5588 -0.4276
   87MPD2    C3 1328   0.527   4.444   0.572  0.1398 -0.2335  0.1778
   87MPD2    C4 1329   0.557   4.345   0.484 -0.3250 -0.6421  0.0169
   87MPD2    C5 1330   0.685   4.280   0.487  0.4652  0.1216 -0.1398
   87MPD2     H 1331   0.612   4.570   0.718  2.7448  1.2133 -0.5713
   87MPD2    H1 1332   0.481   4.315   0.413 -2.3605  2.3630  0.9617
   87MPD2    H2 1333   0.889   4.275   0.559 -0.0049  0.2561  2.5204
   87MPD2    H3 1334   0.695   4.198   0.416 -0.3150  0.0100 -0.1248
   87MPD2     N 1335   0.398   4.493   0.566 -0.5386 -0.7335 -0.0925
   87MPD2    H5 1336   0.341   4.451   0.493 -2.1323 -0.8465  1.2184
   87MPD2    N1 1337   0.876   4.481   0.723 -0.5690 -0.0279  0.3213
   87MPD2    H7 1338   0.967   4.438   0.710 -0.6759 -0.4794  1.1098
   88TCq2    C1 1339   0.872   4.594   0.807 -0.1482 -0.1478  0.0953
   88TCq2    O2 1340   0.782   4.672   0.833 -0.0926 -0.4617  0.0348
   88TCq2    C2 1341   0.997   4.623   0.865  0.2274 -0.3406 -0.3256
   88TCq2    C3 1342   0.995   4.690   0.988 -0.1377  0.3409 -0.3132
   88TCq2    C4 1343   1.115   4.723   1.042  0.4702  0.3296 -0.3946
   88TCq2    C5 1344   1.232   4.694   0.971  0.5328 -0.4621 -0.4288
   88TCq2    C6 1345   1.223   4.632   0.848  0.0850 -0.2838  0.2043
   88TCq2    C7 1346   1.106   4.600   0.795 -0.4787 -0.0379 -0.1258
   88TCq2    C8 1347   1.346   4.578   0.791  0.1987 -0.2827 -0.5075
   88TCq2    O4 1348   1.428   4.536   0.872  0.2040  0.7333  0.0093
   88TCq2    C9 1349   1.122   0.056   1.178  0.1331  0.7508  0.9239
   88TCq2    O5 1350   1.014   0.048   1.243 -0.3304 -0.6383  0.1420
   88TCq2    O6 1351   1.230   0.120   1.208  0.3359 -0.0040 -0.2789
   88TCq2    H2 1352   0.906   4.720   1.043  0.2112 -1.2431  1.0868
   88TCq2    H3 1353   1.323   4.693   1.031 -0.2934  2.9293  0.8767
   88TCq2    H4 1354   1.103   4.546   0.701 -1.1060 -1.0425  0.4735
   89MPD2     C 1355   1.853   1.676   1.784  0.2716  1.1050 -0.3301
   89MPD2    C1 1356   1.739   1.745   1.747 -0.0774  0.2785 -0.1399
   89MPD2    C2 1357   1.741   1.818   1.623 -0.5943 -0.2839 -0.3194
   89MPD2    C3 1358   1.859   1.834   1.554  0.4749 -0.4044  0.2365
   89MPD2    C4 1359   1.972   1.769   1.596  0.1486 -0.0531  0.5652
   89MPD2    C5 1360   1.968   1.684   1.706 -0.4069  0.2603  0.2063
   89MPD2     H 1361   1.646   1.855   1.587 -0.1114  1.0062 -0.2758
   89MPD2    H1 1362   2.066   1.776   1.543  0.4006  1.0524  1.1623
   89MPD2    H2 1363   1.860   1.608   1.868  2.4712  4.6275  2.3730
   89MPD2    H3 1364   2.049   1.624   1.745 -0.2937 -1.2419 -2.3409
   89MPD2     N 1365   1.853   1.919   1.434  0.1956  0.5462 -0.1143
   89MPD2    H5 1366   1.762   1.944   1.396  0.9461 -0.5861 -2.6409
   89MPD2    N1 1367   1.615   1.729   1.818 -0.2699  0.2089 -0.7036
   89MPD2    H7 1368   1.528   1.758   1.774 -0.7682 -2.1410 -1.2378
   90TCq2    C1 1369   1.964   1.949   1.357  0.3083 -0.5013 -0.1049
   90TCq2    O2 1370   2.081   1.911   1.369  0.0590 -0.0710 -0.5787
   90TCq2    C2 1371   1.926   2.027   1.239  0.1950 -0.3666  0.0846
   90TCq2    C3 1372   1.836   2.127   1.242 -0.6537 -0.3220  0.1836
   90TCq2    C4 1373   1.818   2.192   1.126 -0.4867  0.2014 -0.0211
   90TCq2    C5 1374   1.892   2.174   1.008 -0.8984  0.5205  0.7635
   90TCq2    C6 1375   2.001   2.087   1.017 -0.7160 -0.1652 -0.3577
   90TCq2    C7 1376   2.005   2.006   1.129 -0.1379  0.1333 -0.4024
   90TCq2    C8 1377   2.090   2.056   0.905  0.0444  0.2684  0.5139
   90TCq2    O4 1378   2.152   1.950   0.912  0.0054  0.0866  0.7504
   90TCq2    C9 1379   1.713   2.293   1.114  0.6010 -0.0807 -0.4369
   90TCq2    O5 1380   1.705   2.368   1.011  0.2747 -0.1077  0.0643
   90TCq2    O6 1381   1.637   2.321   1.211 -0.0136  0.0633  0.7475
   90TCq2    H2 1382   1.771   2.138   1.329  0.4395  1.0225  0.8298
   90TCq2    H3 1383   1.868   2.231   0.919  1.6217 -1.6309 -1.3048
   90TCq2    H4 1384   2.104   1.962   1.139 -0.5513 -0.0043  2.7879
   91TMC2    C1 1385   3.890   1.208  16.510 -0.4364  0.2576  0.8392
   91TMC2    C2 1386   3.951   1.255  16.394  0.6630 -0.3450 -0.0196
   91TMC2    C3 1387   3.887   1.269  16.280 -0.1658  0.6651 -0.6115
   91TMC2    C4 1388   3.763   1.163  16.507  0.8314  0.4853 -0.0555
   91TMC2    C5 1389   3.693   1.183  16.393  0.2808 -0.1840  0.5794
   91TMC2    C6 1390   3.755   1.229  16.282  0.2629 -0.1340 -0.0371
   91TMC2     C 1391   3.956   1.191  16.636 -0.0292 -0.7283 -0.2549
   91TMC2     O 1392   3.917   1.114  16.724  0.3086 -0.2180  0.2248
   91TMC2     H 1393   4.055   1.284  16.392  0.5958 -0.2181 -1.3507
   91TMC2    H1 1394   3.711   1.134  16.598  2.3598 -0.3110  0.5620
   91TMC2    H2 1395   3.696   1.221  16.192 -0.4644  2.2692  0.2310
   91TMC2    C7 1396   3.545   1.179  16.403  0.8481  0.1033 -0.3892
   91TMC2    C8 1397   3.945   1.333  16.167 -0.1665  0.6723 -0.6373
   91TMC2    O1 1398   3.499   1.158  16.512 -0.2060  0.2197  0.3952
   91TMC2    O2 1399   4.057   1.333  16.123  0.3573  0.8728  0.3742
   91TMC2    O5 1400   3.848   1.368  16.087 -0.5379 -0.6715 -0.2484
   91TMC2    H5 1401   3.759   1.358  16.128 -0.4167 -1.7390 -0.2313
   92MPD2     C 1402   4.144   1.246  16.852 -0.1772  0.1385  0.4274
   92MPD2    C1 1403   4.135   1.327  16.752  0.2607 -0.2248 -0.3112
   92MPD2    C2 1404   4.200   1.450  16.754 -0.1052  0.0001  0.4023
   92MPD2    C3 1405   4.289   1.474  16.856 -0.1530 -0.3448 -0.3576
   92MPD2    C4 1406   4.297   1.385  16.962  0.4214 -0.7818  0.4998
   92MPD2    C5 1407   4.225   1.271  16.956  0.0127  0.0491 -0.1042
   92MPD2     H 1408   4.189   1.502  16.659 -0.9354  3.4458  2.4077
   92MPD2    H1 1409   4.375   1.389  17.037 -0.6319  1.3620  1.4764
   92MPD2    H2 1410   4.113   1.142  16.841 -0.9780  0.2381  1.8213
   92MPD2    H3 1411   4.231   1.197  17.035  1.9664  1.1725  0.8008
   92MPD2     N 1412   4.360   1.589  16.846  0.2193 -0.1255  0.4599
   92MPD2    H5 1413   4.346   1.643  16.761 -0.0618 -1.2767 -0.2220
   92MPD2    N1 1414   4.052   1.296  16.643  0.1457  0.2592 -0.1430
   92MPD2    H7 1415   4.052   1.360  16.563  1.5230  4.1678  2.9864
   93MPD2     C 1416   0.277   2.094  13.463 -0.1681  0.1980  0.6272
   93MPD2    C1 1417   0.321   1.966  13.431  0.0275 -0.9130 -0.1207
   93MPD2    C2 1418   0.232   1.868  13.398  0.7422  0.4459 -0.2170
   93MPD2    C3 1419   0.092   1.888  13.406  0.0978  0.3563 -0.0045
   93MPD2    C4 1420   0.051   2.018  13.429 -0.3828  0.2426  0.1943
   93MPD2    C5 1421   0.144   2.116  13.460  0.3892 -0.5404  0.4489
   93MPD2     H 1422   0.281   1.771  13.389  1.1226  0.7059 -0.9774
   93MPD2    H1 1423   4.671   2.045  13.442 -0.2361  0.5643  0.6948
   93MPD2    H2 1424   0.344   2.174  13.491  0.2188 -1.2132  3.7051
   93MPD2    H3 1425   0.110   2.215  13.487  0.1349 -1.2273  2.6753
   93MPD2     N 1426   4.716   1.793  13.396 -0.9096 -0.0882 -0.5553
   93MPD2    H5 1427   4.620   1.822  13.408 -1.2307 -0.2264 -2.7116
   93MPD2    N1 1428   0.452   1.921  13.438 -0.0914 -0.1624  0.3190
   93MPD2    H7 1429   0.476   1.822  13.438 -0.2814 -0.2129  1.1270
   94TCq2    C1 1430   0.559   2.008  13.434 -0.3919 -0.3749 -0.0647
   94TCq2    O2 1431   0.563   2.128  13.412 -0.1226 -0.2231 -0.1381
   94TCq2    C2 1432   0.683   1.937  13.457 -0.1348  0.1344 -0.5691
   94TCq2    C3 1433   0.690   1.834  13.546 -0.2017 -0.4146 -0.1948
   94TCq2    C4 1434   0.804   1.766  13.575 -0.4389 -0.3501 -0.0611
   94TCq2    C5 1435   0.925   1.820  13.538  1.0548 -0.7220 -0.4449
   94TCq2    C6 1436   0.917   1.937  13.458  0.1106  0.9439  0.3945
   94TCq2    C7 1437   0.798   1.987  13.405  0.6146 -0.1064  0.1052
   94TCq2    C8 1438   1.038   2.006  13.435  0.6480 -0.2709 -1.1142
   94TCq2    O4 1439   1.134   1.968  13.500 -0.3297 -0.7493  0.1859
   94TCq2    C9 1440   0.805   1.662  13.676  0.1456 -0.2721  0.5413
   94TCq2    O5 1441   0.910   1.589  13.682 -0.1926 -0.3070  0.2206
   94TCq2    O6 1442   0.728   1.675  13.773  0.6496  0.1487  0.2466
   94TCq2    H2 1443   0.601   1.806  13.602  0.4408 -4.2680 -1.1285
   94TCq2    H3 1444   1.016   1.767  13.561 -0.1474 -2.7864 -0.4051
   94TCq2    H4 1445   0.786   2.074  13.342  0.7927  1.6519  2.5333
   95TMC2    C1 1446   0.991   3.361  15.964 -0.0114 -0.3244 -0.1444
   95TMC2    C2 1447   1.034   3.323  16.079  0.2454  0.5065 -0.5816
   95TMC2    C3 1448   0.944   3.261  16.159 -0.0338  0.0368 -0.0671
   95TMC2    C4 1449   0.862   3.338  15.912 -0.0305 -0.6659 -0.1010
   95TMC2    C5 1450   0.777   3.272  15.997 -0.3987 -0.1895  0.1083
   95TMC2    C6 1451   0.820   3.227  16.118 -0.1828 -0.1522 -0.1736
   95TMC2     C 1452   1.081   3.454  15.890  0.5617 -0.5975  0.6197
   95TMC2     O 1453   1.195   3.466  15.918 -0.2824  0.7446 -0.3319
   95TMC2     H 1454   1.131   3.353  16.118 -0.7493  2.0551  0.7027
   95TMC2    H1 1455   0.840   3.358  15.807  2.1422 -2.2158 -0.8523
   95TMC2    H2 1456   0.744   3.171  16.172  0.6519  0.3972  1.5579
   95TMC2    C7 1457   0.650   3.230  15.943  0.3831 -0.1802  0.1728
   95TMC2    C8 1458   0.988   3.181  16.278  0.0945  0.3729  0.9134
   95TMC2    O1 1459   0.580   3.146  16.004 -0.0941  0.5017 -0.4770
   95TMC2    O2 1460   0.896   3.121  16.337  0.2172  0.2457 -0.5015
   95TMC2    O5 1461   1.099   3.118  16.226  0.1930 -0.1722 -1.1066
   95TMC2    H5 1462   1.146   3.149  16.146  0.1572  3.5258  0.2888
   96MPD2     C 1463   1.131   3.837  15.547  0.2974 -0.2256  0.1600
   96MPD2    C1 1464   1.223   3.757  15.614 -0.4642  0.0950  0.5331
   96MPD2    C2 1465   1.194   3.654  15.702 -0.1583  0.5451 -0.9350
   96MPD2    C3 1466   1.058   3.633  15.716 -0.7079  0.0256 -0.1696
   96MPD2    C4 1467   0.966   3.719  15.663  0.8756 -0.3802  0.0339
   96MPD2    C5 1468   0.999   3.819  15.576  0.0751 -0.1875 -0.2386
   96MPD2     H 1469   1.266   3.579  15.734 -1.4383 -0.5311 -0.5680
   96MPD2    H1 1470   0.862   3.701  15.691  0.2386  1.5524 -1.1326
   96MPD2    H2 1471   1.161   3.914  15.477  2.4997  0.2221  1.6048
   96MPD2    H3 1472   0.918   3.873  15.529 -1.1162 -0.9471  0.9239
   96MPD2     N 1473   1.006   3.530  15.801  0.4577  0.3683 -0.2138
   96MPD2    H5 1474   0.905   3.536  15.807  0.7592  2.9929  1.9489
   96MPD2    N1 1475   1.355   3.777  15.575  0.1794 -0.1110 -0.0812
   96MPD2    H7 1476   1.371   3.832  15.491  0.1573 -0.9209 -0.6189
   97MPD2     C 1477   2.914   1.050   1.396  0.2114 -0.0158 -0.1435
   97MPD2    C1 1478   2.840   1.167   1.416  0.7384 -0.4810 -0.1630
   97MPD2    C2 1479   2.887   1.292   1.391 -0.2164  0.2421  0.4097
   97MPD2    C3 1480   3.022   1.315   1.362  0.6979 -0.0787  0.2240
   97MPD2    C4 1481   3.100   1.195   1.348 -0.1966 -0.2040 -0.9168
   97MPD2    C5 1482   3.046   1.069   1.365  0.2985 -0.2570 -0.7662
   97MPD2     H 1483   2.820   1.376   1.399 -0.1078  0.1429  2.4569
   97MPD2    H1 1484   3.204   1.200   1.319 -0.6335 -1.0508 -2.6341
   97MPD2    H2 1485   2.874   0.951   1.414 -1.6222  0.9369  0.9384
   97MPD2    H3 1486   3.117   0.988   1.359 -0.0106 -0.5614 -0.3956
   97MPD2     N 1487   3.086   1.440   1.333  0.3683 -0.3893  0.5809
   97MPD2    H5 1488   3.183   1.443   1.301  0.7019 -3.4452  1.2576
   97MPD2    N1 1489   2.709   1.143   1.475 -0.5442  0.5322  0.4422
   97MPD2    H7 1490   2.678   1.046   1.478 -0.5775  0.4891 -0.9844
   98TCq2    C1 1491   3.030   1.560   1.361 -0.0795  0.2257 -0.1390
   98TCq2    O2 1492   2.922   1.578   1.409 -0.1227 -0.3514 -0.0075
   98TCq2    C2 1493   3.106   1.679   1.333  0.7931 -0.0749 -0.1705
   98TCq2    C3 1494   3.068   1.792   1.396  0.0128  0.2341 -0.0482
   98TCq2    C4 1495   3.134   1.906   1.370 -0.3726 -0.8205  0.6199
   98TCq2    C5 1496   3.230   1.902   1.273  0.4380  0.3669  0.3592
   98TCq2    C6 1497   3.268   1.788   1.211  0.2499 -0.1371 -0.5870
   98TCq2    C7 1498   3.204   1.670   1.234 -0.6744  0.4001  0.0206
   98TCq2    C8 1499   3.375   1.785   1.098 -0.3924  0.7126 -0.0014
   98TCq2    O4 1500   3.388   1.885   1.034  0.3587  0.4208  1.0060
   98TCq2    C9 1501   3.101   2.031   1.441 -0.0312 -0.2303  0.5098
   98TCq2    O5 1502   3.037   2.036   1.549 -0.3803  0.2672  0.0090
   98TCq2    O6 1503   3.160   2.133   1.387 -0.2262 -0.3204 -0.0347
   98TCq2    H2 1504   2.990   1.789   1.471 -0.7999  0.2083 -0.8948
   98TCq2    H3 1505   3.272   1.996   1.237 -1.9615  1.2737 -0.1341
   98TCq2    H4 1506   3.226   1.583   1.173 -3.8136  0.4514 -1.2253
   99MPD2     C 1507   0.751   2.609   1.808  0.1518  0.2067 -0.2154
   99MPD2    C1 1508   0.781   2.743   1.814 -0.7974 -0.0755  0.0655
   99MPD2    C2 1509   0.879   2.791   1.733 -0.4649 -0.6882  0.4401
   99MPD2    C3 1510   0.953   2.712   1.636 -0.0579 -0.2323 -0.6441
   99MPD2    C4 1511   0.915   2.585   1.630  0.1186 -0.1876 -0.4917
   99MPD2    C5 1512   0.821   2.533   1.717  0.3169 -0.0374 -0.4231
   99MPD2     H 1513   0.919   2.886   1.767  0.3061 -1.6428  2.1360
   99MPD2    H1 1514   0.954   2.518   1.555 -0.2371 -0.1347 -0.7220
   99MPD2    H2 1515   0.671   2.561   1.864  0.9122 -0.2875  0.4322
   99MPD2    H3 1516   0.793   2.429   1.712 -1.6540  0.3142  2.9084
   99MPD2     N 1517   1.060   2.768   1.569 -0.5266  0.1411 -0.0752
   99MPD2    H5 1518   1.061   2.869   1.581 -1.3708  0.1517 -0.0339
   99MPD2    N1 1519   0.714   2.826   1.916  0.4168 -0.2015 -0.4059
   99MPD2    H7 1520   0.732   2.925   1.903  0.4811 -0.4491 -2.1659
  100TCq2    C1 1521   0.627   2.786   2.008 -0.6141 -0.2765  0.5563
  100TCq2    O2 1522   0.628   2.680   2.067  0.2676 -0.1110 -0.5003
  100TCq2    C2 1523   0.553   2.899   2.071 -0.5616 -0.5666 -0.5143
  100TCq2    C3 1524   0.501   2.876   2.196  0.1670 -0.1149  0.5807
  100TCq2    C4 1525   0.440   2.972   2.274 -0.2312 -0.4235  0.0330
  100TCq2    C5 1526   0.433   3.098   2.218  0.2668 -0.0252  0.1313
  100TCq2    C6 1527   0.488   3.119   2.093 -0.0509 -0.0824  0.3120
  100TCq2    C7 1528   0.549   3.023   2.013  0.3228  0.0211 -0.3366
  100TCq2    C8 1529   0.467   3.256   2.052 -0.7078  0.2733 -0.4754
  100TCq2    O4 1530   0.386   3.330   2.113  0.0056 -0.2939 -0.4009
  100TCq2    C9 1531   0.390   2.940   2.403  0.2484 -0.2804  0.2912
  100TCq2    O5 1532   0.436   2.843   2.467 -0.6942 -0.6222  0.0519
  100TCq2    O6 1533   0.311   3.026   2.458  0.4153 -0.4624  0.6794
  100TCq2    H2 1534   0.527   2.787   2.252 -1.5106 -0.5341  0.6837
  100TCq2    H3 1535   0.379   3.177   2.269 -0.1887 -0.9616  1.1036
  100TCq2    H4 1536   0.574   3.048   1.910  1.3287 -2.4641 -0.6952
  101MPD2     C 1537   2.842   4.074  12.811 -0.4273 -0.2294  0.8383
  101MPD2    C1 1538   2.789   4.166  12.900  0.5846  0.1738 -0.1092
  101MPD2    C2 1539   2.699   4.129  13.000  0.0506  0.1978  0.0305
  101MPD2    C3 1540   2.671   3.991  13.016 -0.6922 -0.3889  0.8049
  101MPD2    C4 1541   2.734   3.906  12.941 -0.5777  0.1902  0.4884
  101MPD2    C5 1542   2.814   3.945  12.840  0.1005  1.2749 -0.0157
  101MPD2     H 1543   2.647   4.197  13.066  1.8334  1.4963  0.1004
  101MPD2    H1 1544   2.739   3.798  12.953 -0.6360  0.1492  0.1330
  101MPD2    H2 1545   2.907   4.111  12.732 -1.0246 -0.8969  0.0423
  101MPD2    H3 1546   2.868   3.869  12.784  2.7059  5.0202 -2.5498
  101MPD2     N 1547   2.573   3.949  13.105  0.2661  0.1313  0.0944
  101MPD2    H5 1548   2.525   4.017  13.164 -0.7248 -0.6907  0.2243
  101MPD2    N1 1549   2.826   4.301  12.879  0.0455  0.0200  0.0159
  101MPD2    H7 1550   2.887   4.319  12.799  1.2970 -2.9251  0.3137
  102TCq2    C1 1551   3.035   4.703  12.652 -0.9649 -0.1979 -0.3404
  102TCq2    O2 1552   3.084   4.600  12.603 -0.1558  0.1205 -0.0875
  102TCq2    C2 1553   2.983   4.690  12.786 -0.0745  0.3863 -1.1579
  102TCq2    C3 1554   2.918   0.084  12.827  0.0031 -0.2824 -0.6944
  102TCq2    C4 1555   2.820   0.057  12.922 -0.3731  0.2391 -0.3954
  102TCq2    C5 1556   2.778   4.656  12.961 -0.4540  0.9204 -0.2878
  102TCq2    C6 1557   2.828   4.545  12.897 -0.7848  0.1261  0.5061
  102TCq2    C7 1558   2.931   4.565  12.809 -0.7695 -0.0152  0.4077
  102TCq2    C8 1559   2.783   4.414  12.954  0.6087  0.2003 -0.9302
  102TCq2    O4 1560   2.712   4.413  13.051 -0.1127  0.0001 -0.1640
  102TCq2    C9 1561   2.755   0.176  12.976  0.3422 -0.3584 -0.5286
  102TCq2    O5 1562   2.811   0.282  12.941 -0.0250 -0.2934 -0.8746
  102TCq2    O6 1563   2.633   0.163  13.005  0.8732 -0.2934  0.3255
  102TCq2    H2 1564   2.957   0.180  12.796  0.6282  0.1015  1.2635
  102TCq2    H3 1565   2.695   4.657  13.031 -0.6901  1.1929 -0.5701
  102TCq2    H4 1566   2.976   4.481  12.757 -0.3820  0.7175 -0.4305
  103TMC2    C1 1567   1.390   0.122  13.137  0.3154 -0.2808 -0.3358
  103TMC2    C2 1568   1.422   0.248  13.124 -0.1188 -0.3954 -0.1804
  103TMC2    C3 1569   1.395   0.334  13.228  0.5302  0.4575 -0.0866
  103TMC2    C4 1570   1.358   0.070  13.259  0.3402 -0.6100  0.5447
  103TMC2    C5 1571   1.345   0.155  13.368 -0.1346 -0.6214  0.1741
  103TMC2    C6 1572   1.358   0.288  13.355  0.1287 -0.4991 -0.2363
  103TMC2     C 1573   1.364   0.036  13.025 -0.3934 -0.3251  0.1156
  103TMC2     O 1574   1.274   4.681  13.033 -0.2375  0.2047  0.3599
  103TMC2     H 1575   1.447   0.294  13.029  0.4917 -1.4034 -0.5097
  103TMC2    H1 1576   1.329   4.689  13.263  0.0573 -0.4747  2.0927
  103TMC2    H2 1577   1.328   0.359  13.431 -0.5312  0.6823 -1.5839
  103TMC2    C7 1578   1.268   0.116  13.479 -0.2746 -0.2219  0.5051
  103TMC2    C8 1579   1.392   0.473  13.206  0.3756 -0.0357 -0.4249
  103TMC2    O1 1580   1.204   0.212  13.530 -0.2757  0.1311  0.0613
  103TMC2    O2 1581   1.369   0.518  13.093 -0.3794 -0.2813 -0.3993
  103TMC2    O5 1582   1.451   0.541  13.305  0.3039  0.5766 -0.6634
  103TMC2    H5 1583   1.461   0.495  13.391 -2.4624 -0.6267 -0.9818
  104MPD2     C 1584   1.503   0.037  12.696 -0.1028  0.2837 -0.3628
  104MPD2    C1 1585   1.427   4.713  12.797  0.1457 -0.2533 -0.2476
  104MPD2    C2 1586   1.337   4.611  12.757 -1.0132  0.4559 -1.0820
  104MPD2    C3 1587   1.339   4.548  12.635  0.1388 -0.0041  0.0997
  104MPD2    C4 1588   1.436   4.598  12.546  0.6271 -0.4106 -0.3549
  104MPD2    C5 1589   1.510   4.708  12.572  0.1989  0.2738 -0.3337
  104MPD2     H 1590   1.271   4.573  12.833 -2.2901  3.4951 -0.6651
  104MPD2    H1 1591   1.447   4.546  12.452  0.6361 -1.7854  0.4036
  104MPD2    H2 1592   1.564   0.125  12.715  0.1176  0.0808 -0.1261
  104MPD2    H3 1593   1.586   0.020  12.503  0.3094 -1.2159 -0.9740
  104MPD2     N 1594   1.259   4.436  12.599 -0.9572 -0.8976 -0.8551
  104MPD2    H5 1595   1.283   4.402  12.507 -0.2364  0.5803 -1.2052
  104MPD2    N1 1596   1.441   0.059  12.921  0.3045  0.3140  0.1731
  104MPD2    H7 1597   1.503   0.139  12.924 -0.1769  0.6308  1.8045
  105MPD2     C 1598   2.431   3.745   0.116  0.0653 -0.1354  0.0966
  105MPD2    C1 1599   2.306   3.788   0.079 -0.1558  0.2614  0.2461
  105MPD2    C2 1600   2.221   3.842   0.179  0.1780 -0.0881 -0.4800
  105MPD2    C3 1601   2.267   3.868   0.310  0.7160 -0.2289  0.1206
  105MPD2    C4 1602   2.385   3.805   0.347 -0.0666  0.2496  0.0110
  105MPD2    C5 1603   2.461   3.741   0.253 -0.4531 -0.0192 -0.2004
  105MPD2     H 1604   2.121   3.874   0.151 -0.1834 -0.7729  0.0068
  105MPD2    H1 1605   2.432   3.822   0.443  0.0510 -0.1874  0.0337
  105MPD2    H2 1606   2.496   3.684   0.054 -0.8123 -1.9818  0.9781
  105MPD2    H3 1607   2.561   3.713   0.283 -1.2359 -0.9815  1.4848
  105MPD2     N 1608   2.191   3.944   0.401  0.4374 -0.1511  0.0346
  105MPD2    H5 1609   2.101   3.973   0.364 -0.7917 -1.1509  2.2204
  105MPD2    N1 1610   2.250   3.776  17.645  0.0675 -0.3013 -0.4469
  105MPD2    H7 1611   2.157   3.809  17.621  0.1244  0.3751  0.2622
  106TCq2    C1 1612   2.211   3.969   0.535 -0.5958 -0.0876 -0.1267
  106TCq2    O2 1613   2.304   3.933   0.606 -0.2092 -0.2706 -0.7135
  106TCq2    C2 1614   2.112   4.051   0.596 -0.4290  0.4246  0.4840
  106TCq2    C3 1615   2.114   4.071   0.733 -0.8438  0.5812  0.2786
  106TCq2    C4 1616   2.017   4.156   0.784  0.1357  0.6724  0.7126
  106TCq2    C5 1617   1.923   4.224   0.707 -0.0364 -0.0745  0.1271
  106TCq2    C6 1618   1.924   4.199   0.571  0.1977 -0.2120 -0.0682
  106TCq2    C7 1619   2.016   4.106   0.512  0.2429  0.2217  0.6010
  106TCq2    C8 1620   1.825   4.267   0.487 -0.3624 -0.4026 -0.7464
  106TCq2    O4 1621   1.820   4.248   0.366  0.1816  0.3976 -0.2468
  106TCq2    C9 1622   2.018   4.187   0.921  0.8711 -0.0856  0.4417
  106TCq2    O5 1623   2.126   4.165   0.984 -0.2945  0.2425 -0.3040
  106TCq2    O6 1624   1.906   4.228   0.963  0.2567 -0.8691  0.0798
  106TCq2    H2 1625   2.175   4.011   0.798  0.8684  2.2988  0.2500
  106TCq2    H3 1626   1.859   4.297   0.755 -1.9929 -1.6504 -0.0907
  106TCq2    H4 1627   1.995   4.083   0.408 -1.0769  1.0713  0.6791
  107TMC2    C1 1628   3.376   2.544  11.670 -0.0789 -0.7042  0.0564
  107TMC2    C2 1629   3.322   2.486  11.558  0.4103 -0.4108 -0.0409
  107TMC2    C3 1630   3.368   2.358  11.522 -0.5576  0.0983  0.2899
  107TMC2    C4 1631   3.455   2.469  11.753  0.3609 -0.5451 -0.3764
  107TMC2    C5 1632   3.489   2.336  11.714 -0.3898  0.3219  0.2090
  107TMC2    C6 1633   3.446   2.277  11.593  1.0938  1.0529 -1.4003
  107TMC2     C 1634   3.315   2.663  11.728 -0.2233 -0.2374 -0.1388
  107TMC2     O 1635   3.312   2.675  11.851  0.1301 -0.4934 -0.1085
  107TMC2     H 1636   3.259   2.536  11.486  0.2016 -1.6769 -0.7414
  107TMC2    H1 1637   3.498   2.507  11.845 -1.0035  0.0775 -0.0072
  107TMC2    H2 1638   3.476   2.177  11.568 -0.8487  0.2424 -0.4932
  107TMC2    C7 1639   3.600   2.282  11.779  0.2382 -0.3183  0.2906
  107TMC2    C8 1640   3.289   2.302  11.407 -0.2040 -0.3999 -0.4508
  107TMC2    O1 1641   3.611   2.313  11.895 -0.6817  0.0794  0.4218
  107TMC2    O2 1642   3.174   2.342  11.386  0.1134 -0.3309 -0.5010
  107TMC2    O5 1643   3.382   2.278  11.316  0.2987  0.0576  0.7819
  107TMC2    H5 1644   3.469   2.277  11.362  0.2986 -0.3362  0.7746
  108MPD2     C 1645   3.269   2.976  11.564 -0.1589 -0.1532 -0.1392
  108MPD2    C1 1646   3.244   2.884  11.663 -0.2788  0.0103 -0.0102
  108MPD2    C2 1647   3.186   2.914  11.781  0.8228  0.0253 -0.2353
  108MPD2    C3 1648   3.129   3.041  11.795  0.3574 -1.5468 -0.3671
  108MPD2    C4 1649   3.140   3.130  11.688  0.1399 -0.4577 -0.3396
  108MPD2    C5 1650   3.212   3.099  11.577  0.3175  0.2916  0.0789
  108MPD2     H 1651   3.167   2.843  11.861 -0.1281 -0.1000 -0.5772
  108MPD2    H1 1652   3.101   3.231  11.697 -0.4058 -0.7883  1.0163
  108MPD2    H2 1653   3.318   2.936  11.475 -1.1422  0.2258 -0.8597
  108MPD2    H3 1654   3.226   3.179  11.505  0.9206  1.3381  1.3374
  108MPD2     N 1655   3.052   3.088  11.902 -0.0720  0.2422 -0.4550
  108MPD2    H5 1656   2.989   3.167  11.891 -0.4548 -0.1037 -0.7528
  108MPD2    N1 1657   3.290   2.757  11.636 -0.1457  0.2891  0.1885
  108MPD2    H7 1658   3.319   2.737  11.541 -1.6924  1.2854 -0.4962
  109MPD2     C 1659   2.951   4.681   1.563 -0.6325  0.2024 -0.4524
  109MPD2    C1 1660   2.852   0.042   1.521 -0.0382  0.0908  0.3777
  109MPD2    C2 1661   2.783   0.103   1.619 -0.6333 -0.3299 -0.3448
  109MPD2    C3 1662   2.778   0.047   1.747  0.5144 -0.2044  0.4854
  109MPD2    C4 1663   2.868   4.669   1.784  0.5374 -0.5755  0.0251
  109MPD2    C5 1664   2.961   4.637   1.691 -0.5584 -0.1519 -0.1846
  109MPD2     H 1665   2.717   0.185   1.592 -1.7812 -0.5065  1.9719
  109MPD2    H1 1666   2.871   4.623   1.883 -1.9358 -0.5488  0.1056
  109MPD2    H2 1667   3.025   4.651   1.490  0.3982  0.6262  0.4270
  109MPD2    H3 1668   3.039   4.573   1.731 -1.8336 -0.6277  1.5336
  109MPD2     N 1669   2.688   0.105   1.840 -0.5233 -0.0274 -0.4270
  109MPD2    H5 1670   2.631   0.179   1.799  0.5238  0.6741 -0.6065
  109MPD2    N1 1671   2.839   0.072   1.383 -0.7407  0.7448 -0.5368
  109MPD2    H7 1672   2.888   0.001   1.330  1.4250  2.0383 -0.2784
  110TCq2    C1 1673   2.677   0.069   1.968 -0.3962  0.3606 -0.0977
  110TCq2    O2 1674   2.740   4.713   2.041  0.5499 -0.2303 -0.7224
  110TCq2    C2 1675   2.574   0.143   2.033  0.9470  0.7528 -0.2073
  110TCq2    C3 1676   2.505   0.071   2.118  0.8469  0.4880 -0.2379
  110TCq2    C4 1677   2.383   0.126   2.146 -0.0546  0.2992 -0.4508
  110TCq2    C5 1678   2.335   0.241   2.093  0.7671  0.2334  0.9028
  110TCq2    C6 1679   2.409   0.303   1.996 -0.7849  0.3960  0.1448
  110TCq2    C7 1680   2.529   0.251   1.966  0.1189  0.3129 -1.0438
  110TCq2    C8 1681   2.388   0.447   1.982  0.3404  0.4015  0.1786
  110TCq2    O4 1682   2.482   0.507   1.932  0.0098  0.4991  0.4944
  110TCq2    C9 1683   2.301   0.050   2.237  0.4645 -0.1659 -0.4404
  110TCq2    O5 1684   2.199   0.110   2.288  0.6386 -0.0806  0.2708
  110TCq2    O6 1685   2.328   4.654   2.263 -0.0640 -0.3442  0.6009
  110TCq2    H2 1686   2.535   4.697   2.153  0.8583 -0.0089 -1.6302
  110TCq2    H3 1687   2.234   0.267   2.122  0.5551  0.5288 -0.0907
  110TCq2    H4 1688   2.601   0.313   1.914  0.9080  0.9409  0.8049
  111TMC2    C1 1689   2.772   0.481  11.367 -0.2882 -0.4348 -0.1677
  111TMC2    C2 1690   2.684   0.515  11.464 -0.1048 -0.0110 -0.4317
  111TMC2    C3 1691   2.701   0.454  11.588  0.5182  0.0463  0.4047
  111TMC2    C4 1692   2.878   0.403  11.388 -0.0489 -0.5577  0.2896
  111TMC2    C5 1693   2.891   0.352  11.514  0.1289 -0.2687 -0.2109
  111TMC2    C6 1694   2.798   0.366  11.612 -0.2072  0.3781 -0.3946
  111TMC2     C 1695   2.787   0.556  11.243  0.0271  0.4380 -0.2870
  111TMC2     O 1696   2.810   0.495  11.138 -0.9831 -0.1654  0.1070
  111TMC2     H 1697   2.595   0.573  11.441 -0.1370  0.2834  0.4382
  111TMC2    H1 1698   2.942   0.378  11.305  0.3711 -1.0740  0.7695
  111TMC2    H2 1699   2.807   0.316  11.707 -0.1283  0.3017 -0.4420
  111TMC2    C7 1700   3.014   0.284  11.558 -0.0502  0.3070  0.0823
  111TMC2    C8 1701   2.613   0.496  11.698 -0.0218 -0.4163 -0.1988
  111TMC2    O1 1702   3.005   0.225  11.667 -0.2051  0.8515  0.4740
  111TMC2    O2 1703   2.579   0.428  11.795  0.1786  0.1026 -0.1497
  111TMC2    O5 1704   2.561   0.620  11.671 -0.4812 -0.4259 -0.2348
  111TMC2    H5 1705   2.607   0.667  11.599 -1.8464  1.9716  0.4716
  112MPD2     C 1706   2.785   1.002  10.979 -0.1218 -0.5558 -0.0831
  112MPD2    C1 1707   2.823   0.873  10.946 -0.1650  0.4090 -0.0756
  112MPD2    C2 1708   2.822   0.771  11.037 -0.6056  0.4375  0.2287
  112MPD2    C3 1709   2.775   0.792  11.165 -0.7944  0.1922 -0.4024
  112MPD2    C4 1710   2.742   0.922  11.194 -0.5239  0.1861 -0.0187
  112MPD2    C5 1711   2.744   1.029  11.109 -0.7716 -0.1609  0.3031
  112MPD2     H 1712   2.845   0.673  10.998 -1.7257  0.3743 -0.2833
  112MPD2    H1 1713   2.704   0.954  11.291 -2.2992  0.5245 -0.8144
  112MPD2    H2 1714   2.776   1.078  10.902  0.2004 -1.1175 -0.6709
  112MPD2    H3 1715   2.710   1.127  11.140 -1.4204  0.0119 -0.9607
  112MPD2     N 1716   2.761   0.691  11.261  0.2680 -0.1120 -0.2782
  112MPD2    H5 1717   2.734   0.706  11.358 -0.3395  1.5563 -0.7084
  112MPD2    N1 1718   2.863   0.833  10.810  0.3826  0.0290 -0.0814
  112MPD2    H7 1719   2.892   0.737  10.794 -1.4474 -0.5771  0.2244
  113MPD2     C 1720   0.809   3.497   0.682  0.2218 -0.3508  0.0620
  113MPD2    C1 1721   0.697   3.557   0.730 -0.2261  0.6324 -0.0373
  113MPD2    C2 1722   0.595   3.476   0.773  0.9892 -0.5583 -0.6641
  113MPD2    C3 1723   0.606   3.333   0.781 -0.5127 -0.0257  0.5730
  113MPD2    C4 1724   0.724   3.277   0.732 -0.0280  0.4199  0.9292
  113MPD2    C5 1725   0.823   3.360   0.683  0.1093  0.6379 -0.4350
  113MPD2     H 1726   0.497   3.518   0.796  1.1463  0.5516 -1.9666
  113MPD2    H1 1727   0.723   3.169   0.724  2.3183  0.4168  0.9078
  113MPD2    H2 1728   0.885   3.550   0.626 -1.4099  1.0598 -0.8075
  113MPD2    H3 1729   0.914   3.323   0.638 -0.4606  0.6179 -1.5613
  113MPD2     N 1730   0.505   3.251   0.842  0.1687 -0.7000 -0.1184
  113MPD2    H5 1731   0.535   3.158   0.869  1.7862 -0.3060 -0.5506
  113MPD2    N1 1732   0.678   3.697   0.739  0.4003 -0.3079  0.0974
  113MPD2    H7 1733   0.588   3.732   0.769  0.6257  0.5398 -0.2146
  114TCq2    C1 1734   0.374   3.289   0.863  0.0256 -0.1928  0.4987
  114TCq2    O2 1735   0.313   3.386   0.819 -0.1304  0.5268  0.1697
  114TCq2    C2 1736   0.302   3.170   0.895  0.1390  0.2873  0.0056
  114TCq2    C3 1737   0.189   3.154   0.819  0.3205 -0.2637  0.2712
  114TCq2    C4 1738   0.149   3.024   0.811 -0.4387  0.2938  0.3305
  114TCq2    C5 1739   0.207   2.922   0.887  0.3538 -0.3919 -0.0030
  114TCq2    C6 1740   0.302   2.959   0.982 -0.3163  0.0090 -0.1157
  114TCq2    C7 1741   0.355   3.082   0.989  0.0952  0.2526 -0.3335
  114TCq2    C8 1742   0.363   2.858   1.062 -0.2374  0.3533  0.5946
  114TCq2    O4 1743   0.475   2.877   1.094 -0.4426  0.0202 -0.2504
  114TCq2    C9 1744   0.049   3.000   0.708 -0.2569  0.7973 -0.2502
  114TCq2    O5 1745   0.001   2.887   0.693  0.2632  0.5275  0.3151
  114TCq2    O6 1746   0.028   3.106   0.643  0.2670 -0.0423  0.6415
  114TCq2    H2 1747   0.157   3.233   0.752 -1.2660  0.0351  1.3760
  114TCq2    H3 1748   0.161   2.824   0.880  0.6029 -0.4818 -0.3921
  114TCq2    H4 1749   0.429   3.116   1.060  1.2906 -0.6038 -1.1703
  115TMC2    C1 1750   1.541   0.783  17.642 -0.3705  0.1684  0.4827
  115TMC2    C2 1751   1.668   0.759  17.596 -0.2689  0.0016 -0.1950
  115TMC2    C3 1752   1.758   0.860  17.593 -0.2383  0.0894 -0.5918
  115TMC2    C4 1753   1.498   0.905  17.679 -0.9003 -0.0218 -0.6953
  115TMC2    C5 1754   1.594   1.008  17.668 -0.5965  0.0973  0.5864
  115TMC2    C6 1755   1.723   0.988  17.631  0.0247  0.7788  0.3711
  115TMC2     C 1756   1.441   0.674  17.640  0.5843  0.3665 -0.3962
  115TMC2     O 1757   1.464   0.576  17.569 -0.5990 -0.0880 -0.3438
  115TMC2     H 1758   1.705   0.657  17.585  0.0175 -0.1925  2.6643
  115TMC2    H1 1759   1.394   0.925   0.008 -0.2578  1.7401  0.5706
  115TMC2    H2 1760   1.797   1.067  17.638  0.8267  0.0012  0.7475
  115TMC2    C7 1761   1.543   1.131   0.020 -0.1628  0.3736 -0.1028
  115TMC2    C8 1762   1.887   0.823  17.543  0.0563 -0.7829 -0.1650
  115TMC2    O1 1763   1.424   1.142   0.041  0.0870  0.0741  0.5694
  115TMC2    O2 1764   1.983   0.806  17.620  0.1270 -0.5416 -0.1757
  115TMC2    O5 1765   1.856   0.742  17.439  0.5235 -0.3570 -0.2683
  115TMC2    H5 1766   1.775   0.772  17.392  0.0083 -0.4682  0.5551
  116MPD2     C 1767   0.953   0.569  17.660 -0.1367 -0.0887  0.0495
  116MPD2    C1 1768   1.052   0.500  17.596  0.0705 -0.6112 -0.4609
  116MPD2    C2 1769   1.182   0.537  17.620  0.2665 -0.5135 -0.0044
  116MPD2    C3 1770   1.207   0.645   0.012 -0.3735 -0.1528  0.3530
  116MPD2    C4 1771   1.105   0.722   0.064 -0.2724 -0.5446  0.1339
  116MPD2    C5 1772   0.982   0.674   0.041  1.1283  0.4428 -1.1341
  116MPD2     H 1773   1.261   0.485  17.568  0.6816 -1.1318  1.2594
  116MPD2    H1 1774   1.129   0.807   0.126  0.0077 -0.6691  0.1969
  116MPD2    H2 1775   0.850   0.538  17.649 -0.6610  1.1075  1.6905
  116MPD2    H3 1776   0.899   0.725   0.087 -0.1548 -1.4096 -1.4141
  116MPD2     N 1777   1.332   0.701   0.024  0.5217 -0.8500 -0.2938
  116MPD2    H5 1778   1.346   0.775   0.091 -1.1190  0.4251 -1.3438
  116MPD2    N1 1779   1.002   0.398  17.513  0.6513 -0.7820  0.0079
  116MPD2    H7 1780   0.903   0.398  17.491  0.1083  0.2751  2.4318
  117TMC2    C1 1781   0.194   1.804  13.733  0.5797  0.8214 -0.0844
  117TMC2    C2 1782   0.248   1.683  13.769  0.7674 -0.4174 -0.1579
  117TMC2    C3 1783   0.376   1.677  13.818  0.5121 -0.3126  0.2315
  117TMC2    C4 1784   0.265   1.918  13.754 -0.5262  0.0074 -0.3721
  117TMC2    C5 1785   0.393   1.907  13.801 -0.0858 -0.3718  0.0827
  117TMC2    C6 1786   0.446   1.791  13.844 -0.0462 -0.0775  0.0894
  117TMC2     C 1787   0.052   1.801  13.722  0.3702  0.0242 -0.2012
  117TMC2     O 1788   0.004   1.690  13.711 -0.3285  0.6185  0.3173
  117TMC2     H 1789   0.185   1.595  13.758  1.5838 -1.2877  2.1234
  117TMC2    H1 1790   0.229   2.019  13.737 -0.3027  0.1711  0.1371
  117TMC2    H2 1791   0.548   1.795  13.881  0.0330 -0.1334 -0.1219
  117TMC2    C7 1792   0.458   2.033  13.843  0.4989 -0.1636  0.2923
  117TMC2    C8 1793   0.409   1.555  13.889 -0.4509  0.0544  0.7238
  117TMC2    O1 1794   0.412   2.139  13.798 -0.1437 -0.1403 -0.2837
  117TMC2    O2 1795   0.335   1.460  13.902  0.0553 -0.7135 -0.4313
  117TMC2    O5 1796   0.543   1.542  13.905 -0.0507  0.1231 -0.7176
  117TMC2    H5 1797   0.602   1.616  13.879 -0.2731  0.1527 -1.1369
  118MPD2     C 1798   0.680   2.090  14.115 -0.5931 -0.3814 -0.5844
  118MPD2    C1 1799   0.625   2.119  13.995  0.0983 -0.6755 -0.6829
  118MPD2    C2 1800   0.662   2.240  13.930  0.1153 -0.2785 -0.9151
  118MPD2    C3 1801   0.751   2.331  13.992  0.3302  0.2219  0.6397
  118MPD2    C4 1802   0.799   2.294  14.110 -0.9264  0.2583 -1.0469
  118MPD2    C5 1803   0.766   2.184  14.179  0.3177  0.6349 -0.1815
  118MPD2     H 1804   0.621   2.266  13.833  1.9936  0.6201 -1.4694
  118MPD2    H1 1805   0.852   2.366  14.171 -0.9397  0.8279 -1.7067
  118MPD2    H2 1806   0.666   1.991  14.156  1.2943  0.1803  1.4256
  118MPD2    H3 1807   0.796   2.157  14.279  2.2383  1.9483 -0.4124
  118MPD2     N 1808   0.802   2.447  13.927  0.2966 -0.8264  0.1411
  118MPD2    H5 1809   0.878   2.498  13.973  1.5318 -3.6410  1.2296
  118MPD2    N1 1810   0.549   2.020  13.942  0.0929  0.2747 -0.1430
  118MPD2    H7 1811   0.561   1.928  13.984 -0.3033  0.0077 -0.6162
  119MPD2     C 1812   3.458   3.551  13.592  0.2148  0.3867  0.3829
  119MPD2    C1 1813   3.331   3.597  13.627  0.3426  0.8867 -0.6596
  119MPD2    C2 1814   3.236   3.619  13.528 -1.0140  0.2889 -0.0493
  119MPD2    C3 1815   3.260   3.590  13.395 -0.5744  0.5187  0.8081
  119MPD2    C4 1816   3.388   3.543  13.362 -0.2109  0.0719  0.5011
  119MPD2    C5 1817   3.480   3.529  13.460 -0.3663 -0.4873  0.2132
  119MPD2     H 1818   3.150   3.673  13.565 -0.1074  0.5097  1.7562
  119MPD2    H1 1819   3.407   3.516  13.259  0.2496  0.5890  0.4486
  119MPD2    H2 1820   3.541   3.546  13.660 -0.0614 -0.0654  0.6861
  119MPD2    H3 1821   3.580   3.492  13.440 -0.6811 -0.8846 -0.6297
  119MPD2     N 1822   3.164   3.613  13.292  0.4370 -0.1234 -0.4196
  119MPD2    H5 1823   3.197   3.580  13.202  0.1857 -1.4517 -0.0273
  119MPD2    N1 1824   3.308   3.621  13.763 -0.0518 -0.0528 -0.2396
  119MPD2    H7 1825   3.386   3.597  13.824 -1.0520 -0.3095  0.9498
  120TCq2    C1 1826   3.035   3.651  13.306  0.2552 -0.5129 -0.1813
  120TCq2    O2 1827   2.976   3.658  13.411  0.2690 -0.0049  1.0248
  120TCq2    C2 1828   2.946   3.629  13.191 -0.1033 -0.9250  0.3986
  120TCq2    C3 1829   2.993   3.576  13.072 -0.5577  0.6240 -0.5471
  120TCq2    C4 1830   2.903   3.504  12.991  0.4256 -0.5501 -0.1068
  120TCq2    C5 1831   2.773   3.486  13.031 -0.8541 -0.0483  0.1596
  120TCq2    C6 1832   2.730   3.538  13.155  0.1521 -0.1015  0.8185
  120TCq2    C7 1833   2.813   3.614  13.233  0.3340 -0.2191 -0.4929
  120TCq2    C8 1834   2.610   3.484  13.216  0.7753 -0.1750 -0.9281
  120TCq2    O4 1835   2.551   3.406  13.145  0.1182 -0.0134  0.2262
  120TCq2    C9 1836   2.951   3.435  12.879 -0.3299 -0.2720  0.2264
  120TCq2    O5 1837   3.073   3.444  12.849 -0.0323 -0.0737 -0.0465
  120TCq2    O6 1838   2.890   3.334  12.844  0.5484  0.0504  0.4559
  120TCq2    H2 1839   3.098   3.590  13.048 -0.4995 -0.0805 -0.7132
  120TCq2    H3 1840   2.709   3.424  12.969  1.0630 -0.3114 -1.5668
  120TCq2    H4 1841   2.777   3.680  13.311  4.0059  0.2535  0.7982
  121TMC2    C1 1842   0.613   0.722  13.696  0.0829 -0.1301 -0.8099
  121TMC2    C2 1843   0.552   0.627  13.779  0.4069  0.2894  0.1602
  121TMC2    C3 1844   0.417   0.619  13.773  0.0455  0.0895  0.2786
  121TMC2    C4 1845   0.538   0.795  13.606 -0.6730  0.3871  0.1625
  121TMC2    C5 1846   0.404   0.785  13.607  0.5597  0.8326 -0.0078
  121TMC2    C6 1847   0.341   0.695  13.690  0.5069  0.0789  0.4842
  121TMC2     C 1848   0.755   0.739  13.703  0.0484  0.1166 -0.1230
  121TMC2     O 1849   0.813   0.703  13.803 -0.2583  0.4036 -0.3527
  121TMC2     H 1850   0.614   0.571  13.847 -0.9948 -0.4970  0.7844
  121TMC2    H1 1851   0.587   0.864  13.538  0.5728  0.4157  1.0643
  121TMC2    H2 1852   0.234   0.680  13.686  0.1429  2.8714  0.0279
  121TMC2    C7 1853   0.325   0.885  13.536 -0.3466 -0.8389  0.1502
  121TMC2    C8 1854   0.342   0.542  13.870  0.5015 -0.4256  0.1665
  121TMC2    O1 1855   0.393   0.974  13.489  0.6852 -0.8820  0.1316
  121TMC2    O2 1856   0.245   0.471  13.838 -0.3278  0.0551 -0.0158
  121TMC2    O5 1857   0.417   0.548  13.983  0.4596 -0.8610 -0.2633
  121TMC2    H5 1858   0.459   0.636  13.993  1.8384 -1.3747 -1.4504
  122MPD2     C 1859   1.049   0.749  13.628  0.3202  0.3176 -0.2986
  122MPD2    C1 1860   0.941   0.767  13.545 -0.3636  0.2296  0.0612
  122MPD2    C2 1861   0.967   0.772  13.408  0.4523  0.7966  0.5328
  122MPD2    C3 1862   1.094   0.751  13.358  0.3870  0.5462 -0.0500
  122MPD2    C4 1863   1.202   0.731  13.440  0.3947 -0.4762  0.5995
  122MPD2    C5 1864   1.178   0.736  13.579  0.4649 -0.3037  0.2405
  122MPD2     H 1865   0.881   0.779  13.342  0.3488 -0.4131  0.5336
  122MPD2    H1 1866   1.305   0.726  13.405  0.7961 -0.6539  1.7969
  122MPD2    H2 1867   1.025   0.740  13.733 -1.5567  1.1761 -0.6537
  122MPD2    H3 1868   1.264   0.732  13.645 -0.8083 -1.1670  1.8343
  122MPD2     N 1869   1.120   0.770  13.217  0.0807 -0.7420  0.0369
  122MPD2    H5 1870   1.217   0.792  13.196 -0.0221  0.7418  1.1360
  122MPD2    N1 1871   0.813   0.768  13.582  0.0245  0.4665 -0.4741
  122MPD2    H7 1872   0.750   0.783  13.504 -2.5043 -1.4842  1.1785
  123MPD2     C 1873   2.795   1.880   9.770  0.3371  0.6951 -0.1128
  123MPD2    C1 1874   2.848   1.942   9.877  0.2421 -0.2075  0.0156
  123MPD2    C2 1875   2.924   1.867   9.960  0.5110 -0.2901  0.0333
  123MPD2    C3 1876   2.942   1.730   9.946 -0.1791  0.2208  0.8387
  123MPD2    C4 1877   2.867   1.667   9.848 -0.1408  0.2338  0.6479
  123MPD2    C5 1878   2.806   1.743   9.756 -0.2203  0.0849 -0.7579
  123MPD2     H 1879   2.979   1.908  10.043 -0.2064  0.0555  0.3361
  123MPD2    H1 1880   2.861   1.559   9.848 -0.2742  0.2460  1.3723
  123MPD2    H2 1881   2.744   1.926   9.686 -1.3777  2.2875  1.8038
  123MPD2    H3 1882   2.759   1.692   9.673 -0.0877 -0.8536 -0.2480
  123MPD2     N 1883   3.018   1.662  10.044 -0.5773 -0.2359  0.6373
  123MPD2    H5 1884   3.068   1.712  10.116  0.6650 -0.9956  0.3150
  123MPD2    N1 1885   2.836   2.074   9.917  0.5291  0.4500  0.2024
  123MPD2    H7 1886   2.888   2.102   9.999 -0.5141  2.1076  0.2872
  124TCq2    C1 1887   3.048   1.529  10.030 -0.2470  0.0247 -0.3686
  124TCq2    O2 1888   3.047   1.459   9.928  0.2110 -0.0175 -0.7028
  124TCq2    C2 1889   3.116   1.478  10.154 -0.1440 -0.0813 -0.8966
  124TCq2    C3 1890   3.191   1.365  10.136  0.3521  0.0025  0.5314
  124TCq2    C4 1891   3.275   1.317  10.233 -0.6566  1.4093  0.2615
  124TCq2    C5 1892   3.276   1.387  10.353  0.0749  0.4173 -0.0365
  124TCq2    C6 1893   3.196   1.501  10.364 -0.6415  0.4402  0.5063
  124TCq2    C7 1894   3.111   1.544  10.269 -0.8006 -0.3477 -0.1867
  124TCq2    C8 1895   3.214   1.601  10.470  0.3316  0.5326  0.0252
  124TCq2    O4 1896   3.114   1.671  10.493  0.5198 -0.1378  0.6559
  124TCq2    C9 1897   3.353   1.210  10.220  0.2044  0.1750  0.1789
  124TCq2    O5 1898   3.436   1.178  10.305  0.0336  0.5562 -0.4570
  124TCq2    O6 1899   3.358   1.161  10.104  0.1504 -0.2482  0.5263
  124TCq2    H2 1900   3.186   1.315  10.041  0.7248 -0.3581  0.7027
  124TCq2    H3 1901   3.344   1.361  10.433  1.0848 -0.3288 -1.1320
  124TCq2    H4 1902   3.046   1.628  10.287 -1.3113 -0.2940 -2.2718
  125TMC2    C1 1903   3.458   0.807  10.298 -0.3448  0.3608  0.6060
  125TMC2    C2 1904   3.533   0.917  10.275  0.6454 -0.0931  0.1633
  125TMC2    C3 1905   3.580   0.930  10.147  0.4738  0.8638 -0.2977
  125TMC2    C4 1906   3.450   0.700  10.215  0.5695 -0.1967 -0.0319
  125TMC2    C5 1907   3.502   0.718  10.093 -0.6331  0.0337  0.7984
  125TMC2    C6 1908   3.566   0.838  10.053 -0.1174 -0.1980 -0.1616
  125TMC2     C 1909   3.381   0.807  10.424 -0.0537  0.2348 -0.4872
  125TMC2     O 1910   3.332   0.695  10.452 -0.4049  0.4678 -0.0053
  125TMC2     H 1911   3.576   0.975  10.356 -1.6494 -0.3342  1.5622
  125TMC2    H1 1912   3.390   0.614  10.243  2.0777 -1.8689 -1.8559
  125TMC2    H2 1913   3.604   0.860   9.954  0.0114  0.1416 -0.0359
  125TMC2    C7 1914   3.495   0.602   9.999 -0.5050  0.5725  1.0846
  125TMC2    C8 1915   3.673   1.039  10.118  0.9254 -0.2610 -0.8205
  125TMC2    O1 1916   3.412   0.512  10.017  0.3543  0.3203  0.0836
  125TMC2    O2 1917   3.763   1.027  10.039  0.1295  0.1559 -0.6514
  125TMC2    O5 1918   3.661   1.126  10.216  0.6016  0.5027 -0.4828
  125TMC2    H5 1919   3.567   1.139  10.244  0.1841  0.7223 -1.9820
  126MPD1     C 1920   3.163   1.044  10.819 -0.1183  0.0566  0.1639
  126MPD1    C1 1921   3.205   1.142  10.728 -0.7881  0.1653 -0.6315
  126MPD1    C2 1922   3.264   1.098  10.614 -0.0960 -0.3426 -0.3732
  126MPD1    C3 1923   3.288   0.965  10.589 -0.4197  0.3147  0.1086
  126MPD1    C4 1924   3.243   0.867  10.675  0.2827  0.3953 -0.7745
  126MPD1    C5 1925   3.187   0.907  10.790 -0.6400  0.0022 -0.3959
  126MPD1     H 1926   3.300   1.159  10.532  0.1977  0.0459  0.0491
  126MPD1    H1 1927   3.258   0.760  10.666 -0.9220  0.0285  1.5271
  126MPD1    H2 1928   3.118   1.049  10.918 -0.3169 -0.6230  0.1056
  126MPD1    H3 1929   3.159   0.830  10.861 -1.9559  0.2133 -0.6804
  126MPD1     N 1930   3.361   0.935  10.472  0.0692  0.3818  0.0637
  126MPD1    H5 1931   3.381   1.013  10.410 -1.7922 -0.3643 -1.4702
  126MPD1    N1 1932   3.165   1.277  10.744 -0.6258 -0.0348  0.2882
  126MPD1    H6 1933   3.180   1.306  10.840 -0.7149  1.3426 -0.1036
  126MPD1    H7 1934   3.215   1.347  10.688 -0.3178  0.7483  1.5522
  127MPD2     C 1935   0.591   4.507   9.166  0.4302  0.3765 -0.3288
  127MPD2    C1 1936   0.638   4.476   9.293 -0.2038 -0.1944 -0.3106
  127MPD2    C2 1937   0.648   4.581   9.382 -0.3149  0.2755  0.4089
  127MPD2    C3 1938   0.624   4.708   9.341  0.2313 -0.4171  0.6854
  127MPD2    C4 1939   0.581   0.009   9.212 -0.2526  0.6227 -0.4206
  127MPD2    C5 1940   0.552   4.630   9.126  0.2120  0.8791 -0.0774
  127MPD2     H 1941   0.669   4.562   9.486  1.7767  2.1785  0.3236
  127MPD2    H1 1942   0.563   0.109   9.173  1.4273  0.9895 -0.2709
  127MPD2    H2 1943   0.560   4.426   9.101  0.0094 -1.1503  1.8074
  127MPD2    H3 1944   0.505   4.639   9.029 -1.2151  1.8874  0.7006
  127MPD2     N 1945   0.647   0.085   9.433 -0.4684 -1.1089 -0.0987
  127MPD2    H5 1946   0.688   0.057   9.522  2.0536  1.9295 -0.2863
  127MPD2    N1 1947   0.663   4.339   9.320 -0.1344  0.1267  0.1682
  127MPD2    H7 1948   0.629   4.275   9.248  2.4727 -1.2291  0.1341
  128TCq2    C1 1949   0.703   4.296   9.444 -0.0356 -0.0807 -0.9683
  128TCq2    O2 1950   0.770   4.354   9.529 -0.1003 -0.4245  0.1849
  128TCq2    C2 1951   0.699   4.150   9.457 -0.2398  0.0135  0.3840
  128TCq2    C3 1952   0.798   4.096   9.529 -0.2512  0.5343  0.2540
  128TCq2    C4 1953   0.796   3.962   9.557 -0.0213  0.3873  0.3701
  128TCq2    C5 1954   0.692   3.884   9.510  0.0155  0.4255 -0.2786
  128TCq2    C6 1955   0.594   3.938   9.441  1.0750  0.3885  0.1746
  128TCq2    C7 1956   0.603   4.073   9.408 -0.9019  0.0110 -0.4929
  128TCq2    C8 1957   0.466   3.870   9.427  0.2120  0.7649 -0.2538
  128TCq2    O4 1958   0.388   3.945   9.370 -0.2214 -0.1587  0.3227
  128TCq2    C9 1959   0.905   3.903   9.633  0.4648 -0.7121  0.6679
  128TCq2    O5 1960   1.006   3.973   9.647 -0.1802  0.5465 -0.3042
  128TCq2    O6 1961   0.886   3.790   9.681  0.3628  0.1295 -0.1344
  128TCq2    H2 1962   0.874   4.158   9.575  0.2197  1.4851 -1.7945
  128TCq2    H3 1963   0.698   3.780   9.537  0.7423  0.4465 -0.3397
  128TCq2    H4 1964   0.527   4.119   9.345  0.6195  0.8207 -1.7180
  129MPD2     C 1965   3.405   4.484   0.917 -0.2529 -0.3224  0.0307
  129MPD2    C1 1966   3.379   4.518   1.049 -0.5147 -0.3087  0.0510
  129MPD2    C2 1967   3.358   4.650   1.060  0.0549  0.0305 -0.1596
  129MPD2    C3 1968   3.342   0.017   0.953  0.1834 -0.1649 -0.2583
  129MPD2    C4 1969   3.359   4.697   0.823  0.3411  0.2285  0.4157
  129MPD2    C5 1970   3.391   4.565   0.807 -0.3319  0.5650 -0.7836
  129MPD2     H 1971   3.344   4.678   1.164 -0.0917 -0.5569 -0.0179
  129MPD2    H1 1972   3.363   0.043   0.739  1.4247 -2.4639 -1.7799
  129MPD2    H2 1973   3.425   4.379   0.897 -0.7127 -1.0054  3.0516
  129MPD2    H3 1974   3.415   4.524   0.710  0.1517  0.4921 -0.6333
  129MPD2     N 1975   3.306   0.152   0.984  0.3923 -0.3741 -0.1575
  129MPD2    H5 1976   3.298   0.176   1.082 -0.4961  0.2660 -0.3918
  129MPD2    N1 1977   3.396   4.431   1.161  0.5624  0.6368  0.3990
  129MPD2    H7 1978   3.357   4.463   1.249 -0.8715  0.9504 -0.3565
  130TCq2    C1 1979   3.448   4.304   1.154  0.0918 -0.1185 -0.5728
  130TCq2    O2 1980   3.496   4.240   1.059 -0.2249 -0.0648 -1.0138
  130TCq2    C2 1981   3.440   4.220   1.273  0.0057  0.4692  0.4956
  130TCq2    C3 1982   3.533   4.125   1.300 -0.5814  0.1653 -0.4471
  130TCq2    C4 1983   3.531   4.071   1.426 -0.3680  0.5107 -0.3990
  130TCq2    C5 1984   3.440   4.111   1.520  0.5466  0.1252  0.0387
  130TCq2    C6 1985   3.342   4.199   1.489 -0.3095  0.2772  0.3010
  130TCq2    C7 1986   3.346   4.258   1.367 -0.0760 -0.1557 -0.0310
  130TCq2    C8 1987   3.218   4.203   1.567 -0.4650  0.8690 -0.0056
  130TCq2    O4 1988   3.114   4.213   1.504 -0.5876  0.1297  0.0597
  130TCq2    C9 1989   3.635   3.970   1.461 -0.4776  0.0143  0.2809
  130TCq2    O5 1990   3.628   3.911   1.571  0.3007 -0.3678  0.4164
  130TCq2    O6 1991   3.707   3.926   1.363 -0.1609  0.1442 -0.5982
  130TCq2    H2 1992   3.605   4.088   1.228 -1.1550  2.6625 -2.3003
  130TCq2    H3 1993   3.426   4.060   1.615 -2.4768  2.2258  0.7294
  130TCq2    H4 1994   3.266   4.327   1.344 -1.8307 -1.7121  1.3949
  131MPD2     C 1995   2.381   3.064   9.917  0.0638 -0.0620  0.2170
  131MPD2    C1 1996   2.506   3.068   9.976  0.5047  0.1670  0.0265
  131MPD2    C2 1997   2.577   2.952  10.009 -0.4102 -0.0263 -0.2988
  131MPD2    C3 1998   2.530   2.829   9.968 -0.2147  0.0984 -0.2931
  131MPD2    C4 1999   2.409   2.823   9.896  0.3935  0.4387  0.7126
  131MPD2    C5 2000   2.335   2.941   9.879 -0.3123  0.2149 -0.2768
  131MPD2     H 2001   2.664   2.954  10.073 -0.7548  1.8324  0.1123
  131MPD2    H1 2002   2.360   2.728   9.877 -0.5585  0.5712  2.4863
  131MPD2    H2 2003   2.324   3.154   9.896  0.3816 -0.2764 -1.5088
  131MPD2    H3 2004   2.237   2.936   9.833 -1.1115 -1.3875  1.6335
  131MPD2     N 2005   2.606   2.713   9.991 -0.4963  0.0408 -0.2558
  131MPD2    H5 2006   2.692   2.728  10.044  0.4835 -2.3344 -1.1906
  131MPD2    N1 2007   2.547   3.197  10.019 -0.7833 -0.0822 -0.2199
  131MPD2    H7 2008   2.518   3.280   9.969  1.2055  1.2721  0.8829
  132TCq2    C1 2009   3.069   3.391  10.234  0.3881 -0.7028  0.4260
  132TCq2    O2 2010   3.057   3.298  10.308 -0.4107 -0.5598 -0.3930
  132TCq2    C2 2011   2.963   3.396  10.136  0.0532  0.1920 -0.2304
  132TCq2    C3 2012   2.967   3.465  10.019  0.3625 -0.0714  0.4195
  132TCq2    C4 2013   2.863   3.458   9.935  0.4252 -0.0178  0.8997
  132TCq2    C5 2014   2.753   3.385   9.962 -0.1499  0.1801 -0.0929
  132TCq2    C6 2015   2.747   3.321  10.083 -0.4256  0.0945 -0.0651
  132TCq2    C7 2016   2.852   3.319  10.167 -0.0112 -0.3198 -0.8240
  132TCq2    C8 2017   2.643   3.217  10.113  0.0077  0.0557  0.0558
  132TCq2    O4 2018   2.682   3.139  10.200  0.2966  0.5362 -0.0278
  132TCq2    C9 2019   2.869   3.516   9.803 -0.0458 -0.0424  0.2525
  132TCq2    O5 2020   2.976   3.572   9.775  0.0501  0.1276 -0.2551
  132TCq2    O6 2021   2.764   3.512   9.733  0.1980  0.1892 -0.6146
  132TCq2    H2 2022   3.055   3.518   9.984 -0.7585  1.9190  0.6540
  132TCq2    H3 2023   2.671   3.372   9.892  1.0510 -0.3830 -1.4053
  132TCq2    H4 2024   2.846   3.268  10.263 -2.1481 -1.5030 -1.5971
  133MPD2     C 2025   1.514   3.457   8.975  0.3621  0.1419  0.3291
  133MPD2    C1 2026   1.627   3.391   9.014  0.0680  0.1215 -0.4478
  133MPD2    C2 2027   1.728   3.465   9.085  0.4546  0.0839 -0.1507
  133MPD2    C3 2028   1.727   3.602   9.086  0.6533  1.2545  0.1247
  133MPD2    C4 2029   1.608   3.664   9.035  0.3913  0.0257 -0.3806
  133MPD2    C5 2030   1.490   3.592   9.003  0.1664 -0.8868 -0.7415
  133MPD2     H 2031   1.819   3.416   9.119  1.0808  1.3191 -0.0646
  133MPD2    H1 2032   1.603   3.772   9.029 -5.1334 -0.3652 -2.4792
  133MPD2    H2 2033   1.427   3.404   8.938 -1.2883 -1.2789  6.2599
  133MPD2    H3 2034   1.409   3.645   8.953  0.9234  0.8698 -0.0843
  133MPD2     N 2035   1.836   3.677   9.132 -0.2153 -0.2756  0.5428
  133MPD2    H5 2036   1.822   3.772   9.098 -0.1708 -0.0758  1.0883
  133MPD2    N1 2037   1.618   3.249   9.009 -0.4198  0.3731 -0.3698
  133MPD2    H7 2038   1.562   3.209   8.934  0.6609  0.5329 -1.2645
  134TCq2    C1 2039   1.698   3.174   9.086  0.8829 -0.1409 -1.0962
  134TCq2    O2 2040   1.751   3.213   9.193  0.5449 -0.6949 -0.9180
  134TCq2    C2 2041   1.671   3.029   9.073 -0.9592 -0.1647 -0.7332
  134TCq2    C3 2042   1.610   2.991   8.955 -0.1807 -0.2965  0.3448
  134TCq2    C4 2043   1.602   2.855   8.936 -0.8277 -0.4158 -0.1603
  134TCq2    C5 2044   1.644   2.766   9.037  0.0946 -0.0193  0.2755
  134TCq2    C6 2045   1.714   2.807   9.146  0.7032  0.2042  0.2874
  134TCq2    C7 2046   1.727   2.946   9.167  0.7372 -0.2500 -0.1533
  134TCq2    C8 2047   1.747   2.718   9.254  0.1247  0.1737  0.1871
  134TCq2    O4 2048   1.800   2.766   9.355 -0.2188  0.0346  0.0402
  134TCq2    C9 2049   1.559   2.799   8.811  0.1210  0.1367  0.4800
  134TCq2    O5 2050   1.536   2.675   8.803  0.1155 -0.1045 -0.0483
  134TCq2    O6 2051   1.514   2.882   8.727 -0.3491 -0.8239 -0.3988
  134TCq2    H2 2052   1.577   3.049   8.870 -0.3164 -1.5823 -0.4914
  134TCq2    H3 2053   1.621   2.661   9.018 -1.4800  0.4889 -0.6850
  134TCq2    H4 2054   1.778   2.981   9.256 -0.6529  0.8553  0.2025
  135MPD2     C 2055   0.340   1.019   9.554 -0.1353 -0.2141  0.3878
  135MPD2    C1 2056   0.229   0.962   9.490 -0.2497 -0.4857 -0.0901
  135MPD2    C2 2057   0.252   0.848   9.413 -0.1935 -0.1108  0.0976
  135MPD2    C3 2058   0.383   0.800   9.391 -0.5738  0.5303 -0.6589
  135MPD2    C4 2059   0.487   0.842   9.466 -0.1720  0.5458  0.4056
  135MPD2    C5 2060   0.465   0.953   9.547 -0.0172 -0.3474 -0.3258
  135MPD2     H 2061   0.168   0.804   9.360 -2.2450  2.5535  1.1362
  135MPD2    H1 2062   0.586   0.797   9.459 -0.4267  0.5130 -2.8222
  135MPD2    H2 2063   0.337   1.104   9.622 -3.1986  0.7824 -0.9497
  135MPD2    H3 2064   0.548   0.994   9.603 -0.2728 -1.7219  1.0364
  135MPD2     N 2065   0.408   0.678   9.326 -0.2640  0.5731  0.0595
  135MPD2    H5 2066   0.501   0.640   9.340  0.3084  2.2633  0.7880
  135MPD2    N1 2067   0.101   1.011   9.499 -0.3895  0.8100 -0.0656
  135MPD2    H7 2068   0.029   0.951   9.461  1.3197 -0.3510 -1.4225
  136TCq2    C1 2069   0.055   1.115   9.577 -0.0306 -0.6874  0.0675
  136TCq2    O2 2070   0.117   1.207   9.625  0.4385  0.9861  0.3085
  136TCq2    C2 2071   4.637   1.114   9.592  0.5353  0.1113  0.3807
  136TCq2    C3 2072   4.563   1.042   9.504  0.5343  0.7994 -0.0227
  136TCq2    C4 2073   4.446   0.985   9.545 -0.3297 -0.1895  0.0937
  136TCq2    C5 2074   4.403   1.005   9.674 -0.5086 -0.1334  0.4690
  136TCq2    C6 2075   4.484   1.067   9.764 -0.4930  0.4145  0.0400
  136TCq2    C7 2076   4.597   1.128   9.725  0.5089 -0.5840 -0.2956
  136TCq2    C8 2077   4.459   1.057   9.909 -0.7194 -0.4254 -0.2209
  136TCq2    O4 2078   4.500   1.142   9.989  0.5678  0.1255  0.4458
  136TCq2    C9 2079   4.360   0.913   9.461  0.3768  0.0257 -0.2276
  136TCq2    O5 2080   4.413   0.903   9.349 -0.0879 -0.8230 -0.0785
  136TCq2    O6 2081   4.246   0.891   9.503 -0.2624  0.0684 -0.2491
  136TCq2    H2 2082   4.585   1.037   9.398 -3.2832  0.9083 -0.8173
  136TCq2    H3 2083   4.307   0.968   9.710  0.2723 -1.3282  1.3345
  136TCq2    H4 2084   4.661   1.179   9.796  0.2858 -1.5646  0.6120
  137MPD2     C 2085   0.325   3.440  10.349 -0.5104 -0.4384  0.0483
  137MPD2    C1 2086   0.260   3.515  10.255  0.3821 -0.2072 -1.2239
  137MPD2    C2 2087   0.256   3.654  10.264  0.5578 -0.3295 -0.3395
  137MPD2    C3 2088   0.312   3.714  10.372  0.2544 -0.2089 -0.3712
  137MPD2    C4 2089   0.367   3.632  10.473  0.4952  0.4406 -0.7208
  137MPD2    C5 2090   0.381   3.495  10.462 -0.2009  0.2748  0.7055
  137MPD2     H 2091   0.222   3.713  10.179 -1.7614 -1.6780 -0.3306
  137MPD2    H1 2092   0.406   3.674  10.566  0.0976  0.3178 -0.5018
  137MPD2    H2 2093   0.333   3.334  10.329  2.4531  0.2890 -2.7239
  137MPD2    H3 2094   0.435   3.434  10.533 -0.6134 -2.4714 -1.3406
  137MPD2     N 2095   0.325   3.852  10.362  0.0058 -0.4881  0.0962
  137MPD2    H5 2096   0.300   3.886  10.269 -0.0712  0.8948  0.6262
  137MPD2    N1 2097   0.194   3.431  10.160 -0.5225 -0.0895  0.0718
  137MPD2    H7 2098   0.211   3.332  10.177  2.9076  0.5222  0.2703
  138TCq2    C1 2099   0.118   3.484  10.058  0.5164  0.1875 -0.6437
  138TCq2    O2 2100   0.113   3.598  10.015 -0.1215  0.2547  1.1522
  138TCq2    C2 2101   0.030   3.382   9.995  0.5502 -0.4628  0.2613
  138TCq2    C3 2102   0.055   3.250  10.025 -0.3386 -0.1259  0.3653
  138TCq2    C4 2103   4.678   3.158  10.008  0.4585 -0.3600 -0.5222
  138TCq2    C5 2104   4.561   3.199   9.958 -0.8069  0.1576 -0.4249
  138TCq2    C6 2105   4.536   3.327   9.940  0.3753  0.2995  0.6602
  138TCq2    C7 2106   4.628   3.424   9.960 -0.0975 -0.0769 -0.2700
  138TCq2    C8 2107   4.419   3.355   9.858 -0.5749 -0.1155  0.2220
  138TCq2    O4 2108   4.396   3.279   9.766 -0.1822  0.1729  0.2949
  138TCq2    C9 2109   4.705   3.017  10.032 -0.2368  0.6948 -0.6140
  138TCq2    O5 2110   4.595   2.962  10.064 -0.7493 -0.6374 -0.1434
  138TCq2    O6 2111   0.088   2.979  10.089  0.2149  0.1440 -0.6618
  138TCq2    H2 2112   0.150   3.208  10.055  0.2825  1.7724  1.0413
  138TCq2    H3 2113   4.482   3.132   9.926 -0.5457  0.6318 -2.0857
  138TCq2    H4 2114   4.610   3.527   9.932 -1.3123 -0.5491 -1.2073
  139TMC2    C1 2115   0.294   2.937  13.592  0.0772  1.1090  0.1273
  139TMC2    C2 2116   0.415   2.978  13.638  0.1289  0.0484  0.1914
  139TMC2    C3 2117   0.431   3.103  13.697 -0.2814  0.7680  0.2428
  139TMC2    C4 2118   0.182   3.005  13.623 -0.7647 -0.4798  0.8614
  139TMC2    C5 2119   0.199   3.124  13.692  0.1070 -0.5494 -0.3588
  139TMC2    C6 2120   0.320   3.175  13.727  0.0366 -0.1940  0.6359
  139TMC2     C 2121   0.287   2.814  13.511  0.5742 -1.2535  0.2869
  139TMC2     O 2122   0.394   2.759  13.488  0.2064 -0.0737 -0.0110
  139TMC2     H 2123   0.498   2.915  13.608  1.5965  2.1883 -0.2265
  139TMC2    H1 2124   0.090   2.982  13.571  0.3250  4.1803 -3.1084
  139TMC2    H2 2125   0.321   3.261  13.794  2.9551  1.3949 -1.4233
  139TMC2    C7 2126   0.074   3.198  13.739  0.6902 -0.0525 -0.5907
  139TMC2    C8 2127   0.559   3.174  13.687 -0.2093  0.3013 -0.0691
  139TMC2    O1 2128   0.094   3.314  13.756  0.3994  0.3289  0.0550
  139TMC2    O2 2129   0.559   3.281  13.750 -0.4486  0.3437 -0.5604
  139TMC2    O5 2130   0.608   3.156  13.561  0.2796 -0.7642 -0.1653
  139TMC2    H5 2131   0.561   3.079  13.522  1.0459 -1.2973 -0.0391
  140MPD2     C 2132   4.715   2.623  13.421 -0.0128  0.2174 -0.4595
  140MPD2    C1 2133   0.125   2.654  13.428 -0.4997 -0.2648 -0.0985
  140MPD2    C2 2134   0.222   2.564  13.369 -0.0640 -0.5171 -0.1090
  140MPD2    C3 2135   0.187   2.447  13.297  0.3221  1.0595 -0.2179
  140MPD2    C4 2136   0.049   2.420  13.293  0.0572 -0.1602  0.0101
  140MPD2    C5 2137   4.678   2.509  13.351  0.2153  0.4181 -0.1475
  140MPD2     H 2138   0.327   2.590  13.369  0.6139 -3.1913  2.3006
  140MPD2    H1 2139   0.011   2.324  13.258  2.2241 -1.4192  1.1648
  140MPD2    H2 2140   4.643   2.689  13.468 -0.8333 -0.7608 -0.3114
  140MPD2    H3 2141   4.573   2.484  13.340  0.9704 -2.3629 -1.2483
  140MPD2     N 2142   0.284   2.362  13.240 -0.8144 -0.1627 -0.0688
  140MPD2    H5 2143   0.378   2.373  13.277 -0.5406 -1.3459 -0.4173
  140MPD2    N1 2144   0.159   2.776  13.488 -0.4026 -0.7782 -0.1183
  140MPD2    H7 2145   0.081   2.831  13.521 -0.5523 -0.8653 -0.3232
  141TCq2    C1 2146   0.559   0.260  14.999  0.0612  0.4928  0.6851
  141TCq2    O2 2147   0.608   0.323  14.907 -0.2382  0.2524  0.4632
  141TCq2    C2 2148   0.514   0.339  15.111  0.7128  0.2144 -0.1919
  141TCq2    C3 2149   0.524   0.286  15.235 -0.2614 -0.3770 -0.2221
  141TCq2    C4 2150   0.533   0.365  15.345  0.0327  0.3474  0.2572
  141TCq2    C5 2151   0.516   0.499  15.333 -0.0848  0.7594 -0.3089
  141TCq2    C6 2152   0.495   0.555  15.211 -0.5199 -0.2945  0.1218
  141TCq2    C7 2153   0.502   0.478  15.094  0.9455  0.1330  1.0907
  141TCq2    C8 2154   0.548   0.686  15.190  0.5546 -0.1475 -0.5120
  141TCq2    O4 2155   0.541   0.761  15.285  0.5415  0.4618 -0.3462
  141TCq2    C9 2156   0.550   0.313  15.473  0.5981  0.0356  0.9025
  141TCq2    O5 2157   0.511   0.379  15.571  0.6111 -0.2513  0.0822
  141TCq2    O6 2158   0.601   0.197  15.475  0.5507 -0.1134  0.2082
  141TCq2    H2 2159   0.546   0.183  15.261 -3.3371 -0.6140  1.3672
  141TCq2    H3 2160   0.523   0.561  15.421  0.6804  1.1110 -0.6143
  141TCq2    H4 2161   0.473   0.521  14.999  0.4861  0.7549  1.5123
  142MPD2     C 2162   2.796   2.840  10.379 -0.2240  0.2525 -0.2164
  142MPD2    C1 2163   2.728   2.721  10.404  0.2951 -1.2829  0.4738
  142MPD2    C2 2164   2.791   2.616  10.473 -0.0372 -0.3839  0.5308
  142MPD2    C3 2165   2.919   2.642  10.517 -0.3037 -0.0844 -0.5315
  142MPD2    C4 2166   2.981   2.760  10.505 -0.2765  0.2901  0.1575
  142MPD2    C5 2167   2.927   2.857  10.425 -0.6397  0.4166  0.1887
  142MPD2     H 2168   2.730   2.534  10.510 -1.7249  0.1276 -1.1334
  142MPD2    H1 2169   3.077   2.790  10.547  0.2057  1.5111 -1.7856
  142MPD2    H2 2170   2.755   2.919  10.318  1.2152 -0.2818 -1.8956
  142MPD2    H3 2171   2.968   2.952  10.393  1.2191 -1.2818 -2.4819
  142MPD2     N 2172   2.989   2.559  10.610  0.3993  0.2197  0.1404
  142MPD2    H5 2173   3.083   2.586  10.638  1.3388 -3.8518  0.9023
  142MPD2    N1 2174   2.600   2.722  10.347  0.2689 -0.2121 -0.1395
  142MPD2    H7 2175   2.565   2.811  10.314 -2.9569 -0.7475  1.8168
  143TCq2    C1 2176   2.949   2.440  10.661  0.1001 -0.5290 -0.3303
  143TCq2    O2 2177   2.864   2.366  10.615  0.4951 -0.0968  0.1188
  143TCq2    C2 2178   3.060   2.392  10.752  0.6319  0.2143  0.7247
  143TCq2    C3 2179   3.155   2.473  10.802  0.2249  1.0827 -0.5521
  143TCq2    C4 2180   3.260   2.406  10.864  0.2101 -0.0785 -0.6498
  143TCq2    C5 2181   3.260   2.272  10.885  0.0980 -0.5736  0.2751
  143TCq2    C6 2182   3.155   2.198  10.832 -0.4036 -0.6154 -0.3492
  143TCq2    C7 2183   3.054   2.259  10.772  0.4677 -0.1226 -0.7320
  143TCq2    C8 2184   3.176   2.058  10.795 -0.1464 -0.4871 -0.4930
  143TCq2    O4 2185   3.089   1.996  10.734 -0.1719  0.5219 -0.2241
  143TCq2    C9 2186   3.381   2.478  10.900 -0.2888  0.7017 -0.2215
  143TCq2    O5 2187   3.468   2.418  10.967 -0.3219  0.1755  0.4853
  143TCq2    O6 2188   3.388   2.601  10.867 -0.9229  0.1941  1.0791
  143TCq2    H2 2189   3.158   2.581  10.792  0.1322  1.3999  2.9910
  143TCq2    H3 2190   3.340   2.227  10.943  0.5527  1.7302  1.4289
  143TCq2    H4 2191   2.987   2.203  10.708  1.8934 -2.4627 -0.1924
  144MPD2     C 2192   0.341   2.457   0.731 -0.2340  0.2579  0.0125
  144MPD2    C1 2193   0.419   2.347   0.761  0.2933  0.3604 -0.5614
  144MPD2    C2 2194   0.539   2.356   0.832 -0.1427 -0.2531 -0.6687
  144MPD2    C3 2195   0.576   2.479   0.879  0.2548 -0.5031 -0.9241
  144MPD2    C4 2196   0.507   2.587   0.833 -0.1056 -0.2105  0.4972
  144MPD2    C5 2197   0.387   2.581   0.764  0.0592 -0.0862 -0.0623
  144MPD2     H 2198   0.593   2.269   0.866  1.2857  1.3621  1.2119
  144MPD2    H1 2199   0.546   2.687   0.850 -1.0635 -0.0544  1.7545
  144MPD2    H2 2200   0.253   2.452   0.667  0.3415 -0.5127 -0.7148
  144MPD2    H3 2201   0.339   2.669   0.723 -0.4236  0.7727  2.4076
  144MPD2     N 2202   0.686   2.508   0.964 -0.5902  0.6682 -0.8577
  144MPD2    H5 2203   0.718   2.604   0.973  1.4241 -0.2035  1.5094
  144MPD2    N1 2204   0.398   2.210   0.703 -0.1744  0.7509 -0.4018
  144MPD2    H7 2205   0.458   2.130   0.722  1.0862  1.7067 -0.3412
  145TCq2    C1 2206   0.777   2.418   1.020  0.2721  0.0331  0.0780
  145TCq2    O2 2207   0.770   2.295   1.026 -0.1578 -0.2354  0.2492
  145TCq2    C2 2208   0.903   2.473   1.069  0.0556  0.6185 -0.4844
  145TCq2    C3 2209   0.988   2.383   1.135  1.0922  0.0216 -0.3811
  145TCq2    C4 2210   1.125   2.420   1.147  0.7821  0.2702  0.1884
  145TCq2    C5 2211   1.172   2.540   1.106  0.7218 -0.8282  0.3066
  145TCq2    C6 2212   1.082   2.613   1.034 -0.1863  0.4286  0.1557
  145TCq2    C7 2213   0.950   2.590   1.022  0.2193  0.0922 -0.2546
  145TCq2    C8 2214   1.134   2.732   0.970  0.4364 -0.2468  0.1082
  145TCq2    O4 2215   1.239   2.727   0.909 -0.2479  0.4541  0.3035
  145TCq2    C9 2216   1.223   2.332   1.202 -0.5761  0.0393  0.1280
  145TCq2    O5 2217   1.182   2.222   1.247 -0.6996 -0.3768  0.1806
  145TCq2    O6 2218   1.346   2.360   1.202  0.5759  0.3700 -0.9758
  145TCq2    H2 2219   0.951   2.288   1.172  2.0879 -0.3421 -0.3014
  145TCq2    H3 2220   1.276   2.562   1.125  1.2992 -0.5535 -3.1735
  145TCq2    H4 2221   0.891   2.652   0.956 -0.5670  0.1185  0.4795
  146TMC2    C1 2222   2.594   0.973  12.651 -0.0213  0.2202 -0.5783
  146TMC2    C2 2223   2.465   0.985  12.618 -0.7744  0.4668 -0.1772
  146TMC2    C3 2224   2.418   0.924  12.505  0.5519 -0.1736  0.7865
  146TMC2    C4 2225   2.684   0.905  12.572  0.2681 -0.7896 -0.2964
  146TMC2    C5 2226   2.635   0.842  12.459  0.1103  0.1880  0.5023
  146TMC2    C6 2227   2.500   0.862  12.424  0.7428 -0.7407 -0.3672
  146TMC2     C 2228   2.622   1.016  12.784 -0.5900 -0.2442  0.0663
  146TMC2     O 2229   2.537   1.079  12.844  0.1896  0.1342 -0.2752
  146TMC2     H 2230   2.396   1.028  12.690 -0.9743 -1.6331  0.9014
  146TMC2    H1 2231   2.787   0.902  12.607  0.3817 -0.0886 -0.5716
  146TMC2    H2 2232   2.469   0.830  12.325  0.3677 -0.6953 -0.2613
  146TMC2    C7 2233   2.719   0.770  12.373  0.0577 -0.4055 -0.2113
  146TMC2    C8 2234   2.290   0.986  12.460 -0.4396 -0.3221  0.0148
  146TMC2    O1 2235   2.682   0.755  12.257 -0.0004 -0.1675  0.4414
  146TMC2    O2 2236   2.253   1.004  12.346 -0.4258  0.0077 -0.2737
  146TMC2    O5 2237   2.203   1.002  12.561  0.6004 -0.1853  0.1586
  146TMC2    H5 2238   2.221   0.944  12.637 -0.7089  0.3936  0.9190
  147MPD2     C 2239   3.163   0.517  12.269  0.1771  0.7747 -1.0835
  147MPD2    C1 2240   3.138   0.510  12.408 -0.4597 -0.1767 -0.2173
  147MPD2    C2 2241   3.029   0.585  12.452  0.2408  0.3587 -0.4496
  147MPD2    C3 2242   2.933   0.646  12.369 -0.3897  0.1504 -0.1856
  147MPD2    C4 2243   2.951   0.626  12.227 -0.6528  0.3829  0.0713
  147MPD2    C5 2244   3.061   0.560  12.187 -0.8313 -0.7877 -0.2139
  147MPD2     H 2245   3.019   0.609  12.557  0.0450  0.2262 -0.4363
  147MPD2    H1 2246   2.884   0.682  12.162  1.6716 -0.5365 -3.1246
  147MPD2    H2 2247   3.243   0.456  12.228 -1.2223 -0.2701 -2.2663
  147MPD2    H3 2248   3.080   0.557  12.080 -1.0466  2.6462 -0.3737
  147MPD2     N 2249   2.834   0.716  12.436 -0.5843  0.0033 -0.5064
  147MPD2    H5 2250   2.845   0.729  12.536  2.9361 -0.5944 -0.8292
  147MPD2    N1 2251   3.233   0.455  12.489 -0.8159 -0.3569 -0.9283
  147MPD2    H7 2252   3.310   0.408  12.443 -0.6791 -1.4970  0.4649
  148MPD2     C 2253   3.185   4.670  10.748 -0.2891  0.2658 -0.5240
  148MPD2    C1 2254   3.260   4.555  10.742 -0.4550 -0.1867  0.2673
  148MPD2    C2 2255   3.192   4.438  10.706  0.2233 -0.3886 -0.1644
  148MPD2    C3 2256   3.065   4.428  10.660  0.3759 -1.1495 -0.2634
  148MPD2    C4 2257   2.995   4.549  10.644  0.9279 -0.9666  0.2409
  148MPD2    C5 2258   3.055   4.665  10.696 -0.2023 -0.1144  0.4103
  148MPD2     H 2259   3.243   4.345  10.727 -0.8426 -0.8604  0.2998
  148MPD2    H1 2260   2.889   4.548  10.620  0.8343 -0.0208  0.6050
  148MPD2    H2 2261   3.229   0.040  10.779 -1.8807  1.3388 -1.4972
  148MPD2    H3 2262   2.996   0.030  10.678 -1.0703 -0.7455  0.1130
  148MPD2     N 2263   3.009   4.302  10.620  0.7746 -0.2364  0.0264
  148MPD2    H5 2264   3.064   4.221  10.646 -0.7526 -0.3333  2.9833
  148MPD2    N1 2265   3.393   4.549  10.782 -0.3405 -0.3346 -0.1187
  148MPD2    H7 2266   3.440   4.460  10.777  1.0880  0.4662 -0.7749
  149TCq2    C1 2267   3.469   4.652  10.825  0.7199  0.4259  0.2380
  149TCq2    O2 2268   3.456   0.049  10.823 -0.0794  0.7601 -0.5492
  149TCq2    C2 2269   3.603   4.593  10.840 -0.1426  0.3613 -0.2009
  149TCq2    C3 2270   3.709   4.656  10.794 -0.5156  0.4072 -0.4774
  149TCq2    C4 2271   3.826   4.583  10.756  0.3372  0.6638  0.2797
  149TCq2    C5 2272   3.829   4.448  10.741  0.2085  0.4344  0.4740
  149TCq2    C6 2273   3.719   4.386  10.802 -0.1794  0.3533 -0.2267
  149TCq2    C7 2274   3.611   4.461  10.847 -0.4421 -0.4035  0.6782
  149TCq2    C8 2275   3.685   4.258  10.746 -0.1054  0.4396 -0.3259
  149TCq2    O4 2276   3.565   4.236  10.739 -0.2150  0.1440  0.2211
  149TCq2    C9 2277   3.933   4.656  10.695  0.2593  0.6174  0.0336
  149TCq2    O5 2278   3.936   0.052  10.720  0.4712 -0.4215 -0.1690
  149TCq2    O6 2279   4.028   4.586  10.650 -0.6492 -0.2248  0.0829
  149TCq2    H2 2280   3.707   0.040  10.783 -2.4845  0.5149  0.8536
  149TCq2    H3 2281   3.914   4.396  10.700  1.3565  2.6731 -0.0179
  149TCq2    H4 2282   3.539   4.411  10.911 -0.2574 -0.9598  0.4498
  150MPD2     C 2283   0.170   3.093  11.661 -0.0920 -0.3911  0.2567
  150MPD2    C1 2284   0.152   3.203  11.579  0.1052 -0.3501 -0.0214
  150MPD2    C2 2285   0.188   3.325  11.629 -0.3001  0.4490 -0.0919
  150MPD2    C3 2286   0.234   3.353  11.757  0.2870 -0.1643 -0.4864
  150MPD2    C4 2287   0.248   3.236  11.835  0.0741 -0.0893 -0.4806
  150MPD2    C5 2288   0.226   3.107  11.785  0.3244 -0.5172  0.4854
  150MPD2     H 2289   0.164   3.411  11.568  2.8788  0.2542 -1.6420
  150MPD2    H1 2290   0.284   3.236  11.938  0.2532  0.7403 -0.5438
  150MPD2    H2 2291   0.147   2.992  11.628  0.5656 -0.4548  0.0005
  150MPD2    H3 2292   0.245   3.019  11.846  0.0623 -2.5741 -2.3863
  150MPD2     N 2293   0.256   3.486  11.801 -0.3371 -1.0000 -0.1854
  150MPD2    H5 2294   0.252   3.562  11.734  1.2059 -0.6340  0.1285
  150MPD2    N1 2295   0.083   3.188  11.461  0.9672 -1.2174 -0.0980
  150MPD2    H7 2296   0.037   3.100  11.439 -3.0992  1.2761 -1.4668
  151TCq2    C1 2297   0.288   3.517  11.929  0.5398 -0.4750  0.0139
  151TCq2    O2 2298   0.260   3.455  12.031 -0.6383 -0.8187  0.3205
  151TCq2    C2 2299   0.326   3.657  11.944 -0.5360  0.4265  0.5146
  151TCq2    C3 2300   0.398   3.723  11.849 -0.0225 -0.0128 -0.3705
  151TCq2    C4 2301   0.439   3.850  11.868  0.1165 -0.0971  0.3312
  151TCq2    C5 2302   0.396   3.914  11.979 -0.4435 -0.1834  0.5803
  151TCq2    C6 2303   0.314   3.855  12.066  0.4069 -0.9099  0.8795
  151TCq2    C7 2304   0.279   3.726  12.054  0.0463 -0.0775  0.1609
  151TCq2    C8 2305   0.332   3.897  12.201 -0.3320 -0.7397 -0.3417
  151TCq2    O4 2306   0.234   3.890  12.274  0.1733 -0.4363  0.0610
  151TCq2    C9 2307   0.523   3.912  11.772  0.2290 -0.2193  0.4543
  151TCq2    O5 2308   0.545   3.847  11.668  0.7121  0.0524 -0.0295
  151TCq2    O6 2309   0.563   4.030  11.798  0.0537 -0.1727 -0.5115
  151TCq2    H2 2310   0.438   3.661  11.769 -0.4002  0.7823 -1.1790
  151TCq2    H3 2311   0.432   4.016  11.990  0.7588 -0.4925 -0.5647
  151TCq2    H4 2312   0.210   3.678  12.123  0.7562 -0.0877  0.8708
  152MPD2     C 2313   4.612   3.128  12.913  0.0040 -0.1028  0.3519
  152MPD2    C1 2314   4.655   3.208  12.811  0.0806  0.6798  1.1916
  152MPD2    C2 2315   4.564   3.266  12.726  0.1255 -0.9934 -0.0138
  152MPD2    C3 2316   4.433   3.218  12.728 -0.3433 -0.2524  0.6855
  152MPD2    C4 2317   4.396   3.117  12.813  0.3731  0.1641  0.3824
  152MPD2    C5 2318   4.482   3.075  12.914  0.1659 -0.7953  0.5565
  152MPD2     H 2319   4.597   3.332  12.646  0.0172 -0.7193  0.1698
  152MPD2    H1 2320   4.297   3.074  12.820  0.4264  0.0611  0.5035
  152MPD2    H2 2321   4.681   3.091  12.988 -0.2634 -0.6778  0.3164
  152MPD2    H3 2322   4.451   3.003  12.989  0.4649  0.5003  1.9362
  152MPD2     N 2323   4.349   3.267  12.624 -0.0577  0.0486  0.5115
  152MPD2    H5 2324   4.382   3.352  12.579  1.0684 -0.9997 -0.6294
  152MPD2    N1 2325   0.066   3.247  12.802  0.4220 -0.8898 -0.2959
  152MPD2    H7 2326   0.124   3.207  12.875 -0.2509  0.5217  1.0252
  153TCq2    C1 2327   0.134   3.306  12.700  0.1421  0.1902  0.0204
  153TCq2    O2 2328   0.089   3.355  12.593 -0.0914 -0.1503  0.2965
  153TCq2    C2 2329   0.259   3.366  12.752 -0.4841  0.6590 -0.2355
  153TCq2    C3 2330   0.320   3.298  12.858  0.1327  0.3343  0.1023
  153TCq2    C4 2331   0.389   3.375  12.948 -0.0599  0.0449 -0.1278
  153TCq2    C5 2332   0.387   3.508  12.944  0.3740 -0.3690 -0.3491
  153TCq2    C6 2333   0.322   3.574  12.845  0.4378  0.4518  0.0035
  153TCq2    C7 2334   0.253   3.503  12.749 -0.1327  0.7176  0.4367
  153TCq2    C8 2335   0.303   3.719  12.856 -0.0527 -0.8456  0.1024
  153TCq2    O4 2336   0.201   3.767  12.805  0.0573 -0.0996  0.5318
  153TCq2    C9 2337   0.463   3.307  13.049 -0.0572  0.1273 -0.2041
  153TCq2    O5 2338   0.451   3.177  13.056 -0.2085 -0.6345  0.6673
  153TCq2    O6 2339   0.516   3.379  13.139  0.7174  0.6252  0.5721
  153TCq2    H2 2340   0.333   3.191  12.860  2.2355  0.5607 -1.4660
  153TCq2    H3 2341   0.449   3.561  13.014  0.4184  1.6660 -1.9362
  153TCq2    H4 2342   0.201   3.559  12.671 -0.1920  2.0321  1.4152
  154MPD2     C 2343   0.624   3.895  17.420 -0.0832  0.2949 -0.4371
  154MPD2    C1 2344   0.590   3.940  17.545  0.4893 -0.1242  0.1907
  154MPD2    C2 2345   0.461   3.908  17.594 -0.5244  0.2529 -0.4099
  154MPD2    C3 2346   0.366   3.858  17.510  0.7085  0.0988  0.0671
  154MPD2    C4 2347   0.398   3.822  17.376  0.4327 -0.8374  0.2513
  154MPD2    C5 2348   0.528   3.843  17.338  0.0852 -0.7844 -0.4596
  154MPD2     H 2349   0.442   3.933   0.001  1.2273  0.0353 -0.0408
  154MPD2    H1 2350   0.333   3.755  17.320 -0.6221  1.7792 -1.6572
  154MPD2    H2 2351   0.728   3.899  17.389  0.0371 -0.3160 -0.1091
  154MPD2    H3 2352   0.578   3.802  17.251  0.4025  0.1733 -0.7239
  154MPD2     N 2353   0.246   3.820  17.573 -0.0566  0.0670  0.2301
  154MPD2    H5 2354   0.233   3.856  17.668  2.5150 -1.1841  1.0451
  154MPD2    N1 2355   0.693   3.999  17.622 -0.5020 -0.0115 -0.3504
  154MPD2    H7 2356   0.786   4.003  17.583 -0.4915 -0.2516 -0.3479
  155TCq2    C1 2357   0.675   4.077   0.037 -0.7747  0.4007  0.1115
  155TCq2    O2 2358   0.564   4.108   0.079  0.2253  0.2298  0.4512
  155TCq2    C2 2359   0.795   4.147   0.081 -0.5611 -0.7729 -0.3020
  155TCq2    C3 2360   0.915   4.119   0.022  0.7885  0.1933 -0.2592
  155TCq2    C4 2361   1.010   4.221   0.021 -0.0149 -0.6969  0.4931
  155TCq2    C5 2362   0.976   4.347   0.065  0.3092 -0.1199 -0.0212
  155TCq2    C6 2363   0.852   4.368   0.124  0.0732 -0.7635 -0.1465
  155TCq2    C7 2364   0.768   4.270   0.136 -1.0315  0.1474 -0.6080
  155TCq2    C8 2365   0.820   4.486   0.201  0.3413  0.2255  0.2500
  155TCq2    O4 2366   0.703   4.513   0.218 -0.2221  0.3100 -0.2390
  155TCq2    C9 2367   1.142   4.198  17.669  0.3859  0.3229  0.2693
  155TCq2    O5 2368   1.221   4.298  17.654 -0.1915 -0.2556 -0.1001
  155TCq2    O6 2369   1.173   4.076  17.647  0.0096 -0.1212 -0.1192
  155TCq2    H2 2370   0.945   4.022  17.681  1.2847  0.0884  0.3872
  155TCq2    H3 2371   1.046   4.429   0.059  0.2598 -0.2314 -2.1620
  155TCq2    H4 2372   0.668   4.291   0.171 -0.4502  1.2072  0.4103
  156MPD2     C 2373   0.284   0.905  12.646  0.0817 -0.4377  0.2803
  156MPD2    C1 2374   0.289   0.970  12.525 -0.7761  0.2009 -0.2147
  156MPD2    C2 2375   0.196   1.069  12.506 -0.2590  0.0865 -1.1497
  156MPD2    C3 2376   0.095   1.095  12.583 -0.2893  0.3932  0.4776
  156MPD2    C4 2377   0.090   1.027  12.704 -0.0611  0.0685  0.1113
  156MPD2    C5 2378   0.185   0.933  12.730 -0.4536  0.1582  0.7348
  156MPD2     H 2379   0.189   1.115  12.408  1.4844  1.4522 -0.6309
  156MPD2    H1 2380   0.011   1.041  12.776 -1.7450  0.7115 -1.8436
  156MPD2    H2 2381   0.356   0.831  12.678  1.2400  0.4850 -0.2101
  156MPD2    H3 2382   0.171   0.879  12.824  0.6104 -2.1321 -0.4216
  156MPD2     N 2383   4.710   1.174  12.542 -0.2066 -0.7026 -0.6370
  156MPD2    H5 2384   4.629   1.175  12.604  0.7789  0.9364  0.6227
  156MPD2    N1 2385   0.383   0.931  12.432 -0.3344  0.6056  0.0840
  156MPD2    H7 2386   0.439   0.847  12.437  0.6251  1.1652 -0.9984
  157TCq2    C1 2387   0.409   0.995  12.314  0.0589  0.4983  0.7730
  157TCq2    O2 2388   0.384   1.114  12.289 -0.3817 -0.5137 -0.2719
  157TCq2    C2 2389   0.473   0.918  12.209  0.0436 -0.2387 -0.1736
  157TCq2    C3 2390   0.458   0.786  12.221 -0.8683 -0.4619  0.4587
  157TCq2    C4 2391   0.427   0.713  12.106 -0.8009 -0.1802  0.3309
  157TCq2    C5 2392   0.409   0.777  11.983  0.3062 -0.5952  0.2177
  157TCq2    C6 2393   0.427   0.915  11.977 -0.6819  0.4150  0.9852
  157TCq2    C7 2394   0.462   0.988  12.092 -0.0971 -0.2425 -0.6721
  157TCq2    C8 2395   0.379   0.990  11.865  0.4187  0.5937  0.1058
  157TCq2    O4 2396   0.357   1.105  11.887  0.4023  0.2087  0.5003
  157TCq2    C9 2397   0.396   0.574  12.123 -0.0857 -0.1855  0.0923
  157TCq2    O5 2398   0.378   0.514  12.012 -0.5330 -0.4158 -0.4293
  157TCq2    O6 2399   0.443   0.520  12.229 -0.1491  0.1761 -0.0142
  157TCq2    H2 2400   0.466   0.730  12.314 -1.5750  0.4133  1.0562
  157TCq2    H3 2401   0.376   0.718  11.898  1.1690  0.2017 -0.6722
  157TCq2    H4 2402   0.467   1.096  12.091 -1.5104 -0.1433  3.2881
  158TMC2    C1 2403   0.423   4.593  13.978  0.5341 -0.2439  0.2034
  158TMC2    C2 2404   0.517   4.686  13.943  1.1188 -0.8517 -0.1064
  158TMC2    C3 2405   0.529   4.713  13.817 -0.2900 -0.8541  0.1960
  158TMC2    C4 2406   0.342   4.532  13.883  0.6656 -0.4383  0.5205
  158TMC2    C5 2407   0.363   4.569  13.753 -0.8773 -1.0416  0.4329
  158TMC2    C6 2408   0.462   4.650  13.717 -0.1573  0.7420 -0.0296
  158TMC2     C 2409   0.433   4.547  14.116 -0.5130  0.1117  0.3098
  158TMC2     O 2410   0.519   4.596  14.187  0.2750  0.2192 -0.4025
  158TMC2     H 2411   0.580   0.012  14.016  0.9977  0.0912 -0.6386
  158TMC2    H1 2412   0.262   4.466  13.913 -1.9098  2.8336  0.7539
  158TMC2    H2 2413   0.470   4.682  13.614  1.2953  0.0112 -0.1429
  158TMC2    C7 2414   0.282   4.502  13.643  0.4844  0.1946 -0.4012
  158TMC2    C8 2415   0.615   0.099  13.783  0.0837  0.1649 -0.5328
  158TMC2    O1 2416   0.315   4.522  13.528  0.4876  0.1745  0.1067
  158TMC2    O2 2417   0.721   0.119  13.837 -0.0175  0.0268  0.9395
  158TMC2    O5 2418   0.525   0.205  13.746  0.3181  0.6609  0.3277
  158TMC2    H5 2419   0.440   0.164  13.719  2.3906 -1.3014 -3.3234
  159MPD2     C 2420   0.383   4.165  14.453 -0.5987  0.2389 -0.2141
  159MPD2    C1 2421   0.265   4.194  14.393  0.0789  1.3169 -0.0870
  159MPD2    C2 2422   0.249   4.294  14.300 -0.4013 -0.0205  0.1137
  159MPD2    C3 2423   0.357   4.371  14.265  0.4001  0.3613 -1.4599
  159MPD2    C4 2424   0.475   4.355  14.330  0.5222 -0.4036  0.1500
  159MPD2    C5 2425   0.488   4.245  14.416 -0.0657  0.7909 -0.5304
  159MPD2     H 2426   0.154   4.311  14.252  0.3317 -1.1848 -1.7254
  159MPD2    H1 2427   0.562   4.415  14.308  0.9701 -1.4079 -0.8365
  159MPD2    H2 2428   0.396   4.088  14.529 -0.9182  1.2067  0.8306
  159MPD2    H3 2429   0.578   4.238  14.475 -0.9420 -0.2710  0.6735
  159MPD2     N 2430   0.346   4.453  14.152 -0.3837 -0.4585 -1.2801
  159MPD2    H5 2431   0.261   4.459  14.098  0.7388 -0.3044 -3.0213
  159MPD2    N1 2432   0.162   4.112  14.439  0.4337  0.1497 -0.3537
  159MPD2    H7 2433   0.184   4.031  14.497  0.5661  0.4312 -0.0088
  160TMC2    C1 2434   0.105   3.233   1.172 -0.0190  0.2888  0.3601
  160TMC2    C2 2435   0.228   3.270   1.220  0.5146  0.0574 -1.2385
  160TMC2    C3 2436   0.264   3.396   1.198 -0.4635 -0.4051  0.1913
  160TMC2    C4 2437   0.024   3.319   1.099  0.0477 -0.1244  0.3606
  160TMC2    C5 2438   0.077   3.441   1.071  0.2336  0.0807  0.1472
  160TMC2    C6 2439   0.200   3.483   1.116  0.5525 -0.1660  0.6062
  160TMC2     C 2440   0.042   3.116   1.231 -0.0959  0.2017 -0.0406
  160TMC2     O 2441   0.122   3.039   1.279  0.4162 -0.2149  0.0411
  160TMC2     H 2442   0.291   3.199   1.273 -1.2643 -0.4682  0.1612
  160TMC2    H1 2443   4.655   3.299   1.048  1.0244 -0.6688 -1.2170
  160TMC2    H2 2444   0.258   3.571   1.092  0.9687 -0.3022  1.0892
  160TMC2    C7 2445   0.017   3.525   0.967 -0.0145  0.0526  0.2053
  160TMC2    C8 2446   0.390   3.432   1.251  0.0148 -0.7545  1.0246
  160TMC2    O1 2447   4.669   3.477   0.883 -0.1338 -0.1422  0.2975
  160TMC2    O2 2448   0.483   3.359   1.225  0.3004 -0.1136 -0.0964
  160TMC2    O5 2449   0.364   3.500   1.367  0.0836 -0.4451 -0.0186
  160TMC2    H5 2450   0.273   3.530   1.392  0.4057  0.1938  0.3987
  161MPD2     C 2451   4.578   2.912   1.352  0.0170  0.0173 -0.5813
  161MPD2    C1 2452   4.534   3.023   1.276 -0.2913 -0.0662  0.0531
  161MPD2    C2 2453   4.397   3.037   1.252  0.0331  0.1603  0.6848
  161MPD2    C3 2454   4.312   2.942   1.309 -0.1485 -0.4106  0.0571
  161MPD2    C4 2455   4.357   2.835   1.380 -0.1470 -0.2369 -0.1859
  161MPD2    C5 2456   4.491   2.814   1.402 -0.1578 -0.3243  0.0570
  161MPD2     H 2457   4.370   3.119   1.186 -0.6535 -2.2724 -2.0779
  161MPD2    H1 2458   4.294   2.759   1.425 -1.6587  1.1616  0.0516
  161MPD2    H2 2459   4.680   2.902   1.388  0.1415 -1.5793 -1.3499
  161MPD2    H3 2460   4.527   2.734   1.465 -0.7942 -1.8270 -1.4856
  161MPD2     N 2461   4.168   2.947   1.293 -0.1001 -0.1775  0.5803
  161MPD2    H5 2462   4.108   2.878   1.337 -1.1518 -0.9748 -2.1075
  161MPD2    N1 2463   4.625   3.119   1.224 -0.0479  0.0047  0.7469
  161MPD2    H7 2464   4.582   3.194   1.171  0.6826 -0.9242 -1.1419
  162TMC2    C1 2465   2.419   0.555   1.196 -0.2965 -0.5826 -0.6344
  162TMC2    C2 2466   2.494   0.674   1.207 -0.4662 -0.4962 -0.4293
  162TMC2    C3 2467   2.499   0.729   1.333 -0.4378  0.1094  0.5435
  162TMC2    C4 2468   2.345   0.504   1.303 -0.1753  0.2714  0.4214
  162TMC2    C5 2469   2.363   0.563   1.430  0.0107  0.3727  0.1453
  162TMC2    C6 2470   2.432   0.680   1.443 -0.2199 -0.8251  0.5489
  162TMC2     C 2471   2.446   0.475   1.081  0.1037  0.4948  0.1363
  162TMC2     O 2472   2.398   0.363   1.073 -0.0062  0.4511 -0.3982
  162TMC2     H 2473   2.552   0.716   1.126 -0.9752  1.7287  0.3389
  162TMC2    H1 2474   2.286   0.415   1.284 -1.6296  1.2001  0.6424
  162TMC2    H2 2475   2.436   0.734   1.537 -1.6386  1.2197 -0.5850
  162TMC2    C7 2476   2.283   0.505   1.536  0.3754 -0.4461 -0.0582
  162TMC2    C8 2477   2.596   0.838   1.346  0.1813 -0.5537  0.2684
  162TMC2    O1 2478   2.232   0.590   1.610 -0.0321  0.5833 -0.4302
  162TMC2    O2 2479   2.550   0.950   1.349  0.2031  0.1788  0.3264
  162TMC2    O5 2480   2.687   0.792   1.439 -0.4235 -0.1525  0.0777
  162TMC2    H5 2481   2.685   0.694   1.447 -0.0774  0.0238  2.5395
  163MPD2     C 2482   2.590   0.394   0.598 -0.5887 -0.1572  0.4378
  163MPD2    C1 2483   2.594   0.307   0.711 -0.2127 -0.0753  0.2025
  163MPD2    C2 2484   2.560   0.353   0.837 -0.2247  0.1290 -0.2739
  163MPD2    C3 2485   2.528   0.488   0.854 -0.0183  0.0299 -0.1294
  163MPD2    C4 2486   2.531   0.568   0.748 -0.0212  0.5849  0.3682
  163MPD2    C5 2487   2.558   0.526   0.625 -0.4040 -0.1972  0.7095
  163MPD2     H 2488   2.581   0.292   0.924 -1.0737  0.9914  0.5208
  163MPD2    H1 2489   2.520   0.674   0.768  0.6316  0.3690  1.8903
  163MPD2    H2 2490   2.619   0.371   0.496 -2.3591  0.4905 -0.2098
  163MPD2    H3 2491   2.550   0.604   0.550  1.0210 -1.3293 -0.6521
  163MPD2     N 2492   2.493   0.545   0.980  0.2949  0.3429  0.1385
  163MPD2    H5 2493   2.494   0.646   0.978  0.1167  0.4342  3.3420
  163MPD2    N1 2494   2.628   0.178   0.676 -0.4867  0.2454 -0.1192
  163MPD2    H7 2495   2.657   0.150   0.583  0.2639 -0.0202  0.2012
  164TCq2    C1 2496   3.583   4.350  11.228  0.9255  0.1392  0.6043
  164TCq2    O2 2497   3.489   4.280  11.266  0.0940  0.0856 -0.3821
  164TCq2    C2 2498   3.562   4.492  11.221  0.4242  0.7058 -0.4669
  164TCq2    C3 2499   3.665   4.572  11.182  0.4044  0.8549  0.5183
  164TCq2    C4 2500   3.635   4.705  11.157 -0.5399 -0.4939  0.4938
  164TCq2    C5 2501   3.508   0.028  11.167 -0.6825 -0.5717 -0.8394
  164TCq2    C6 2502   3.413   4.664  11.212  0.1042 -0.5164  0.3507
  164TCq2    C7 2503   3.435   4.532  11.229  0.3921 -0.1819  0.1471
  164TCq2    C8 2504   3.281   4.716  11.219 -0.6761 -0.3149  0.3574
  164TCq2    O4 2505   3.252   0.074  11.133  0.2746 -0.2584 -0.2023
  164TCq2    C9 2506   3.743   0.071  11.117  0.2197  0.4107 -0.1643
  164TCq2    O5 2507   3.853   0.024  11.110 -0.2733  0.2279  0.0209
  164TCq2    O6 2508   3.723   0.194  11.109 -0.1423  0.6862 -0.2257
  164TCq2    H2 2509   3.767   4.538  11.164  0.9476  1.9959  1.4231
  164TCq2    H3 2510   3.483   0.132  11.145  0.5672  0.4563  2.6312
  164TCq2    H4 2511   3.356   4.466  11.263 -1.2384  1.3511 -0.6870
  165MPD2     C 2512   3.387   1.467   1.520  0.0741  0.1184  0.5449
  165MPD2    C1 2513   3.291   1.514   1.606 -1.1222  0.1448  0.0296
  165MPD2    C2 2514   3.286   1.653   1.629  0.0624 -0.1022 -0.9224
  165MPD2    C3 2515   3.387   1.734   1.573 -0.1031  0.2474 -0.8855
  165MPD2    C4 2516   3.478   1.674   1.491 -0.2985 -0.8303  0.4935
  165MPD2    C5 2517   3.474   1.543   1.452  0.1772 -0.3038  0.1315
  165MPD2     H 2518   3.215   1.691   1.702 -0.5332 -1.0731 -0.9860
  165MPD2    H1 2519   3.547   1.738   1.436 -0.1123 -2.2301 -0.9050
  165MPD2    H2 2520   3.381   1.363   1.492 -1.0692  0.3691 -0.1529
  165MPD2    H3 2521   3.548   1.505   1.382 -1.3893 -0.1408 -1.6077
  165MPD2     N 2522   3.404   1.872   1.604 -0.0402  0.3037  0.0394
  165MPD2    H5 2523   3.485   1.918   1.565  1.3398 -0.9605  1.3808
  165MPD2    N1 2524   3.205   1.415   1.665 -0.1161 -0.3191 -0.2670
  165MPD2    H7 2525   3.218   1.318   1.637  0.5112 -0.3989  0.2861
  166TCq2    C1 2526   3.322   1.947   1.680  0.2192  0.6123  0.4248
  166TCq2    O2 2527   3.219   1.927   1.746  0.0317  0.5333 -0.2756
  166TCq2    C2 2528   3.382   2.074   1.704 -0.0994  0.3516 -0.1987
  166TCq2    C3 2529   3.298   2.183   1.712  0.1916 -0.2108  0.5225
  166TCq2    C4 2530   3.347   2.310   1.736  0.5754  0.4596  0.7891
  166TCq2    C5 2531   3.482   2.326   1.759 -0.6427  0.1710 -0.3399
  166TCq2    C6 2532   3.569   2.215   1.752  0.4964  0.6343 -0.1737
  166TCq2    C7 2533   3.517   2.096   1.710  0.4172  0.3677 -0.1535
  166TCq2    C8 2534   3.710   2.232   1.757 -0.0442  0.2409  0.3986
  166TCq2    O4 2535   3.785   2.140   1.721  0.4777 -0.0487  0.0809
  166TCq2    C9 2536   3.254   2.419   1.743 -0.8222 -0.0325  0.6812
  166TCq2    O5 2537   3.131   2.393   1.729 -0.0153  0.5090 -0.0326
  166TCq2    O6 2538   3.312   2.534   1.744  0.1533 -0.1150  0.4716
  166TCq2    H2 2539   3.191   2.173   1.703  0.5845 -0.8034 -3.2410
  166TCq2    H3 2540   3.515   2.428   1.776  1.6416 -0.4755 -0.8518
  166TCq2    H4 2541   3.584   2.012   1.694  0.3381  0.8534 -3.0435
  167TMC2    C1 2542   2.475   4.225  12.774  0.1510  1.1386  0.0541
  167TMC2    C2 2543   2.383   4.244  12.875 -0.2155 -0.2957 -0.2211
  167TMC2    C3 2544   2.324   4.133  12.919  0.0031  0.2261  0.3282
  167TMC2    C4 2545   2.495   4.107  12.710 -0.0908  0.2033 -0.2674
  167TMC2    C5 2546   2.417   3.996  12.754 -0.7678  0.6314 -0.9862
  167TMC2    C6 2547   2.333   4.013  12.862 -0.3884  0.3745  0.1226
  167TMC2     C 2548   2.525   4.352  12.709  0.5173 -0.5202  0.2278
  167TMC2     O 2549   2.525   4.454  12.770 -0.6006 -0.7203  0.0526
  167TMC2     H 2550   2.361   4.345  12.906 -0.6159 -0.2475 -0.6627
  167TMC2    H1 2551   2.578   4.094  12.642 -0.0337 -0.0686 -0.1474
  167TMC2    H2 2552   2.260   3.935  12.881 -0.1471  0.4335  1.2643
  167TMC2    C7 2553   2.453   3.862  12.716  0.7260 -0.7800 -0.4266
  167TMC2    C8 2554   2.232   4.149  13.025 -0.5658  0.3648  0.2059
  167TMC2    O1 2555   2.383   3.775  12.765  0.3329  0.2163 -0.3134
  167TMC2    O2 2556   2.212   4.054  13.095  0.8605 -0.7688  0.5664
  167TMC2    O5 2557   2.139   4.240  12.986 -0.8730  0.0555  0.5283
  167TMC2    H5 2558   2.179   4.306  12.926 -0.7825 -0.3227  0.1717
  168MPD2     C 2559   2.655   4.547  12.522  0.7779 -0.1211 -1.3022
  168MPD2    C1 2560   2.622   4.417  12.492  0.0658 -0.5034 -0.1881
  168MPD2    C2 2561   2.656   4.377  12.364  0.2318  0.3413 -0.0711
  168MPD2    C3 2562   2.721   4.462  12.272  0.4579 -0.1619  0.0791
  168MPD2    C4 2563   2.748   4.591  12.306  0.7029 -0.2101 -0.8955
  168MPD2    C5 2564   2.705   4.631  12.429 -0.0209 -0.3359  0.1921
  168MPD2     H 2565   2.625   4.278  12.334  1.6419  0.0937 -0.6865
  168MPD2    H1 2566   2.766   4.666  12.229  0.3589 -0.0568 -0.8254
  168MPD2    H2 2567   2.634   4.600  12.614 -0.5154 -0.3588 -1.4584
  168MPD2    H3 2568   2.714   0.014  12.447 -1.2635 -0.4157  1.2529
  168MPD2     N 2569   2.749   4.422  12.142 -0.1491  0.1915  0.1137
  168MPD2    H5 2570   2.812   4.483  12.090 -2.4054  2.5722  0.1784
  168MPD2    N1 2571   2.564   4.323  12.577 -0.9098  0.1915  0.7715
  168MPD2    H7 2572   2.547   4.234  12.531  1.5904 -0.2732  0.7431
  169MPD1     C 2573   0.160   4.236   8.935  0.3086 -0.0179 -0.3950
  169MPD1    C1 2574   0.238   4.229   9.049 -0.2910 -0.6291  0.0519
  169MPD1    C2 2575   0.282   4.109   9.090  0.1881 -0.2243  0.7305
  169MPD1    C3 2576   0.224   3.992   9.049 -0.0814 -0.1429  1.0265
  169MPD1    C4 2577   0.127   3.995   8.958  0.6041 -0.1054  0.1517
  169MPD1    C5 2578   0.100   4.117   8.902  0.1999 -0.3341 -0.6052
  169MPD1     H 2579   0.357   4.105   9.168  0.1037  1.3588  0.8889
  169MPD1    H1 2580   0.071   3.909   8.923  0.9274 -0.4213  0.4158
  169MPD1    H2 2581   0.122   4.326   8.887  1.6978  0.0298 -1.4160
  169MPD1    H3 2582   0.036   4.118   8.814  1.1084 -0.4535 -1.2701
  169MPD1     N 2583   0.270   3.870   9.104 -0.4606 -0.2852 -0.2630
  169MPD1    H5 2584   0.350   3.879   9.165 -1.0811 -1.7994  0.7746
  169MPD1    N1 2585   0.281   4.351   9.107 -0.4914 -0.6662 -0.0855
  169MPD1    H6 2586   0.227   4.430   9.073 -0.5579 -0.3241  0.8084
  169MPD1    H7 2587   0.259   4.342   9.206  1.4802 -3.6569  0.0891
  170MPD1     C 2588   3.369   1.394  12.727  0.5047  0.8978  0.0549
  170MPD1    C1 2589   3.308   1.513  12.711 -0.2656  0.5600  0.6138
  170MPD1    C2 2590   3.271   1.585  12.822  0.1825 -0.4712 -0.3557
  170MPD1    C3 2591   3.300   1.533  12.941  0.4583 -0.2725  0.5579
  170MPD1    C4 2592   3.361   1.415  12.957 -0.8145  0.5487 -0.4024
  170MPD1    C5 2593   3.391   1.345  12.850  0.0926 -0.5045 -0.3003
  170MPD1     H 2594   3.224   1.682  12.805  0.1263 -0.6447 -1.2071
  170MPD1    H1 2595   3.384   1.371  13.053 -0.0096  1.7024 -0.0649
  170MPD1    H2 2596   3.413   1.335  12.647  2.2305 -0.1276  1.7746
  170MPD1    H3 2597   3.431   1.245  12.861  1.4344 -0.0019 -0.6840
  170MPD1     N 2598   3.249   1.610  13.053 -0.5512  0.5545  0.4014
  170MPD1    H5 2599   3.191   1.689  13.026  1.0379  1.1656 -1.1903
  170MPD1    N1 2600   3.291   1.579  12.588  0.9611  0.6702 -0.1335
  170MPD1    H6 2601   3.202   1.629  12.581 -0.7274 -2.3291 -0.0562
  170MPD1    H7 2602   3.290   1.505  12.518  3.7821 -0.2947  0.8754
  171MPD1     C 2603   2.312   3.186  15.346  0.5543 -0.9708  0.5319
  171MPD1    C1 2604   2.209   3.100  15.306  0.4431 -0.4133 -0.1771
  171MPD1    C2 2605   2.189   2.985  15.385  0.2947 -0.3041  0.2894
  171MPD1    C3 2606   2.273   2.951  15.486 -0.1125 -1.0891 -0.0924
  171MPD1    C4 2607   2.369   3.046  15.526  0.2820  0.0289  0.6119
  171MPD1    C5 2608   2.387   3.159  15.456 -0.3432 -0.3307  0.2087
  171MPD1     H 2609   2.107   2.919  15.361 -0.5480  1.5434 -1.8820
  171MPD1    H1 2610   2.435   3.023  15.609  0.4832  0.8582  0.6796
  171MPD1    H2 2611   2.325   3.280  15.294 -0.0150 -1.1377  0.0849
  171MPD1    H3 2612   2.462   3.233  15.480  0.5468 -0.6752 -1.5064
  171MPD1     N 2613   2.287   2.823  15.542  0.1231 -0.1251 -0.1426
  171MPD1    H5 2614   2.363   2.819  15.608  1.1548 -0.5667 -1.3626
  171MPD1    N1 2615   2.116   3.143  15.211 -0.4895  0.1791 -0.0199
  171MPD1    H6 2616   2.162   3.199  15.140  0.2066  2.4834  2.2686
  171MPD1    H7 2617   2.081   3.066  15.154 -0.2570 -0.3006  0.4932
  172MPD1     C 2618   0.852   1.851   0.938 -0.2835 -0.5317 -0.0851
  172MPD1    C1 2619   0.988   1.889   0.951 -0.2102 -0.3994  0.1323
  172MPD1    C2 2620   1.024   2.012   0.904  1.0606 -0.4371  0.1858
  172MPD1    C3 2621   0.933   2.091   0.833  0.4074 -0.2671  0.4102
  172MPD1    C4 2622   0.810   2.041   0.808 -0.0884  0.1287  0.1476
  172MPD1    C5 2623   0.767   1.925   0.862  0.1111  0.0278 -0.1536
  172MPD1     H 2624   1.123   2.047   0.931  0.2280  0.3388  2.1845
  172MPD1    H1 2625   0.739   2.097   0.747 -0.6235 -1.5579 -0.7856
  172MPD1    H2 2626   0.820   1.751   0.965  0.9876 -1.0947 -0.6418
  172MPD1    H3 2627   0.668   1.883   0.851  0.0547  1.3094 -4.4333
  172MPD1     N 2628   0.959   2.214   0.783 -0.4021  0.0045 -0.2314
  172MPD1    H5 2629   0.881   2.269   0.748 -1.7781 -2.7486 -1.4933
  172MPD1    N1 2630   1.067   1.813   1.037 -0.0526  0.0193 -0.4425
  172MPD1    H6 2631   1.055   1.712   1.026  2.5042 -0.8325  4.4835
  172MPD1    H7 2632   1.165   1.834   1.027 -0.4076  2.4974  1.3118
  173MPD1     C 2633   2.609   2.220  14.198 -0.7851  0.4259 -0.1473
  173MPD1    C1 2634   2.593   2.110  14.131 -0.3739 -0.2601  0.3857
  173MPD1    C2 2635   2.506   2.022  14.189  0.1231 -0.3384 -0.2566
  173MPD1    C3 2636   2.446   2.046  14.313 -0.6882  0.0386  0.3584
  173MPD1    C4 2637   2.490   2.154  14.385 -0.2267  0.0906 -0.9395
  173MPD1    C5 2638   2.566   2.245  14.319  0.5586 -0.8283 -0.1925
  173MPD1     H 2639   2.485   1.932  14.133 -0.3643 -0.4908  0.1656
  173MPD1    H1 2640   2.454   2.177  14.485  0.9005  0.1177 -0.5419
  173MPD1    H2 2641   2.668   2.301  14.155  0.4993 -0.5563 -0.2215
  173MPD1    H3 2642   2.588   2.338  14.370  1.6104  0.2704 -2.6719
  173MPD1     N 2643   2.360   1.950  14.371 -0.2809 -0.3644  0.0606
  173MPD1    H5 2644   2.349   1.871  14.309  1.3470 -0.4428 -0.1268
  173MPD1    N1 2645   2.640   2.104  13.999  1.0406 -0.4671  1.0864
  173MPD1    H6 2646   2.729   2.153  13.996 -0.3505  2.0321  1.1810
  173MPD1    H7 2647   2.645   2.010  13.961  2.2181 -0.0295  0.1796
  174MPD1     C 2648   2.137   1.310  13.913 -0.2577  0.2797  0.2361
  174MPD1    C1 2649   2.145   1.251  14.039 -0.4509 -0.3943 -0.6649
  174MPD1    C2 2650   2.118   1.326  14.147 -0.2646  0.1153 -0.2923
  174MPD1    C3 2651   2.106   1.464  14.138  0.4251  1.0312 -0.7745
  174MPD1    C4 2652   2.111   1.521  14.010 -0.5834 -0.2067  0.7609
  174MPD1    C5 2653   2.120   1.445  13.905  0.1390 -0.0243 -0.8174
  174MPD1     H 2654   2.118   1.274  14.243  3.0239  0.7401  0.0427
  174MPD1    H1 2655   2.105   1.626  13.984  1.4639 -0.2649  0.0313
  174MPD1    H2 2656   2.136   1.262  13.815 -1.2233 -0.9367  0.8313
  174MPD1    H3 2657   2.115   1.487  13.805  3.0705 -0.9138 -1.3454
  174MPD1     N 2658   2.091   1.558  14.240 -0.0912 -0.3110 -0.1089
  174MPD1    H5 2659   2.090   1.657  14.219  2.2724 -0.5745 -1.4734
  174MPD1    N1 2660   2.153   1.113  14.044  0.4013  1.2348  0.2886
  174MPD1    H6 2661   2.197   1.078  14.130 -0.9854 -0.2753  0.3822
  174MPD1    H7 2662   2.215   1.076  13.972 -0.1808 -1.5474  1.1955
  175MPD1     C 2663   1.298   3.134  15.579  0.3775  0.2834  0.1991
  175MPD1    C1 2664   1.168   3.173  15.611  0.5066 -0.2802 -0.0192
  175MPD1    C2 2665   1.109   3.114  15.718 -0.2377  0.1797  0.2242
  175MPD1    C3 2666   1.164   3.000  15.773  0.6338  1.0118 -0.3652
  175MPD1    C4 2667   1.280   2.946  15.729  0.1344  0.3717 -0.4822
  175MPD1    C5 2668   1.351   3.016  15.627  0.5966  0.2313 -0.4872
  175MPD1     H 2669   1.024   3.165  15.761 -1.7612 -0.7518 -1.6839
  175MPD1    H1 2670   1.334   2.858  15.764 -1.9595 -0.9464 -0.5576
  175MPD1    H2 2671   1.348   3.180  15.495 -1.2876 -0.9506 -1.4732
  175MPD1    H3 2672   1.451   2.983  15.604  1.1023  0.2852  1.5988
  175MPD1     N 2673   1.104   2.925  15.880  0.3007  0.1095 -0.3598
  175MPD1    H5 2674   1.151   2.844  15.919  0.3402 -0.7273 -2.1811
  175MPD1    N1 2675   1.113   3.292  15.552  0.1664 -0.0363 -0.1085
  175MPD1    H6 2676   1.012   3.283  15.544  0.2405 -0.1341 -0.9319
  175MPD1    H7 2677   1.150   3.299  15.458  0.3337  0.4624 -0.0057
  176MPD1     C 2678   3.111   4.460   0.313 -0.1336 -0.2125 -0.1576
  176MPD1    C1 2679   2.965   4.461   0.285  0.2769 -0.0181  0.2388
  176MPD1    C2 2680   2.910   4.556   0.197  0.4278 -0.0790  0.7626
  176MPD1    C3 2681   2.986   4.664   0.152  0.0231 -0.3056 -0.0125
  176MPD1    C4 2682   3.118   4.674   0.197  0.4520  0.1116  0.6361
  176MPD1    C5 2683   3.172   4.574   0.272  0.1280 -0.4421 -0.0922
  176MPD1     H 2684   2.807   4.538   0.171  0.1188  1.7248  0.7644
  176MPD1    H1 2685   3.178   0.033   0.161  0.0277  0.3599  0.5104
  176MPD1    H2 2686   3.153   4.391   0.385  2.2799  0.9740 -0.4102
  176MPD1    H3 2687   3.269   4.592   0.315  1.5335 -1.3670 -2.8680
  176MPD1     N 2688   2.922   0.036   0.067  0.3406  0.0451  0.6363
  176MPD1    H5 2689   2.833   0.003   0.030 -0.3862  0.4283  2.0587
  176MPD1    N1 2690   2.889   4.364   0.341  0.5185 -0.4874 -0.0374
  176MPD1    H6 2691   2.823   4.331   0.272  1.1441 -1.7490 -0.0216
  176MPD1    H7 2692   2.941   4.285   0.378  0.2656 -0.7420 -0.2339
  177MPD1     C 2693   1.270   0.048   9.957  0.2642  0.3213 -0.0582
  177MPD1    C1 2694   1.164   4.690   9.924 -0.1326  0.4175  0.0606
  177MPD1    C2 2695   1.042   0.013   9.871  0.2694 -0.0637  0.4178
  177MPD1    C3 2696   1.029   0.149   9.852 -0.9537  0.3924  0.4091
  177MPD1    C4 2697   1.128   0.229   9.902  0.7294 -0.3093  0.1715
  177MPD1    C5 2698   1.251   0.181   9.947 -0.0967 -0.3830 -0.4523
  177MPD1     H 2699   0.963   4.673   9.832  0.3859  0.2860 -0.3966
  177MPD1    H1 2700   1.118   0.337   9.905  0.4574 -0.2866 -1.1962
  177MPD1    H2 2701   1.363   0.006   9.993 -0.2948 -2.1294 -1.4736
  177MPD1    H3 2702   1.323   0.252   9.985 -1.7434  0.7905  0.4790
  177MPD1     N 2703   0.916   0.201   9.785  0.0704 -0.4510  0.1282
  177MPD1    H5 2704   0.851   0.145   9.731  1.8917 -0.7312 -1.8038
  177MPD1    N1 2705   1.180   4.547   9.921 -0.1864  0.5668  0.1876
  177MPD1    H6 2706   1.089   4.501   9.922 -0.7859  1.7622  0.5079
  177MPD1    H7 2707   1.236   4.508   9.996 -0.9436  0.2162  0.5755
  178MPD1     C 2708   3.584   0.351   0.578 -0.0883 -0.0601 -0.4438
  178MPD1    C1 2709   3.478   0.410   0.520 -0.6262  0.1234  0.4378
  178MPD1    C2 2710   3.492   0.457   0.392  0.0118  0.1624  0.2947
  178MPD1    C3 2711   3.600   0.427   0.315  0.1614  0.1817  0.1105
  178MPD1    C4 2712   3.707   0.368   0.369  0.1847  0.4520 -0.3718
  178MPD1    C5 2713   3.700   0.333   0.505 -0.0688  0.6101 -0.1853
  178MPD1     H 2714   3.406   0.503   0.345  1.8793  2.1595 -1.1303
  178MPD1    H1 2715   3.796   0.348   0.311  0.5359 -0.0071  0.3193
  178MPD1    H2 2716   3.573   0.325   0.682 -0.5484  0.0666 -0.4612
  178MPD1    H3 2717   3.777   0.271   0.549 -2.0579 -2.0524 -0.4326
  178MPD1     N 2718   3.603   0.459   0.180  0.2541 -0.0707 -0.4268
  178MPD1    H5 2719   3.692   0.439   0.136  0.4383 -1.0582  0.3845
  178MPD1    N1 2720   3.362   0.431   0.593  0.1407 -0.3429 -0.0672
  178MPD1    H6 2721   3.274   0.436   0.540 -0.3126 -0.4062  0.6861
  178MPD1    H7 2722   3.341   0.360   0.662 -2.4196 -1.0526 -1.5329
  179MPD1     C 2723   2.545   4.228  15.966  0.2551  0.0160 -0.5337
  179MPD1    C1 2724   2.579   4.122  16.052  0.2272  0.5533  0.5860
  179MPD1    C2 2725   2.631   4.006  16.000  0.2624  0.1332  0.1393
  179MPD1    C3 2726   2.649   3.990  15.864  0.6192  0.2684  0.0361
  179MPD1    C4 2727   2.596   4.093  15.788 -0.3468  0.1205  0.3231
  179MPD1    C5 2728   2.556   4.212  15.837 -0.5424 -0.3740 -0.4963
  179MPD1     H 2729   2.664   3.921  16.059  1.2013  0.7083  0.4551
  179MPD1    H1 2730   2.598   4.080  15.680  3.2730  1.1203  0.2747
  179MPD1    H2 2731   2.485   4.313  15.997 -0.4899 -0.2183 -1.3045
  179MPD1    H3 2732   2.521   4.289  15.770  0.1964  1.8275  1.6556
  179MPD1     N 2733   2.703   3.876  15.799  0.9093 -0.1611 -0.6694
  179MPD1    H5 2734   2.681   3.867  15.700  1.0233 -3.8674 -0.3609
  179MPD1    N1 2735   2.563   4.129  16.192 -0.1523 -0.1102 -0.0071
  179MPD1    H6 2736   2.551   4.222  16.231  0.9165  0.5081 -1.1674
  179MPD1    H7 2737   2.632   4.084  16.251 -0.2635 -2.0944 -1.3985
  180MPD1     C 2738   1.890   0.753  14.652 -0.5222  0.4646  0.3791
  180MPD1    C1 2739   1.883   0.658  14.550 -0.1844  0.1223 -0.2974
  180MPD1    C2 2740   1.993   0.601  14.502 -0.1006  0.8318 -0.1859
  180MPD1    C3 2741   2.116   0.640  14.547  0.1811 -0.2541  0.0616
  180MPD1    C4 2742   2.120   0.745  14.634 -0.0261  0.4559  0.2734
  180MPD1    C5 2743   2.011   0.809  14.683 -0.6091  0.4309  0.2243
  180MPD1     H 2744   1.978   0.521  14.430 -3.3465  2.4372 -1.2585
  180MPD1    H1 2745   2.213   0.778  14.679  0.2464  0.7014 -0.4621
  180MPD1    H2 2746   1.804   0.802  14.696  0.3582  1.4625  0.9789
  180MPD1    H3 2747   2.016   0.874  14.770 -0.3939 -0.3002  0.7667
  180MPD1     N 2748   2.233   0.568  14.505  0.7839 -0.3108 -0.0472
  180MPD1    H5 2749   2.218   0.495  14.436 -2.2598 -1.4366  1.8106
  180MPD1    N1 2750   1.759   0.601  14.525 -0.1304 -0.7982 -0.1932
  180MPD1    H6 2751   1.751   0.565  14.430  2.9245  0.7473 -1.0438
  180MPD1    H7 2752   1.676   0.657  14.542  1.0602  0.9379 -0.0716
  181MPD1     C 2753   4.513   1.640  10.412  0.0775 -0.0884 -0.7984
  181MPD1    C1 2754   4.556   1.580  10.295 -0.4673 -0.2474  0.0383
  181MPD1    C2 2755   4.663   1.635  10.221 -0.7058 -0.3783 -0.1273
  181MPD1    C3 2756   0.014   1.739  10.272  0.1629 -0.4975  0.1381
  181MPD1    C4 2757   4.703   1.792  10.394 -0.6678  0.1419  0.5425
  181MPD1    C5 2758   4.593   1.744  10.459 -0.1298 -0.3581  0.0343
  181MPD1     H 2759   4.695   1.587  10.130  0.0969  0.9395 -0.5379
  181MPD1    H1 2760   0.034   1.873  10.442  0.1068  1.0499 -1.8766
  181MPD1    H2 2761   4.427   1.605  10.467  1.0680 -1.1635  0.0640
  181MPD1    H3 2762   4.571   1.804  10.547  1.5434  2.5920 -1.5928
  181MPD1     N 2763   0.117   1.805  10.203 -0.2670  0.2891 -0.1870
  181MPD1    H5 2764   0.165   1.882  10.249  0.1658 -1.0385  1.5747
  181MPD1    N1 2765   4.478   1.478  10.246  0.2525 -0.0572  0.1908
  181MPD1    H6 2766   4.538   1.411  10.198  0.4598  1.2194 -1.3020
  181MPD1    H7 2767   4.429   1.431  10.323  2.9116 -1.8900  0.7872
  182MPD1     C 2768   0.851   1.044   1.969 -0.2219 -0.5501  0.5774
  182MPD1    C1 2769   0.857   1.108   1.849  0.2951 -0.3558  0.1241
  182MPD1    C2 2770   0.736   1.130   1.780  0.1818 -0.9705 -0.3655
  182MPD1    C3 2771   0.611   1.106   1.847  0.8444  0.0873 -0.6297
  182MPD1    C4 2772   0.613   1.067   1.977 -0.7165  0.5802  0.4441
  182MPD1    C5 2773   0.734   1.043   2.044  0.7514 -0.3151  0.4432
  182MPD1     H 2774   0.739   1.163   1.677  0.1754  1.4131  0.3975
  182MPD1    H1 2775   0.523   1.046   2.034  0.7856 -3.7747  1.1341
  182MPD1    H2 2776   0.940   1.019   2.025  0.1519  1.9297  1.0911
  182MPD1    H3 2777   0.737   1.004   2.144  1.4588 -1.5295 -0.0572
  182MPD1     N 2778   0.487   1.114   1.793 -0.3638  0.1007  0.0252
  182MPD1    H5 2779   0.406   1.115   1.854 -1.9005  1.0282 -2.0342
  182MPD1    N1 2780   0.981   1.138   1.793 -0.5227  0.5561  0.0893
  182MPD1    H6 2781   1.005   1.201   1.716  1.8500  1.1595  1.3134
  182MPD1    H7 2782   1.058   1.145   1.859 -1.1219 -1.0994  0.9760
  183MPD1     C 2783   0.796   1.188   8.972  0.4814  0.0071  0.0757
  183MPD1    C1 2784   0.923   1.194   9.024 -0.0454  0.1674 -0.0250
  183MPD1    C2 2785   0.952   1.308   9.102  0.3293 -0.6098  0.9651
  183MPD1    C3 2786   0.861   1.403   9.135  0.3381  0.8637 -0.1195
  183MPD1    C4 2787   0.737   1.389   9.084 -0.6396  0.0341  0.2251
  183MPD1    C5 2788   0.704   1.280   9.006 -0.1159 -0.4830 -0.4420
  183MPD1     H 2789   1.051   1.319   9.143  1.7572 -1.6711 -2.2517
  183MPD1    H1 2790   0.650   1.452   9.097 -1.8987 -1.4077 -1.2279
  183MPD1    H2 2791   0.771   1.108   8.903  1.1552 -1.8498  1.9731
  183MPD1    H3 2792   0.604   1.277   8.964  0.3485  0.8113 -1.6347
  183MPD1     N 2793   0.911   1.514   9.204 -0.2689 -0.0359  0.0152
  183MPD1    H5 2794   1.010   1.522   9.225 -0.2918  0.5596 -0.0913
  183MPD1    N1 2795   1.026   1.109   8.985 -0.1022 -0.1468  0.3793
  183MPD1    H6 2796   1.105   1.093   9.047  0.6780  0.9930 -0.3042
  183MPD1    H7 2797   0.983   1.024   8.951 -0.0662 -0.1241  0.2758
  184MPD1     C 2798   0.477   3.600   9.968 -0.0770 -0.2167  0.5349
  184MPD1    C1 2799   0.572   3.689  10.003 -0.9423 -0.0289  0.4644
  184MPD1    C2 2800   0.567   3.811   9.933  0.6034 -0.7412 -0.1345
  184MPD1    C3 2801   0.447   3.853   9.868 -0.7452 -0.6842  0.7424
  184MPD1    C4 2802   0.355   3.758   9.834  0.1939  0.3073  0.2920
  184MPD1    C5 2803   0.379   3.626   9.874 -0.2304  0.6831 -0.3465
  184MPD1     H 2804   0.655   3.875   9.936 -0.5136  0.7341  1.0660
  184MPD1    H1 2805   0.266   3.781   9.776  0.3370  2.2286  0.8316
  184MPD1    H2 2806   0.472   3.498  10.006 -1.7524  0.1863  1.4185
  184MPD1    H3 2807   0.306   3.550   9.850  1.8952 -1.0938 -1.1879
  184MPD1     N 2808   0.432   3.979   9.805 -0.2348  0.8289  0.3396
  184MPD1    H5 2809   0.355   3.999   9.743  0.7926 -0.1384 -1.2321
  184MPD1    N1 2810   0.689   3.640  10.059 -0.7029 -0.0494 -0.3108
  184MPD1    H6 2811   0.738   3.716  10.107 -1.3608 -1.1809  2.1813
  184MPD1    H7 2812   0.673   3.566  10.127  1.7038 -1.8242 -1.6896
  185MPD1     C 2813   4.557   4.183   9.173  0.4356 -0.7967  0.4055
  185MPD1    C1 2814   4.617   4.308   9.198 -0.3151 -0.3905 -0.0630
  185MPD1    C2 2815   4.718   4.321   9.289 -0.3768 -0.3843 -0.5681
  185MPD1    C3 2816   0.062   4.210   9.334  0.5478 -0.2348  0.1781
  185MPD1    C4 2817   0.010   4.086   9.305  0.0061  0.5440  0.3840
  185MPD1    C5 2818   4.615   4.074   9.235 -0.3528  1.0499 -0.2183
  185MPD1     H 2819   0.029   4.422   9.307 -0.1048 -0.3464 -1.2931
  185MPD1    H1 2820   0.068   4.000   9.338 -1.3049  0.0374  1.3794
  185MPD1    H2 2821   4.481   4.168   9.098 -0.2737 -0.9337  1.1527
  185MPD1    H3 2822   4.578   3.976   9.209  0.0034  1.1153 -0.9729
  185MPD1     N 2823   0.176   4.210   9.417  0.6528  0.3191 -0.4299
  185MPD1    H5 2824   0.204   4.119   9.452 -0.4091 -0.5729 -1.8749
  185MPD1    N1 2825   4.563   4.418   9.130  0.5986 -0.5317 -0.0377
  185MPD1    H6 2826   4.633   4.487   9.103 -0.5670  0.3257 -0.8652
  185MPD1    H7 2827   4.511   4.390   9.047 -1.2841 -0.8726  1.2602
  186MPD1     C 2828   2.976   4.129  15.514 -0.3478 -0.1267  0.0888
  186MPD1    C1 2829   3.031   4.012  15.569  0.7179  0.6465  0.0446
  186MPD1    C2 2830   3.032   4.016  15.708  0.4755 -1.2829  0.1833
  186MPD1    C3 2831   2.975   4.117  15.782 -0.2510 -0.2689  0.0639
  186MPD1    C4 2832   2.901   4.210  15.726  0.1306  0.2854 -0.0638
  186MPD1    C5 2833   2.900   4.214  15.592 -0.3225  0.6614  0.0567
  186MPD1     H 2834   3.085   3.937  15.760  1.9612 -3.1834 -4.1706
  186MPD1    H1 2835   2.845   4.286  15.779 -1.1507  0.4127 -1.6009
  186MPD1    H2 2836   2.972   4.148  15.407  0.6085 -0.2936  0.0307
  186MPD1    H3 2837   2.843   4.294  15.547 -0.2874  1.8466  2.1411
  186MPD1     N 2838   2.978   4.108  15.926  0.3338 -0.2786  0.0325
  186MPD1    H5 2839   2.932   4.182  15.978  0.1945  0.4067 -1.0507
  186MPD1    N1 2840   3.077   3.902  15.496 -0.1644  0.0041 -0.1066
  186MPD1    H6 2841   3.159   3.863  15.542  0.3146 -1.0688 -1.9133
  186MPD1    H7 2842   3.101   3.925  15.400  2.3360  2.2526  1.0546
  187MPD1     C 2843   2.735   0.255   0.205  0.3620 -0.2152  0.8135
  187MPD1    C1 2844   2.614   0.241   0.139 -0.1279  0.3397 -0.4832
  187MPD1    C2 2845   2.571   0.346   0.062 -0.8542  0.3525  0.4985
  187MPD1    C3 2846   2.637   0.469   0.045  0.2985 -0.7360  0.2822
  187MPD1    C4 2847   2.751   0.479   0.123  0.4235 -0.6798 -0.7374
  187MPD1    C5 2848   2.800   0.372   0.193  0.2210  0.1518  0.0761
  187MPD1     H 2849   2.478   0.337   0.007 -0.3512 -1.6312 -0.0213
  187MPD1    H1 2850   2.804   0.574   0.130  0.8657 -0.8227 -2.2839
  187MPD1    H2 2851   2.769   0.173   0.266  2.8443  0.9525  0.9695
  187MPD1    H3 2852   2.889   0.382   0.254  1.0704 -0.1876 -1.1159
  187MPD1     N 2853   2.619   0.567  17.644  1.0084  0.0255 -0.0182
  187MPD1    H5 2854   2.676   0.651  17.646 -0.3650  1.0153 -2.8172
  187MPD1    N1 2855   2.566   0.112   0.133 -0.5340 -0.4630  0.0414
  187MPD1    H6 2856   2.466   0.102   0.113 -0.5942  2.6604 -1.3067
  187MPD1    H7 2857   2.585   0.062   0.220  0.0750 -0.8671 -0.3318
  188MPD1     C 2858   2.427   0.482  10.488  0.6061  0.3677  0.3600
  188MPD1    C1 2859   2.360   0.534  10.382  0.0017  0.2623  0.3976
  188MPD1    C2 2860   2.408   0.529  10.249  0.1664  0.2098 -0.4276
  188MPD1    C3 2861   2.531   0.471  10.229  0.0634  0.3279 -0.3383
  188MPD1    C4 2862   2.606   0.419  10.336  0.3628 -0.2788 -0.2569
  188MPD1    C5 2863   2.543   0.421  10.459  0.3171 -0.3024  0.4367
  188MPD1     H 2864   2.350   0.574  10.170  0.3924  2.4587  0.6912
  188MPD1    H1 2865   2.683   0.344  10.325  1.4609  1.2696 -3.0526
  188MPD1    H2 2866   2.381   0.456  10.582 -1.6172  1.2608 -0.4611
  188MPD1    H3 2867   2.586   0.367  10.542  0.1078 -1.7070 -0.3762
  188MPD1     N 2868   2.568   0.437  10.101  0.3980  0.3235 -0.1963
  188MPD1    H5 2869   2.664   0.410  10.081  0.3950  1.3389 -1.5933
  188MPD1    N1 2870   2.234   0.589  10.412 -0.2886 -0.1677 -0.2279
  188MPD1    H6 2871   2.206   0.675  10.366  0.9008  0.1396 -0.3522
  188MPD1    H7 2872   2.206   0.587  10.510 -3.2061  0.4358 -1.0557
  189MPD1     C 2873   3.995   1.579  17.488  0.4505  0.1360  0.2760
  189MPD1    C1 2874   3.977   1.506  17.610 -0.6180  0.5286 -0.0086
  189MPD1    C2 2875   3.957   1.580   0.027  0.4284 -0.3903  0.0422
  189MPD1    C3 2876   3.960   1.717   0.025 -0.2477 -0.0220  0.2830
  189MPD1    C4 2877   3.969   1.787  17.603 -0.1279 -0.4338  0.4819
  189MPD1    C5 2878   3.997   1.719  17.489 -0.0036 -0.7252 -0.1121
  189MPD1     H 2879   3.933   1.524   0.116 -1.6740  0.7444  0.1814
  189MPD1    H1 2880   3.988   1.893  17.601 -0.1668 -0.4038  1.9786
  189MPD1    H2 2881   4.015   1.520  17.400  0.6376 -0.3578  0.6483
  189MPD1    H3 2882   4.001   1.762  17.390 -2.9238 -0.1046  0.0244
  189MPD1     N 2883   3.946   1.776   0.150 -0.4837 -0.7901 -0.5523
  189MPD1    H5 2884   3.937   1.710   0.227  0.3411 -0.2126  0.0378
  189MPD1    N1 2885   4.002   1.367  17.607 -0.1471  0.0120  0.6507
  189MPD1    H6 2886   3.956   1.327  17.688 -0.3116  0.6472  0.8682
  189MPD1    H7 2887   3.973   1.318  17.522  1.8008  0.3617 -0.2252
  190MPD1     C 2888   1.999   0.382  16.053 -0.8125 -0.3871 -0.4748
  190MPD1    C1 2889   2.044   0.265  16.104 -0.6292 -0.5389  0.6309
  190MPD1    C2 2890   2.163   0.221  16.057 -0.0094 -0.2820  0.2718
  190MPD1    C3 2891   2.247   0.298  15.982  0.0501  0.0287 -0.3040
  190MPD1    C4 2892   2.198   0.416  15.935  0.6749  0.2706  0.5820
  190MPD1    C5 2893   2.076   0.454  15.966  0.1057  0.3698  0.3026
  190MPD1     H 2894   2.187   0.117  16.072 -2.1489 -1.1011 -2.0056
  190MPD1    H1 2895   2.263   0.469  15.865 -0.0874 -0.9908 -1.0803
  190MPD1    H2 2896   1.893   0.402  16.063 -0.9578 -1.0103 -0.7850
  190MPD1    H3 2897   2.038   0.542  15.916 -1.8821  1.1323  3.1417
  190MPD1     N 2898   2.374   0.246  15.952 -0.3639 -0.1501  0.0830
  190MPD1    H5 2899   2.392   0.156  15.996 -0.0211 -1.4927 -2.8452
  190MPD1    N1 2900   1.947   0.180  16.159 -0.6650  0.4133 -0.1180
  190MPD1    H6 2901   1.989   0.112  16.221  0.9487  2.7794  1.4123
  190MPD1    H7 2902   1.870   0.221  16.212 -0.2918 -0.0667  0.7847
  191MPD1     C 2903   2.399   1.878  12.711  0.1462 -0.4935 -0.4837
  191MPD1    C1 2904   2.503   1.961  12.673  0.0488  0.1881  0.6320
  191MPD1    C2 2905   2.472   2.071  12.591 -0.4368 -0.7516 -0.0957
  191MPD1    C3 2906   2.353   2.085  12.532  0.9510  0.1856  0.3000
  191MPD1    C4 2907   2.259   1.988  12.563 -0.2830 -0.1374 -0.0908
  191MPD1    C5 2908   2.283   1.891  12.655  0.0178  1.1137 -0.2631
  191MPD1     H 2909   2.547   2.143  12.558 -1.8491 -0.0358 -1.7252
  191MPD1    H1 2910   2.160   1.979  12.520  0.2501 -1.8618 -0.9262
  191MPD1    H2 2911   2.424   1.788  12.767 -0.9860 -0.1117  0.6226
  191MPD1    H3 2912   2.202   1.821  12.673  0.0515  0.7040 -1.7304
  191MPD1     N 2913   2.329   2.195  12.445  0.2755 -0.2753  0.6525
  191MPD1    H5 2914   2.413   2.246  12.417  1.1688 -0.2183  3.4641
  191MPD1    N1 2915   2.626   1.954  12.739 -0.6314  0.3162 -0.2413
  191MPD1    H6 2916   2.640   1.865  12.784 -1.7634  1.7042  2.8761
  191MPD1    H7 2917   2.698   1.959  12.668  0.1652 -0.5143  0.5217
  192MPD1     C 2918   1.819   3.065  12.553  0.5701  0.7397  0.0399
  192MPD1    C1 2919   1.748   2.957  12.504  0.5224 -0.0830 -0.1946
  192MPD1    C2 2920   1.829   2.850  12.456  0.5776  1.1459  0.0808
  192MPD1    C3 2921   1.958   2.861  12.433 -0.1321 -0.0657 -0.6070
  192MPD1    C4 2922   2.021   2.973  12.467  0.5490 -0.0251  0.6655
  192MPD1    C5 2923   1.956   3.070  12.527 -0.3379 -0.1653  0.5185
  192MPD1     H 2924   1.776   2.771  12.405  0.8716  0.6735  0.5038
  192MPD1    H1 2925   2.128   2.989  12.457  0.5835 -0.9690 -0.4043
  192MPD1    H2 2926   1.776   3.136  12.622 -0.5410  1.3939 -1.3385
  192MPD1    H3 2927   1.999   3.166  12.555 -0.8047 -0.0944  0.9885
  192MPD1     N 2928   2.037   2.761  12.364  0.3646 -0.2493 -0.2483
  192MPD1    H5 2929   2.134   2.785  12.345  1.3655 -2.2036  2.5220
  192MPD1    N1 2930   1.611   2.938  12.530  0.8269  1.0495 -0.1287
  192MPD1    H6 2931   1.577   2.894  12.445  0.9185  2.0538 -0.6945
  192MPD1    H7 2932   1.566   3.029  12.537 -1.1767  0.0890 -0.6035
  193MPD1     C 2933   2.014   2.089  16.035  0.2648 -0.3125 -0.3396
  193MPD1    C1 2934   1.961   2.182  16.118  0.8732 -0.0285 -0.4867
  193MPD1    C2 2935   2.041   2.258  16.203 -0.1502  0.2572 -0.0087
  193MPD1    C3 2936   2.183   2.236  16.207  0.3267 -0.5473  0.4876
  193MPD1    C4 2937   2.234   2.132  16.135 -0.8712  0.1477  0.4832
  193MPD1    C5 2938   2.152   2.072  16.048  0.9625  0.4147 -0.3194
  193MPD1     H 2939   1.993   2.340  16.255 -1.7514  1.3155 -3.1512
  193MPD1    H1 2940   2.340   2.114  16.137 -0.8361  0.6006  2.3365
  193MPD1    H2 2941   1.951   2.026  15.973 -0.9702  0.8762 -0.3088
  193MPD1    H3 2942   2.211   2.008  15.983 -2.1098 -0.7537 -1.9201
  193MPD1     N 2943   2.271   2.320  16.285 -0.0229  0.3302 -0.4804
  193MPD1    H5 2944   2.368   2.289  16.290 -0.9016 -2.1778  0.9569
  193MPD1    N1 2945   1.817   2.190  16.114  0.4078 -0.3774  0.4154
  193MPD1    H6 2946   1.776   2.237  16.194 -0.9012  1.5472 -1.3945
  193MPD1    H7 2947   1.773   2.098  16.118  0.8901 -0.6953 -1.7314
  194MPD1     C 2948   4.710   0.284  16.400  0.0455 -0.0937  0.0639
  194MPD1    C1 2949   4.685   0.327  16.527 -0.1293  0.5833  0.1697
  194MPD1    C2 2950   4.706   0.228  16.624  0.3309 -0.2424  0.0533
  194MPD1    C3 2951   0.009   0.096  16.581 -0.2202  0.0424 -0.2582
  194MPD1    C4 2952   0.004   0.056  16.447  0.3809 -0.2631 -0.3758
  194MPD1    C5 2953   0.003   0.161  16.356  0.2596 -0.6226  0.4183
  194MPD1     H 2954   4.707   0.255  16.729  1.2230  0.9480 -0.2633
  194MPD1    H1 2955   0.018   4.676  16.416 -1.7120 -0.5148 -0.5056
  194MPD1    H2 2956   4.707   0.356  16.319 -2.0274  0.6569  0.8331
  194MPD1    H3 2957   4.722   0.137  16.250  0.7207 -0.6348  0.4008
  194MPD1     N 2958   0.042   4.710  16.666  0.2820  0.1293  0.2541
  194MPD1    H5 2959   0.043   4.625  16.611 -0.9552  0.6304 -0.5244
  194MPD1    N1 2960   4.671   0.461  16.554 -0.0682 -0.0818  0.3084
  194MPD1    H6 2961   4.619   0.484  16.639 -2.6808 -0.7465 -1.1192
  194MPD1    H7 2962   4.627   0.522  16.486  0.5837  1.6931  1.4703
  195MPD1     C 2963   2.346   4.676   0.896 -0.0175  0.1666 -0.0874
  195MPD1    C1 2964   2.317   4.544   0.861 -0.2418  0.0558 -0.2657
  195MPD1    C2 2965   2.242   4.525   0.749  0.8048  0.2606  0.0733
  195MPD1    C3 2966   2.215   4.631   0.658 -0.2906  0.5848  0.0969
  195MPD1    C4 2967   2.256   0.036   0.693  0.8644  0.1418  0.2375
  195MPD1    C5 2968   2.317   0.058   0.814  0.4170  0.5892 -0.6548
  195MPD1     H 2969   2.196   4.428   0.741  1.3513  0.0973 -1.0498
  195MPD1    H1 2970   2.241   0.129   0.638 -0.5036 -1.4237 -2.0738
  195MPD1    H2 2971   2.395   4.701   0.989 -1.4599  1.2771  0.3753
  195MPD1    H3 2972   2.337   0.157   0.853  0.8980  1.2502 -2.5721
  195MPD1     N 2973   2.151   4.613   0.534 -0.2238  0.2797  0.7407
  195MPD1    H5 2974   2.106   4.698   0.502  2.7991  0.6832 -2.4447
  195MPD1    N1 2975   2.326   4.443   0.957  0.1051  0.0882  0.4595
  195MPD1    H6 2976   2.348   4.354   0.913 -1.7249 -0.2546  0.2223
  195MPD1    H7 2977   2.396   4.460   1.029  0.9084  0.1070 -0.3313
  196MPD1     C 2978   0.868   1.663   0.034  0.0912  0.2835 -0.0411
  196MPD1    C1 2979   0.861   1.524   0.047 -0.4129 -0.1072  0.9363
  196MPD1    C2 2980   0.830   1.466   0.167 -0.7069 -0.2875  0.8222
  196MPD1    C3 2981   0.799   1.545   0.276  0.5541 -0.8583  0.0577
  196MPD1    C4 2982   0.799   1.684   0.257 -0.0475 -0.1264 -0.1912
  196MPD1    C5 2983   0.830   1.746   0.138 -0.3539 -0.0513 -0.3045
  196MPD1     H 2984   0.828   1.359   0.180  1.9109 -0.6132 -1.5201
  196MPD1    H1 2985   0.765   1.749   0.337  0.1178  1.3474 -1.3032
  196MPD1    H2 2986   0.910   1.704  17.639  0.2786 -0.3476 -0.2389
  196MPD1    H3 2987   0.834   1.854   0.136 -0.1641 -0.0518  0.0779
  196MPD1     N 2988   0.770   1.492   0.412 -0.2077 -0.5198 -0.3306
  196MPD1    H5 2989   0.741   1.553   0.487  2.2408  1.7485 -1.2582
  196MPD1    N1 2990   0.881   1.438  17.631  0.6458 -0.3209  0.0967
  196MPD1    H6 2991   0.900   1.343  17.662  2.5829  0.8978  2.6657
  196MPD1    H7 2992   0.959   1.474  17.578 -0.4519  0.3808 -1.0458
  197MPD1     C 2993   0.382   3.300  17.589 -0.6500  0.0244 -0.2801
  197MPD1    C1 2994   0.504   3.253  17.557 -0.1453  0.2513 -0.0937
  197MPD1    C2 2995   0.550   3.292  17.427  0.2211 -0.4209 -0.6191
  197MPD1    C3 2996   0.485   3.381  17.339  0.2298  0.4773 -1.2671
  197MPD1    C4 2997   0.366   3.429  17.381 -0.7533 -0.3716  0.3530
  197MPD1    C5 2998   0.321   3.375  17.496  0.0203 -0.5772  0.3651
  197MPD1     H 2999   0.645   3.253  17.394 -0.5455 -0.6512 -2.5740
  197MPD1    H1 3000   0.301   3.493  17.322  0.3418  1.1022  0.7300
  197MPD1    H2 3001   0.323   3.260  17.670 -2.7556  1.5122 -1.0613
  197MPD1    H3 3002   0.223   3.412  17.524  0.2577  0.5373 -0.2712
  197MPD1     N 3003   0.547   3.422  17.215  0.6600  0.0252  0.3733
  197MPD1    H5 3004   0.639   3.383  17.195  1.5295  0.8392  2.8310
  197MPD1    N1 3005   0.560   3.144  17.633 -0.2951  0.2554  0.2705
  197MPD1    H6 3006   0.661   3.158  17.625 -0.6748  1.9247 -1.8057
  197MPD1    H7 3007   0.545   3.167   0.034 -0.4263 -0.2767  0.3742
  198MPD1     C 3008   2.438   2.045  15.772  0.2364 -0.5103 -0.0665
  198MPD1    C1 3009   2.547   2.057  15.852  0.1916  0.6319 -0.0232
  198MPD1    C2 3010   2.647   1.966  15.835 -0.7613 -0.0517  0.3418
  198MPD1    C3 3011   2.646   1.864  15.746  0.1982 -0.0379  0.0021
  198MPD1    C4 3012   2.541   1.864  15.657 -0.0623 -0.1798 -0.5158
  198MPD1    C5 3013   2.438   1.946  15.674  0.1749  0.3366 -0.0980
  198MPD1     H 3014   2.734   1.972  15.899 -1.7051 -0.0313  1.6348
  198MPD1    H1 3015   2.545   1.800  15.570 -0.7776 -0.0173 -0.6656
  198MPD1    H2 3016   2.345   2.101  15.780  0.2148 -0.3772 -1.2497
  198MPD1    H3 3017   2.362   1.937  15.597  0.2747  0.1848 -0.1791
  198MPD1     N 3018   2.742   1.763  15.743 -0.2875 -0.2679 -0.5713
  198MPD1    H5 3019   2.816   1.767  15.812 -1.6198 -0.5923  0.8804
  198MPD1    N1 3020   2.546   2.149  15.963  0.2505 -0.2208 -0.0384
  198MPD1    H6 3021   2.637   2.178  15.997  1.4490 -2.0606 -1.6751
  198MPD1    H7 3022   2.482   2.227  15.949  0.3446 -0.7992 -3.5989
  199MPD1     C 3023   1.561   2.689   9.771  0.2739 -0.1420 -0.0219
  199MPD1    C1 3024   1.487   2.803   9.753 -0.0171 -0.3588  0.3194
  199MPD1    C2 3025   1.353   2.795   9.751  0.1953 -0.1828 -0.3167
  199MPD1    C3 3026   1.290   2.669   9.758 -0.1041 -0.0562  0.3624
  199MPD1    C4 3027   1.363   2.554   9.795 -0.1507  0.1191  0.4954
  199MPD1    C5 3028   1.501   2.571   9.802 -0.4420 -0.0586 -0.2697
  199MPD1     H 3029   1.294   2.885   9.738 -0.8624 -0.8751 -0.3403
  199MPD1    H1 3030   1.316   2.459   9.817 -0.3462  0.5456  1.8702
  199MPD1    H2 3031   1.669   2.695   9.779  0.2113 -0.4049  1.0293
  199MPD1    H3 3032   1.565   2.488   9.829 -1.5278 -0.6930  0.3682
  199MPD1     N 3033   1.148   2.657   9.748  0.3307  0.3789  0.3989
  199MPD1    H5 3034   1.115   2.561   9.755  2.0427 -0.3716 -1.8837
  199MPD1    N1 3035   1.554   2.924   9.728  0.1260  0.3830  0.1329
  199MPD1    H6 3036   1.493   3.005   9.740 -1.9792 -1.1816  0.0693
  199MPD1    H7 3037   1.630   2.929   9.796 -1.1147  0.3195  1.5466
  200MPD1     C 3038   4.434   2.467  14.893 -0.3831 -0.3798 -0.1220
  200MPD1    C1 3039   4.551   2.536  14.900  0.1642 -0.4139  0.6692
  200MPD1    C2 3040   4.547   2.656  14.835  0.4011  0.1180 -0.0802
  200MPD1    C3 3041   4.433   2.711  14.780 -0.7888  0.1748  0.6162
  200MPD1    C4 3042   4.314   2.644  14.793 -1.0328 -0.2218  0.9150
  200MPD1    C5 3043   4.315   2.522  14.850  0.6030 -0.1708  1.1208
  200MPD1     H 3044   4.631   2.725  14.830  0.8164 -0.4452 -0.8885
  200MPD1    H1 3045   4.215   2.688  14.779 -1.7994 -2.1065  0.4221
  200MPD1    H2 3046   4.428   2.363  14.923  1.9547 -0.4519  0.0981
  200MPD1    H3 3047   4.221   2.470  14.866  1.4217 -1.1713  2.6130
  200MPD1     N 3048   4.440   2.840  14.712 -0.1351 -0.2003 -0.3498
  200MPD1    H5 3049   4.522   2.898  14.725 -1.4403  1.1831  1.6163
  200MPD1    N1 3050   4.666   2.472  14.951  0.4156  0.2741 -0.0255
  200MPD1    H6 3051   0.009   2.545  14.978 -1.0090  1.1766  1.0845
  200MPD1    H7 3052   4.651   2.408  15.028 -0.1639  0.5482  0.0953
  201MPD1     C 3053   2.016   1.465  12.519  0.2218 -0.3989 -0.1376
  201MPD1    C1 3054   2.056   1.332  12.555 -0.1627 -0.0246  0.5236
  201MPD1    C2 3055   2.077   1.319  12.693  0.0569 -0.2815 -0.0233
  201MPD1    C3 3056   2.088   1.425  12.779 -0.1253 -0.0306 -0.7419
  201MPD1    C4 3057   2.056   1.553  12.744  0.3823 -0.1537 -0.4624
  201MPD1    C5 3058   2.019   1.572  12.613  0.2825  0.1324  0.3705
  201MPD1     H 3059   2.078   1.220  12.737  0.4936  0.2385  1.1351
  201MPD1    H1 3060   2.057   1.633  12.817 -0.2258  1.2719 -1.9999
  201MPD1    H2 3061   1.988   1.484  12.416 -0.3337  1.3024  0.3396
  201MPD1    H3 3062   1.982   1.670  12.583 -0.5882 -1.1843 -2.7509
  201MPD1     N 3063   2.129   1.391  12.912 -0.9271 -0.8904 -0.3413
  201MPD1    H5 3064   2.158   1.295  12.925  0.8642 -0.2295  0.6501
  201MPD1    N1 3065   2.044   1.216  12.479 -0.6519 -0.3592  0.1373
  201MPD1    H6 3066   2.027   1.227  12.380 -1.1126  0.3533  0.2951
  201MPD1    H7 3067   2.120   1.148  12.484 -0.7669 -0.4872  0.1234
  202MPD1     C 3068   1.213   0.424   9.147 -0.4122 -0.3025 -0.4101
  202MPD1    C1 3069   1.161   0.541   9.194  0.0724  0.1498 -0.0362
  202MPD1    C2 3070   1.240   0.627   9.270  0.3238  0.5299 -0.6401
  202MPD1    C3 3071   1.376   0.607   9.278 -0.1851 -0.2053  0.0803
  202MPD1    C4 3072   1.428   0.487   9.235  1.0585 -0.3085  0.5530
  202MPD1    C5 3073   1.344   0.397   9.177  0.0912 -0.2143  0.5321
  202MPD1     H 3074   1.202   0.723   9.305  2.0364  0.7630  0.5996
  202MPD1    H1 3075   1.534   0.467   9.251  1.2129 -1.2309 -1.7308
  202MPD1    H2 3076   1.147   0.344   9.115 -1.2029 -0.2817  1.2002
  202MPD1    H3 3077   1.383   0.300   9.149 -1.2343 -1.5646  3.4494
  202MPD1     N 3078   1.464   0.682   9.359 -0.5956  0.3209  0.3696
  202MPD1    H5 3079   1.554   0.646   9.387 -0.7339  1.6290  2.5594
  202MPD1    N1 3080   1.024   0.556   9.220  0.5120 -0.2763  0.0248
  202MPD1    H6 3081   0.994   0.653   9.229  0.4703 -0.2909  0.0449
  202MPD1    H7 3082   0.967   0.505   9.153  0.9363 -1.8324  0.8540
  203MPD1     C 3083   0.138   2.018  12.762  0.1342 -0.1268  0.5601
  203MPD1    C1 3084   0.159   1.882  12.730 -0.1336  0.4866 -0.4041
  203MPD1    C2 3085   0.272   1.845  12.662 -0.1787 -0.4797 -0.1007
  203MPD1    C3 3086   0.376   1.931  12.632  0.1190  1.3270  0.0053
  203MPD1    C4 3087   0.348   2.067  12.655  0.3623 -0.4820 -0.3580
  203MPD1    C5 3088   0.235   2.107  12.717  0.0182 -0.1207  0.1615
  203MPD1     H 3089   0.282   1.743  12.627  1.0813 -0.3713 -0.0320
  203MPD1    H1 3090   0.420   2.146  12.639  0.5201  0.1126  3.3769
  203MPD1    H2 3091   0.045   2.055  12.804 -1.9702 -3.5361 -1.1067
  203MPD1    H3 3092   0.206   2.212  12.723  2.5534  0.7138 -2.3202
  203MPD1     N 3093   0.480   1.885  12.552  0.2813  0.3736  0.3072
  203MPD1    H5 3094   0.490   1.784  12.551  1.7533  0.4617  3.8955
  203MPD1    N1 3095   0.047   1.787  12.728  0.3934  0.0381 -0.5651
  203MPD1    H6 3096   4.694   1.807  12.791  0.3767 -3.5187  0.5985
  203MPD1    H7 3097   0.079   1.692  12.747 -1.5161 -0.6393 -0.7979
  204MPD1     C 3098   3.881   3.709   0.679  0.4608  0.4834 -0.0687
  204MPD1    C1 3099   4.001   3.731   0.612 -0.2504 -0.0478  0.0830
  204MPD1    C2 3100   4.009   3.684   0.482  0.4990 -0.6903  0.4036
  204MPD1    C3 3101   3.905   3.614   0.430  0.0088  0.1942 -0.5183
  204MPD1    C4 3102   3.785   3.592   0.497 -0.1569  0.1997  0.9121
  204MPD1    C5 3103   3.773   3.649   0.620 -0.1589  0.6492 -0.7265
  204MPD1     H 3104   4.103   3.696   0.429 -0.1909  0.1828 -0.6239
  204MPD1    H1 3105   3.699   3.548   0.447 -0.2149  1.1940  0.1366
  204MPD1    H2 3106   3.866   3.738   0.783  1.5511 -1.0391  0.5180
  204MPD1    H3 3107   3.678   3.635   0.670  0.0721 -0.6543 -0.6457
  204MPD1     N 3108   3.919   3.557   0.302 -0.4048 -0.5716 -0.0273
  204MPD1    H5 3109   4.002   3.584   0.250 -0.0230 -1.0783  0.3105
  204MPD1    N1 3110   4.106   3.790   0.678  0.1104  0.4938 -0.3144
  204MPD1    H6 3111   4.171   3.835   0.614 -1.9311  3.6705 -0.1488
  204MPD1    H7 3112   4.076   3.870   0.734  1.4137 -0.1030  1.2177
  205MPD1     C 3113   4.128   2.001  16.962  0.7113  0.1507 -0.0745
  205MPD1    C1 3114   4.101   1.924  17.072 -0.2588  0.2918 -0.8585
  205MPD1    C2 3115   4.118   1.982  17.197 -0.1755  0.2712 -0.1576
  205MPD1    C3 3116   4.144   2.121  17.215 -0.3260 -0.4077  0.1059
  205MPD1    C4 3117   4.146   2.198  17.103 -0.6929  1.0091 -0.1944
  205MPD1    C5 3118   4.154   2.136  16.980 -0.1504 -0.1165  0.1958
  205MPD1     H 3119   4.118   1.908  17.277 -0.1520  0.4512  0.0078
  205MPD1    H1 3120   4.153   2.306  17.101 -1.0051  1.0547  1.1774
  205MPD1    H2 3121   4.114   1.969  16.860 -2.2064  1.6968 -0.1749
  205MPD1    H3 3122   4.163   2.196  16.890  1.8945  0.5184  0.8236
  205MPD1     N 3123   4.176   2.179  17.344 -0.1667 -0.2943  0.0473
  205MPD1    H5 3124   4.201   2.278  17.337 -1.3412  0.0363  0.5928
  205MPD1    N1 3125   4.103   1.783  17.057  0.2880  0.0032 -0.2673
  205MPD1    H6 3126   4.067   1.750  16.968 -1.1965  1.4374 -0.1943
  205MPD1    H7 3127   4.057   1.726  17.127 -0.7212  0.4462 -0.5674
  206MPD1     C 3128   4.366   4.560  16.575 -0.6361 -0.2274  0.3013
  206MPD1    C1 3129   4.481   4.506  16.518  0.3674 -0.1955 -0.5542
  206MPD1    C2 3130   4.492   4.514  16.383  0.0595 -0.2411 -0.4714
  206MPD1    C3 3131   4.394   4.562  16.301  0.2172  0.1606  0.3152
  206MPD1    C4 3132   4.283   4.611  16.361  0.0374  0.5119  0.3025
  206MPD1    C5 3133   4.260   4.610  16.495  0.3255  0.5174 -0.7808
  206MPD1     H 3134   4.580   4.468  16.339 -0.2982 -1.0579 -0.3281
  206MPD1    H1 3135   4.205   4.653  16.300 -1.3547 -0.1994  1.6070
  206MPD1    H2 3136   4.345   4.559  16.681 -1.6022 -1.1075  0.1079
  206MPD1    H3 3137   4.163   4.645  16.529  0.2046 -0.9929  0.4489
  206MPD1     N 3138   4.401   4.569  16.160  0.4640 -0.1117  0.9317
  206MPD1    H5 3139   4.326   4.613  16.108  0.7628 -0.3830  0.2670
  206MPD1    N1 3140   4.577   4.443  16.597  0.4350 -0.3282 -0.0237
  206MPD1    H6 3141   4.535   4.406  16.682 -0.7230 -0.1311 -0.5058
  206MPD1    H7 3142   4.600   4.353  16.556 -1.8189 -0.0707 -1.8407
  207MPD1     C 3143   2.103   3.388  10.327  0.1951 -0.2883 -0.2108
  207MPD1    C1 3144   2.004   3.290  10.313 -0.7073  0.4193  0.4169
  207MPD1    C2 3145   2.039   3.161  10.286 -0.7453  0.5378 -0.0764
  207MPD1    C3 3146   2.175   3.123  10.292  0.0652 -0.1642  0.1842
  207MPD1    C4 3147   2.267   3.224  10.304 -0.4599 -0.0522  0.6650
  207MPD1    C5 3148   2.235   3.351  10.331 -1.0088 -0.0837  0.9328
  207MPD1     H 3149   1.960   3.087  10.284 -1.0072  0.8444 -1.1629
  207MPD1    H1 3150   2.373   3.204  10.296 -0.2733  1.6018 -1.0990
  207MPD1    H2 3151   2.083   3.490  10.358  0.8766 -0.3968  0.6011
  207MPD1    H3 3152   2.314   3.424  10.343 -1.9570  1.0781  0.1463
  207MPD1     N 3153   2.222   2.993  10.273  0.2473  0.0758  0.4305
  207MPD1    H5 3154   2.322   2.979  10.288  0.4883  0.5778 -0.7314
  207MPD1    N1 3155   1.871   3.332  10.307 -0.4800 -0.1832  0.3515
  207MPD1    H6 3156   1.847   3.417  10.357  0.7259  0.8588 -0.8502
  207MPD1    H7 3157   1.804   3.259  10.332 -1.3360  0.2902 -0.5517
  208MPD1     C 3158   0.309   1.473  17.639  0.7274  0.7979  0.6829
  208MPD1    C1 3159   0.268   1.591   0.004 -0.3582  0.4099  0.4488
  208MPD1    C2 3160   0.193   1.573   0.116  0.0227  0.5705  0.1970
  208MPD1    C3 3161   0.153   1.449   0.169 -0.3977  0.2064  0.0215
  208MPD1    C4 3162   0.204   1.336   0.113 -0.1420 -0.6335 -0.3536
  208MPD1    C5 3163   0.269   1.346  17.692 -0.6735 -0.1374 -0.1248
  208MPD1     H 3164   0.138   1.654   0.163 -0.0232 -1.0250  2.9200
  208MPD1    H1 3165   0.166   1.237   0.134 -0.1522 -0.5927 -0.1748
  208MPD1    H2 3166   0.358   1.474  17.542 -1.6613 -1.8380 -0.5460
  208MPD1    H3 3167   0.289   1.252  17.643 -0.5851 -1.2951  2.1447
  208MPD1     N 3168   0.069   1.447   0.284 -0.2967  0.1330 -0.5409
  208MPD1    H5 3169   0.022   1.533   0.311 -0.5827 -0.2726  0.2440
  208MPD1    N1 3170   0.284   1.714  17.629 -0.5456  0.7185 -0.1467
  208MPD1    H6 3171   0.300   1.795  17.688  0.7245 -0.2823  0.8837
  208MPD1    H7 3172   0.364   1.707  17.567 -0.7709 -1.5825 -0.1872
  209MPD1     C 3173   1.368   2.758   9.235  0.0897  0.0836 -0.9121
  209MPD1    C1 3174   1.429   2.777   9.356 -0.0917 -0.7499 -0.2887
  209MPD1    C2 3175   1.437   2.660   9.435 -0.0155  0.0214  0.1353
  209MPD1    C3 3176   1.415   2.536   9.395 -0.5225 -0.1420 -0.1045
  209MPD1    C4 3177   1.372   2.520   9.270  0.2045 -0.4138 -0.9425
  209MPD1    C5 3178   1.340   2.631   9.190 -0.6685 -0.0703  0.5684
  209MPD1     H 3179   1.479   2.681   9.533 -0.9061  1.1993  0.2678
  209MPD1    H1 3180   1.358   2.422   9.226  2.6312 -1.3020  0.3064
  209MPD1    H2 3181   1.347   2.836   9.163 -1.8646  1.3235  1.0033
  209MPD1    H3 3182   1.311   2.614   9.087  2.2609 -1.1127 -0.1045
  209MPD1     N 3183   1.446   2.431   9.479 -0.7097 -0.0201  0.6963
  209MPD1    H5 3184   1.492   2.458   9.566  2.3768 -1.7368 -0.4161
  209MPD1    N1 3185   1.442   2.907   9.412 -0.1447 -0.5119 -0.3861
  209MPD1    H6 3186   1.504   2.901   9.492 -0.0646 -0.8963 -0.4807
  209MPD1    H7 3187   1.450   2.981   9.342  2.0228 -0.8904 -0.5347
  210MPD1     C 3188   1.812   1.369   9.394 -0.0712 -0.2827  0.3381
  210MPD1    C1 3189   1.736   1.450   9.311 -0.5349 -0.0753  0.1432
  210MPD1    C2 3190   1.692   1.575   9.351 -1.1446 -0.1131  0.4880
  210MPD1    C3 3191   1.709   1.622   9.480  0.4680 -0.5546  0.3814
  210MPD1    C4 3192   1.767   1.534   9.567  0.3954 -0.3727  0.4223
  210MPD1    C5 3193   1.831   1.419   9.522 -0.2514 -0.7570  0.3541
  210MPD1     H 3194   1.635   1.631   9.279 -0.0515 -0.0496 -0.3280
  210MPD1    H1 3195   1.783   1.560   9.671  1.2143 -3.0191  0.9636
  210MPD1    H2 3196   1.841   1.268   9.365 -1.3731 -0.0949 -1.6311
  210MPD1    H3 3197   1.881   1.357   9.595 -0.0387 -0.0696  0.7992
  210MPD1     N 3198   1.660   1.742   9.535  0.4465 -0.0036  0.0811
  210MPD1    H5 3199   1.661   1.759   9.636  1.7066 -1.9893  0.3834
  210MPD1    N1 3200   1.703   1.394   9.187  0.6516 -0.4968 -0.1053
  210MPD1    H6 3201   1.789   1.351   9.153  0.1787 -0.2915 -1.5254
  210MPD1    H7 3202   1.662   1.451   9.114  0.6691  1.5245  1.4397
  211MPD1     C 3203   0.375   2.383  16.884 -0.2558  0.5238  0.0018
  211MPD1    C1 3204   0.260   2.422  16.809 -0.6151  0.5847 -0.6828
  211MPD1    C2 3205   0.148   2.341  16.799 -0.0897 -0.7589  0.3769
  211MPD1    C3 3206   0.152   2.216  16.865 -0.6998 -0.2742  0.7071
  211MPD1    C4 3207   0.258   2.180  16.944  0.8272  0.0393  0.3826
  211MPD1    C5 3208   0.369   2.265  16.955 -0.0162  0.1921 -0.5185
  211MPD1     H 3209   0.065   2.368  16.735  0.5493 -0.8700 -0.5003
  211MPD1    H1 3210   0.267   2.080  16.984  0.2496 -0.0307  0.3357
  211MPD1    H2 3211   0.472   2.431  16.895  0.6355 -2.1072  3.6546
  211MPD1    H3 3212   0.449   2.243  17.025  0.7129  1.4722 -0.9491
  211MPD1     N 3213   0.040   2.131  16.858 -0.3631 -0.4552  0.7735
  211MPD1    H5 3214   4.694   2.169  16.795  0.1721 -2.5284 -1.0504
  211MPD1    N1 3215   0.267   2.528  16.719 -0.1071  0.3809  0.7048
  211MPD1    H6 3216   0.172   2.561  16.699 -0.4780 -0.8473  0.4355
  211MPD1    H7 3217   0.334   2.597  16.750  0.9181 -1.2966  2.2494
  212MPD1     C 3218   3.988   0.194  16.537 -0.0468  0.0575  0.2065
  212MPD1    C1 3219   3.969   0.205  16.668 -0.1239 -0.6512  0.4362
  212MPD1    C2 3220   3.888   0.110  16.740  0.5509  0.2108  0.3127
  212MPD1    C3 3221   3.860   4.718  16.669  0.1322 -0.1822 -0.4216
  212MPD1    C4 3222   3.889   4.704  16.538  0.0925  0.8813 -0.0961
  212MPD1    C5 3223   3.953   0.079  16.470 -0.2285  0.3615 -0.8536
  212MPD1     H 3224   3.848   0.121  16.840 -0.1628 -0.3025  0.0869
  212MPD1    H1 3225   3.862   4.614  16.484 -1.0662  1.3608 -0.2975
  212MPD1    H2 3226   4.039   0.274  16.484  1.8733 -0.2425  1.6337
  212MPD1    H3 3227   3.977   0.065  16.365 -1.3205 -0.6016 -0.9731
  212MPD1     N 3228   3.791   4.607  16.730 -0.4180 -0.0845  0.3936
  212MPD1    H5 3229   3.757   4.537  16.664  1.7830  0.1751 -1.0241
  212MPD1    N1 3230   3.993   0.331  16.720 -0.0099 -0.0229 -1.0530
  212MPD1    H6 3231   4.068   0.390  16.684  0.4929  0.2454  0.4096
  212MPD1    H7 3232   3.988   0.332  16.822 -0.3842  2.4111 -1.0740
  213MPD1     C 3233   2.757   1.209  15.733  0.2421 -0.6512  0.0071
  213MPD1    C1 3234   2.795   1.088  15.676 -0.5994 -0.0682 -0.0003
  213MPD1    C2 3235   2.685   1.025  15.618  0.3883  0.1227  0.0708
  213MPD1    C3 3236   2.570   1.091  15.585  0.5973 -0.4293  0.5248
  213MPD1    C4 3237   2.546   1.216  15.636  0.2290 -0.6027 -0.2111
  213MPD1    C5 3238   2.639   1.263  15.719 -0.3423 -0.2485  1.0758
  213MPD1     H 3239   2.683   0.920  15.590  0.6755  0.1223  0.0506
  213MPD1    H1 3240   2.450   1.266  15.624  1.0858  1.7631  2.8374
  213MPD1    H2 3241   2.829   1.241  15.808  1.1826  2.3362 -2.1642
  213MPD1    H3 3242   2.615   1.359  15.765 -3.2946  0.5251 -2.0466
  213MPD1     N 3243   2.480   1.026  15.497 -0.1360  0.6181  0.7173
  213MPD1    H5 3244   2.508   0.937  15.455 -3.6341 -1.3587  2.5725
  213MPD1    N1 3245   2.904   1.014  15.725  0.1725  0.0653  0.0597
  213MPD1    H6 3246   2.992   1.063  15.739 -0.0891  1.0983 -1.8186
  213MPD1    H7 3247   2.926   0.946  15.652  0.2084  0.5512 -0.3825
  214MPD1     C 3248   2.435   0.347  14.800 -0.0532  0.4140  0.3582
  214MPD1    C1 3249   2.513   0.390  14.909 -0.9809  0.3335  0.2804
  214MPD1    C2 3250   2.458   0.492  14.991 -0.7337 -0.2356  0.3546
  214MPD1    C3 3251   2.322   0.531  14.981  0.2015  0.0011 -0.7155
  214MPD1    C4 3252   2.255   0.479  14.873 -0.2090 -0.0454 -0.0842
  214MPD1    C5 3253   2.305   0.389  14.791 -0.1939 -0.2734  0.0314
  214MPD1     H 3254   2.534   0.525  15.061  0.7937 -0.6378 -1.1125
  214MPD1    H1 3255   2.153   0.508  14.846 -0.5881  1.9931  3.5949
  214MPD1    H2 3256   2.470   0.281  14.721  1.2347  0.5896  0.7852
  214MPD1    H3 3257   2.248   0.352  14.707  2.3284  0.7374 -2.1484
  214MPD1     N 3258   2.268   0.627  15.064  0.5784  0.7644 -0.0222
  214MPD1    H5 3259   2.177   0.665  15.040 -0.3946 -1.6172 -0.1932
  214MPD1    N1 3260   2.650   0.367  14.908 -0.2550 -0.6443 -0.8556
  214MPD1    H6 3261   2.692   0.356  15.000 -1.2003  0.3732 -0.3040
  214MPD1    H7 3262   2.692   0.299  14.845  0.0510 -3.0969  2.0199
  215MPD1     C 3263   2.946   1.059  10.164  0.5118  0.2524  0.1061
  215MPD1    C1 3264   2.989   1.050  10.289  0.0843 -0.3782  0.2661
  215MPD1    C2 3265   2.952   1.147  10.382  0.1741 -0.3477  0.1808
  215MPD1    C3 3266   2.891   1.270  10.345  0.1541 -0.2743 -0.4865
  215MPD1    C4 3267   2.865   1.281  10.208  0.9679 -0.4835 -0.5741
  215MPD1    C5 3268   2.877   1.172  10.127 -0.0468  0.1900 -0.4448
  215MPD1     H 3269   2.972   1.122  10.486 -0.4829  1.0056  0.6361
  215MPD1    H1 3270   2.813   1.368  10.169  1.0712 -0.5665 -0.8916
  215MPD1    H2 3271   2.945   0.982  10.088 -2.5529  0.3645  0.0569
  215MPD1    H3 3272   2.835   1.184  10.028 -1.7770 -1.1194  0.1499
  215MPD1     N 3273   2.865   1.373  10.445  0.1486  0.3749  0.3382
  215MPD1    H5 3274   2.894   1.345  10.538  0.8086  0.6488  0.2138
  215MPD1    N1 3275   3.053   0.935  10.340 -0.2558  0.4816 -0.3277
  215MPD1    H6 3276   3.111   0.892  10.269 -0.2701 -0.8394  0.4526
  215MPD1    H7 3277   3.103   0.939  10.429  2.4862  2.9463 -1.9996
  216MPD1     C 3278   4.050   4.378  16.743 -0.2292 -0.5480 -0.3064
  216MPD1    C1 3279   3.959   4.275  16.761  0.6470  0.3761  0.0858
  216MPD1    C2 3280   3.908   4.249  16.886 -0.3752 -0.1022 -0.6599
  216MPD1    C3 3281   3.948   4.325  16.992 -0.1414 -0.3120 -0.2829
  216MPD1    C4 3282   4.046   4.420  16.974  0.1847  0.3513 -0.8082
  216MPD1    C5 3283   4.092   4.452  16.849  0.1923  0.1330 -0.0426
  216MPD1     H 3284   3.843   4.164  16.901  1.0625 -1.2863 -1.1594
  216MPD1    H1 3285   4.088   4.471  17.060 -2.0061  1.5529 -0.4607
  216MPD1    H2 3286   4.090   4.409  16.647  1.2063 -1.9877 -0.1737
  216MPD1    H3 3287   4.158   4.537  16.835  1.1760 -0.9177 -1.7874
  216MPD1     N 3288   3.904   4.303  17.127  0.4261 -0.4959  0.0698
  216MPD1    H5 3289   3.940   4.370  17.194  2.1245  0.9151 -2.2732
  216MPD1    N1 3290   3.909   4.201  16.650  0.1894 -0.3789  0.1999
  216MPD1    H6 3291   3.924   4.102  16.667  0.7777 -0.4759 -0.8610
  216MPD1    H7 3292   3.961   4.197  16.562  0.9543 -1.7207  0.7134
  217MPD1     C 3293   4.554   4.709   8.889  0.3628 -0.0898  0.0650
  217MPD1    C1 3294   4.645   0.023   8.790  0.3370 -0.7537 -0.7593
  217MPD1    C2 3295   0.035   0.086   8.839 -0.0175  0.0560 -0.0379
  217MPD1    C3 3296   0.052   0.141   8.966 -0.0071  0.1844 -0.4159
  217MPD1    C4 3297   4.677   0.114   9.057 -0.4225 -0.3169 -0.6389
  217MPD1    C5 3298   4.571   0.031   9.019  0.1504  0.5625 -0.4062
  217MPD1     H 3299   0.114   0.113   8.770 -0.7821 -0.3935 -1.1084
  217MPD1    H1 3300   4.699   0.138   9.161 -0.1287  3.4456 -1.5771
  217MPD1    H2 3301   4.468   4.645   8.874  1.8158 -1.7922 -1.0052
  217MPD1    H3 3302   4.491   0.000   9.086  0.1557  1.7555  0.1558
  217MPD1     N 3303   0.161   0.221   9.010  0.2402  0.4421  0.2545
  217MPD1    H5 3304   0.168   0.253   9.107 -3.2486 -1.8724  1.2639
  217MPD1    N1 3305   4.625   4.713   8.659 -0.2906 -0.1526  0.4863
  217MPD1    H6 3306   4.526   4.704   8.636 -0.0360  2.1545 -1.5302
  217MPD1    H7 3307   4.658   0.064   8.598 -0.0680 -1.0951 -0.5444
  218MPD1     C 3308   1.689   1.759  12.312 -0.0123  0.0925 -0.1260
  218MPD1    C1 3309   1.727   1.890  12.332  0.0809 -0.0587 -0.0985
  218MPD1    C2 3310   1.857   1.921  12.323  0.3267 -0.2733  0.4993
  218MPD1    C3 3311   1.952   1.837  12.273 -0.5313  0.1830 -0.4913
  218MPD1    C4 3312   1.911   1.709  12.249  0.4797  0.6684  0.4477
  218MPD1    C5 3313   1.782   1.662  12.271 -0.1129  0.1478 -0.2200
  218MPD1     H 3314   1.869   2.026  12.346 -0.8680  0.0998 -0.5556
  218MPD1    H1 3315   1.982   1.635  12.215 -1.0974 -0.6424 -0.0200
  218MPD1    H2 3316   1.592   1.720  12.342 -0.7710  0.5960 -1.8660
  218MPD1    H3 3317   1.769   1.556  12.254  0.7983 -0.0477  0.2948
  218MPD1     N 3318   2.081   1.897  12.264 -0.5984 -0.4995  0.6834
  218MPD1    H5 3319   2.093   1.995  12.288  1.9060 -0.3754 -1.1460
  218MPD1    N1 3320   1.633   1.974  12.410 -0.0907 -0.0511 -0.7727
  218MPD1    H6 3321   1.647   2.075  12.408  0.8627 -0.2449 -3.3968
  218MPD1    H7 3322   1.543   1.955  12.366 -0.3760  1.5303 -0.8859
  219MPD1     C 3323   2.630   2.402  11.605  0.3224 -0.1951  0.3512
  219MPD1    C1 3324   2.674   2.276  11.594  0.4282  0.2540  0.4307
  219MPD1    C2 3325   2.653   2.185  11.694 -0.7550  0.4935  0.3820
  219MPD1    C3 3326   2.586   2.229  11.809 -0.0036 -0.0119 -0.3202
  219MPD1    C4 3327   2.558   2.367  11.827  0.1886  0.2540  0.5403
  219MPD1    C5 3328   2.575   2.443  11.722 -0.0087  0.1541 -0.1009
  219MPD1     H 3329   2.687   2.082  11.689 -0.1872  0.6071  1.8805
  219MPD1    H1 3330   2.511   2.415  11.912 -2.6128 -1.4256 -0.0754
  219MPD1    H2 3331   2.642   2.463  11.517 -0.9106 -1.4550 -0.6878
  219MPD1    H3 3332   2.549   2.546  11.742  1.2844  0.5862 -0.6975
  219MPD1     N 3333   2.554   2.130  11.902 -0.6010 -0.6140 -0.0105
  219MPD1    H5 3334   2.593   2.038  11.890  1.4049  0.2545 -0.1446
  219MPD1    N1 3335   2.736   2.236  11.473  0.5274  0.1285 -0.3689
  219MPD1    H6 3336   2.696   2.281  11.391 -0.7291 -2.1157 -0.9614
  219MPD1    H7 3337   2.735   2.136  11.459 -1.6106  0.3805 -1.9415
  220MPD1     C 3338   1.537   2.818  10.138  0.2601  0.4066 -0.3648
  220MPD1    C1 3339   1.669   2.809  10.168  0.5130  0.2762 -0.3428
  220MPD1    C2 3340   1.728   2.685  10.143 -0.6677  0.3536 -0.1485
  220MPD1    C3 3341   1.655   2.571  10.118 -0.2190  0.6585 -0.5046
  220MPD1    C4 3342   1.517   2.582  10.098  0.2729 -0.0527  0.4257
  220MPD1    C5 3343   1.460   2.708  10.105 -0.4561 -0.6141  1.0026
  220MPD1     H 3344   1.836   2.676  10.152 -0.9053 -2.2850 -0.0310
  220MPD1    H1 3345   1.458   2.495  10.074  1.2994 -0.2941 -1.2295
  220MPD1    H2 3346   1.483   2.912  10.148 -0.7490 -0.1323 -0.7555
  220MPD1    H3 3347   1.355   2.718  10.079 -0.0212  3.3736  0.8353
  220MPD1     N 3348   1.726   2.453  10.115  0.1239 -0.0412 -0.8748
  220MPD1    H5 3349   1.825   2.464  10.135  0.6355 -0.7781 -3.0325
  220MPD1    N1 3350   1.746   2.927  10.194  0.7139  0.6128 -0.2111
  220MPD1    H6 3351   1.845   2.917  10.215  0.2630 -1.9840  0.6413
  220MPD1    H7 3352   1.704   2.996  10.256 -0.3424  0.4106 -0.6961
  221MPD1     C 3353   3.754   1.066  15.894 -0.6363 -0.3846  0.4376
  221MPD1    C1 3354   3.729   1.002  16.015  0.4003  0.4352 -0.0137
  221MPD1    C2 3355   3.836   0.956  16.087  0.0251  0.2323 -0.0090
  221MPD1    C3 3356   3.963   0.973  16.043  0.1188 -0.2950  0.4623
  221MPD1    C4 3357   3.984   1.030  15.919 -0.4696 -0.1234 -0.1542
  221MPD1    C5 3358   3.883   1.077  15.845 -0.2480 -0.1775  0.3499
  221MPD1     H 3359   3.812   0.903  16.178  0.7078 -2.4769 -1.4065
  221MPD1    H1 3360   4.088   1.048  15.893 -1.1211  0.5690 -2.2294
  221MPD1    H2 3361   3.676   1.109  15.831  0.5188  1.0390 -0.0294
  221MPD1    H3 3362   3.906   1.125  15.751 -1.4991  0.3253  0.2987
  221MPD1     N 3363   4.072   0.951  16.127  0.4158  0.1938 -0.0049
  221MPD1    H5 3364   4.166   0.966  16.091 -0.5194  2.0223 -1.6777
  221MPD1    N1 3365   3.602   1.001  16.080  0.7089  0.3839 -0.1706
  221MPD1    H6 3366   3.526   0.986  16.014  0.6349 -0.7385  0.1712
  221MPD1    H7 3367   3.595   0.917  16.137 -0.8040  1.0043  0.5736
  222MPD1     C 3368   0.176   0.550  17.463 -0.3303 -0.0062 -0.8371
  222MPD1    C1 3369   0.099   0.442  17.490  0.4317  0.2086 -0.1159
  222MPD1    C2 3370   4.695   0.467  17.536  0.1304  0.0319  0.4111
  222MPD1    C3 3371   4.642   0.592  17.560 -0.5644 -0.0813  0.2187
  222MPD1    C4 3372   0.003   0.702  17.532 -0.2290 -0.3260 -0.1472
  222MPD1    C5 3373   0.126   0.679  17.481  0.1390  0.0223  0.0935
  222MPD1     H 3374   4.632   0.382  17.558 -0.0337 -0.4113 -1.8170
  222MPD1    H1 3375   4.692   0.805  17.537  0.0722 -0.2540  0.5916
  222MPD1    H2 3376   0.278   0.543  17.427  0.7748  0.2274  2.2480
  222MPD1    H3 3377   0.197   0.759  17.462 -0.1221 -0.0031 -1.0020
  222MPD1     N 3378   4.507   0.621  17.585  0.0140 -0.0198  0.1916
  222MPD1    H5 3379   4.482   0.719  17.598  0.1611 -0.4123  3.4025
  222MPD1    N1 3380   0.145   0.313  17.467  0.5509 -0.3462 -0.7782
  222MPD1    H6 3381   0.079   0.240  17.494 -0.3717  0.2056 -1.5310
  222MPD1    H7 3382   0.231   0.295  17.518 -1.1425 -0.0138  2.1945
  223MPD1     C 3383   3.675   0.133  17.374 -0.0362  0.6547 -0.4878
  223MPD1    C1 3384   3.771   0.202  17.311  0.3082  0.3065 -0.3649
  223MPD1    C2 3385   3.871   0.265  17.383  0.1200  0.4009 -0.5417
  223MPD1    C3 3386   3.862   0.268  17.518 -0.7821  0.3426  0.3663
  223MPD1    C4 3387   3.755   0.212  17.584  0.6319  0.4406 -0.7249
  223MPD1    C5 3388   3.664   0.136  17.514  0.3461 -0.0972  0.5245
  223MPD1     H 3389   3.953   0.308  17.326  0.4196  0.3788 -0.1310
  223MPD1    H1 3390   3.752   0.215  17.693 -1.0596 -2.6496 -0.7096
  223MPD1    H2 3391   3.607   0.075  17.312 -2.2720  0.6412  1.9644
  223MPD1    H3 3392   3.581   0.084  17.560 -0.4555 -0.3402 -1.1905
  223MPD1     N 3393   3.970   0.335  17.579  0.5547 -0.3798  0.0024
  223MPD1    H5 3394   4.058   0.346  17.529 -0.1499  0.2351 -1.0905
  223MPD1    N1 3395   3.779   0.197  17.168 -0.3041 -0.3559 -0.0095
  223MPD1    H6 3396   3.684   0.196  17.131  0.0424  2.5339 -0.9291
  223MPD1    H7 3397   3.818   0.285  17.138  0.6747 -0.8322 -0.1201
  224MPD1     C 3398   0.486   0.719   8.805 -0.2396  0.9855 -0.6174
  224MPD1    C1 3399   0.414   0.806   8.887  0.4019  0.8354 -0.3589
  224MPD1    C2 3400   0.487   0.870   8.989  0.5677  0.2969  0.3584
  224MPD1    C3 3401   0.619   0.840   9.022  0.8438  1.1676  0.4131
  224MPD1    C4 3402   0.678   0.739   8.954  0.2454  0.4239 -0.0071
  224MPD1    C5 3403   0.611   0.680   8.846  0.3654  0.0085 -0.1588
  224MPD1     H 3404   0.437   0.953   9.038 -0.0616  1.3647 -2.0760
  224MPD1    H1 3405   0.784   0.722   8.970 -0.4526 -0.9561  3.1722
  224MPD1    H2 3406   0.440   0.679   8.715 -0.1856 -2.0413  0.6865
  224MPD1    H3 3407   0.679   0.623   8.783 -0.7041 -0.7422 -0.6524
  224MPD1     N 3408   0.694   0.899   9.117 -0.0453  0.5242 -0.1226
  224MPD1    H5 3409   0.789   0.870   9.136 -0.0874 -1.4406 -3.0715
  224MPD1    N1 3410   0.291   0.863   8.848 -0.2543 -0.8526 -0.8505
  224MPD1    H6 3411   0.246   0.885   8.937  1.3852  2.1273 -0.7607
  224MPD1    H7 3412   0.228   0.813   8.786 -2.4451  0.7989  0.0430
  225MPD1     C 3413   2.436   3.314  12.559  0.1190  0.1788 -0.0421
  225MPD1    C1 3414   2.437   3.193  12.498  0.0175 -0.0393  0.4279
  225MPD1    C2 3415   2.351   3.168  12.395  0.2949 -0.2563  0.0851
  225MPD1    C3 3416   2.273   3.267  12.346 -0.2803  0.1971 -0.9289
  225MPD1    C4 3417   2.284   3.394  12.394 -0.1003  0.3318  0.1880
  225MPD1    C5 3418   2.362   3.420  12.506 -0.5058  0.3721  0.1144
  225MPD1     H 3419   2.344   3.065  12.361  0.6452 -0.0789 -0.5162
  225MPD1    H1 3420   2.222   3.470  12.349 -0.1199  0.1316 -0.1263
  225MPD1    H2 3421   2.508   3.334  12.638 -0.3722  0.4082  0.3499
  225MPD1    H3 3422   2.363   3.523  12.539 -2.4044  1.4125 -3.1144
  225MPD1     N 3423   2.175   3.240  12.245  0.1247  0.0861 -0.4353
  225MPD1    H5 3424   2.103   3.312  12.236  1.2919  1.6401  2.5792
  225MPD1    N1 3425   2.514   3.097  12.561  0.5608 -0.7235 -0.6049
  225MPD1    H6 3426   2.527   3.018  12.499 -2.9954 -1.3582 -0.5443
  225MPD1    H7 3427   2.602   3.131  12.598 -0.3487 -1.6124  2.4316
  226MPD1     C 3428   0.015   2.244   9.012 -0.9129 -0.4681 -0.3475
  226MPD1    C1 3429   0.147   2.207   9.051 -0.1871  0.1780 -0.2880
  226MPD1    C2 3430   0.241   2.309   9.060  0.3171  0.7301 -0.0402
  226MPD1    C3 3431   0.202   2.441   9.048  0.1391  0.3616 -0.0765
  226MPD1    C4 3432   0.073   2.475   9.027 -0.0920  0.0874 -0.3677
  226MPD1    C5 3433   4.703   2.375   8.999  0.6945 -0.0093 -0.1644
  226MPD1     H 3434   0.340   2.290   9.099 -0.4441 -2.1447  0.5620
  226MPD1    H1 3435   0.039   2.576   9.007  2.4936  0.0920 -4.7759
  226MPD1    H2 3436   4.669   2.161   9.002 -0.3338 -0.4574 -4.3037
  226MPD1    H3 3437   4.596   2.389   8.984  0.4795  0.7685  2.1289
  226MPD1     N 3438   0.304   2.542   9.068  0.1330 -0.0683 -0.2703
  226MPD1    H5 3439   0.397   2.503   9.082  0.6163  0.5137 -1.7790
  226MPD1    N1 3440   0.173   2.080   9.095 -0.1945  0.1581 -0.1161
  226MPD1    H6 3441   0.273   2.066   9.084 -0.1709  0.5147 -0.3334
  226MPD1    H7 3442   0.131   2.012   9.031 -0.1422 -0.6406  0.7110
  227MPD1     C 3443   0.275   3.494   8.824 -0.3565 -0.3384  0.1380
  227MPD1    C1 3444   0.179   3.414   8.882  0.2718 -0.0381  0.4112
  227MPD1    C2 3445   0.223   3.299   8.951  0.0275  0.2204  0.7379
  227MPD1    C3 3446   0.354   3.259   8.949  0.2632  0.0491  0.2368
  227MPD1    C4 3447   0.446   3.344   8.880 -0.0362 -0.0869  0.4416
  227MPD1    C5 3448   0.405   3.452   8.815  0.0860  0.9710 -0.4231
  227MPD1     H 3449   0.149   3.234   8.996  1.5944 -1.7190  0.5617
  227MPD1    H1 3450   0.552   3.323   8.869 -0.1923 -0.7704  0.1972
  227MPD1    H2 3451   0.237   3.587   8.784  0.0110  0.2280  1.1236
  227MPD1    H3 3452   0.480   3.522   8.783 -1.8740  3.0134 -0.5740
  227MPD1     N 3453   0.399   3.129   9.007 -0.1444 -0.0017 -0.4992
  227MPD1    H5 3454   0.330   3.059   9.033  0.5589 -0.3972  0.3183
  227MPD1    N1 3455   0.046   3.446   8.868 -1.0804 -0.4339 -0.1632
  227MPD1    H6 3456   4.705   3.395   8.927 -1.9676 -0.3224 -1.0382
  227MPD1    H7 3457   0.032   3.546   8.852 -0.2095 -0.1851  0.6675
  228MPD1     C 3458   4.197   0.571  12.705 -0.5498 -0.0404  0.0110
  228MPD1    C1 3459   4.167   0.480  12.805 -0.2626 -0.5094 -0.7821
  228MPD1    C2 3460   4.040   0.427  12.817  0.4935  0.0851  0.1910
  228MPD1    C3 3461   3.933   0.474  12.739 -0.0632 -0.3211  0.1763
  228MPD1    C4 3462   3.967   0.564  12.641 -0.0641 -1.1582 -0.0997
  228MPD1    C5 3463   4.095   0.620  12.632  0.0341 -0.0683  0.3686
  228MPD1     H 3464   4.020   0.361  12.900  1.0710 -0.3040  0.0190
  228MPD1    H1 3465   3.890   0.623  12.593 -0.7034 -0.4331  1.8221
  228MPD1    H2 3466   4.295   0.615  12.689 -1.2170  1.3864 -0.2032
  228MPD1    H3 3467   4.115   0.702  12.564  0.1109 -2.3261 -2.3271
  228MPD1     N 3468   3.799   0.439  12.771  0.4575  0.0475  0.1608
  228MPD1    H5 3469   3.789   0.357  12.830  0.9056 -2.9017 -3.8293
  228MPD1    N1 3470   4.280   0.428  12.871 -0.2039 -0.1508 -0.5361
  228MPD1    H6 3471   4.353   0.498  12.875  0.4074 -0.7985 -0.4792
  228MPD1    H7 3472   4.263   0.374  12.956  0.7969  2.5319  1.3694
  229MPD1     C 3473   3.188   4.531  14.361 -0.1751 -0.2104 -1.1107
  229MPD1    C1 3474   3.318   4.512  14.409  0.1235  0.3128 -0.0479
  229MPD1    C2 3475   3.352   4.382  14.445 -0.4858  0.0811  0.9011
  229MPD1    C3 3476   3.266   4.276  14.437  0.7176 -0.0841 -0.4660
  229MPD1    C4 3477   3.141   4.303  14.388 -0.4923  1.1441 -0.7671
  229MPD1    C5 3478   3.097   4.432  14.356  0.5244  0.2995 -0.0804
  229MPD1     H 3479   3.446   4.374  14.497  0.7054 -0.7591 -1.3563
  229MPD1    H1 3480   3.067   4.223  14.379  0.4992  0.2713 -1.1769
  229MPD1    H2 3481   3.152   4.630  14.333 -1.2771 -0.0057  1.0556
  229MPD1    H3 3482   3.000   4.462  14.317  0.2774  0.4973  0.6991
  229MPD1     N 3483   3.294   4.148  14.481 -0.0563 -0.3432 -0.1217
  229MPD1    H5 3484   3.219   4.084  14.503 -1.0840  0.4122 -1.4232
  229MPD1    N1 3485   3.415   4.618  14.408  0.4268 -0.2874  0.3636
  229MPD1    H6 3486   3.370   4.705  14.380  0.1113 -1.1072 -1.6873
  229MPD1    H7 3487   3.477   4.597  14.330 -0.7379 -2.8156  0.1014
  230MPD1     C 3488   3.070   3.417  15.132 -0.6868  0.4046  0.8596
  230MPD1    C1 3489   3.209   3.407  15.137  0.2296  0.1770  0.0087
  230MPD1    C2 3490   3.282   3.471  15.041 -0.2306  0.2366 -0.1364
  230MPD1    C3 3491   3.222   3.548  14.944  0.0722  0.2355 -0.7175
  230MPD1    C4 3492   3.082   3.561  14.933 -0.0270  0.3976 -0.5584
  230MPD1    C5 3493   3.012   3.506  15.036 -0.3946  0.4569  0.3999
  230MPD1     H 3494   3.388   3.449  15.042  0.0208  1.4349 -0.1272
  230MPD1    H1 3495   3.028   3.619  14.859 -0.9622 -1.7623 -1.5567
  230MPD1    H2 3496   3.010   3.356  15.198  0.4115 -1.1599  0.4088
  230MPD1    H3 3497   2.904   3.499  15.037 -0.5418  2.7815 -0.4550
  230MPD1     N 3498   3.300   3.630  14.855 -0.5187 -0.3466  0.3408
  230MPD1    H5 3499   3.400   3.621  14.866 -0.4326  1.4811  1.0435
  230MPD1    N1 3500   3.267   3.354  15.253 -0.3647 -0.2217 -0.0209
  230MPD1    H6 3501   3.213   3.286  15.307  0.6649  0.0922  1.4029
  230MPD1    H7 3502   3.362   3.323  15.235 -0.2152 -0.6381  1.4517
  231MPD1     C 3503   1.222   0.935  15.859  0.4936 -0.5167 -0.9873
  231MPD1    C1 3504   1.207   1.031  15.759  0.5844  0.2501 -0.1167
  231MPD1    C2 3505   1.299   1.038  15.653 -0.4697  0.1301 -0.0920
  231MPD1    C3 3506   1.398   0.941  15.637 -0.1301 -0.0687  0.3139
  231MPD1    C4 3507   1.401   0.836  15.728 -0.6464  0.1417 -0.0187
  231MPD1    C5 3508   1.315   0.838  15.837  0.5709  0.4719  0.0554
  231MPD1     H 3509   1.285   1.122  15.586 -0.1699  0.3557  0.1257
  231MPD1    H1 3510   1.473   0.755  15.723 -1.7862 -1.0086  2.6362
  231MPD1    H2 3511   1.156   0.936  15.946  1.8450  0.4945  0.0289
  231MPD1    H3 3512   1.317   0.756  15.909  0.6274 -1.6824 -2.4267
  231MPD1     N 3513   1.488   0.948  15.532 -0.2019 -0.3927  0.3508
  231MPD1    H5 3514   1.482   1.033  15.477 -0.1308 -1.3178 -1.0965
  231MPD1    N1 3515   1.110   1.131  15.775 -0.1263  0.0245 -0.0761
  231MPD1    H6 3516   1.033   1.102  15.834  0.8970 -2.2686  0.1423
  231MPD1    H7 3517   1.065   1.163  15.689 -0.6588  2.0721  0.9666
  232MPD1     C 3518   3.468   3.833  17.238 -0.4003  0.2189  0.0373
  232MPD1    C1 3519   3.435   3.713  17.176 -0.2937 -0.6588 -0.3188
  232MPD1    C2 3520   3.386   3.606  17.255  0.2214 -0.1534 -0.0977
  232MPD1    C3 3521   3.357   3.626  17.385 -0.7839 -0.3102 -0.0132
  232MPD1    C4 3522   3.359   3.753  17.438 -0.3020  0.2057 -0.1420
  232MPD1    C5 3523   3.415   3.853  17.363 -0.6045 -0.5373 -0.2360
  232MPD1     H 3524   3.391   3.502  17.225  2.3799  0.4149 -1.7168
  232MPD1    H1 3525   3.336   3.769  17.543 -1.5285 -1.2455 -0.1867
  232MPD1    H2 3526   3.511   3.915  17.181  0.6539 -1.3657 -1.4509
  232MPD1    H3 3527   3.425   3.950  17.411  1.0477 -0.1968 -1.2868
  232MPD1     N 3528   3.317   3.514  17.462 -0.1024  0.1313 -0.3752
  232MPD1    H5 3529   3.304   3.423  17.420 -1.7195  0.3583 -0.3640
  232MPD1    N1 3530   3.476   3.688  17.044 -0.1233 -0.0932 -0.0039
  232MPD1    H6 3531   3.481   3.774  16.991 -0.1060 -1.4581 -2.2291
  232MPD1    H7 3532   3.416   3.625  16.991 -0.6983  0.7095 -0.3079
  233MPD1     C 3533   3.697   2.490   1.335  0.7720  0.8783 -0.4384
  233MPD1    C1 3534   3.778   2.472   1.449 -0.3888 -0.1446 -0.0923
  233MPD1    C2 3535   3.874   2.365   1.436  0.0046  0.5192 -0.0069
  233MPD1    C3 3536   3.873   2.284   1.322 -0.1238  0.7983  0.2239
  233MPD1    C4 3537   3.786   2.312   1.222  0.3009 -0.7005 -0.8016
  233MPD1    C5 3538   3.696   2.408   1.230 -0.5920 -0.1320  0.2080
  233MPD1     H 3539   3.950   2.347   1.510 -1.4872 -1.9343  0.9335
  233MPD1    H1 3540   3.776   2.238   1.143  0.2816  0.6010 -1.9957
  233MPD1    H2 3541   3.623   2.570   1.336 -0.2011 -0.0147 -2.2156
  233MPD1    H3 3542   3.631   2.427   1.145  1.9054 -0.5148 -1.7900
  233MPD1     N 3543   3.966   2.178   1.291 -0.5156  0.1843 -0.4356
  233MPD1    H5 3544   3.938   2.127   1.208  0.1592  0.0538 -0.5814
  233MPD1    N1 3545   3.776   2.567   1.555  0.2901 -0.0236 -0.0342
  233MPD1    H6 3546   3.679   2.595   1.570  0.9752  2.1268  0.3693
  233MPD1    H7 3547   3.817   2.522   1.637  1.3143  2.4345  0.7918
  234MPD1     C 3548   1.675   4.208   9.671 -0.7007  0.6872 -0.4282
  234MPD1    C1 3549   1.540   4.210   9.676 -0.8250  0.0338  0.2618
  234MPD1    C2 3550   1.480   4.331   9.650  0.0505 -0.2038 -0.1036
  234MPD1    C3 3551   1.545   4.451   9.646  0.9553  0.2099 -0.1866
  234MPD1    C4 3552   1.682   4.443   9.654  0.2573  0.3982 -0.3932
  234MPD1    C5 3553   1.740   4.324   9.666  0.5144 -0.1912 -0.3654
  234MPD1     H 3554   1.372   4.337   9.646  0.0755 -0.0681 -0.6389
  234MPD1    H1 3555   1.742   4.533   9.664 -0.1327  0.7504 -1.1425
  234MPD1    H2 3556   1.723   4.112   9.686  0.2728  0.7967 -2.8390
  234MPD1    H3 3557   1.848   4.319   9.680  0.3007 -1.7542  0.8143
  234MPD1     N 3558   1.471   4.565   9.616 -0.0352  0.2427  0.1068
  234MPD1    H5 3559   1.370   4.556   9.618 -0.2134  1.9553 -0.7543
  234MPD1    N1 3560   1.470   4.085   9.665  0.0453 -0.5664  0.0268
  234MPD1    H6 3561   1.508   4.004   9.714 -0.7402 -0.9705 -0.0274
  234MPD1    H7 3562   1.375   4.093   9.701  1.0307  0.1653  2.4553
  235MPD1     C 3563   3.343   2.333  10.517  0.2135  0.2732  0.2783
  235MPD1    C1 3564   3.278   2.219  10.472 -0.4961 -0.4021 -0.0036
  235MPD1    C2 3565   3.181   2.229  10.371 -0.3983  0.0189  0.0234
  235MPD1    C3 3566   3.122   2.347  10.335 -0.1339  0.0696  0.0677
  235MPD1    C4 3567   3.180   2.459  10.393 -0.8311 -0.7975 -0.1307
  235MPD1    C5 3568   3.294   2.451  10.467  0.5601  0.4498 -0.3573
  235MPD1     H 3569   3.148   2.140  10.320 -1.8812 -0.0504  1.1264
  235MPD1    H1 3570   3.138   2.557  10.373 -0.0579 -0.6235 -0.8821
  235MPD1    H2 3571   3.412   2.321  10.599  0.8054 -0.2352 -0.2927
  235MPD1    H3 3572   3.330   2.544  10.510 -0.9153  0.1180  1.5682
  235MPD1     N 3573   3.016   2.345  10.242 -0.0904 -0.3252  0.3300
  235MPD1    H5 3574   2.985   2.255  10.207  0.8853 -0.6353  0.2790
  235MPD1    N1 3575   3.346   2.095  10.509 -0.1371  0.1528  0.1978
  235MPD1    H6 3576   3.274   2.024  10.509  1.1335 -1.1228  3.9313
  235MPD1    H7 3577   3.378   2.096  10.605  1.4874 -1.9440 -0.3214
  236MPD1     C 3578   2.321   4.179   9.925  0.3678 -0.2933  0.1423
  236MPD1    C1 3579   2.277   4.081  10.013  0.2040 -0.4496  0.3710
  236MPD1    C2 3580   2.362   4.037  10.111  0.3280  0.1628  0.3726
  236MPD1    C3 3581   2.481   4.102  10.137  0.2544 -0.1023  0.3316
  236MPD1    C4 3582   2.522   4.199  10.042  0.0280 -0.6783 -0.8634
  236MPD1    C5 3583   2.448   4.229   9.932  0.3201  0.2287  0.0565
  236MPD1     H 3584   2.326   3.954  10.171  0.6466 -0.7499 -0.6814
  236MPD1    H1 3585   2.618   4.248  10.054  1.3492 -3.5844  0.3312
  236MPD1    H2 3586   2.257   4.217   9.846  0.8081 -0.2649 -0.2009
  236MPD1    H3 3587   2.489   4.285   9.849 -1.0722  0.0806 -0.7220
  236MPD1     N 3588   2.573   4.081  10.239  0.4742  0.3842  0.2522
  236MPD1    H5 3589   2.655   4.139  10.224 -0.0341  1.1425  0.4378
  236MPD1    N1 3590   2.160   4.007   9.986  0.2647 -0.6126 -0.0321
  236MPD1    H6 3591   2.087   4.071   9.955  1.7556  1.1572  0.1306
  236MPD1    H7 3592   2.132   3.954  10.068  0.9477  0.2715  0.7778
  237MPD1     C 3593   1.369   2.490  16.316 -0.3167 -0.5804 -0.2096
  237MPD1    C1 3594   1.310   2.365  16.303  0.2773  0.0033  0.3265
  237MPD1    C2 3595   1.274   2.324  16.175 -0.6567  0.1560 -0.2651
  237MPD1    C3 3596   1.268   2.417  16.073 -0.2806  0.8320 -0.6402
  237MPD1    C4 3597   1.317   2.542  16.088 -0.8835 -0.6588 -0.0360
  237MPD1    C5 3598   1.373   2.575  16.210  0.6117 -0.4897 -0.4468
  237MPD1     H 3599   1.251   2.221  16.152 -1.0854  0.0350  0.7222
  237MPD1    H1 3600   1.330   2.612  16.006  1.3884 -0.4531  0.5257
  237MPD1    H2 3601   1.427   2.517  16.403  0.2938 -1.2135 -0.4212
  237MPD1    H3 3602   1.429   2.667  16.222  0.3832 -0.3894 -0.1477
  237MPD1     N 3603   1.207   2.387  15.953  0.3163  0.3900  0.1649
  237MPD1    H5 3604   1.227   2.454  15.880  2.8159 -0.3322  0.2006
  237MPD1    N1 3605   1.337   2.265  16.395  0.5091 -0.0733  0.6181
  237MPD1    H6 3606   1.335   2.310  16.487  0.1462  1.4330 -0.1371
  237MPD1    H7 3607   1.266   2.193  16.402  1.2795 -0.8566  0.3430
  238MPD1     C 3608   3.819   0.576  14.967 -1.0070 -0.2202 -0.1578
  238MPD1    C1 3609   3.793   0.665  14.868  0.7757  0.0868  0.0278
  238MPD1    C2 3610   3.665   0.711  14.854  0.2502 -0.0823 -0.0045
  238MPD1    C3 3611   3.565   0.653  14.926 -0.0157  0.0837 -0.7000
  238MPD1    C4 3612   3.593   0.540  14.996  0.5119  0.7851 -0.0876
  238MPD1    C5 3613   3.716   0.497  15.020  0.3590 -0.9305 -0.6221
  238MPD1     H 3614   3.646   0.784  14.777  0.0841  0.3995  0.4891
  238MPD1    H1 3615   3.515   0.486  15.049  0.8783  1.5492  1.2159
  238MPD1    H2 3616   3.918   0.539  14.989 -2.2685 -2.1430  2.3015
  238MPD1    H3 3617   3.731   0.407  15.079 -0.8410 -1.8578 -1.7444
  238MPD1     N 3618   3.432   0.704  14.935  0.7012 -0.2204  0.2917
  238MPD1    H5 3619   3.362   0.641  14.972 -1.4029  0.6305 -2.2088
  238MPD1    N1 3620   3.902   0.735  14.810  0.1899 -0.0642 -0.2403
  238MPD1    H6 3621   3.872   0.771  14.720 -0.3316 -0.6332 -0.2965
  238MPD1    H7 3622   3.984   0.676  14.797  0.4929  0.3391 -0.1690
  239MPD1     C 3623   3.726   1.878  14.772  0.0572 -0.3938 -0.2041
  239MPD1    C1 3624   3.772   1.793  14.671 -0.1475  1.0524 -0.7969
  239MPD1    C2 3625   3.726   1.805  14.537 -0.0067 -0.8157  0.0339
  239MPD1    C3 3626   3.644   1.912  14.510 -0.1577 -0.0376  0.6497
  239MPD1    C4 3627   3.598   1.999  14.606 -0.1673 -0.0482 -0.1961
  239MPD1    C5 3628   3.636   1.973  14.734 -0.3026 -0.2180 -0.3768
  239MPD1     H 3629   3.761   1.739  14.458 -0.3621 -1.8416  0.7327
  239MPD1    H1 3630   3.534   2.084  14.584  1.3641  1.7933  2.5034
  239MPD1    H2 3631   3.754   1.862  14.875  0.8411 -1.4188 -0.5813
  239MPD1    H3 3632   3.607   2.047  14.808  0.3611  2.0358 -2.3602
  239MPD1     N 3633   3.589   1.935  14.380 -0.5052  0.0968  0.3791
  239MPD1    H5 3634   3.538   2.022  14.379  0.7502  0.8371  1.0304
  239MPD1    N1 3635   3.845   1.677  14.705  0.5343  0.3641 -0.5990
  239MPD1    H6 3636   3.898   1.641  14.625 -1.2317  0.4612 -1.8179
  239MPD1    H7 3637   3.914   1.686  14.779  1.1314 -1.5253 -0.9072
  240MPD1     C 3638   2.861   1.818  14.039  0.2319 -0.0686 -0.6765
  240MPD1    C1 3639   2.804   1.701  13.992  0.7664 -1.0724  0.2328
  240MPD1    C2 3640   2.745   1.614  14.080  0.0952 -0.0017 -0.5517
  240MPD1    C3 3641   2.765   1.635  14.221  0.2832  0.2985  0.2184
  240MPD1    C4 3642   2.835   1.737  14.266 -0.0733  0.6597  0.6966
  240MPD1    C5 3643   2.888   1.823  14.173 -0.8420  0.3765  0.6034
  240MPD1     H 3644   2.676   1.537  14.050 -0.5728  0.1497  0.6040
  240MPD1    H1 3645   2.843   1.758  14.372 -3.1037  0.9036  0.8703
  240MPD1    H2 3646   2.894   1.897  13.972 -1.2123 -0.5228 -1.9388
  240MPD1    H3 3647   2.937   1.915  14.205  1.8039 -1.7075  2.5392
  240MPD1     N 3648   2.706   1.545  14.310 -0.3978  0.6951 -0.7848
  240MPD1    H5 3649   2.640   1.478  14.271 -0.3010 -0.5769  1.2442
  240MPD1    N1 3650   2.780   1.694  13.851 -0.3671 -0.2005  0.1371
  240MPD1    H6 3651   2.774   1.600  13.811 -1.8207 -0.0886  0.0936
  240MPD1    H7 3652   2.835   1.762  13.798 -0.9746 -2.3345 -3.2057
  241MPD1     C 3653   2.662   0.931  15.233  0.2751 -0.5697  0.3142
  241MPD1    C1 3654   2.711   1.060  15.219 -0.4859  0.3958  0.5899
  241MPD1    C2 3655   2.721   1.117  15.096 -0.7295 -0.5676 -0.5257
  241MPD1    C3 3656   2.667   1.050  14.986  0.5297 -0.6396 -0.2016
  241MPD1    C4 3657   2.605   0.936  15.005  0.4704 -0.7707 -0.1529
  241MPD1    C5 3658   2.606   0.866  15.124 -0.0367 -0.0898 -0.3987
  241MPD1     H 3659   2.766   1.214  15.080  2.9982 -2.4868 -1.5034
  241MPD1    H1 3660   2.569   0.873  14.925  0.4037  0.7190 -1.3074
  241MPD1    H2 3661   2.669   0.875  15.325  0.1246  0.2594  0.8290
  241MPD1    H3 3662   2.571   0.764  15.134  0.8199 -0.2768  0.7382
  241MPD1     N 3663   2.663   1.112  14.856  0.1449 -0.2209 -0.2935
  241MPD1    H5 3664   2.598   1.064  14.794 -0.5504 -1.5901  1.4804
  241MPD1    N1 3665   2.762   1.122  15.338 -0.1943  0.4828  0.3133
  241MPD1    H6 3666   2.702   1.111  15.420  1.0772  1.3306  1.3518
  241MPD1    H7 3667   2.767   1.222  15.325  4.3345  0.4904  1.8616
  242MPD1     C 3668   2.632   4.605  15.904 -0.3532 -0.4644 -0.7852
  242MPD1    C1 3669   2.506   4.619  15.846 -0.0780  0.1495  0.0877
  242MPD1    C2 3670   2.504   4.615  15.707 -0.3947  0.0336 -0.5374
  242MPD1    C3 3671   2.611   4.573  15.626  0.3515  0.2482 -0.7199
  242MPD1    C4 3672   2.729   4.553  15.689  0.4294 -0.4311 -0.1408
  242MPD1    C5 3673   2.739   4.562  15.825 -0.3878 -0.1037 -0.4332
  242MPD1     H 3674   2.415   4.646  15.652 -0.8865  0.2939  0.4056
  242MPD1    H1 3675   2.817   4.517  15.638  0.6786 -0.0462  0.0181
  242MPD1    H2 3676   2.638   4.628  16.009  1.5191  0.5768 -1.1100
  242MPD1    H3 3677   2.831   4.542  15.879 -2.2987 -0.7367  2.6378
  242MPD1     N 3678   2.609   4.558  15.487 -0.1867  0.1629  0.1959
  242MPD1    H5 3679   2.704   4.556  15.453 -0.3996  1.4039 -0.4660
  242MPD1    N1 3680   2.402   4.677  15.921  0.1491 -0.4412 -0.3642
  242MPD1    H6 3681   2.319   4.671  15.862  0.4646  2.3764 -1.0608
  242MPD1    H7 3682   2.395   4.657  16.021  3.8231  3.1765  0.5983
  243MPD1     C 3683   0.323   4.238  17.539  0.2337  0.2645  0.2268
  243MPD1    C1 3684   0.206   4.297  17.584 -0.9452  0.6092  0.1105
  243MPD1    C2 3685   0.087   4.281  17.507  0.1735 -0.6774 -0.0949
  243MPD1    C3 3686   0.085   4.218  17.388  0.5093 -0.0597  0.7836
  243MPD1    C4 3687   0.206   4.176  17.340  0.1937  0.3443 -0.1544
  243MPD1    C5 3688   0.319   4.184  17.419  0.0271  0.3411  0.1265
  243MPD1     H 3689   4.716   4.313  17.548 -0.8901 -4.8876  0.8008
  243MPD1    H1 3690   0.219   4.119  17.249  2.6808  1.2787 -0.3695
  243MPD1    H2 3691   0.415   4.239  17.597  0.3969  2.9239 -0.0819
  243MPD1    H3 3692   0.412   4.140  17.383 -1.2412 -1.1341 -1.3753
  243MPD1     N 3693   4.687   4.208  17.314  0.4090  0.5196  0.2813
  243MPD1    H5 3694   4.605   4.251  17.355 -1.1110 -3.2651  1.1786
  243MPD1    N1 3695   0.190   4.363   0.012 -0.0693  0.1235 -0.1186
  243MPD1    H6 3696   0.274   4.413   0.041 -0.7796  1.3866 -0.2515
  243MPD1    H7 3697   0.107   4.421   0.012 -2.0812 -2.7750  0.0518
  244MPD1     C 3698   3.979   4.176   0.039 -0.1631 -0.0362  1.2136
  244MPD1    C1 3699   4.061   4.280  17.695 -0.1847 -0.2332  0.2510
  244MPD1    C2 3700   4.127   4.265  17.579 -0.1273  0.2469 -0.5836
  244MPD1    C3 3701   4.113   4.159  17.493 -0.0383  0.4479  0.0836
  244MPD1    C4 3702   4.021   4.070  17.530 -0.0662 -0.8450  0.1996
  244MPD1    C5 3703   3.965   4.072  17.655 -0.0995  0.1668 -0.1598
  244MPD1     H 3704   4.193   4.345  17.548  1.2535 -0.8917 -0.6172
  244MPD1    H1 3705   4.012   3.987  17.460  2.9340  0.2334 -1.4711
  244MPD1    H2 3706   3.941   4.186   0.140  1.8168 -0.1633  1.9832
  244MPD1    H3 3707   3.894   3.996  17.688  0.2726 -0.1848 -0.1678
  244MPD1     N 3708   4.191   4.172  17.372 -0.5387  0.2574 -0.5318
  244MPD1    H5 3709   4.260   4.247  17.368 -0.4050  0.1023 -1.0818
  244MPD1    N1 3710   4.072   4.386   0.084  0.5301  0.2521  0.0628
  244MPD1    H6 3711   4.072   4.469   0.026  0.6140 -0.0345 -0.3524
  244MPD1    H7 3712   4.003   4.390   0.158  1.6234 -1.5461  1.1827
  245MPD1     C 3713   1.057   3.667  13.112 -0.0120  0.7469 -0.6504
  245MPD1    C1 3714   1.160   3.686  13.026 -0.2208  0.5938  0.4473
  245MPD1    C2 3715   1.269   3.755  13.077 -0.2146 -0.5911  0.1751
  245MPD1    C3 3716   1.274   3.802  13.205 -0.1663  0.5698 -0.3232
  245MPD1    C4 3717   1.173   3.769  13.289  0.2047  0.0264 -0.3158
  245MPD1    C5 3718   1.071   3.704  13.241  0.2334  0.0940  0.1272
  245MPD1     H 3719   1.344   3.781  13.004 -1.3227  3.2009  0.3657
  245MPD1    H1 3720   1.176   3.793  13.395 -1.3916  1.7494 -0.6684
  245MPD1    H2 3721   0.960   3.631  13.078 -0.5414  2.0662 -0.5445
  245MPD1    H3 3722   0.989   3.687  13.310  1.1757  0.5306  1.3346
  245MPD1     N 3723   1.385   3.877  13.243 -0.6705  0.2107 -0.3627
  245MPD1    H5 3724   1.449   3.910  13.171 -0.1100 -1.8317 -0.8044
  245MPD1    N1 3725   1.142   3.655  12.889  0.1432 -0.2784  0.4544
  245MPD1    H6 3726   1.233   3.633  12.850 -0.2042  0.0375 -0.5220
  245MPD1    H7 3727   1.095   3.566  12.870 -0.3598  0.0943 -0.0731
  246MPD1     C 3728   1.868   2.248   9.403 -0.1910 -0.6262  0.4263
  246MPD1    C1 3729   1.781   2.237   9.300 -0.6262  0.4085 -0.0031
  246MPD1    C2 3730   1.726   2.347   9.242 -0.0662  0.2573 -0.5686
  246MPD1    C3 3731   1.763   2.473   9.294 -0.0962 -0.2533  0.0382
  246MPD1    C4 3732   1.846   2.478   9.409 -0.5515  0.7903 -0.1696
  246MPD1    C5 3733   1.899   2.366   9.457 -0.2219 -0.3913 -0.4574
  246MPD1     H 3734   1.660   2.339   9.157 -0.7416  2.3920 -0.2380
  246MPD1    H1 3735   1.872   2.574   9.451 -1.1668  0.1403  1.6984
  246MPD1    H2 3736   1.923   2.161   9.438 -1.0227 -0.6997  1.5486
  246MPD1    H3 3737   1.983   2.370   9.526 -1.0319  0.5389  0.4607
  246MPD1     N 3738   1.732   2.584   9.213 -0.5384 -0.2127  1.1097
  246MPD1    H5 3739   1.687   2.573   9.122  1.7396 -1.0923  0.0809
  246MPD1    N1 3740   1.756   2.109   9.240  0.8155  0.3104  0.6479
  246MPD1    H6 3741   1.665   2.097   9.196  1.2423  2.1402 -0.6899
  246MPD1    H7 3742   1.788   2.036   9.303  0.4824  0.3922  0.9147
  247MPD1     C 3743   0.314   3.200  15.552  0.7404  0.1895 -0.3383
  247MPD1    C1 3744   0.344   3.105  15.653 -0.0392  0.1374  0.3394
  247MPD1    C2 3745   0.447   3.142  15.735  0.0873  0.2298 -0.7101
  247MPD1    C3 3746   0.523   3.260  15.733  0.0384 -0.3710  0.3729
  247MPD1    C4 3747   0.495   3.342  15.625 -0.4312 -0.7890  0.0676
  247MPD1    C5 3748   0.390   3.312  15.541 -0.1415  0.1829 -0.4220
  247MPD1     H 3749   0.486   3.065  15.802  1.7235  1.9227  0.2767
  247MPD1    H1 3750   0.539   3.438  15.601 -0.9740  0.0202  2.3053
  247MPD1    H2 3751   0.249   3.176  15.469  0.5783  1.0803 -0.4642
  247MPD1    H3 3752   0.375   3.384  15.461  1.3243 -1.8197 -2.5150
  247MPD1     N 3753   0.625   3.291  15.826 -0.1949  0.3331  0.1245
  247MPD1    H5 3754   0.676   3.378  15.814 -0.7098  0.5811 -0.2590
  247MPD1    N1 3755   0.290   2.974  15.653 -0.6601 -0.3597 -0.2366
  247MPD1    H6 3756   0.189   2.982  15.637 -0.5292 -1.4926 -1.6331
  247MPD1    H7 3757   0.308   2.913  15.733  3.1740  2.0048  0.6788
  248MPD1     C 3758   0.939   0.114   0.533  0.0327 -0.2130  0.2327
  248MPD1    C1 3759   1.055   0.065   0.484  0.0344 -0.1678 -0.2619
  248MPD1    C2 3760   1.049   4.697   0.383  0.2181 -0.7720  0.1757
  248MPD1    C3 3761   0.932   4.656   0.337  0.1658 -0.4439  0.3738
  248MPD1    C4 3762   0.813   4.711   0.386 -0.3898 -0.3670 -0.8260
  248MPD1    C5 3763   0.820   0.092   0.481  0.0634  0.0696  0.1378
  248MPD1     H 3764   1.138   4.657   0.335  0.4953 -0.0687  0.0864
  248MPD1    H1 3765   0.718   4.690   0.338 -0.3526 -1.2623 -0.5099
  248MPD1    H2 3766   0.933   0.184   0.617  3.4810  1.5673 -1.0056
  248MPD1    H3 3767   0.728   0.142   0.512  0.9872  2.1714 -0.5068
  248MPD1     N 3768   0.932   4.556   0.243  0.2038  0.7080 -0.3119
  248MPD1    H5 3769   1.022   4.513   0.228 -0.7863 -1.2156 -0.8222
  248MPD1    N1 3770   1.174   0.092   0.554  0.1979  0.2889  0.0284
  248MPD1    H6 3771   1.162   0.163   0.626  1.5424  0.7606 -0.2154
  248MPD1    H7 3772   1.249   0.117   0.489  0.5035 -0.7848 -0.0436
  249MPD1     C 3773   4.333   1.967   9.475 -0.1664 -0.0260  0.4538
  249MPD1    C1 3774   4.252   1.935   9.583 -0.1152 -0.0269  0.4163
  249MPD1    C2 3775   4.259   2.013   9.697  0.0406 -0.1891  0.4492
  249MPD1    C3 3776   4.353   2.115   9.710 -0.1691 -0.6390 -0.5464
  249MPD1    C4 3777   4.434   2.145   9.606 -0.0038  0.2209  0.1941
  249MPD1    C5 3778   4.422   2.071   9.491  0.0915 -0.7580  0.3576
  249MPD1     H 3779   4.193   1.995   9.780  0.7796  1.1119  1.3233
  249MPD1    H1 3780   4.502   2.228   9.593  0.3105  0.0071  0.4748
  249MPD1    H2 3781   4.338   1.906   9.386 -1.6927 -1.0403  1.0768
  249MPD1    H3 3782   4.477   2.097   9.402 -0.1610  1.1487  0.7353
  249MPD1     N 3783   4.346   2.193   9.830  0.4118 -0.4634 -0.3222
  249MPD1    H5 3784   4.272   2.170   9.896 -0.6778 -0.1551 -1.4367
  249MPD1    N1 3785   4.151   1.837   9.565  0.3625 -0.3449  0.4503
  249MPD1    H6 3786   4.176   1.783   9.483  1.4903  0.9316 -0.0502
  249MPD1    H7 3787   4.114   1.780   9.641 -0.1619  0.0508  0.4955
  250MPD2     C 3788   4.644   2.062  13.062  0.9794  0.2829  0.5219
  250MPD2    C1 3789   4.574   2.163  13.010  0.5831  0.0251 -0.4676
  250MPD2    C2 3790   4.442   2.139  12.978  0.6495  0.2158 -0.0757
  250MPD2    C3 3791   4.379   2.017  13.002 -0.3073 -0.2781  0.5187
  250MPD2    C4 3792   4.453   1.914  13.054  0.4690  0.0249  0.5668
  250MPD2    C5 3793   4.584   1.943  13.083  0.3199 -0.4776  0.3780
  250MPD2     H 3794   4.385   2.220  12.932  1.5958  0.4162 -0.8914
  250MPD2    H1 3795   4.400   1.819  13.064  0.0064 -0.0651 -2.8008
  250MPD2    H2 3796   0.019   2.079  13.103  0.8166  1.5931  0.3572
  250MPD2    H3 3797   4.647   1.862  13.117 -0.5103 -1.4584 -0.4605
  250MPD2     N 3798   4.241   1.989  12.988  0.1553  0.0833 -0.3335
  250MPD2    H5 3799   4.219   1.892  13.007 -0.5049  0.2646 -0.1459
  250MPD2    N1 3800   4.641   2.286  12.993 -0.1800  0.2057  0.1412
  250MPD2    H7 3801   0.008   2.296  13.036 -0.6333  2.5239  0.5688
  251TMC3    C1 3802   4.670   2.514  12.938  0.6853 -0.0307  0.3657
  251TMC3    C2 3803   4.615   2.632  12.989 -0.0352 -0.0565  0.2461
  251TMC3    C3 3804   4.701   2.724  13.047 -0.1663  0.0558 -0.1313
  251TMC3    C4 3805   0.088   2.496  12.929  0.4172 -0.2165 -0.1344
  251TMC3    C5 3806   0.168   2.597  12.977 -0.1240 -0.1120 -0.6497
  251TMC3    C6 3807   0.113   2.708  13.039  0.1404 -0.0432  0.0914
  251TMC3     C 3808   4.579   2.403  12.955  0.4312 -0.1637 -0.6877
  251TMC3     O 3809   4.460   2.430  12.935 -0.4294 -0.2427  0.1778
  251TMC3     H 3810   4.508   2.636  13.004  0.0507 -2.5698  1.6581
  251TMC3    H1 3811   0.132   2.405  12.888  0.2099 -0.3310 -0.1018
  251TMC3    H2 3812   0.185   2.771  13.089  0.8289  0.8329 -1.9746
  251TMC3    C7 3813   0.312   2.581  12.974 -0.3610  0.7845 -0.3980
  251TMC3    C8 3814   4.641   2.815  13.150  0.0824 -0.4472 -0.1183
  251TMC3    O1 3815   0.379   2.616  13.071  0.1390 -0.2757 -0.0316
  251TMC3    O2 3816   4.531   2.790  13.197  0.4206  0.4928 -0.3696
  252TMC3    C1 3817   0.296   3.641   9.142 -0.5783 -0.4378  0.0082
  252TMC3    C2 3818   0.428   3.662   9.145  0.0288 -0.1085  0.0015
  252TMC3    C3 3819   0.501   3.574   9.208  0.2588  0.4158 -0.0924
  252TMC3    C4 3820   0.242   3.527   9.194  0.0683 -0.3869 -0.0898
  252TMC3    C5 3821   0.319   3.430   9.259  0.2444 -0.1350 -0.2487
  252TMC3    C6 3822   0.454   3.460   9.264 -0.3458  0.1669  0.3934
  252TMC3     C 3823   0.207   3.751   9.110 -0.2701  0.2584 -0.2777
  252TMC3     O 3824   0.102   3.719   9.056  0.1101  0.5026  0.5685
  252TMC3     H 3825   0.477   3.752   9.108 -1.2288  0.1731 -0.9643
  252TMC3    H1 3826   0.134   3.518   9.184  0.1342 -0.2200 -0.9762
  252TMC3    H2 3827   0.527   3.388   9.299  1.6992  1.7123 -0.7699
  252TMC3    C7 3828   0.262   3.294   9.286 -0.2615 -0.1430 -0.5077
  252TMC3    C8 3829   0.639   3.577   9.163 -0.0083  0.6083  0.1614
  252TMC3    O1 3830   0.148   3.281   9.252 -0.0682  0.3228 -0.0762
  252TMC3    O2 3831   0.658   3.636   9.055  0.0851  0.5511 -0.2030
  253MPD2     C 3832   0.779   2.625  15.865  0.0168 -0.3174 -0.7217
  253MPD2    C1 3833   0.693   2.687  15.782 -0.4008 -0.0167 -1.1532
  253MPD2    C2 3834   0.555   2.685  15.801  1.3716 -0.1134  0.0443
  253MPD2    C3 3835   0.508   2.611  15.912 -0.0424 -0.2317  0.0185
  253MPD2    C4 3836   0.598   2.549  15.991  0.3996 -1.0712 -0.0322
  253MPD2    C5 3837   0.731   2.554  15.965 -0.3953  0.5877 -0.1674
  253MPD2     H 3838   0.480   2.723  15.733  0.8095 -1.9794 -0.3721
  253MPD2    H1 3839   0.565   2.492  16.077  2.5522 -1.5622  0.4606
  253MPD2    H2 3840   0.886   2.628  15.847  0.1193 -1.5580 -0.3358
  253MPD2    H3 3841   0.792   2.502  16.039  0.9856  2.1171 -0.2471
  253MPD2     N 3842   0.375   2.566  15.924 -0.4988  0.0316  0.1212
  253MPD2    H5 3843   0.361   2.484  15.982 -1.9595 -0.7428 -1.3456
  253MPD2    N1 3844   0.739   2.773  15.675 -0.3672  0.2479  0.2940
  253MPD2    H7 3845   0.661   2.789  15.611 -0.4280 -2.3070 -0.2733
  254TMC3    C1 3846   0.143   2.570  15.934 -0.5418  0.6842 -0.3050
  254TMC3    C2 3847   0.041   2.652  15.954 -0.2720  0.4965  0.0258
  254TMC3    C3 3848   4.660   2.604  16.028  0.9966 -1.2412 -0.3043
  254TMC3    C4 3849   0.157   2.438  15.978  0.8569  0.1520  0.1820
  254TMC3    C5 3850   0.049   2.391  16.045 -0.1310  0.1526 -0.5535
  254TMC3    C6 3851   4.662   2.466  16.067  0.2990 -0.7983 -0.5756
  254TMC3     C 3852   0.264   2.633  15.880  0.3679 -0.0493  0.0385
  254TMC3     O 3853   0.263   2.749  15.845 -0.2715 -0.1569 -0.7381
  254TMC3     H 3854   0.050   2.759  15.935  0.2819  0.5480  0.5961
  254TMC3    H1 3855   0.248   2.380  15.972 -0.0101 -1.0778 -1.2742
  254TMC3    H2 3856   4.592   2.434  16.143  1.2067 -2.2234 -0.3264
  254TMC3    C7 3857   0.074   2.271  16.130  0.0824  0.1494 -0.5385
  254TMC3    C8 3858   4.614   2.689  16.126 -0.1221  0.1721  0.0291
  254TMC3    O1 3859   0.192   2.241  16.148 -0.8538  0.1937  0.9971
  254TMC3    O2 3860   4.609   2.637  16.238 -0.0949  0.3429 -0.3903
  255MPD2     C 3861   4.312   4.411  10.142  0.3515  0.8692  0.3316
  255MPD2    C1 3862   4.380   4.521  10.203  0.6669  0.4988  0.4756
  255MPD2    C2 3863   4.494   4.502  10.278 -0.5484 -0.5578  0.3680
  255MPD2    C3 3864   4.557   4.375  10.266 -0.3826  0.2816  0.6247
  255MPD2    C4 3865   4.508   4.273  10.186  0.8081 -0.1084  0.1239
  255MPD2    C5 3866   4.382   4.298  10.134  0.4840 -0.5198 -0.4650
  255MPD2     H 3867   4.543   4.584  10.330 -0.6947  1.0957 -2.0546
  255MPD2    H1 3868   4.571   4.195  10.145 -0.2000 -0.7358 -0.2350
  255MPD2    H2 3869   4.214   4.430  10.100 -0.6975 -1.8683  1.5512
  255MPD2    H3 3870   4.351   4.223  10.062 -0.8400 -0.2256 -0.1922
  255MPD2     N 3871   4.679   4.360  10.333 -0.4765 -0.0180  0.5798
  255MPD2    H5 3872   0.005   4.444  10.362 -0.2081  0.4681 -1.2627
  255MPD2    N1 3873   4.318   4.647  10.205  0.2462  0.3107 -0.5213
  255MPD2    H7 3874   4.221   4.645  10.176  0.2898  1.0314 -0.7137
  256TMC3    C1 3875   4.275   0.137  10.246 -0.1650 -0.3503  0.4927
  256TMC3    C2 3876   4.296   0.263  10.223 -0.4219  0.5513 -0.3817
  256TMC3    C3 3877   4.197   0.353  10.270  0.1148 -0.3481 -0.6154
  256TMC3    C4 3878   4.162   0.086  10.300  0.1388 -0.3175  0.3075
  256TMC3    C5 3879   4.063   0.177  10.321  0.2231 -0.0846  0.6391
  256TMC3    C6 3880   4.081   0.308  10.318 -0.0292  0.1555 -0.9252
  256TMC3     C 3881   4.377   0.037  10.225 -0.8073 -0.3384  0.3480
  256TMC3     O 3882   4.496   0.070  10.224 -0.1352  0.8365  0.5672
  256TMC3     H 3883   4.393   0.306  10.203 -0.3999  0.3849 -0.6264
  256TMC3    H1 3884   4.163   4.718  10.356 -0.4406 -0.6404 -0.2201
  256TMC3    H2 3885   4.005   0.375  10.357  1.0605  0.9665 -0.1833
  256TMC3    C7 3886   3.930   0.121  10.354  0.5636  0.9148  0.4399
  256TMC3    C8 3887   4.226   0.493  10.289  0.5838  0.5823  0.3007
  256TMC3    O1 3888   3.831   0.198  10.363  0.0825  0.8751  0.4169
  256TMC3    O2 3889   4.188   0.551  10.391 -0.1548 -0.1861  0.1063
  257MPD2     C 3890   3.352   2.443  13.075  0.3902  0.2836 -0.3935
  257MPD2    C1 3891   3.303   2.355  12.985 -0.4642 -0.2282 -0.3625
  257MPD2    C2 3892   3.254   2.233  13.024  0.2450  0.4732  0.9188
  257MPD2    C3 3893   3.264   2.199  13.156  0.2250  1.1572  0.4578
  257MPD2    C4 3894   3.327   2.281  13.241 -0.4505  0.6870 -0.9112
  257MPD2    C5 3895   3.375   2.404  13.200 -0.1680 -0.9602  0.3667
  257MPD2     H 3896   3.216   2.168  12.946 -1.0068  0.0670  1.8573
  257MPD2    H1 3897   3.332   2.248  13.344 -1.3160  0.9695 -0.7786
  257MPD2    H2 3898   3.380   2.542  13.043  3.3151  0.2563  2.0094
  257MPD2    H3 3899   3.423   2.470  13.271  0.2150  0.4681 -1.2219
  257MPD2     N 3900   3.212   2.073  13.191  0.4743 -0.7525  0.1608
  257MPD2    H5 3901   3.165   2.025  13.115 -2.0643  0.9874  0.6360
  257MPD2    N1 3902   3.288   2.411  12.859 -0.4957  0.7931 -0.3179
  257MPD2    H7 3903   3.332   2.501  12.844 -1.2971  1.0918 -0.8788
  258TMC3    C1 3904   3.143   1.887  13.328 -0.0914  0.8566  0.0019
  258TMC3    C2 3905   3.185   1.794  13.241 -0.6141  0.5739  0.0708
  258TMC3    C3 3906   3.168   1.663  13.264 -0.2396  0.0443  0.4358
  258TMC3    C4 3907   3.091   1.847  13.445  0.7099 -0.8047  0.9519
  258TMC3    C5 3908   3.086   1.719  13.482 -0.0081  0.0477 -0.1622
  258TMC3    C6 3909   3.136   1.625  13.390 -0.0351  0.0466 -0.8378
  258TMC3     C 3910   3.187   2.027  13.320  0.1833  0.0421  0.2714
  258TMC3     O 3911   3.208   2.075  13.433 -0.1678 -0.0915  0.3382
  258TMC3     H 3912   3.240   1.821  13.152  0.1259  0.7718  0.5891
  258TMC3    H1 3913   3.066   1.927  13.514  0.8746 -0.7798  0.9817
  258TMC3    H2 3914   3.120   1.521  13.416 -1.8067  0.1274 -1.5922
  258TMC3    C7 3915   3.058   1.689  13.617 -0.6413 -0.2338  0.4018
  258TMC3    C8 3916   3.246   1.570  13.183  0.1477 -1.3474  0.0582
  258TMC3    O1 3917   2.978   1.763  13.675  0.5603  0.2345  0.0469
  258TMC3    O2 3918   3.294   1.477  13.248 -0.1502  0.0304 -0.1497
  259MPD2     C 3919   1.724   3.933   0.566 -0.3969 -0.0487 -0.5679
  259MPD2    C1 3920   1.782   3.885   0.673 -0.4399  0.5340  0.3049
  259MPD2    C2 3921   1.884   3.796   0.656 -0.4582  0.1934 -0.2890
  259MPD2    C3 3922   1.923   3.756   0.529 -0.1362  0.3916  0.2247
  259MPD2    C4 3923   1.853   3.803   0.418 -0.0782 -0.1566  0.2094
  259MPD2    C5 3924   1.759   3.901   0.439 -1.2169 -1.0444  0.4436
  259MPD2     H 3925   1.917   3.743   0.745 -1.5756  1.5825  0.9447
  259MPD2    H1 3926   1.865   3.770   0.315  0.5558  0.3410  0.1275
  259MPD2    H2 3927   1.642   4.002   0.577  0.4398  0.8765 -0.1230
  259MPD2    H3 3928   1.703   3.939   0.354  0.2308  3.4844  1.5365
  259MPD2     N 3929   2.007   3.643   0.525 -0.0896  0.9082  0.5720
  259MPD2    H5 3930   2.052   3.624   0.614 -0.8966 -0.3454  0.7210
  259MPD2    N1 3931   1.748   3.931   0.800 -0.0004  0.0747  0.6737
  259MPD2    H7 3932   1.669   3.994   0.801  0.4150  0.5942  0.8312
  260TMC3    C1 3933   2.136   3.465   0.434  0.5594  0.8908 -0.7776
  260TMC3    C2 3934   2.247   3.500   0.510  0.7306 -0.1353 -0.3195
  260TMC3    C3 3935   2.352   3.415   0.512  0.0416  1.1160 -0.2621
  260TMC3    C4 3936   2.136   3.357   0.356  0.3864  0.1416 -0.4372
  260TMC3    C5 3937   2.241   3.270   0.366  0.5054  0.0199 -0.7035
  260TMC3    C6 3938   2.348   3.298   0.447  0.6489  0.4748 -0.6204
  260TMC3     C 3939   2.034   3.561   0.409 -0.9292  0.1508 -0.0206
  260TMC3     O 3940   1.979   3.559   0.297 -0.0391 -0.3574 -0.1193
  260TMC3     H 3941   2.262   3.589   0.570 -0.7360  0.7099 -1.1804
  260TMC3    H1 3942   2.062   3.326   0.283 -2.4787 -0.1214  2.5583
  260TMC3    H2 3943   2.422   3.221   0.457 -0.4525 -0.6123 -0.8650
  260TMC3    C7 3944   2.280   3.198   0.247  0.2174  0.3417 -0.6537
  260TMC3    C8 3945   2.475   3.461   0.565  0.3299  0.5507  0.7908
  260TMC3    O1 3946   2.188   3.184   0.168  0.1561  0.0361  0.2081
  260TMC3    O2 3947   2.476   3.554   0.643  0.7298  0.2025  0.1175
  261MPD2     C 3948   3.820   2.131  12.344  0.5089 -0.1334 -0.5141
  261MPD2    C1 3949   3.888   2.195  12.449 -0.3115 -0.6023 -0.8936
  261MPD2    C2 3950   3.940   2.319  12.420  0.2324 -0.3886 -0.3168
  261MPD2    C3 3951   3.941   2.372  12.292 -0.2450 -0.2129 -0.1846
  261MPD2    C4 3952   3.876   2.305  12.190 -0.4951 -0.4196 -0.5916
  261MPD2    C5 3953   3.810   2.186  12.218  0.0346  0.3765  0.9053
  261MPD2     H 3954   3.984   2.378  12.499  0.5285 -0.9023 -0.0959
  261MPD2    H1 3955   3.856   2.349  12.093 -1.0733 -1.3362 -0.8935
  261MPD2    H2 3956   3.761   2.041  12.352  2.1850 -1.1828  0.0546
  261MPD2    H3 3957   3.754   2.129  12.144  0.1337  0.5192  0.7210
  261MPD2     N 3958   4.006   2.493  12.279 -0.0678  0.2242  0.3880
  261MPD2    H5 3959   4.035   2.534  12.367  1.2108 -0.1758  0.1525
  261MPD2    N1 3960   3.888   2.150  12.584  0.3179 -0.0191 -0.2533
  261MPD2    H7 3961   3.920   2.220  12.650 -0.6687  1.5609 -1.4575
  262TMC3    C1 3962   4.109   2.675  12.175  0.1029 -0.0679 -0.0857
  262TMC3    C2 3963   4.111   2.750  12.062  0.5193 -0.3388  0.9269
  262TMC3    C3 3964   4.223   2.818  12.029 -0.3490  0.5286 -0.1881
  262TMC3    C4 3965   4.222   2.668  12.259  0.7655  0.2592  0.3571
  262TMC3    C5 3966   4.339   2.726  12.213 -0.1647 -0.3923  0.2618
  262TMC3    C6 3967   4.333   2.813  12.107  0.0177  0.3204  0.3950
  262TMC3     C 3968   4.029   2.554  12.161  0.1946 -0.4495  0.1483
  262TMC3     O 3969   3.976   2.528  12.049 -0.3903 -0.6738 -0.0428
  262TMC3     H 3970   4.023   2.741  12.000  0.0845  1.6725  1.2482
  262TMC3    H1 3971   4.234   2.593  12.336  2.3953 -0.5092 -0.6586
  262TMC3    H2 3972   4.412   2.881  12.079 -2.9902  3.0683 -1.3825
  262TMC3    C7 3973   4.450   2.647  12.220 -0.2456 -0.4288 -0.4698
  262TMC3    C8 3974   4.258   2.823  11.890  0.6775  0.1051  0.0210
  262TMC3    O1 3975   4.452   2.566  12.310 -0.6504  0.4871  0.1086
  262TMC3    O2 3976   4.378   2.824  11.868  0.3861  0.3538 -0.3841
  263MPD2     C 3977   0.655   1.717  11.569  0.6532 -0.0299  0.3264
  263MPD2    C1 3978   0.742   1.710  11.463  0.9751  1.2587  0.7355
  263MPD2    C2 3979   0.700   1.718  11.332 -0.5644 -0.0984  0.1195
  263MPD2    C3 3980   0.564   1.733  11.305  0.2057  0.2475  0.1337
  263MPD2    C4 3981   0.478   1.741  11.412 -0.0713  1.1569  0.1217
  263MPD2    C5 3982   0.517   1.734  11.545 -1.0870  0.2976 -0.5852
  263MPD2     H 3983   0.767   1.708  11.248  0.0141  2.3877  0.3034
  263MPD2    H1 3984   0.372   1.748  11.390 -0.2503 -0.2227  0.5241
  263MPD2    H2 3985   0.691   1.707  11.671 -0.2507 -1.9847  0.4625
  263MPD2    H3 3986   0.440   1.737  11.622  0.2340  1.2546  0.7036
  263MPD2     N 3987   0.522   1.753  11.173  0.2129  0.3490  0.1354
  263MPD2    H5 3988   0.591   1.745  11.099 -0.5344 -0.6551 -0.4632
  263MPD2    N1 3989   0.875   1.709  11.498  0.1880 -0.5775  0.5621
  263MPD2    H7 3990   0.894   1.725  11.597  0.7025 -1.6796  0.6374
  264TMC3    C1 3991   0.416   1.842  10.997  0.3530 -0.4678  0.1120
  264TMC3    C2 3992   0.431   1.975  10.969  0.3983  0.7145 -0.4003
  264TMC3    C3 3993   0.505   2.013  10.860 -0.1177  0.4886  0.0126
  264TMC3    C4 3994   0.480   1.747  10.924  0.0507 -0.1635  0.4072
  264TMC3    C5 3995   0.539   1.787  10.804 -0.0015  0.2989 -0.2738
  264TMC3    C6 3996   0.546   1.921  10.772 -0.0092  0.3693  0.5627
  264TMC3     C 3997   0.406   1.812  11.136  0.8004 -0.0127 -0.0344
  264TMC3     O 3998   0.317   1.851  11.209  0.2861  0.2345  0.4266
  264TMC3     H 3999   0.398   2.045  11.045  0.5139  1.8969 -1.4367
  264TMC3    H1 4000   0.472   1.643  10.955 -0.3817 -0.5864 -1.1230
  264TMC3    H2 4001   0.587   1.959  10.678 -0.9189  0.6344  0.2733
  264TMC3    C7 4002   0.584   1.693  10.708  0.0968  0.6311 -0.1408
  264TMC3    C8 4003   0.598   2.122  10.881  0.1976  0.1204  0.1129
  264TMC3    O1 4004   0.679   1.728  10.641 -0.2323 -0.1321 -0.4737
  264TMC3    O2 4005   0.700   2.113  10.816 -0.6085 -0.2518 -0.4356
  265MPD2     C 4006   2.186   1.981  15.381  0.1607 -0.2186  0.0364
  265MPD2    C1 4007   2.249   2.099  15.343 -0.5739 -0.1405 -0.2308
  265MPD2    C2 4008   2.337   2.093  15.234  0.2608  0.4083  0.0065
  265MPD2    C3 4009   2.348   1.972  15.161 -0.0292 -0.8266  0.4462
  265MPD2    C4 4010   2.285   1.853  15.204 -0.1093 -0.0485  0.1349
  265MPD2    C5 4011   2.196   1.867  15.308  0.0843  0.3937 -0.0444
  265MPD2     H 4012   2.384   2.184  15.198 -1.2982  0.3862 -2.0638
  265MPD2    H1 4013   2.284   1.768  15.136 -2.4933  1.0860 -1.2474
  265MPD2    H2 4014   2.124   1.966  15.468 -0.0973  3.2488  0.4343
  265MPD2    H3 4015   2.131   1.784  15.333  0.6062 -0.2767 -0.9486
  265MPD2     N 4016   2.421   1.959  15.046 -0.8258 -0.0358  0.3050
  265MPD2    H5 4017   2.452   1.866  15.020 -1.2073  0.1143 -0.6985
  265MPD2    N1 4018   2.237   2.223  15.413  0.4587  0.1631  0.3223
  265MPD2    H7 4019   2.292   2.299  15.376  1.9178  0.3522  2.8918
  266TMC3    C1 4020   2.186   2.365  15.593 -0.2280  0.3752 -0.3950
  266TMC3    C2 4021   2.195   2.367  15.730 -0.4772  0.3366 -0.3310
  266TMC3    C3 4022   2.240   2.483  15.781 -0.1650 -0.4214  0.4584
  266TMC3    C4 4023   2.210   2.476  15.514  0.1586  0.1448  0.2362
  266TMC3    C5 4024   2.251   2.596  15.570 -0.1116 -0.0135 -0.6105
  266TMC3    C6 4025   2.246   2.602  15.707  0.1001  0.4301  0.2530
  266TMC3     C 4026   2.181   2.231  15.537  0.3342 -0.7487 -0.4621
  266TMC3     O 4027   2.125   2.147  15.612 -0.2944  0.2339 -0.2496
  266TMC3     H 4028   2.182   2.279  15.792 -1.1386 -0.3208 -1.4120
  266TMC3    H1 4029   2.193   2.474  15.407 -0.0797 -1.3400  0.3069
  266TMC3    H2 4030   2.297   2.682  15.759 -1.1520  0.7393  1.0095
  266TMC3    C7 4031   2.207   2.713  15.506  0.1145 -0.0445 -0.2924
  266TMC3    C8 4032   2.328   2.469  15.896 -0.4412 -0.1246  0.1862
  266TMC3    O1 4033   2.138   2.694  15.407 -0.0172 -0.2478 -0.2697
  266TMC3    O2 4034   2.373   2.356  15.921  0.1678  0.3312  0.2911
  267MPD2     C 4035   3.808   0.024   0.290  0.6187 -0.7057  0.1089
  267MPD2    C1 4036   3.904   0.006   0.198 -0.2571  0.1009  0.4627
  267MPD2    C2 4037   3.866   4.652   0.089  0.2073 -0.0423  0.5455
  267MPD2    C3 4038   3.750   4.573   0.093 -0.2498  0.3521  0.3770
  267MPD2    C4 4039   3.654   4.591   0.202 -0.3249 -0.1928 -0.5390
  267MPD2    C5 4040   3.691   4.682   0.297  0.0131  0.0287  1.5336
  267MPD2     H 4041   3.925   4.644  17.696 -0.3732 -0.8491  0.2304
  267MPD2    H1 4042   3.560   4.537   0.199 -0.6910  0.4024  0.4219
  267MPD2    H2 4043   3.818   0.083   0.380 -0.7365 -0.9967  0.4579
  267MPD2    H3 4044   3.623   4.697   0.380  0.3337 -1.1523  1.9991
  267MPD2     N 4045   3.725   4.482  17.688 -0.1459  0.0520 -0.6448
  267MPD2    H5 4046   3.652   4.411  17.692  0.6860 -0.7766 -0.1379
  267MPD2    N1 4047   4.033   0.067   0.210  0.4822 -0.2189 -0.0821
  267MPD2    H7 4048   4.054   0.110   0.299  0.2884 -1.1377  0.4002
  268TMC3    C1 4049   4.254   0.133   0.157 -0.8375  0.7353 -0.2562
  268TMC3    C2 4050   4.364   0.100   0.080  0.1940 -0.5523 -0.2203
  268TMC3    C3 4051   4.472   0.187   0.101  0.1239  0.4930  0.0326
  268TMC3    C4 4052   4.243   0.232   0.249  1.0879 -0.0905 -0.6979
  268TMC3    C5 4053   4.356   0.304   0.278  0.2885  0.5363  0.0031
  268TMC3    C6 4054   4.473   0.274   0.208  0.2229  0.1136  0.6500
  268TMC3     C 4055   4.133   0.061   0.116  0.4093 -0.1737 -0.4494
  268TMC3     O 4056   4.138   0.001   0.016  0.0636 -0.0014 -0.2598
  268TMC3     H 4057   4.373   0.018   0.010  0.6714 -1.0867  0.4674
  268TMC3    H1 4058   4.153   0.249   0.308  0.9744  0.2030 -0.9601
  268TMC3    H2 4059   4.563   0.328   0.238  0.5264  0.0754 -0.2002
  268TMC3    C7 4060   4.379   0.333   0.418  0.6345 -0.1571  0.1114
  268TMC3    C8 4061   4.607   0.153   0.056  0.4832 -0.6875  0.2660
  268TMC3    O1 4062   4.296   0.398   0.477  0.2475 -0.4303 -0.2452
  268TMC3    O2 4063   4.698   0.196   0.125 -0.3210 -0.4209 -0.3294
  269MPD2     C 4064   4.452   2.431  15.703  0.4076  0.4675 -0.2927
  269MPD2    C1 4065   4.338   2.492  15.660 -0.1776 -0.6365 -0.2768
  269MPD2    C2 4066   4.347   2.624  15.619 -0.0475  0.0336 -0.1020
  269MPD2    C3 4067   4.467   2.699  15.617  0.1782  0.0955  0.3828
  269MPD2    C4 4068   4.572   2.626  15.652 -0.0530  0.3661 -0.0013
  269MPD2    C5 4069   4.571   2.496  15.697  0.4089 -0.1282 -0.1166
  269MPD2     H 4070   4.253   2.676  15.601  0.3433  0.6289 -0.4405
  269MPD2    H1 4071   4.666   2.680  15.663  1.9914 -2.9899 -1.2376
  269MPD2    H2 4072   4.455   2.331  15.746  3.8507  0.5978 -0.2576
  269MPD2    H3 4073   4.661   2.444  15.729 -0.2175 -1.2493 -0.1731
  269MPD2     N 4074   4.457   2.840  15.598 -0.9096 -0.1581  0.5616
  269MPD2    H5 4075   4.361   2.866  15.579 -0.5642  0.5374 -0.2314
  269MPD2    N1 4076   4.213   2.430  15.694 -0.1842 -0.6279  0.5560
  269MPD2    H7 4077   4.223   2.334  15.726  0.8289  0.0311  2.2568
  270TMC3    C1 4078   3.985   2.382  15.718  0.4638  0.7026 -0.0581
  270TMC3    C2 4079   3.916   2.316  15.621 -0.3438 -0.4629 -0.0969
  270TMC3    C3 4080   3.868   2.191  15.647 -0.4462  0.0357  0.2862
  270TMC3    C4 4081   4.025   2.323  15.834 -0.6884  0.9886 -0.8648
  270TMC3    C5 4082   3.985   2.197  15.854 -0.2282 -0.3615  0.9018
  270TMC3    C6 4083   3.898   2.131  15.768 -0.0656 -0.3541 -0.1898
  270TMC3     C 4084   4.087   2.478  15.668 -0.7722  0.1130 -0.3705
  270TMC3     O 4085   4.046   2.577  15.621 -0.8265 -0.3252 -0.1054
  270TMC3     H 4086   3.915   2.358  15.522  0.1871  0.7985  0.4401
  270TMC3    H1 4087   4.086   2.381  15.901 -0.4956  1.8700 -1.8067
  270TMC3    H2 4088   3.887   2.023  15.759 -0.5444 -0.5011  2.4011
  270TMC3    C7 4089   4.079   2.120  15.929 -0.5083 -0.1826  0.5772
  270TMC3    C8 4090   3.856   2.099  15.540 -0.1583  0.3058  0.1129
  270TMC3    O1 4091   4.184   2.165  15.965 -0.0694  0.3072 -0.1489
  270TMC3    O2 4092   3.763   2.022  15.549 -0.2030 -0.0803 -0.1909
  271MPD2     C 4093   3.825   2.037  13.959 -0.7256  0.2318  0.0983
  271MPD2    C1 4094   3.779   2.102  14.075 -0.0849  0.1746  0.1741
  271MPD2    C2 4095   3.679   2.193  14.061  0.3201  0.4328 -0.7513
  271MPD2    C3 4096   3.609   2.201  13.945  0.1509  0.0793  0.0869
  271MPD2    C4 4097   3.655   2.147  13.827  0.2457 -0.6939 -0.4227
  271MPD2    C5 4098   3.766   2.068  13.837  0.5850 -0.0875 -0.6001
  271MPD2     H 4099   3.639   2.251  14.143  0.8086  0.3323 -0.4463
  271MPD2    H1 4100   3.620   2.179  13.729 -0.8818 -2.3641 -0.5679
  271MPD2    H2 4101   3.925   1.995  13.954 -1.3079 -0.8873 -2.2231
  271MPD2    H3 4102   3.817   2.040  13.745 -0.2138  1.0634 -1.3978
  271MPD2     N 4103   3.493   2.278  13.931 -0.0912 -0.1993  0.2037
  271MPD2    H5 4104   3.457   2.294  13.838 -1.6486  0.0846  0.8604
  271MPD2    N1 4105   3.851   2.088  14.197  0.6785  0.0213  0.1596
  271MPD2    H7 4106   3.831   2.151  14.274  1.8156  1.0732 -0.4114
  272TMC3    C1 4107   3.971   1.988  14.357 -0.3373 -0.4590 -0.5295
  272TMC3    C2 4108   4.039   1.875  14.392 -0.3990 -0.3549  0.9110
  272TMC3    C3 4109   4.090   1.861  14.520 -0.4270  0.5433  0.1652
  272TMC3    C4 4110   3.941   2.086  14.447  0.8795 -0.3205 -0.3856
  272TMC3    C5 4111   3.979   2.063  14.573 -0.0404 -0.7372  0.3564
  272TMC3    C6 4112   4.059   1.954  14.614  0.6513  0.5727 -0.2001
  272TMC3     C 4113   3.929   1.987  14.226  0.6868  0.5978 -0.2241
  272TMC3     O 4114   3.957   1.889  14.160  0.0179  0.1788  0.1103
  272TMC3     H 4115   4.068   1.798  14.321  0.0205  1.8705 -1.3286
  272TMC3    H1 4116   3.877   2.170  14.425  0.9468  0.0891  0.9658
  272TMC3    H2 4117   4.112   1.963  14.708  0.0230  1.7178  0.0430
  272TMC3    C7 4118   3.933   2.157  14.677  0.1865 -0.3859 -0.3573
  272TMC3    C8 4119   4.231   1.825  14.520 -0.2003 -0.3952  0.1825
  272TMC3    O1 4120   3.837   2.224  14.644 -0.3391  0.2172  0.0162
  272TMC3    O2 4121   4.281   1.849  14.412 -0.5946  0.7370 -0.0208
  273MPD2     C 4122   0.924   0.420  11.803  0.3842  0.0309  0.5565
  273MPD2    C1 4123   1.060   0.423  11.809  1.0495 -0.1218  0.1531
  273MPD2    C2 4124   1.136   0.462  11.704  0.4030 -0.1270 -0.5146
  273MPD2    C3 4125   1.070   0.485  11.583  0.2604  0.3698  0.2560
  273MPD2    C4 4126   0.934   0.480  11.572 -0.5967  0.2548 -0.5059
  273MPD2    C5 4127   0.858   0.434  11.682  0.1355  0.5410 -0.0439
  273MPD2     H 4128   1.245   0.461  11.700  0.3910  3.4938 -1.9455
  273MPD2    H1 4129   0.876   0.492  11.481 -1.2154 -1.1789 -0.2991
  273MPD2    H2 4130   0.866   0.401  11.893  0.9931  1.7319  1.3072
  273MPD2    H3 4131   0.750   0.433  11.676 -0.1396 -0.4484  5.0238
  273MPD2     N 4132   1.136   0.513  11.464  0.2007  0.0029  0.4507
  273MPD2    H5 4133   1.077   0.537  11.385  0.6719 -1.9695 -0.5183
  273MPD2    N1 4134   1.113   0.400  11.937 -0.6594 -0.6254 -0.0272
  273MPD2    H7 4135   1.055   0.361  12.011  0.9079  0.8784  1.9750
  274TMC3    C1 4136   1.300   0.559  11.308 -0.3129  0.4836 -0.8046
  274TMC3    C2 4137   1.221   0.491  11.222  0.0690  0.3866  0.9954
  274TMC3    C3 4138   1.221   0.527  11.094  0.7648  0.2651 -0.0474
  274TMC3    C4 4139   1.370   0.666  11.274  0.5715  0.2133  0.0135
  274TMC3    C5 4140   1.373   0.701  11.141 -0.2755 -0.0350  0.3752
  274TMC3    C6 4141   1.296   0.632  11.049 -0.2434  0.1953 -0.6967
  274TMC3     C 4142   1.269   0.549  11.451  0.2507  0.2617  0.1516
  274TMC3     O 4143   1.346   0.596  11.535  0.2379  0.4874  0.5919
  274TMC3     H 4144   1.163   0.408  11.260 -1.8083  1.6955  1.0039
  274TMC3    H1 4145   1.427   0.715  11.352  0.4639  0.3316  0.0181
  274TMC3    H2 4146   1.308   0.652  10.943  0.3520 -1.1951 -0.8902
  274TMC3    C7 4147   1.431   0.828  11.109 -0.6223 -0.7319  0.3438
  274TMC3    C8 4148   1.109   0.486  11.006 -0.0906  0.3485  0.5076
  274TMC3    O1 4149   1.475   0.844  10.997  0.6416 -0.7194  0.2199
  274TMC3    O2 4150   1.086   0.568  10.917 -0.2167  0.7092  0.5572
  275MPD2     C 4151   0.937   3.237  14.427  0.0227 -0.2052 -0.1777
  275MPD2    C1 4152   0.846   3.304  14.500 -0.3894 -1.0227 -0.6184
  275MPD2    C2 4153   0.720   3.260  14.506  0.3264  0.2021  0.1633
  275MPD2    C3 4154   0.678   3.147  14.441 -0.0721 -0.7153  0.4623
  275MPD2    C4 4155   0.770   3.067  14.378  0.1477  0.4457 -0.0391
  275MPD2    C5 4156   0.896   3.118  14.375 -0.6104  0.0823  0.0051
  275MPD2     H 4157   0.652   3.329  14.553 -1.2490  0.4205 -2.4402
  275MPD2    H1 4158   0.729   2.982  14.325 -0.8698  1.5222 -0.9848
  275MPD2    H2 4159   1.043   3.261  14.424  0.4556 -1.8259  2.7243
  275MPD2    H3 4160   0.969   3.052  14.328 -1.4383 -2.2226  1.9311
  275MPD2     N 4161   0.545   3.107  14.440 -0.1987 -0.0230  0.1208
  275MPD2    H5 4162   0.519   3.014  14.410 -0.2965  0.8815 -2.6014
  275MPD2    N1 4163   0.882   3.425  14.565  0.6763  0.1470 -0.3745
  275MPD2    H7 4164   0.805   3.476  14.606  1.8749 -0.6796  2.9452
  276TMC3    C1 4165   1.012   3.565  14.695  0.5477 -0.4170  0.8098
  276TMC3    C2 4166   0.907   3.571  14.789  0.2954 -0.3634  0.0387
  276TMC3    C3 4167   0.892   3.676  14.870  0.3447 -0.1633 -0.0251
  276TMC3    C4 4168   1.123   3.648  14.695 -0.3308 -0.4905 -0.2449
  276TMC3    C5 4169   1.108   3.755  14.782  0.0158  0.8717 -0.5685
  276TMC3    C6 4170   0.999   3.764  14.868  0.4455 -0.1521  0.1949
  276TMC3     C 4171   1.004   3.477  14.588  0.2704 -0.1155 -0.3253
  276TMC3     O 4172   1.116   3.439  14.545  0.1492  0.0617 -0.2039
  276TMC3     H 4173   0.825   3.501  14.783  0.3933 -0.3401 -1.6835
  276TMC3    H1 4174   1.196   3.639  14.615  1.8014  1.8112  1.4366
  276TMC3    H2 4175   0.996   3.841  14.944  1.4682 -0.2220  0.3083
  276TMC3    C7 4176   1.230   3.824  14.832 -0.7304 -0.0849  0.4588
  276TMC3    C8 4177   0.834   3.661  14.998  0.3962  0.6234  0.2725
  276TMC3    O1 4178   1.211   3.897  14.928 -0.4985 -0.0671 -0.5166
  276TMC3    O2 4179   0.828   3.764  15.064 -0.4572  0.0023 -0.4043
  277MPD2     C 4180   2.474   2.220  13.220 -0.5391 -0.3321 -0.4854
  277MPD2    C1 4181   2.353   2.230  13.156 -0.1331 -0.3840 -0.1462
  277MPD2    C2 4182   2.239   2.235  13.231 -0.1644 -0.8494 -0.2523
  277MPD2    C3 4183   2.252   2.232  13.369  0.0220 -0.3084 -0.4398
  277MPD2    C4 4184   2.370   2.207  13.427  0.3446  0.8779  0.2249
  277MPD2    C5 4185   2.486   2.202  13.355  0.4972  0.8918 -0.4335
  277MPD2     H 4186   2.147   2.258  13.177  0.3150  0.1050 -0.6697
  277MPD2    H1 4187   2.375   2.203  13.535  3.3491  2.6029  0.1475
  277MPD2    H2 4188   2.565   2.215  13.161 -0.8865  1.1368 -1.1396
  277MPD2    H3 4189   2.581   2.192  13.404 -0.3250 -0.4152  0.8984
  277MPD2     N 4190   2.143   2.262  13.449 -1.0745  0.1444 -0.1394
  277MPD2    H5 4191   2.167   2.246  13.547  1.5553  3.0409 -0.2988
  277MPD2    N1 4192   2.356   2.249  13.014 -0.4013  0.1198  0.1311
  277MPD2    H7 4193   2.444   2.276  12.971 -0.0574  0.2006  0.8847
  278TMC3    C1 4194   1.916   2.350  13.505 -0.2933  0.2939 -0.3235
  278TMC3    C2 4195   1.903   2.254  13.600 -0.6355  0.6348 -0.0394
  278TMC3    C3 4196   1.773   2.210  13.632  0.2723  0.1085 -0.2353
  278TMC3    C4 4197   1.808   2.399  13.439 -0.3931 -0.4457 -0.7349
  278TMC3    C5 4198   1.686   2.354  13.473 -0.2816  0.0291  0.1374
  278TMC3    C6 4199   1.665   2.258  13.568 -0.2999 -0.0680 -0.0714
  278TMC3     C 4200   2.021   2.313  13.407  0.2643 -0.7591  0.3437
  278TMC3     O 4201   1.995   2.360  13.298  0.0251  0.0396 -0.3513
  278TMC3     H 4202   1.986   2.200  13.644  0.2105  3.1393  1.4450
  278TMC3    H1 4203   1.814   2.467  13.355  0.2115 -1.7637 -1.7558
  278TMC3    H2 4204   1.578   2.197  13.589 -1.5123  1.5668 -0.3248
  278TMC3    C7 4205   1.579   2.382  13.376 -0.0928  0.8306 -0.8165
  278TMC3    C8 4206   1.755   2.085  13.694 -0.2370  0.7396 -0.7181
  278TMC3    O1 4207   1.620   2.394  13.263  0.5632  0.1929 -0.1991
  278TMC3    O2 4208   1.684   2.076  13.793 -0.2732  0.3937  0.3126
  279MPD2     C 4209   1.452   2.306   0.211  0.4469  0.6798 -0.0517
  279MPD2    C1 4210   1.334   2.367   0.196  0.1905  0.5495  0.0781
  279MPD2    C2 4211   1.285   2.399   0.076 -0.1081 -0.2076 -0.1444
  279MPD2    C3 4212   1.369   2.372  17.666 -0.2157 -0.0120 -1.1494
  279MPD2    C4 4213   1.484   2.297  17.685 -0.4168 -0.0680  0.4717
  279MPD2    C5 4214   1.521   2.253   0.105 -0.1755 -0.5747 -1.0581
  279MPD2     H 4215   1.189   2.447   0.058 -0.5430 -1.2759 -0.6222
  279MPD2    H1 4216   1.534   2.264  17.595 -2.6401 -1.6828 -0.1621
  279MPD2    H2 4217   1.481   2.274   0.311 -2.3950  1.5006  1.0188
  279MPD2    H3 4218   1.606   2.187   0.113  0.0111 -0.0535  1.3016
  279MPD2     N 4219   1.330   2.393  17.533  0.3595 -0.1581 -0.2373
  279MPD2    H5 4220   1.399   2.383  17.459  1.8576  1.7329  0.9111
  279MPD2    N1 4221   1.265   2.414   0.319  0.3621 -0.1402 -0.3815
  279MPD2    H7 4222   1.298   2.381   0.409 -1.7582  1.8097  1.1233
  280TMC3    C1 4223   1.102   2.468   0.470  0.5104  0.3352 -0.4139
  280TMC3    C2 4224   1.145   2.381   0.571 -0.7983  0.5193  0.4035
  280TMC3    C3 4225   1.078   2.383   0.690  0.0154 -0.2700  0.7324
  280TMC3    C4 4226   1.005   2.565   0.498 -1.1388  0.5476  0.1974
  280TMC3    C5 4227   0.929   2.556   0.614 -0.6464  0.5140  0.8395
  280TMC3    C6 4228   0.971   2.466   0.709  0.4765  0.0061 -0.4654
  280TMC3     C 4229   1.140   2.474   0.329  0.4910 -0.4621  0.1106
  280TMC3     O 4230   1.071   2.522   0.236 -0.4190 -0.2517  0.0396
  280TMC3     H 4231   1.226   2.310   0.553 -0.3450  1.1189  0.0650
  280TMC3    H1 4232   0.979   2.642   0.427  1.6328  0.6613 -0.6869
  280TMC3    H2 4233   0.918   2.454   0.803  1.3312 -0.0200  0.0094
  280TMC3    C7 4234   0.846   2.667   0.639  0.3885  0.0426  0.2987
  280TMC3    C8 4235   1.085   2.258   0.758 -0.1435 -0.1925  0.5092
  280TMC3    O1 4236   0.872   2.737   0.740 -0.3758 -0.2425  0.2263
  280TMC3    O2 4237   1.192   2.202   0.766  0.3418  0.1021 -0.4989
  281TMC3    C1 4238   0.390   2.194  13.126  0.1996  0.9726  0.3532
  281TMC3    C2 4239   0.515   2.249  13.149  0.3783  0.3626  0.6824
  281TMC3    C3 4240   0.610   2.190  13.080 -0.0873 -1.0597  0.2112
  281TMC3    C4 4241   0.365   2.085  13.050 -0.9535  0.7661  0.5073
  281TMC3    C5 4242   0.471   2.023  12.996  0.2475 -0.2027 -0.2251
  281TMC3    C6 4243   0.600   2.070  13.013 -0.2579  0.0347 -0.2346
  281TMC3     C 4244   0.268   2.260  13.155  0.2181 -0.6735  0.1254
  281TMC3     O 4245   0.172   2.248  13.084  0.3961  1.2234 -0.1914
  281TMC3     H 4246   0.525   2.350  13.188  0.1337  0.0058  1.6674
  281TMC3    H1 4247   0.266   2.042  13.054 -1.4850  1.9185 -0.2179
  281TMC3    H2 4248   0.685   2.018  12.972  0.6406  1.6656 -0.4149
  281TMC3    C7 4249   0.471   1.888  12.950 -0.4683 -0.6774  0.0225
  281TMC3    C8 4250   0.745   2.236  13.081 -0.2432 -0.0364  0.3833
  281TMC3    O1 4251   0.573   1.837  12.908  0.1945 -0.0341 -0.1103
  281TMC3    O2 4252   0.818   2.169  13.150  0.1411  0.2305 -0.0629
  282MPD2     C 4253   2.407   3.810  15.346  0.4539  0.4686 -0.0945
  282MPD2    C1 4254   2.290   3.870  15.377  0.3165 -0.3528  0.3248
  282MPD2    C2 4255   2.195   3.897  15.278  0.2130  0.1944 -0.3656
  282MPD2    C3 4256   2.218   3.851  15.152 -0.1050  0.7204 -0.1390
  282MPD2    C4 4257   2.333   3.782  15.118  0.7925 -0.0918 -0.0487
  282MPD2    C5 4258   2.422   3.761  15.221  0.6203  0.0545 -0.4851
  282MPD2     H 4259   2.102   3.941  15.312  1.9085  3.0386  0.5217
  282MPD2    H1 4260   2.347   3.736  15.021 -0.4988  1.9320 -1.1860
  282MPD2    H2 4261   2.485   3.792  15.419 -0.2032  0.7359  0.6694
  282MPD2    H3 4262   2.517   3.711  15.206 -0.1313 -1.4969 -0.0513
  282MPD2     N 4263   2.113   3.863  15.064 -0.2440  0.4628 -0.7445
  282MPD2    H5 4264   2.030   3.907  15.102  0.4133  0.7898  0.3097
  282MPD2    N1 4265   2.254   3.901  15.513  0.5023 -0.4558  0.0134
  282MPD2    H7 4266   2.163   3.945  15.527  0.3906 -0.8370  0.4850
  283TMC3    C1 4267   2.288   3.929  15.751 -0.1261 -0.1278  0.3847
  283TMC3    C2 4268   2.242   4.058  15.768 -0.8940 -0.9340  0.5797
  283TMC3    C3 4269   2.204   4.094  15.897  0.6296  0.0355 -0.2613
  283TMC3    C4 4270   2.292   3.835  15.850  0.4067 -0.2794  0.7303
  283TMC3    C5 4271   2.253   3.874  15.978  0.2497  0.6634  0.0059
  283TMC3    C6 4272   2.209   4.002  15.998 -0.3832  0.2571 -0.5700
  283TMC3     C 4273   2.336   3.888  15.624 -0.3029  0.1256 -0.0322
  283TMC3     O 4274   2.432   3.816  15.638  0.4136  0.3219  0.4460
  283TMC3     H 4275   2.240   4.125  15.683  1.6416 -1.4892  0.0833
  283TMC3    H1 4276   2.337   3.738  15.831 -1.3680 -0.5594 -2.0350
  283TMC3    H2 4277   2.174   4.030  16.097 -2.4339  2.0016 -1.7905
  283TMC3    C7 4278   2.153   3.777  16.042  0.3940 -0.8249 -0.0758
  283TMC3    C8 4279   2.133   4.225  15.923  0.4492 -0.0325  0.3050
  283TMC3    O1 4280   2.067   3.833  16.111 -0.5109  0.1578 -0.1666
  283TMC3    O2 4281   2.084   4.245  16.035  0.0241 -0.2590  0.4968
  284MPD2     C 4282   0.563   3.633  11.208 -0.0293 -0.0002  0.1812
  284MPD2    C1 4283   0.654   3.523  11.215 -0.5321  0.3016  0.1792
  284MPD2    C2 4284   0.621   3.412  11.289  0.0805  0.1054 -0.2303
  284MPD2    C3 4285   0.511   3.409  11.373  0.0372  0.1514  0.4214
  284MPD2    C4 4286   0.437   3.524  11.377 -0.4979  0.2969 -0.2113
  284MPD2    C5 4287   0.465   3.633  11.299 -0.7061 -0.3406  0.7453
  284MPD2     H 4288   0.690   3.329  11.293  1.1459  1.0748  1.6130
  284MPD2    H1 4289   0.360   3.518  11.452 -0.0868 -2.0688  0.0375
  284MPD2    H2 4290   0.575   3.725  11.152 -1.5125  1.1763  1.8039
  284MPD2    H3 4291   0.387   3.708  11.310 -0.1037  0.1462  1.6984
  284MPD2     N 4292   0.471   3.308  11.462 -0.0298  0.3061 -0.3756
  284MPD2    H5 4293   0.410   3.331  11.539  0.3033 -0.0250 -0.0124
  284MPD2    N1 4294   0.770   3.518  11.128  0.5926 -0.2376 -0.2692
  284MPD2    H7 4295   0.812   3.426  11.120  2.1937  0.5432 -0.7970
  285TMC3    C1 4296   0.970   3.595  11.020  0.1101  0.3185  0.2797
  285TMC3    C2 4297   1.026   3.468  11.041  0.1475  0.8021 -0.3660
  285TMC3    C3 4298   1.168   3.460  11.054  0.1195  0.6495  0.0731
  285TMC3    C4 4299   1.051   3.705  11.002 -0.2391  0.8193 -0.0228
  285TMC3    C5 4300   1.184   3.690  11.022  0.2329  0.3673  0.0184
  285TMC3    C6 4301   1.250   3.572  11.053 -0.0237 -0.2822  0.8438
  285TMC3     C 4302   0.833   3.627  11.067  0.8401  0.0349 -1.0755
  285TMC3     O 4303   0.804   3.745  11.084 -0.5105  0.3445 -0.2008
  285TMC3     H 4304   0.959   3.383  11.049  1.2272  0.1315  1.4128
  285TMC3    H1 4305   1.015   3.805  10.982 -0.2088  0.6570 -0.8969
  285TMC3    H2 4306   1.357   3.564  11.039 -0.3295  1.4151 -2.5083
  285TMC3    C7 4307   1.258   3.812  11.046 -0.0161 -0.5445 -0.5849
  285TMC3    C8 4308   1.226   3.332  11.069  0.3433  0.0406  0.8106
  285TMC3    O1 4309   1.212   3.917  11.012 -0.1174  0.1331  0.9214
  285TMC3    O2 4310   1.157   3.238  11.029  0.0130 -0.1919  0.2146
  286MPD2     C 4311   0.089   1.869   1.798 -0.4034  0.0474 -0.6198
  286MPD2    C1 4312   0.071   1.877   1.663 -0.5508 -0.0077  0.7594
  286MPD2    C2 4313   0.139   1.781   1.585 -0.2934 -0.3367 -0.5922
  286MPD2    C3 4314   0.229   1.696   1.647 -0.2258 -0.4162 -0.6839
  286MPD2    C4 4315   0.245   1.693   1.784 -0.0256  0.4751 -0.3808
  286MPD2    C5 4316   0.173   1.779   1.860 -0.2058  0.6244 -0.1030
  286MPD2     H 4317   0.115   1.777   1.479  2.3548  0.6732 -1.2476
  286MPD2    H1 4318   0.322   1.637   1.836 -2.2391 -3.0910 -0.8729
  286MPD2    H2 4319   0.053   1.948   1.863  1.6634 -0.3780  1.0716
  286MPD2    H3 4320   0.200   1.795   1.964 -1.8656 -0.1044  0.4460
  286MPD2     N 4321   0.311   1.601   1.572  0.5115 -0.2597 -0.5941
  286MPD2    H5 4322   0.378   1.551   1.629  1.1569  0.6615 -0.5318
  286MPD2    N1 4323   4.711   1.980   1.609  0.1534 -0.2063 -0.4074
  286MPD2    H7 4324   4.718   2.011   1.512 -1.6296 -0.2032 -0.5306
  287TMC3    C1 4325   0.400   1.486   1.384 -0.4450  0.3358  0.1000
  287TMC3    C2 4326   0.370   1.395   1.280 -0.5154  0.6004 -0.1392
  287TMC3    C3 4327   0.471   1.305   1.258  0.3841 -0.1899  0.2719
  287TMC3    C4 4328   0.517   1.492   1.453 -0.1190  0.6114  0.1419
  287TMC3    C5 4329   0.612   1.401   1.419  0.2317  0.3004  0.4523
  287TMC3    C6 4330   0.587   1.305   1.326 -0.2015 -0.5316 -0.1521
  287TMC3     C 4331   0.295   1.571   1.437  0.3678 -0.0524 -0.2776
  287TMC3     O 4332   0.214   1.597   1.352  0.4582  0.3239 -0.3547
  287TMC3     H 4333   0.265   1.378   1.258 -0.0705  0.0921 -1.8488
  287TMC3    H1 4334   0.555   1.579   1.506 -1.6571  0.7406  1.0666
  287TMC3    H2 4335   0.660   1.232   1.293 -0.1398 -0.8846  0.7593
  287TMC3    C7 4336   0.736   1.412   1.491 -0.2687 -0.3147  0.5843
  287TMC3    C8 4337   0.475   1.251   1.126  0.1760 -0.1289  0.4178
  287TMC3    O1 4338   0.741   1.485   1.589 -0.7804 -0.2136 -0.0041
  287TMC3    O2 4339   0.557   1.167   1.091  0.0432 -0.3761  0.5086
  288TMC3    C1 4340   2.100   1.645  14.459  0.4659  0.0113 -0.6359
  288TMC3    C2 4341   2.076   1.610  14.588 -0.0734  0.7529 -0.3468
  288TMC3    C3 4342   2.097   1.703  14.683 -0.1662 -0.0498  0.2874
  288TMC3    C4 4343   2.177   1.752  14.425 -0.1477 -0.1332 -0.0035
  288TMC3    C5 4344   2.224   1.826  14.524 -0.3680  0.4001  0.6981
  288TMC3    C6 4345   2.179   1.801  14.651  0.8998  0.0049  0.5217
  288TMC3     C 4346   2.076   1.535  14.366  0.3180 -0.2553  0.3854
  288TMC3     O 4347   2.034   1.429  14.412 -0.3300 -0.1037  0.2062
  288TMC3     H 4348   2.017   1.521  14.607  1.7288 -0.3407  0.1256
  288TMC3    H1 4349   2.201   1.770  14.321  0.2363  1.1956  0.3156
  288TMC3    H2 4350   2.197   1.883  14.720 -0.1442  0.9720 -0.3533
  288TMC3    C7 4351   2.304   1.946  14.498  0.4015  0.7306 -0.1909
  288TMC3    C8 4352   2.095   1.664  14.822 -0.4296 -0.8343  0.1094
  288TMC3    O1 4353   2.329   2.014  14.593 -0.2146 -0.1442  0.5716
  288TMC3    O2 4354   2.170   1.727  14.900  0.0508 -0.6177  0.2217
  289MPD2     C 4355   2.471   0.780  14.288 -0.7940 -0.1185 -0.0843
  289MPD2    C1 4356   2.428   0.903  14.330  0.2167 -0.1698 -0.0187
  289MPD2    C2 4357   2.297   0.935  14.319 -0.9166 -0.0883 -0.6977
  289MPD2    C3 4358   2.206   0.855  14.248  0.3481  0.0781 -0.0394
  289MPD2    C4 4359   2.252   0.737  14.189 -0.2980 -0.3159  0.1603
  289MPD2    C5 4360   2.383   0.702  14.217 -0.5254  0.3274 -0.0388
  289MPD2     H 4361   2.264   1.025  14.369  0.5172  0.2145 -0.2977
  289MPD2    H1 4362   2.182   0.671  14.139  2.1641 -1.7358 -1.4056
  289MPD2    H2 4363   2.572   0.745  14.307 -0.3396  0.7182 -1.0000
  289MPD2    H3 4364   2.422   0.602  14.199 -1.0667  0.4306 -1.7317
  289MPD2     N 4365   2.066   0.882  14.241  0.1504  0.6637 -0.4115
  289MPD2    H5 4366   2.013   0.818  14.182 -2.7435  2.5917  0.0878
  289MPD2    N1 4367   2.520   0.982  14.399 -0.2462 -0.1661 -0.0102
  289MPD2    H7 4368   2.600   0.934  14.442  0.6519  3.5578  2.4778
  290TMC3    C1 4369   1.873   0.997  14.249  0.2108  0.3309  0.2907
  290TMC3    C2 4370   1.828   1.113  14.190  0.1247 -0.1451  0.9180
  290TMC3    C3 4371   1.697   1.106  14.143 -0.6729 -0.1780 -0.4153
  290TMC3    C4 4372   1.795   0.881  14.249  0.0926  0.0470 -0.0301
  290TMC3    C5 4373   1.671   0.871  14.188 -0.1533 -0.3741 -0.0472
  290TMC3    C6 4374   1.621   0.988  14.143 -0.7205 -0.1565 -0.4004
  290TMC3     C 4375   2.006   0.991  14.295 -0.2570  1.2218 -0.0824
  290TMC3     O 4376   2.054   1.087  14.343  0.0376 -0.0473  0.3002
  290TMC3     H 4377   1.891   1.201  14.185  1.1405 -1.0016 -1.6136
  290TMC3    H1 4378   1.846   0.807  14.310  0.5279 -0.0928 -0.5635
  290TMC3    H2 4379   1.517   0.986  14.113 -0.7722 -1.0826 -0.1765
  290TMC3    C7 4380   1.581   0.767  14.239 -0.3803 -0.8033 -0.1917
  290TMC3    C8 4381   1.625   1.223  14.099 -0.4634  0.3993  0.1239
  290TMC3    O1 4382   1.462   0.794  14.263 -0.2055 -0.4473 -0.3459
  290TMC3    O2 4383   1.518   1.197  14.048  0.0881  0.1467  0.5066
  291MPD2     C 4384   1.377   0.288   0.451  0.1428 -0.5991 -0.8033
  291MPD2    C1 4385   1.377   0.226   0.328  0.5558 -1.1604 -0.3428
  291MPD2    C2 4386   1.492   0.153   0.288  0.3526  0.5097 -0.3229
  291MPD2    C3 4387   1.600   0.147   0.373  0.6363  0.2774  0.8198
  291MPD2    C4 4388   1.602   0.218   0.485  0.5347  0.1380 -0.1519
  291MPD2    C5 4389   1.497   0.289   0.523  0.9657  0.1015  0.0631
  291MPD2     H 4390   1.472   0.104   0.193  1.4026  0.7805 -0.6754
  291MPD2    H1 4391   1.686   0.226   0.553 -0.5286  0.7194  1.1048
  291MPD2    H2 4392   1.300   0.352   0.493  1.3739  0.9038 -0.8741
  291MPD2    H3 4393   1.495   0.340   0.618  1.9323  0.9468 -0.3717
  291MPD2     N 4394   1.721   0.071   0.349  0.0444 -0.2064  0.0730
  291MPD2    H5 4395   1.787   0.064   0.426 -2.0194 -2.0862  1.6647
  291MPD2    N1 4396   1.265   0.230   0.246  0.0893 -0.3079  0.3938
  291MPD2    H7 4397   1.259   0.152   0.181 -0.5578 -0.0823  0.1901
  292TMC3    C1 4398   1.062   0.289   0.170  0.3331  0.1596 -0.1265
  292TMC3    C2 4399   0.952   0.359   0.180 -0.2354 -0.0992  0.3459
  292TMC3    C3 4400   0.840   0.310   0.128  0.6980 -0.0531  0.0739
  292TMC3    C4 4401   1.073   0.179   0.081 -0.0750 -0.2857  0.5067
  292TMC3    C5 4402   0.957   0.128   0.050 -0.6034  0.0790 -0.0536
  292TMC3    C6 4403   0.839   0.190   0.061 -0.5203 -0.4877 -0.3222
  292TMC3     C 4404   1.166   0.322   0.259  0.2353 -0.8952  0.6824
  292TMC3     O 4405   1.135   0.394   0.352  0.7891  0.5432 -0.0052
  292TMC3     H 4406   0.951   0.460   0.218 -2.6856 -0.1324  0.3515
  292TMC3    H1 4407   1.167   0.131   0.057 -0.6259  0.2472 -2.7358
  292TMC3    H2 4408   0.741   0.146   0.046 -1.9197  2.5895 -0.0338
  292TMC3    C7 4409   0.960   0.003  17.671 -0.2066 -0.1439 -0.1593
  292TMC3    C8 4410   0.715   0.343   0.194  0.2991  0.4653  0.7247
  292TMC3    O1 4411   1.063   4.661  17.673  0.1341 -0.1613  0.0813
  292TMC3    O2 4412   0.610   0.289   0.159 -0.2917  0.0782 -0.7016
  293MPD2     C 4413   3.514   2.384  12.259  0.3307  0.1233 -0.3116
  293MPD2    C1 4414   3.445   2.274  12.305  0.1904  0.4861 -0.1331
  293MPD2    C2 4415   3.463   2.229  12.435  0.7303 -0.9780  0.0217
  293MPD2    C3 4416   3.539   2.300  12.523  0.3951  0.3663 -0.3763
  293MPD2    C4 4417   3.618   2.405  12.470  0.5780 -0.5091 -0.9041
  293MPD2    C5 4418   3.602   2.442  12.341  0.6195 -0.6079 -0.2659
  293MPD2     H 4419   3.402   2.149  12.477  0.7932 -1.2521 -0.3991
  293MPD2    H1 4420   3.694   2.464  12.520  0.7489  0.4244 -2.2704
  293MPD2    H2 4421   3.504   2.430  12.162  1.9876  0.7532 -0.1873
  293MPD2    H3 4422   3.665   2.526  12.314  1.2087 -1.3469 -1.1816
  293MPD2     N 4423   3.544   2.257  12.660 -0.2039  0.4417  0.3822
  293MPD2    H5 4424   3.508   2.164  12.680 -1.4698  1.0974  1.1528
  293MPD2    N1 4425   3.366   2.203  12.214 -0.0988  0.2027 -0.1340
  293MPD2    H7 4426   3.381   2.229  12.117  1.4125 -0.0096  0.0528
  294TMC3    C1 4427   3.236   2.044  12.126  0.2373  0.5557 -0.2202
  294TMC3    C2 4428   3.121   1.963  12.121  0.2762  0.5167 -0.1525
  294TMC3    C3 4429   3.110   1.884  12.014 -0.3596  0.2127  0.2170
  294TMC3    C4 4430   3.329   2.041  12.026  0.0979 -0.1852 -0.1222
  294TMC3    C5 4431   3.301   1.966  11.920 -0.2627 -0.3417  0.6190
  294TMC3    C6 4432   3.197   1.885  11.905  0.3079  0.1234  0.0295
  294TMC3     C 4433   3.271   2.115  12.244  1.1447 -0.6149 -0.3352
  294TMC3     O 4434   3.234   2.068  12.352 -0.3619  0.2811 -0.0264
  294TMC3     H 4435   3.052   1.974  12.204  1.7638 -0.0554  1.1714
  294TMC3    H1 4436   3.426   2.089  12.029 -0.8279  1.6841  0.0182
  294TMC3    H2 4437   3.182   1.826  11.815  2.4268  0.1766 -0.3587
  294TMC3    C7 4438   3.408   1.961  11.825  0.4813  0.0101  0.1066
  294TMC3    C8 4439   2.997   1.795  12.014  0.2730 -0.0646 -0.4490
  294TMC3    O1 4440   3.522   1.980  11.869 -0.3406 -0.1558 -0.3808
  294TMC3    O2 4441   2.910   1.817  12.096 -0.0631  0.0525  0.4658
  295MPD2     C 4442   3.263   1.221   0.905  0.0204 -0.0581 -0.0138
  295MPD2    C1 4443   3.361   1.131   0.860  0.8294 -0.1493 -0.3722
  295MPD2    C2 4444   3.349   1.000   0.890 -0.5501 -0.0380  0.0078
  295MPD2    C3 4445   3.250   0.950   0.972 -0.2683  0.1157  0.3826
  295MPD2    C4 4446   3.145   1.039   1.012 -0.3325  0.6437 -0.3539
  295MPD2    C5 4447   3.158   1.167   0.973 -0.0448  0.4085  0.6895
  295MPD2     H 4448   3.426   0.929   0.859 -0.1350 -0.8443  2.8492
  295MPD2    H1 4449   3.061   1.006   1.072  0.7900 -0.7955  0.4204
  295MPD2    H2 4450   3.267   1.329   0.901 -0.0434 -0.1195 -1.7306
  295MPD2    H3 4451   3.069   1.222   1.000  2.2462  4.6259 -0.3872
  295MPD2     N 4452   3.246   0.815   1.027  0.0031  0.0956  0.4097
  295MPD2    H5 4453   3.175   0.788   1.095  0.8619 -0.3705  1.1289
  295MPD2    N1 4454   3.465   1.168   0.779  0.3377 -0.1505 -0.0360
  295MPD2    H7 4455   3.519   1.091   0.740 -1.0810 -1.9073  1.4682
  296TMC3    C1 4456   3.286   0.581   1.026 -0.2308  0.4181 -0.0058
  296TMC3    C2 4457   3.227   0.575   1.145  1.2503 -0.2167  0.6441
  296TMC3    C3 4458   3.177   0.451   1.184  0.5374 -0.1237  0.4166
  296TMC3    C4 4459   3.286   0.480   0.936 -0.7538  0.3438  0.5156
  296TMC3    C5 4460   3.234   0.360   0.978  0.3110  0.0635 -0.0179
  296TMC3    C6 4461   3.188   0.343   1.105 -0.2162 -0.0309 -0.0851
  296TMC3     C 4462   3.317   0.709   0.974 -0.1106  0.4855  0.2088
  296TMC3     O 4463   3.386   0.710   0.870  0.1456 -0.6359 -0.4072
  296TMC3     H 4464   3.222   0.666   1.203 -1.9018  0.7479 -1.1529
  296TMC3    H1 4465   3.333   0.488   0.838  0.6567 -0.2174  1.1376
  296TMC3    H2 4466   3.134   0.251   1.128  0.2909  0.2614  2.3367
  296TMC3    C7 4467   3.271   0.249   0.892 -0.0447 -0.2745  0.5189
  296TMC3    C8 4468   3.118   0.433   1.317  0.2509 -0.2999  0.2450
  296TMC3    O1 4469   3.273   0.258   0.775  0.3467  0.5208  0.5041
  296TMC3    O2 4470   3.070   0.326   1.342  0.2779  0.1847  0.0194
  297MPD2     C 4471   1.324   2.771  16.529  0.2012  0.0927 -0.0675
  297MPD2    C1 4472   1.291   2.855  16.421  0.3360  0.3982  0.5348
  297MPD2    C2 4473   1.379   2.967  16.404  0.6350 -0.3624 -0.8595
  297MPD2    C3 4474   1.495   2.990  16.479 -0.3515 -0.4590 -0.5332
  297MPD2    C4 4475   1.513   2.905  16.583 -0.2011 -0.5153  0.7704
  297MPD2    C5 4476   1.430   2.798  16.609 -1.0096 -0.1762 -0.3175
  297MPD2     H 4477   1.360   3.035  16.322 -1.5757  0.5389  0.3982
  297MPD2    H1 4478   1.606   2.905  16.639 -1.2796 -0.1415  2.5687
  297MPD2    H2 4479   1.272   2.678  16.547  0.0716  0.3579  0.8848
  297MPD2    H3 4480   1.457   2.729  16.688 -1.9014 -0.7879 -0.5440
  297MPD2     N 4481   1.585   3.091  16.442  0.4007 -0.7296 -0.0396
  297MPD2    H5 4482   1.564   3.162  16.373 -2.0667 -2.4717 -1.0605
  297MPD2    N1 4483   1.191   2.833  16.321 -0.0880  0.6646 -0.3394
  297MPD2    H7 4484   1.173   2.902  16.249  3.7562  1.1648 -0.8158
  298TMC3    C1 4485   0.999   2.739  16.232 -0.7364  0.4434 -0.1348
  298TMC3    C2 4486   1.035   2.785  16.114  0.0272 -0.0968  0.3604
  298TMC3    C3 4487   0.936   2.858  16.044 -0.2210  0.0260 -0.4645
  298TMC3    C4 4488   0.868   2.751  16.282 -0.0485  0.6917  0.6616
  298TMC3    C5 4489   0.772   2.808  16.204 -0.2767 -0.4580 -0.3275
  298TMC3    C6 4490   0.809   2.877  16.090  0.0237  0.0790  0.7220
  298TMC3     C 4491   1.097   2.738  16.337  0.1802 -0.3967 -0.3816
  298TMC3     O 4492   1.073   2.659  16.430  0.3923  0.2669  0.7873
  298TMC3     H 4493   1.137   2.772  16.078 -0.2405  2.0965 -1.1948
  298TMC3    H1 4494   0.839   2.715  16.380  1.7143 -0.0670  0.8927
  298TMC3    H2 4495   0.732   2.926  16.031  0.5709 -0.8963 -0.8011
  298TMC3    C7 4496   0.660   2.854  16.273 -0.0687 -1.2329 -0.5335
  298TMC3    C8 4497   0.977   2.943  15.930 -0.5288  0.9261 -0.1986
  298TMC3    O1 4498   0.664   2.877  16.392 -0.0265 -0.1413  0.0847
  298TMC3    O2 4499   0.891   3.019  15.885 -0.2641  0.4044  0.3148
  299MPD2     C 4500   2.935   2.164  11.208 -0.0135  0.9521  0.2203
  299MPD2    C1 4501   2.921   2.287  11.141  0.7407  0.0428 -0.5607
  299MPD2    C2 4502   2.826   2.299  11.041 -0.2148 -0.7560  0.7544
  299MPD2    C3 4503   2.750   2.193  11.007 -1.2905  0.3276  0.1934
  299MPD2    C4 4504   2.771   2.070  11.067 -0.4793  0.3859 -0.0116
  299MPD2    C5 4505   2.859   2.061  11.167  0.1887  0.1071  0.2628
  299MPD2     H 4506   2.815   2.397  10.996 -1.7383 -2.2260 -2.0984
  299MPD2    H1 4507   2.704   1.986  11.055  0.6108 -0.1541 -2.3436
  299MPD2    H2 4508   3.004   2.163  11.291 -0.7395  0.0519  0.8101
  299MPD2    H3 4509   2.860   1.965  11.217  3.5526 -0.1587 -0.2793
  299MPD2     N 4510   2.651   2.192  10.909 -0.1008 -0.4928 -0.1989
  299MPD2    H5 4511   2.614   2.102  10.881  1.4897 -1.0762 -0.3778
  299MPD2    N1 4512   3.000   2.398  11.180  0.5600 -0.1238 -0.4738
  299MPD2    H7 4513   3.061   2.383  11.259  0.6825 -0.8647 -0.7059
  300TMC3    C1 4514   2.464   2.292  10.794 -0.2666 -0.1720  0.5826
  300TMC3    C2 4515   2.424   2.405  10.726 -0.3473 -0.1293  0.4970
  300TMC3    C3 4516   2.294   2.421  10.695 -0.1289 -1.0144  0.1238
  300TMC3    C4 4517   2.371   2.198  10.830 -0.7948  0.2158  0.4663
  300TMC3    C5 4518   2.240   2.212  10.789  0.2370  0.2211  0.3540
  300TMC3    C6 4519   2.199   2.325  10.718  1.1467  0.4297  0.1610
  300TMC3     C 4520   2.589   2.309  10.875 -0.7095  0.1351 -0.2975
  300TMC3     O 4521   2.598   2.422  10.917  0.6804 -0.1360 -0.6077
  300TMC3     H 4522   2.493   2.486  10.707 -0.1874  0.0912  2.0117
  300TMC3    H1 4523   2.386   2.107  10.888 -1.3450  0.1187  0.4482
  300TMC3    H2 4524   2.095   2.349  10.697  0.8838 -0.8970 -0.0034
  300TMC3    C7 4525   2.143   2.130  10.852  0.1738 -0.3751  0.4134
  300TMC3    C8 4526   2.258   2.548  10.628  0.2695 -0.8323  0.4165
  300TMC3    O1 4527   2.168   2.011  10.869 -0.1195  0.0186 -0.4034
  300TMC3    O2 4528   2.333   2.639  10.661 -0.2410  0.7702  0.3113
  301MPD2     C 4529   3.537   2.960   1.902  0.2504 -0.7877 -0.4209
  301MPD2    C1 4530   3.457   3.014   1.804  0.0540 -0.1214 -1.0176
  301MPD2    C2 4531   3.505   3.007   1.672 -0.2035 -0.4571 -0.2471
  301MPD2    C3 4532   3.632   2.955   1.645  0.1925  0.2544 -0.1270
  301MPD2    C4 4533   3.698   2.894   1.752  0.3768  0.7497 -0.6581
  301MPD2    C5 4534   3.649   2.894   1.874  0.1161 -0.1787  0.0756
  301MPD2     H 4535   3.446   3.050   1.592  0.2281  2.2075  0.8493
  301MPD2    H1 4536   3.795   2.853   1.724  0.3560 -0.1881  0.6863
  301MPD2    H2 4537   3.517   2.954   2.009  0.5654  1.1329 -0.2586
  301MPD2    H3 4538   3.708   2.844   1.950  0.6051  3.0355  1.8073
  301MPD2     N 4539   3.701   2.947   1.520 -0.3043 -0.1096  0.3599
  301MPD2    H5 4540   3.793   2.903   1.513 -0.1171  0.7782 -2.8380
  301MPD2    N1 4541   3.331   3.076   1.830 -0.2854  0.2229 -0.0177
  301MPD2    H7 4542   3.273   3.092   1.749  0.6368 -1.7929 -1.0793
  302TMC3    C1 4543   3.750   3.008   1.293  0.7862  0.4894 -0.5514
  302TMC3    C2 4544   3.887   3.001   1.312  0.2204  0.4351 -0.3665
  302TMC3    C3 4545   3.958   3.034   1.191 -0.0423 -0.0034 -0.2369
  302TMC3    C4 4546   3.696   3.061   1.172  0.1533 -0.0800 -0.8866
  302TMC3    C5 4547   3.775   3.103   1.069  0.4819  0.0491 -0.4603
  302TMC3    C6 4548   3.907   3.086   1.076  0.3462 -0.3406  0.6973
  302TMC3     C 4549   3.654   2.993   1.395  0.1846  0.4421  0.4211
  302TMC3     O 4550   3.538   3.029   1.376  0.0673 -0.2098  0.4920
  302TMC3     H 4551   3.923   2.968   1.409  2.2921  0.0608 -1.2685
  302TMC3    H1 4552   3.588   3.069   1.162 -0.2328 -1.6936  1.9126
  302TMC3    H2 4553   3.980   3.127   1.007 -2.3422  1.9089 -0.8094
  302TMC3    C7 4554   3.720   3.188   0.966 -0.1139 -0.6196  0.4417
  302TMC3    C8 4555   4.106   3.033   1.199  0.1076 -0.9448 -0.0969
  302TMC3    O1 4556   3.806   3.228   0.887  0.3498 -0.1222 -0.2593
  302TMC3    O2 4557   4.151   3.125   1.132 -0.6027  0.2689 -0.2540
  303MPD2     C 4558   4.607   2.191  10.567  0.1063 -0.2711 -0.1884
  303MPD2    C1 4559   4.517   2.106  10.503 -0.1199  0.1897  0.3255
  303MPD2    C2 4560   4.538   2.070  10.373 -0.1100 -0.6337  0.3649
  303MPD2    C3 4561   4.642   2.116  10.294  0.2039  0.5332 -0.5551
  303MPD2    C4 4562   0.015   2.189  10.358 -0.0293 -0.6155  0.0797
  303MPD2    C5 4563   4.714   2.216  10.494  0.2538  0.1693 -0.5186
  303MPD2     H 4564   4.472   1.992  10.337 -2.6685  1.1197  1.3205
  303MPD2    H1 4565   0.098   2.231  10.303  1.0416  0.8192  2.7719
  303MPD2    H2 4566   4.592   2.228  10.668  0.1591  1.0453 -0.6636
  303MPD2    H3 4567   0.062   2.289  10.530 -0.4253 -0.1476  1.4288
  303MPD2     N 4568   4.671   2.089  10.155  0.2182 -0.5645  0.3127
  303MPD2    H5 4569   0.020   2.141  10.108  1.5961 -1.2462  1.7176
  303MPD2    N1 4570   4.398   2.063  10.581  0.2067 -0.5271 -0.7991
  303MPD2    H7 4571   4.385   2.088  10.679  0.3449  2.0755 -1.4377
  304TMC3    C1 4572   4.192   1.990  10.630  0.4599 -0.9364 -0.0506
  304TMC3    C2 4573   4.064   1.993  10.581 -0.0067  0.5117 -0.0953
  304TMC3    C3 4574   3.962   1.945  10.655  0.6309  0.3181 -0.1955
  304TMC3    C4 4575   4.229   1.915  10.739 -0.3063 -0.4681  0.0638
  304TMC3    C5 4576   4.126   1.843  10.799 -0.2653 -0.4931  0.2260
  304TMC3    C6 4577   3.988   1.872  10.768  0.3494  0.2117  0.4625
  304TMC3     C 4578   4.294   2.000  10.527  0.1286  0.0155  0.2236
  304TMC3     O 4579   4.266   1.973  10.410 -0.2412  0.1429  0.7902
  304TMC3     H 4580   4.043   2.053  10.492 -0.3242  0.2527 -0.1943
  304TMC3    H1 4581   4.332   1.909  10.774 -0.2327  0.4968  0.0126
  304TMC3    H2 4582   3.907   1.811  10.806 -0.1518  0.7399  0.2427
  304TMC3    C7 4583   4.149   1.701  10.778  0.1342  0.5171 -0.2803
  304TMC3    C8 4584   3.848   1.900  10.583  0.6891 -0.5713 -0.5165
  304TMC3    O1 4585   4.052   1.643  10.727  0.4714  0.7599 -0.3606
  304TMC3    O2 4586   3.763   1.981  10.541 -0.1643 -0.0403  0.2139
  305MPD2     C 4587   2.355   4.299  13.828 -0.0949  0.6359 -0.4597
  305MPD2    C1 4588   2.299   4.177  13.846 -0.2365 -0.2678 -0.3076
  305MPD2    C2 4589   2.280   4.092  13.738 -0.0290  0.0429  0.8147
  305MPD2    C3 4590   2.337   4.128  13.620 -0.0661  0.0125 -0.2128
  305MPD2    C4 4591   2.409   4.241  13.607  0.4424 -0.9697  0.6848
  305MPD2    C5 4592   2.414   4.329  13.707 -0.6753  0.3171  0.6477
  305MPD2     H 4593   2.223   4.000  13.747  1.5972 -1.1113 -0.7766
  305MPD2    H1 4594   2.447   4.274  13.511 -1.9414  0.4959  0.2573
  305MPD2    H2 4595   2.386   4.364  13.909  0.3978  1.4058 -1.2524
  305MPD2    H3 4596   2.466   4.424  13.704 -1.0989  0.4894 -0.8031
  305MPD2     N 4597   2.332   4.055  13.501  0.5374 -0.3820  0.0268
  305MPD2    H5 4598   2.393   4.082  13.424 -0.7215 -3.0845 -1.9488
  305MPD2    N1 4599   2.258   4.145  13.982 -0.0238  0.1930  0.4217
  305MPD2    H7 4600   2.283   4.213  14.053 -2.2099  3.1509 -1.5950
  306TMC3    C1 4601   2.210   3.995  14.161 -0.2418  0.1445 -0.4439
  306TMC3    C2 4602   2.273   3.880  14.216  0.2174 -0.7795 -0.2254
  306TMC3    C3 4603   2.285   3.889  14.352  0.0002  0.3786 -0.0910
  306TMC3    C4 4604   2.157   4.098  14.233  0.2932 -0.0909 -0.0702
  306TMC3    C5 4605   2.151   4.077  14.371 -0.1600  0.2725  0.0485
  306TMC3    C6 4606   2.222   3.974  14.430 -0.5114  0.3757 -0.9446
  306TMC3     C 4607   2.215   4.018  14.016 -0.0804 -0.3662  1.0628
  306TMC3     O 4608   2.205   3.914  13.949  0.5808  0.2971 -0.1351
  306TMC3     H 4609   2.321   3.811  14.148 -2.0167 -3.2179  0.6845
  306TMC3    H1 4610   2.097   4.172  14.181 -0.4181 -1.6477 -1.4543
  306TMC3    H2 4611   2.211   3.942  14.533 -0.3624 -0.4910 -1.1962
  306TMC3    C7 4612   2.083   4.172  14.451 -0.2858  0.2229  0.2119
  306TMC3    C8 4613   2.377   3.787  14.409 -0.5012  0.4712  0.2537
  306TMC3    O1 4614   1.987   4.238  14.412 -0.2438  0.2304 -0.1139
  306TMC3    O2 4615   2.414   3.702  14.327  0.6545  0.1942  0.1769
  307MPD2     C 4616   0.013   2.202   0.877 -0.1106 -0.2706 -0.6754
  307MPD2    C1 4617   4.611   2.226   0.822 -0.7069 -0.2675  0.3061
  307MPD2    C2 4618   4.550   2.345   0.845 -0.0414 -1.3255  0.0418
  307MPD2    C3 4619   4.604   2.450   0.920 -0.6063  0.1847  0.7058
  307MPD2    C4 4620   0.011   2.426   0.962 -0.1478  0.1309 -0.1374
  307MPD2    C5 4621   0.074   2.305   0.944  1.0788  0.2725 -0.2854
  307MPD2     H 4622   4.458   2.374   0.795  0.3520  0.3350  0.2556
  307MPD2    H1 4623   0.071   2.504   1.008 -1.6781  2.4025 -1.9446
  307MPD2    H2 4624   0.083   2.125   0.847  0.6302  0.6823 -1.4227
  307MPD2    H3 4625   0.173   2.285   0.983  0.6756  0.4448  0.8112
  307MPD2     N 4626   4.548   2.581   0.935 -0.2553  1.0673  0.3278
  307MPD2    H5 4627   4.452   2.594   0.907 -0.3770  0.3809  0.4253
  307MPD2    N1 4628   4.554   2.139   0.721 -0.4678  0.1421  1.1161
  307MPD2    H7 4629   4.488   2.176   0.653  0.0311  1.2061  1.1990
  308TMC3    C1 4630   4.277   2.820   0.970 -0.3993 -0.3683  0.8179
  308TMC3    C2 4631   4.293   2.945   0.927 -0.0248 -0.2408  0.0623
  308TMC3    C3 4632   4.420   2.992   0.917 -0.2577 -0.1652  0.5826
  308TMC3    C4 4633   4.378   2.745   1.009 -0.1162 -0.2860  0.4688
  308TMC3    C5 4634   4.506   2.792   0.997 -0.2551 -0.0152  0.7068
  308TMC3    C6 4635   4.530   2.918   0.957  0.1382  0.4755  1.2223
  308TMC3     C 4636   4.150   2.753   0.968  0.2533  0.0573  0.0673
  308TMC3     O 4637   4.140   2.642   1.026 -0.0311  0.7972 -0.0006
  308TMC3     H 4638   4.214   3.016   0.904  0.4429  0.2078 -0.1381
  308TMC3    H1 4639   4.356   2.655   1.066 -1.4699 -0.0282  0.3686
  308TMC3    H2 4640   4.625   2.969   0.952  0.5620 -0.1818  2.5711
  308TMC3    C7 4641   4.607   2.689   0.998  0.5536 -0.2079 -0.0602
  308TMC3    C8 4642   4.437   3.133   0.875  0.7577  0.5953  0.6056
  308TMC3    O1 4643   4.719   2.720   1.028 -0.6478 -0.0538  0.6140
  308TMC3    O2 4644   4.456   3.225   0.957  0.1200 -0.3012  0.5079
  309MPD2     C 4645   4.092   3.038  17.059 -0.3547 -0.2006 -0.1000
  309MPD2    C1 4646   4.053   2.947  16.965 -0.4068 -0.0303 -0.0636
  309MPD2    C2 4647   3.946   2.862  16.998  0.0867 -0.7803  0.0830
  309MPD2    C3 4648   3.869   2.886  17.111  0.2506  0.0348  0.0608
  309MPD2    C4 4649   3.910   2.979  17.199  0.2546  0.0348 -0.4481
  309MPD2    C5 4650   4.031   3.047  17.176  0.1999  0.3455 -0.5623
  309MPD2     H 4651   3.908   2.789  16.928 -1.2811  0.8090 -0.8364
  309MPD2    H1 4652   3.862   2.990  17.295  1.5855  2.2243 -0.0321
  309MPD2    H2 4653   4.175   3.103  17.036  0.3408 -1.2078 -0.4718
  309MPD2    H3 4654   4.066   3.122  17.247  1.1512 -0.7797  0.1474
  309MPD2     N 4655   3.746   2.819  17.132  0.6925 -0.3836  0.0515
  309MPD2    H5 4656   3.718   2.810  17.230 -1.0253  0.3266 -0.3635
  309MPD2    N1 4657   4.100   2.947  16.831  0.4425 -0.5906  0.0722
  309MPD2    H7 4658   4.071   2.869  16.773 -1.3389  1.2790 -1.5413
  310TMC3    C1 4659   4.228   2.981  16.642  0.4249 -0.0824  0.4684
  310TMC3    C2 4660   4.204   3.056  16.529 -0.1235  0.4005  0.0695
  310TMC3    C3 4661   4.220   2.988  16.411 -1.3009  0.5657  0.6492
  310TMC3    C4 4662   4.263   2.852  16.637  0.3546 -0.2208 -0.2357
  310TMC3    C5 4663   4.269   2.787  16.522 -0.3077  0.8245  0.3688
  310TMC3    C6 4664   4.256   2.854  16.406 -0.1424 -0.6714 -0.0888
  310TMC3     C 4665   4.192   3.032  16.773 -0.1551  0.1036 -0.1206
  310TMC3     O 4666   4.210   3.146  16.810 -0.5469 -0.1719  0.5362
  310TMC3     H 4667   4.150   3.150  16.538 -1.7305 -0.3375 -1.9735
  310TMC3    H1 4668   4.291   2.800  16.728  0.7557 -0.2065 -0.3542
  310TMC3    H2 4669   4.265   2.799  16.313  1.2711  0.7094 -0.7693
  310TMC3    C7 4670   4.296   2.641  16.529  0.0421  0.4165 -0.3380
  310TMC3    C8 4671   4.155   3.026  16.292  0.5060 -0.1974 -0.4652
  310TMC3    O1 4672   4.333   2.593  16.635 -0.0410  0.5340  0.1425
  310TMC3    O2 4673   4.118   2.932  16.224 -0.4839  0.3771  0.3553
  311MPD2     C 4674   1.561   3.898  12.679 -0.0824 -0.2764  0.2011
  311MPD2    C1 4675   1.581   4.035  12.692 -0.5982  1.0576  1.0817
  311MPD2    C2 4676   1.474   4.121  12.731 -0.0573  0.5808 -0.0213
  311MPD2    C3 4677   1.352   4.070  12.773 -0.2169 -0.0372 -0.2028
  311MPD2    C4 4678   1.326   3.937  12.738  0.2543 -0.3527  0.0271
  311MPD2    C5 4679   1.429   3.860  12.702  0.4690  0.6060  0.1976
  311MPD2     H 4680   1.496   4.222  12.763 -1.4319  0.5898  0.8971
  311MPD2    H1 4681   1.227   3.893  12.749  0.7973 -2.3166 -2.7746
  311MPD2    H2 4682   1.637   3.824  12.658  0.5333 -0.1894  2.0930
  311MPD2    H3 4683   1.411   3.754  12.690 -0.5944  0.6940  1.0031
  311MPD2     N 4684   1.272   4.152  12.853 -0.9033 -0.5569 -0.1389
  311MPD2    H5 4685   1.311   4.232  12.902 -0.8196 -2.4673  2.9809
  311MPD2    N1 4686   1.714   4.082  12.676 -0.0197 -0.0993 -0.1941
  311MPD2    H7 4687   1.725   4.183  12.677  0.3727 -0.1895  3.1721
  312TMC3    C1 4688   1.092   4.178  12.991 -0.5073  0.1114  0.3855
  312TMC3    C2 4689   0.956   4.169  13.003  0.4840  0.3661  0.2897
  312TMC3    C3 4690   0.906   4.124  13.122  0.2157 -0.4672  0.8993
  312TMC3    C4 4691   1.174   4.169  13.104 -0.9239 -0.3805 -0.3194
  312TMC3    C5 4692   1.111   4.128  13.220  0.0552  0.5559 -0.2716
  312TMC3    C6 4693   0.983   4.107  13.232  0.5006 -0.6663  1.2877
  312TMC3     C 4694   1.143   4.113  12.876 -0.2104  0.3012 -0.0939
  312TMC3     O 4695   1.071   4.030  12.822 -0.2221  0.3590 -0.2454
  312TMC3     H 4696   0.888   4.163  12.920 -1.3045  3.6266  1.5003
  312TMC3    H1 4697   1.282   4.181  13.100 -0.6924 -1.7627  1.4832
  312TMC3    H2 4698   0.929   4.069  13.318 -0.8039 -1.6916  0.0237
  312TMC3    C7 4699   1.193   4.145  13.341 -0.7010 -0.8646 -0.5428
  312TMC3    C8 4700   0.778   4.058  13.118 -0.2597 -0.0472  0.4208
  312TMC3    O1 4701   1.288   4.219  13.331 -0.8903  0.4078 -0.5536
  312TMC3    O2 4702   0.770   3.942  13.155  0.3361  0.2067  0.1259
  313MPD2     C 4703   1.709   2.673  10.777 -0.4916 -0.1429 -0.6321
  313MPD2    C1 4704   1.604   2.736  10.714  0.4602  0.1020 -0.2487
  313MPD2    C2 4705   1.525   2.657  10.629  0.5938 -0.0746 -0.0857
  313MPD2    C3 4706   1.540   2.523  10.608 -0.0069 -0.9175 -0.1189
  313MPD2    C4 4707   1.649   2.466  10.666  1.0732  0.2870 -0.3908
  313MPD2    C5 4708   1.743   2.546  10.734  0.1431 -0.0022  0.1390
  313MPD2     H 4709   1.445   2.712  10.582  1.6039  1.4307 -0.0378
  313MPD2    H1 4710   1.684   2.365  10.649 -1.0655 -0.7478  1.3680
  313MPD2    H2 4711   1.774   2.723  10.848 -0.3643 -1.7871  0.4122
  313MPD2    H3 4712   1.828   2.495  10.779 -0.0769 -0.0061  0.5470
  313MPD2     N 4713   1.451   2.464  10.520  0.3388 -0.5983 -0.4147
  313MPD2    H5 4714   1.371   2.513  10.481  0.2571 -1.3393 -1.1826
  313MPD2    N1 4715   1.570   2.874  10.717  0.3864 -0.0425 -0.4327
  313MPD2    H7 4716   1.495   2.900  10.654  0.1925  1.6271  0.4666
  314TMC3    C1 4717   1.528   3.091  10.802 -0.2801 -0.7054  0.3977
  314TMC3    C2 4718   1.585   3.216  10.825  0.4598  0.1249  0.0012
  314TMC3    C3 4719   1.504   3.325  10.800 -0.0939 -0.0960  0.2269
  314TMC3    C4 4720   1.398   3.073  10.759  1.1299 -0.0056  0.4386
  314TMC3    C5 4721   1.331   3.186  10.728 -1.1321  0.3630 -0.6431
  314TMC3    C6 4722   1.380   3.312  10.750 -0.6684 -0.2756 -0.2898
  314TMC3     C 4723   1.610   2.973  10.805 -0.8903 -0.1346  0.2972
  314TMC3     O 4724   1.717   2.979  10.868 -0.3786  0.2861 -0.7909
  314TMC3     H 4725   1.687   3.220  10.861  0.3537  0.5397  0.2650
  314TMC3    H1 4726   1.356   2.976  10.733  0.6114  0.1445  0.7220
  314TMC3    H2 4727   1.319   3.396  10.718 -0.7339  0.1349  0.9255
  314TMC3    C7 4728   1.221   3.175  10.627 -0.0734  0.5965  0.3132
  314TMC3    C8 4729   1.532   3.460  10.857 -0.2583  0.9460  0.8761
  314TMC3    O1 4730   1.138   3.086  10.635  0.0728 -0.1095  0.2893
  314TMC3    O2 4731   1.479   3.566  10.822  0.9159 -1.1512  0.6790
  315MPD2     C 4732   0.123   2.153  17.668 -0.2910 -0.6742  0.1569
  315MPD2    C1 4733   0.159   2.214   0.089  0.4238  0.3253  0.5446
  315MPD2    C2 4734   0.167   2.352   0.095 -0.5064 -0.4920 -1.1731
  315MPD2    C3 4735   0.157   2.423  17.676  0.8835  0.3609  0.4300
  315MPD2    C4 4736   0.142   2.366  17.553  0.4793 -0.7012  0.4534
  315MPD2    C5 4737   0.112   2.231  17.553 -0.5443 -0.1163 -0.1098
  315MPD2     H 4738   0.157   2.399   0.193  1.1122 -3.4309  0.4030
  315MPD2    H1 4739   0.131   2.427  17.463 -0.0639 -0.3882  0.7297
  315MPD2    H2 4740   0.106   2.046  17.657 -0.0643 -0.6199 -0.7344
  315MPD2    H3 4741   0.071   2.191  17.461 -0.8773 -0.7512  0.3099
  315MPD2     N 4742   0.182   2.563  17.683  0.0508  0.1136  0.2465
  315MPD2    H5 4743   0.217   2.592   0.077 -0.1814  0.7700  0.1279
  315MPD2    N1 4744   0.174   2.141   0.209  0.0909 -0.2841 -0.0984
  315MPD2    H7 4745   0.173   2.191   0.297  2.1987 -3.0156  1.4735
  316TMC3    C1 4746   0.190   2.802  17.641  0.6865  0.4092 -0.0049
  316TMC3    C2 4747   0.244   2.822   0.071 -0.2594 -0.1507 -0.0431
  316TMC3    C3 4748   0.255   2.953   0.119  0.8173 -0.5563  0.7268
  316TMC3    C4 4749   0.125   2.907  17.575  0.2084  0.1382 -0.0853
  316TMC3    C5 4750   0.115   3.025  17.641  0.0955 -0.1409  0.3551
  316TMC3    C6 4751   0.181   3.055   0.066  0.2437 -0.0514 -0.2688
  316TMC3     C 4752   0.156   2.664  17.594 -0.1302  0.5297 -0.4206
  316TMC3     O 4753   0.086   2.662  17.496  0.5368  0.3651  0.1025
  316TMC3     H 4754   0.290   2.737   0.118  1.0426 -0.8088 -2.4797
  316TMC3    H1 4755   0.071   2.892  17.482  0.9825 -1.0928 -0.3387
  316TMC3    H2 4756   0.172   3.154   0.109  6.4429  0.1413  0.6574
  316TMC3    C7 4757   0.041   3.131  17.580  0.0183  0.1802  1.3202
  316TMC3    C8 4758   0.335   2.986   0.239  0.0126  0.1231 -0.5907
  316TMC3    O1 4759   4.710   3.208  17.659  0.6972  0.8296  0.4508
  316TMC3    O2 4760   0.348   3.102   0.269  0.3125 -0.2921 -0.1208
  317MPD2     C 4761   2.728   1.059  13.057  0.4164  0.0310 -0.7641
  317MPD2    C1 4762   2.756   0.950  12.979 -0.2204  0.4375 -0.0361
  317MPD2    C2 4763   2.829   0.849  13.038 -0.2537 -0.7741 -0.0742
  317MPD2    C3 4764   2.863   0.845  13.168  0.4202  0.6738  0.2855
  317MPD2    C4 4765   2.824   0.949  13.243  0.3085 -0.4462 -0.5631
  317MPD2    C5 4766   2.763   1.060  13.191  0.3654 -0.5199 -0.2926
  317MPD2     H 4767   2.864   0.767  12.977 -1.5330 -0.4096 -1.2963
  317MPD2    H1 4768   2.860   0.956  13.344  1.9450  0.7652 -1.2452
  317MPD2    H2 4769   2.651   1.130  13.029  0.2635 -0.1552 -0.8210
  317MPD2    H3 4770   2.734   1.143  13.255 -0.3938 -0.1410 -1.1335
  317MPD2     N 4771   2.954   0.749  13.218  0.0863 -0.8176  0.0531
  317MPD2    H5 4772   2.967   0.664  13.165 -0.4878 -0.8152 -0.1007
  317MPD2    N1 4773   2.715   0.936  12.843  0.3228 -0.3106  0.1079
  317MPD2    H7 4774   2.744   0.850  12.798  2.0640 -1.0575  2.6257
  318TMC3    C1 4775   3.120   0.646  13.361 -0.7255 -0.3539 -1.2222
  318TMC3    C2 4776   3.076   0.517  13.322  0.6083  0.2681 -0.4937
  318TMC3    C3 4777   3.147   0.415  13.376 -0.2505  0.6657 -0.4319
  318TMC3    C4 4778   3.238   0.669  13.425  0.0649  0.4992 -0.0013
  318TMC3    C5 4779   3.298   0.559  13.477 -0.8876  0.2691  0.4698
  318TMC3    C6 4780   3.261   0.428  13.456 -0.4923 -0.5289  0.2436
  318TMC3     C 4781   3.043   0.765  13.329 -0.3396  0.2074  0.2186
  318TMC3     O 4782   3.061   0.863  13.401  0.3518  0.0504 -0.0436
  318TMC3     H 4783   2.982   0.502  13.271 -0.0183  2.6151 -0.0373
  318TMC3    H1 4784   3.253   0.771  13.459  0.9478  1.3786 -2.9979
  318TMC3    H2 4785   3.315   0.343  13.495  1.1261 -0.0411 -0.9417
  318TMC3    C7 4786   3.427   0.589  13.538  0.4101 -0.2272 -0.0579
  318TMC3    C8 4787   3.101   0.277  13.369 -0.1380  0.8593  0.2677
  318TMC3    O1 4788   3.448   0.709  13.555  0.4805  0.7983 -0.3414
  318TMC3    O2 4789   3.183   0.187  13.345 -0.2283 -0.0327 -0.1075
  319MPD2     C 4790   3.755   2.486  16.018 -0.0439 -0.6002 -0.2187
  319MPD2    C1 4791   3.728   2.377  16.094 -0.1662  0.1846  0.2528
  319MPD2    C2 4792   3.647   2.281  16.033  0.1992  0.8167 -0.2532
  319MPD2    C3 4793   3.609   2.292  15.898 -0.4107  0.1939  0.8293
  319MPD2    C4 4794   3.647   2.403  15.826 -0.3582 -0.3065 -0.7918
  319MPD2    C5 4795   3.711   2.503  15.890 -0.2425  0.1512 -0.2721
  319MPD2     H 4796   3.622   2.192  16.090 -1.2250  1.3234 -0.0789
  319MPD2    H1 4797   3.619   2.424  15.724 -1.3435 -0.9770 -0.6611
  319MPD2    H2 4798   3.813   2.567  16.062  1.4151 -1.6704 -0.2122
  319MPD2    H3 4799   3.738   2.597  15.843 -0.4009  0.5157  0.3718
  319MPD2     N 4800   3.525   2.203  15.827  0.2170 -0.0217 -0.3282
  319MPD2    H5 4801   3.512   2.218  15.727 -0.2942 -1.6435 -0.5178
  319MPD2    N1 4802   3.763   2.362  16.229  0.5086 -0.0612 -0.8082
  319MPD2    H7 4803   3.726   2.284  16.282 -1.1064  0.8215 -0.6239
  320TMC3    C1 4804   3.339   2.059  15.825  0.4187  0.4887 -0.1499
  320TMC3    C2 4805   3.279   2.143  15.737 -0.2825  0.1314  0.3013
  320TMC3    C3 4806   3.147   2.110  15.705 -0.1897 -0.0508  0.1360
  320TMC3    C4 4807   3.274   1.954  15.881  0.4987  0.0338 -0.0803
  320TMC3    C5 4808   3.150   1.923  15.855  0.0943 -0.2291 -0.3380
  320TMC3    C6 4809   3.082   2.000  15.762  1.0216  0.4462  0.1934
  320TMC3     C 4810   3.467   2.091  15.878 -0.0306  0.1832  0.6553
  320TMC3     O 4811   3.507   2.028  15.976  0.5320 -0.3671  1.0829
  320TMC3     H 4812   3.325   2.232  15.696  0.4473 -0.5907 -0.4451
  320TMC3    H1 4813   3.325   1.887  15.949  0.4862  1.3619  1.2538
  320TMC3    H2 4814   2.977   1.979  15.746  0.7494  1.9972 -0.0294
  320TMC3    C7 4815   3.067   1.860  15.949  0.3237  0.5647 -0.1819
  320TMC3    C8 4816   3.071   2.229  15.681 -0.1818 -0.6736  0.1820
  320TMC3    O1 4817   2.956   1.819  15.915  0.2736 -0.0325 -0.3060
  320TMC3    O2 4818   3.127   2.337  15.703 -0.1742  0.8696 -0.8525
  321TMC3    C1 4819   3.850   2.423  16.446 -0.3069 -0.7545  0.3733
  321TMC3    C2 4820   3.868   2.287  16.459  0.3840  0.4511 -0.7354
  321TMC3    C3 4821   3.947   2.239  16.559  0.1954 -0.5811 -0.1358
  321TMC3    C4 4822   3.919   2.514  16.527 -0.4226  0.4391 -0.0604
  321TMC3    C5 4823   3.996   2.459  16.630  0.1407 -0.4603 -0.1119
  321TMC3    C6 4824   4.008   2.326  16.650  0.3862 -0.2156 -0.1552
  321TMC3     C 4825   3.818   2.462  16.310 -0.5522  0.6145  0.3815
  321TMC3     O 4826   3.862   2.575  16.277  0.0323 -0.7635  0.3136
  321TMC3     H 4827   3.807   2.221  16.399 -1.3567  0.0519  1.4673
  321TMC3    H1 4828   3.904   2.620  16.515  0.2134  0.6048  0.6188
  321TMC3    H2 4829   4.071   2.283  16.727  1.7738  1.7502 -0.2012
  321TMC3    C7 4830   3.988   2.524  16.754  0.1743 -0.3227  0.0615
  321TMC3    C8 4831   3.873   2.149  16.648  0.2534 -0.1290  0.1205
  321TMC3    O1 4832   4.010   2.643  16.753 -0.1794  0.2598 -0.0453
  321TMC3    O2 4833   3.830   2.208  16.747  0.0119 -0.4663  0.1148
  322MPD2     C 4834   1.915   3.314  13.461  0.3996 -0.2803 -0.7709
  322MPD2    C1 4835   1.963   3.260  13.578 -0.3243 -0.0114 -0.2356
  322MPD2    C2 4836   1.997   3.127  13.569 -0.2032 -0.2545  0.4096
  322MPD2    C3 4837   1.982   3.049  13.454  0.6506 -0.7180  0.5568
  322MPD2    C4 4838   1.940   3.116  13.341  0.3238 -0.4903 -0.4010
  322MPD2    C5 4839   1.918   3.245  13.347 -0.3036  0.0022 -0.3256
  322MPD2     H 4840   2.030   3.082  13.662  0.9320 -0.4427 -0.0779
  322MPD2    H1 4841   1.927   3.065  13.246  0.0000  0.8651 -1.0885
  322MPD2    H2 4842   1.874   3.414  13.457 -0.4042 -0.5783 -0.0570
  322MPD2    H3 4843   1.865   3.285  13.262 -0.7142  0.0073 -0.0686
  322MPD2     N 4844   2.029   2.916  13.455  0.3161  0.2163  0.8114
  322MPD2    H5 4845   2.058   2.868  13.539  0.2824 -0.1679  0.6045
  322MPD2    N1 4846   1.976   3.334  13.698 -0.3880  0.0035 -0.3805
  322MPD2    H7 4847   1.963   3.434  13.692  0.5078  0.2306  1.5369
  323TMC3    C1 4848   2.029   3.381  13.924 -0.0552  0.2443  0.0577
  323TMC3    C2 4849   2.121   3.480  13.887  0.2116 -0.1903  0.0678
  323TMC3    C3 4850   2.189   3.545  13.991 -0.0786  0.1018  0.0414
  323TMC3    C4 4851   2.006   3.353  14.055  0.0013 -0.5845 -0.4787
  323TMC3    C5 4852   2.059   3.430  14.148 -0.6839 -0.1501 -0.3899
  323TMC3    C6 4853   2.153   3.527  14.122  0.4241 -0.0717  0.7644
  323TMC3     C 4854   1.998   3.283  13.828  0.4841  0.3063 -0.4468
  323TMC3     O 4855   1.997   3.167  13.866 -0.5847  0.6165 -0.3105
  323TMC3     H 4856   2.160   3.485  13.786 -0.3323 -0.2853 -0.1431
  323TMC3    H1 4857   1.938   3.276  14.089 -0.2083  0.2467  0.9586
  323TMC3    H2 4858   2.207   3.576  14.202 -0.7192 -1.2654  2.2753
  323TMC3    C7 4859   2.080   3.364  14.276 -0.3329 -0.1938  0.0446
  323TMC3    C8 4860   2.325   3.579  13.965 -0.4886 -0.0731  0.5830
  323TMC3    O1 4861   2.049   3.247  14.291 -0.0646 -0.2860 -0.0944
  323TMC3    O2 4862   2.403   3.562  14.059 -0.1761  0.7633  0.1175
  324MPD2     C 4863   4.222   4.614  14.268  0.1593  0.3221 -0.5607
  324MPD2    C1 4864   4.185   0.012  14.326 -0.5313  0.1194 -1.0930
  324MPD2    C2 4865   4.059   0.062  14.297 -0.3494 -0.0024 -0.4381
  324MPD2    C3 4866   3.971   4.713  14.213  0.5146  0.0854  0.5829
  324MPD2    C4 4867   4.003   4.585  14.172 -0.1380  0.3134 -0.3102
  324MPD2    C5 4868   4.132   4.542  14.193  0.8431 -0.1173 -0.6301
  324MPD2     H 4869   4.018   0.150  14.345 -2.3487 -0.5205 -1.2173
  324MPD2    H1 4870   3.945   4.525  14.103  2.0023 -1.9077 -0.1595
  324MPD2    H2 4871   4.325   4.585  14.290 -0.4170 -2.5091 -1.5932
  324MPD2    H3 4872   4.168   4.458  14.134  1.0117 -1.0358  0.7806
  324MPD2     N 4873   3.836   0.032  14.182  0.4811 -0.0913 -0.1833
  324MPD2    H5 4874   3.767   4.688  14.152  0.9810 -0.2455 -0.9655
  324MPD2    N1 4875   4.268   0.073  14.428 -0.1535 -0.3022 -0.3093
  324MPD2    H7 4876   4.356   0.025  14.446  1.1626  2.7271  1.3682
  325TMC3    C1 4877   3.659   0.180  14.169 -0.2159  0.3171 -0.1096
  325TMC3    C2 4878   3.598   0.084  14.093 -0.3844 -0.4732 -0.1265
  325TMC3    C3 4879   3.473   0.108  14.058  0.3204 -0.2055 -0.0781
  325TMC3    C4 4880   3.600   0.299  14.189 -0.0120 -0.0759 -0.5188
  325TMC3    C5 4881   3.468   0.321  14.159  0.4495 -0.4499 -0.1443
  325TMC3    C6 4882   3.401   0.224  14.093  0.1676 -0.5650  0.1791
  325TMC3     C 4883   3.796   0.163  14.198  0.3263 -1.0208  0.1731
  325TMC3     O 4884   3.855   0.255  14.255 -0.3967  0.1644 -0.1058
  325TMC3     H 4885   3.635   4.707  14.075  1.2178  0.1778 -0.5294
  325TMC3    H1 4886   3.658   0.372  14.245  0.5071 -2.0295  1.4893
  325TMC3    H2 4887   3.294   0.240  14.083  0.2875  1.3777  2.0997
  325TMC3    C7 4888   3.407   0.445  14.193 -0.3098 -0.3433 -0.2616
  325TMC3    C8 4889   3.409   4.719  13.994  0.6242  0.1947 -0.1462
  325TMC3    O1 4890   3.474   0.545  14.183 -0.1515 -0.4861 -0.5099
  325TMC3    O2 4891   3.470   4.661  13.904 -0.0669 -0.0758 -0.5007
  326MPD2     C 4892   0.458   1.052  11.004  0.5003 -0.7361 -0.8231
  326MPD2    C1 4893   0.518   0.994  10.899  0.2224  0.5753 -0.8768
  326MPD2    C2 4894   0.620   1.059  10.834  0.7582  0.4436 -0.0842
  326MPD2    C3 4895   0.661   1.185  10.873  0.7889 -0.1715 -0.4213
  326MPD2    C4 4896   0.593   1.242  10.972 -0.3168 -0.2413  0.5530
  326MPD2    C5 4897   0.498   1.179  11.043 -0.3267 -0.5681  0.3848
  326MPD2     H 4898   0.675   1.005  10.758  0.2279  0.9399 -0.8241
  326MPD2    H1 4899   0.617   1.340  11.013  0.1589 -0.6150  1.1631
  326MPD2    H2 4900   0.384   0.997  11.061  0.1662  1.7621  1.1683
  326MPD2    H3 4901   0.454   1.234  11.126 -0.5407 -0.2486  0.0613
  326MPD2     N 4902   0.766   1.257  10.822 -0.4062 -0.1025 -0.1632
  326MPD2    H5 4903   0.781   1.354  10.851  0.4436 -0.4918  0.6957
  326MPD2    N1 4904   0.489   0.866  10.857 -0.5494  0.4786 -0.4383
  326MPD2    H7 4905   0.554   0.817  10.797 -0.7881  0.5679 -0.7729
  327TMC3    C1 4906   0.341   0.703  10.784 -1.0684  0.5793 -0.1187
  327TMC3    C2 4907   0.231   0.697  10.704  0.6812  0.7595  0.8079
  327TMC3    C3 4908   0.229   0.599  10.605 -0.0071  0.1468 -0.3668
  327TMC3    C4 4909   0.440   0.614  10.782  0.3361  0.0149 -0.2916
  327TMC3    C5 4910   0.428   0.504  10.704  0.3541  0.1672 -0.3930
  327TMC3    C6 4911   0.327   0.500  10.613 -0.2715 -0.2505  0.0687
  327TMC3     C 4912   0.358   0.820  10.863  0.6776 -0.5413 -0.4188
  327TMC3     O 4913   0.252   0.871  10.902 -0.3551 -0.2900 -0.0866
  327TMC3     H 4914   0.145   0.762  10.710 -1.4931 -2.1273  1.3303
  327TMC3    H1 4915   0.515   0.617  10.859  0.0634 -0.5804 -0.0033
  327TMC3    H2 4916   0.320   0.421  10.539 -0.9184  0.1543 -0.3058
  327TMC3    C7 4917   0.502   0.381  10.745 -0.7150 -0.0691 -0.0540
  327TMC3    C8 4918   0.176   0.630  10.481 -0.3989  0.5237 -0.3801
  327TMC3    O1 4919   0.456   0.272  10.715  0.5688 -0.3318  0.2448
  327TMC3    O2 4920   0.160   0.539  10.403 -0.2220 -0.2706  0.4098
  328MPD2     C 4921   3.112   0.755  17.477  0.5330 -1.3440  0.0895
  328MPD2    C1 4922   2.995   0.711  17.421  0.5870 -0.3660  0.8607
  328MPD2    C2 4923   2.913   0.797  17.348 -0.1250 -1.1476  0.2510
  328MPD2    C3 4924   2.956   0.925  17.329  0.1384  0.0528 -0.1175
  328MPD2    C4 4925   3.083   0.963  17.376  0.0780 -0.1263 -0.1369
  328MPD2    C5 4926   3.149   0.885  17.464  0.0383 -0.0765 -0.2963
  328MPD2     H 4927   2.812   0.777  17.313  0.3433 -0.3187 -1.5455
  328MPD2    H1 4928   3.109   1.068  17.376 -3.9189  0.8723 -1.5822
  328MPD2    H2 4929   3.162   0.678  17.535  1.8030 -1.0244 -0.5646
  328MPD2    H3 4930   3.239   0.920  17.514  1.0034 -1.1808 -1.2900
  328MPD2     N 4931   2.886   1.024  17.261 -0.2306  0.5446 -0.2954
  328MPD2    H5 4932   2.935   1.112  17.253  1.6435 -0.5033 -0.4384
  328MPD2    N1 4933   2.966   0.575  17.443 -0.5747  0.4449  0.4793
  328MPD2    H7 4934   3.022   0.531  17.515  0.2782 -0.5151 -0.7745
  329TMC3    C1 4935   2.846   0.367  17.442  0.4730  0.1192  0.4105
  329TMC3    C2 4936   2.746   0.289  17.384 -0.1528 -0.2511 -0.4364
  329TMC3    C3 4937   2.707   0.176  17.448 -0.5945  0.0213 -0.3691
  329TMC3    C4 4938   2.924   0.326  17.548  0.3963  0.5405 -0.2043
  329TMC3    C5 4939   2.877   0.208  17.608 -0.2671 -0.0879 -0.1160
  329TMC3    C6 4940   2.767   0.135  17.564 -0.0440 -0.6704  0.3236
  329TMC3     C 4941   2.857   0.508  17.394  0.4089  0.4393 -0.6052
  329TMC3     O 4942   2.762   0.550  17.331  0.7120 -0.2012  0.4583
  329TMC3     H 4943   2.720   0.307  17.280 -1.1267  0.4156 -0.0754
  329TMC3    H1 4944   3.002   0.385  17.596  1.1988 -1.5583  1.0357
  329TMC3    H2 4945   2.721   0.058  17.625  0.6675 -0.2145  1.4339
  329TMC3    C7 4946   2.971   0.149   0.004 -0.0813 -0.2781  0.6455
  329TMC3    C8 4947   2.588   0.114  17.411 -0.7259 -0.2711  0.8252
  329TMC3    O1 4948   3.088   0.183  17.693  0.0113  0.3737 -0.2922
  329TMC3    O2 4949   2.576   0.105  17.290 -0.0771  0.1467 -0.2257
  330TMC3    C1 4950   0.600   0.502   9.639  0.5098  0.6248  0.4524
  330TMC3    C2 4951   0.563   0.405   9.550  0.0157  0.1760 -0.2521
  330TMC3    C3 4952   0.642   0.304   9.524  0.9198 -0.9073 -0.4290
  330TMC3    C4 4953   0.715   0.487   9.709 -0.2140  0.1448  0.2243
  330TMC3    C5 4954   0.783   0.370   9.693  0.3706  0.3656  0.1270
  330TMC3    C6 4955   0.754   0.281   9.600 -0.3573 -0.0081  0.3407
  330TMC3     C 4956   0.498   0.586   9.702 -0.0533 -1.1807 -0.1461
  330TMC3     O 4957   0.542   0.669   9.782 -0.5015 -0.0286 -0.2754
  330TMC3     H 4958   0.469   0.419   9.498 -1.3239  1.0879  2.4104
  330TMC3    H1 4959   0.752   0.552   9.787  2.6470  0.2980 -1.2555
  330TMC3    H2 4960   0.817   0.198   9.569  2.0198  1.4212  1.3384
  330TMC3    C7 4961   0.889   0.335   9.786 -0.4080 -0.0466  0.1955
  330TMC3    C8 4962   0.595   0.210   9.425 -0.6052  0.7509 -0.4534
  330TMC3    O1 4963   0.930   0.430   9.856  0.6019  0.1298 -0.3963
  330TMC3    O2 4964   0.509   0.248   9.345  0.4684 -0.1989  0.3702
  331MPD2     C 4965   3.507   3.878  12.627 -0.2392 -0.3108  0.2435
  331MPD2    C1 4966   3.613   3.943  12.569 -0.2149 -0.1333  0.0040
  331MPD2    C2 4967   3.720   3.865  12.540 -0.3408  0.2095  0.2161
  331MPD2    C3 4968   3.719   3.731  12.572  0.8483 -0.2383 -0.5893
  331MPD2    C4 4969   3.626   3.671  12.647 -0.0183 -0.2056 -0.6242
  331MPD2    C5 4970   3.524   3.752  12.681  0.1982 -0.5021 -0.2875
  331MPD2     H 4971   3.800   3.909  12.482 -1.0284  0.0685 -0.8425
  331MPD2    H1 4972   3.623   3.571  12.689  0.0323 -0.1414 -0.4686
  331MPD2    H2 4973   3.428   3.940  12.669  1.1395  0.5751  1.5317
  331MPD2    H3 4974   3.445   3.722  12.750  0.2428  1.4649  0.6182
  331MPD2     N 4975   3.830   3.655  12.526  0.0966  0.2395  0.0142
  331MPD2    H5 4976   3.907   3.710  12.491  1.0324 -0.2207  1.3646
  331MPD2    N1 4977   3.610   4.085  12.538  0.0825 -0.3685  0.4081
  331MPD2    H7 4978   3.520   4.125  12.515 -1.5230 -3.9129  0.5340
  332TMC3    C1 4979   3.980   3.473  12.495  0.6410 -0.2721  0.0674
  332TMC3    C2 4980   4.049   3.535  12.392  0.8150 -0.4015  1.0753
  332TMC3    C3 4981   4.166   3.480  12.351 -0.1125 -0.8725  0.4887
  332TMC3    C4 4982   4.017   3.357  12.554  0.7111 -0.4172 -0.1827
  332TMC3    C5 4983   4.140   3.312  12.517 -1.1660  0.4577 -0.6673
  332TMC3    C6 4984   4.212   3.368  12.412 -0.8066 -0.0875  0.1406
  332TMC3     C 4985   3.853   3.517  12.538 -0.0202  0.2496  0.6982
  332TMC3     O 4986   3.767   3.431  12.563 -0.0990 -0.5387 -0.5911
  332TMC3     H 4987   4.007   3.619  12.336 -1.1249 -0.0963  2.9888
  332TMC3    H1 4988   3.959   3.322  12.639  0.0493 -0.5466 -0.6797
  332TMC3    H2 4989   4.312   3.328  12.397 -1.1323 -0.5274 -0.8764
  332TMC3    C7 4990   4.217   3.228  12.601  0.7081  0.8562 -0.1719
  332TMC3    C8 4991   4.245   3.537  12.245 -0.3232 -0.6211  0.0754
  332TMC3    O1 4992   4.154   3.138  12.663  0.4260  0.0874  0.6638
  332TMC3    O2 4993   4.221   3.658  12.225 -0.3235  0.5802  0.0134
  333MPD2     C 4994   4.273   3.936  11.267  1.2658  0.2237  0.8478
  333MPD2    C1 4995   4.321   3.824  11.212  0.3404  0.4204  0.5444
  333MPD2    C2 4996   4.244   3.712  11.209  0.7306  0.0758 -0.1558
  333MPD2    C3 4997   4.111   3.719  11.260 -0.3765  0.0797  0.2183
  333MPD2    C4 4998   4.067   3.840  11.316 -0.2405 -0.8240 -0.1712
  333MPD2    C5 4999   4.145   3.943  11.322 -0.2446  0.2018 -0.1773
  333MPD2     H 5000   4.278   3.619  11.165 -1.0606  0.3999 -2.2651
  333MPD2    H1 5001   3.963   3.856  11.339 -0.2657 -1.2172 -0.0094
  333MPD2    H2 5002   4.324   4.032  11.262 -0.0042  0.9677  1.9846
  333MPD2    H3 5003   4.102   4.039  11.350  0.5812 -0.2688  2.6921
  333MPD2     N 5004   4.021   3.605  11.257 -0.1172  0.0317  0.4003
  333MPD2    H5 5005   4.057   3.519  11.217 -0.5929  0.4709 -0.9833
  333MPD2    N1 5006   4.452   3.832  11.160  0.1856  0.2768  0.2307
  333MPD2    H7 5007   4.491   3.926  11.162  1.7119 -0.3075 -2.2520
  334TMC3    C1 5008   4.668   3.781  11.058 -0.3791 -0.0305  0.1075
  334TMC3    C2 5009   0.038   3.678  11.032  0.7445  0.0885  0.2966
  334TMC3    C3 5010   0.170   3.712  11.055  0.1359  0.0223 -0.7052
  334TMC3    C4 5011   4.707   3.908  11.076  0.2928 -0.0114  0.8170
  334TMC3    C5 5012   0.114   3.933  11.105 -0.0568 -0.3703 -0.3699
  334TMC3    C6 5013   0.213   3.841  11.086 -0.4170  0.1435  0.3137
  334TMC3     C 5014   4.534   3.734  11.105  0.0049 -0.6196 -0.3769
  334TMC3     O 5015   4.510   3.618  11.103  0.4224  0.2720 -0.6458
  334TMC3     H 5016   0.001   3.583  10.997  0.3310  1.1767 -2.1669
  334TMC3    H1 5017   4.634   3.986  11.091  1.0486  0.2678  3.0435
  334TMC3    H2 5018   0.318   3.866  11.097 -0.2856  0.7431 -2.2212
  334TMC3    C7 5019   0.157   4.071  11.106  0.4647 -0.8155 -0.0284
  334TMC3    C8 5020   0.254   3.626  10.968 -0.2254  0.2315  0.3465
  334TMC3    O1 5021   0.234   4.112  11.189  0.1852 -0.0853 -0.3710
  334TMC3    O2 5022   0.229   3.507  10.941  0.5225  0.3681  0.5678
  335TMC3    C1 5023   3.536   0.514  17.657  0.1188 -0.5479 -0.2535
  335TMC3    C2 5024   3.442   0.502  17.567 -0.2915  0.8175  0.0767
  335TMC3    C3 5025   3.485   0.507  17.438 -0.4725  0.6394 -0.7310
  335TMC3    C4 5026   3.661   0.558  17.631 -0.3308  0.0516 -0.3964
  335TMC3    C5 5027   3.695   0.581  17.505 -0.8738 -0.3028 -0.3376
  335TMC3    C6 5028   3.608   0.545  17.405  0.8993  0.4311  0.2824
  335TMC3     C 5029   3.495   0.498   0.100  0.6219  0.4974  0.1327
  335TMC3     O 5030   3.376   0.497   0.121  0.0058  0.2572  0.1261
  335TMC3     H 5031   3.341   0.475  17.596  0.5440 -2.0526  0.2717
  335TMC3    H1 5032   3.737   0.576   0.010 -0.5083  1.2482 -0.5056
  335TMC3    H2 5033   3.631   0.554  17.299 -0.9969 -4.0049 -0.4756
  335TMC3    C7 5034   3.825   0.635  17.473 -0.0861  0.8193 -0.0811
  335TMC3    C8 5035   3.390   0.480  17.331 -0.5279 -0.3634  0.2614
  335TMC3    O1 5036   3.860   0.612  17.358 -0.4048  0.0677  0.5282
  335TMC3    O2 5037   3.390   0.556  17.237  0.3078 -0.6689 -0.3498
  336MPD2     C 5038   3.093   3.344  16.268 -0.8122 -0.6231  0.0205
  336MPD2    C1 5039   3.068   3.308  16.134  0.2100  0.1882  0.6517
  336MPD2    C2 5040   3.142   3.205  16.082 -0.0246 -0.1822  0.1571
  336MPD2    C3 5041   3.232   3.123  16.158 -0.2957 -0.2793 -0.5730
  336MPD2    C4 5042   3.250   3.155  16.292 -0.7676  0.3447  0.1685
  336MPD2    C5 5043   3.187   3.266  16.339 -0.5302 -0.2165 -0.0956
  336MPD2     H 5044   3.123   3.168  15.982 -1.8490  0.3520  0.3130
  336MPD2    H1 5045   3.307   3.104  16.369 -0.8027  3.0148  1.9739
  336MPD2    H2 5046   3.053   3.434  16.313  0.5303 -0.5417  1.0588
  336MPD2    H3 5047   3.221   3.314  16.430  2.2277 -0.0438 -1.2340
  336MPD2     N 5048   3.291   3.007  16.106 -0.2355 -0.3969  0.8175
  336MPD2    H5 5049   3.329   2.938  16.170  0.8487  1.4622  2.1756
  336MPD2    N1 5050   2.973   3.384  16.058 -0.0967  0.2846 -0.4654
  336MPD2    H7 5051   2.938   3.460  16.114 -1.0581  0.4931 -1.3444
  337TMC3    C1 5052   2.841   3.439  15.860 -0.1841 -0.4634  0.1743
  337TMC3    C2 5053   2.734   3.392  15.786  0.5840  1.0106  0.3092
  337TMC3    C3 5054   2.662   3.483  15.716  0.1995 -0.3456 -0.1305
  337TMC3    C4 5055   2.882   3.571  15.843  0.9296  0.0565 -0.2893
  337TMC3    C5 5056   2.798   3.667  15.786  0.0985 -0.4038 -0.1930
  337TMC3    C6 5057   2.690   3.622  15.719  0.1357 -0.6185  0.4646
  337TMC3     C 5058   2.930   3.351  15.928 -0.4631  0.0033  0.9052
  337TMC3     O 5059   2.951   3.247  15.866  0.0447 -0.3896  0.5433
  337TMC3     H 5060   2.706   3.287  15.789  0.8360  0.8782 -1.6568
  337TMC3    H1 5061   2.972   3.604  15.894 -0.4977 -0.3155  2.4474
  337TMC3    H2 5062   2.609   3.680  15.677 -0.7624 -2.4696 -0.3513
  337TMC3    C7 5063   2.769   3.779  15.870 -0.2319  0.0577 -0.3407
  337TMC3    C8 5064   2.522   3.450  15.714 -0.1427  0.1531 -0.4950
  337TMC3    O1 5065   2.816   3.771  15.983 -0.0754  0.0723 -0.2219
  337TMC3    O2 5066   2.475   3.389  15.809  0.5985 -0.6216  0.3088
  338MPD2     C 5067   2.806   3.127   0.623  0.4383 -0.2822  0.8257
  338MPD2    C1 5068   2.871   3.074   0.517 -0.8346  0.5961  0.5565
  338MPD2    C2 5069   2.799   2.998   0.424  0.5966  0.3450 -0.4894
  338MPD2    C3 5070   2.665   2.972   0.451  0.5185 -0.7508  0.9399
  338MPD2    C4 5071   2.598   3.031   0.557  0.1877 -0.1288 -0.7907
  338MPD2    C5 5072   2.669   3.112   0.638  0.4550  0.5865 -0.1067
  338MPD2     H 5073   2.845   2.951   0.338 -1.0044  0.5363 -1.4354
  338MPD2    H1 5074   2.492   3.026   0.578  0.3245  0.2073 -0.0041
  338MPD2    H2 5075   2.853   3.186   0.702  0.3384  1.0204 -0.0913
  338MPD2    H3 5076   2.613   3.164   0.715 -2.0002 -1.1174 -0.7335
  338MPD2     N 5077   2.601   2.879   0.363  1.0311  0.0528 -0.7207
  338MPD2    H5 5078   2.661   2.832   0.296  0.6829  0.1549 -1.1054
  338MPD2    N1 5079   3.009   3.078   0.502  0.2587  0.4925  0.4639
  338MPD2    H7 5080   3.048   3.031   0.421 -0.1296  0.8264  0.0852
  339TMC3    C1 5081   2.447   2.730   0.281 -0.8070 -1.0485 -0.2112
  339TMC3    C2 5082   2.377   2.625   0.325 -0.1049 -0.3329  0.2821
  339TMC3    C3 5083   2.368   2.512   0.245 -0.1700  0.3374 -0.0724
  339TMC3    C4 5084   2.495   2.741   0.154 -0.7024 -0.5924  0.7901
  339TMC3    C5 5085   2.497   2.627   0.075  0.4754  0.7859 -0.2303
  339TMC3    C6 5086   2.432   2.511   0.123  0.4529  0.7541 -0.0623
  339TMC3     C 5087   2.468   2.838   0.380 -0.0967 -0.2809  0.1868
  339TMC3     O 5088   2.380   2.872   0.455  0.0951 -0.1249 -0.0590
  339TMC3     H 5089   2.344   2.617   0.428 -1.9752  1.9479 -0.1576
  339TMC3    H1 5090   2.515   2.839   0.112  0.5311 -1.4535 -0.6102
  339TMC3    H2 5091   2.435   2.422   0.061  1.8513  0.9412 -0.2562
  339TMC3    C7 5092   2.593   2.627  17.657  0.0998 -0.4105  0.1713
  339TMC3    C8 5093   2.353   2.376   0.296 -0.1059 -0.6741  0.0576
  339TMC3    O1 5094   2.574   2.546  17.566  0.1772 -0.2441  0.3293
  339TMC3    O2 5095   2.424   2.286   0.241 -0.1883  0.4877 -0.6123
  340MPD2     C 5096   3.599   4.454  10.407  0.6117  0.2636  0.1637
  340MPD2    C1 5097   3.722   4.408  10.374 -0.1542 -0.1741 -0.2387
  340MPD2    C2 5098   3.826   4.499  10.354 -0.5287 -0.0608  0.0329
  340MPD2    C3 5099   3.810   4.630  10.379  0.2459  0.3503 -0.0600
  340MPD2    C4 5100   3.685   4.679  10.413  0.1830  0.0511  0.0227
  340MPD2    C5 5101   3.582   4.589  10.430 -0.1795  0.5806  0.1862
  340MPD2     H 5102   3.926   4.470  10.326 -0.2737  0.6165  0.2371
  340MPD2    H1 5103   3.665   0.060  10.432  0.6396 -0.1797  1.8330
  340MPD2    H2 5104   3.521   4.382  10.428 -0.0739  1.1762  0.7292
  340MPD2    H3 5105   3.480   4.618  10.452 -0.8406 -1.2732 -0.4177
  340MPD2     N 5106   3.925   4.709  10.347 -0.2966 -0.3238 -0.4333
  340MPD2    H5 5107   4.015   4.670  10.320 -0.3029 -0.6497  0.0254
  340MPD2    N1 5108   3.736   4.269  10.361  0.6197 -0.3778  0.3580
  340MPD2    H7 5109   3.654   4.213  10.379  1.5041 -2.2186 -1.4218
  341TMC3    C1 5110   3.841   4.063  10.291 -0.3232  0.3479 -0.0119
  341TMC3    C2 5111   3.719   4.004  10.310 -0.3596 -0.1385 -0.6927
  341TMC3    C3 5112   3.709   3.878  10.273  0.9302  0.0538  0.2069
  341TMC3    C4 5113   3.937   4.008  10.213  0.8187  0.4322 -0.1646
  341TMC3    C5 5114   3.908   3.887  10.161  0.0060  0.0025  0.2039
  341TMC3    C6 5115   3.794   3.818  10.187 -0.5299  0.7410  0.0663
  341TMC3     C 5116   3.849   4.207  10.305 -0.3123 -0.0640  0.9121
  341TMC3     O 5117   3.955   4.253  10.265 -0.7134 -0.1741  0.0188
  341TMC3     H 5118   3.652   4.033  10.390  0.0996  0.3806 -0.5000
  341TMC3    H1 5119   4.026   4.060  10.177  1.5083 -2.1814 -2.2388
  341TMC3    H2 5120   3.777   3.718  10.148  0.9993  1.0243 -1.3414
  341TMC3    C7 5121   4.008   3.832  10.072  0.0282  0.0563  0.5885
  341TMC3    C8 5122   3.588   3.807  10.304  0.2968  0.4702  0.2535
  341TMC3    O1 5123   4.126   3.863  10.086 -0.4958 -0.0884  0.5470
  341TMC3    O2 5124   3.482   3.874  10.308 -0.1543  0.1666 -0.4733
  342MPD2     C 5125   1.415   3.542  16.687  0.3867 -0.1225 -0.4082
  342MPD2    C1 5126   1.396   3.506  16.817 -0.0536  0.2661  0.0382
  342MPD2    C2 5127   1.348   3.608  16.903 -0.2659 -0.3352  0.1371
  342MPD2    C3 5128   1.314   3.739  16.861 -0.0013  0.3322 -0.2764
  342MPD2    C4 5129   1.333   3.769  16.729 -0.4698 -0.7622 -0.0395
  342MPD2    C5 5130   1.384   3.669  16.649  0.3234 -0.6561 -0.0991
  342MPD2     H 5131   1.340   3.590  17.010 -0.6496  0.2028  0.1983
  342MPD2    H1 5132   1.317   3.869  16.689  0.8656 -0.2591  0.6682
  342MPD2    H2 5133   1.458   3.476  16.612  0.6864  1.0896 -1.2998
  342MPD2    H3 5134   1.412   3.697  16.548  1.7152  1.6530  0.9299
  342MPD2     N 5135   1.281   3.852  16.944 -0.3485  0.6123 -0.9393
  342MPD2    H5 5136   1.285   3.938  16.890  4.9758 -0.1183 -1.7202
  342MPD2    N1 5137   1.422   3.375  16.872  0.1683  0.3567  0.6339
  342MPD2    H7 5138   1.397   3.363  16.970 -0.6023  2.2042  0.6512
  343TMC3    C1 5139   1.488   3.145  16.870  0.2729 -0.0145  0.6068
  343TMC3    C2 5140   1.608   3.088  16.858  0.6955  0.3218 -1.1411
  343TMC3    C3 5141   1.645   2.979  16.933 -0.5673 -0.3586 -0.3575
  343TMC3    C4 5142   1.403   3.120  16.974  0.2628 -1.2754  0.9240
  343TMC3    C5 5143   1.443   3.018  17.048  0.2146  0.3752  0.0370
  343TMC3    C6 5144   1.553   2.942  17.027  0.1800  0.8578  0.2467
  343TMC3     C 5145   1.482   3.274  16.801 -0.2899  0.9281  0.7055
  343TMC3     O 5146   1.544   3.289  16.694 -0.2435 -0.2011  0.3664
  343TMC3     H 5147   1.681   3.130  16.789  1.9543  0.7314  0.4558
  343TMC3    H1 5148   1.314   3.177  16.996 -0.0179 -1.1142 -0.6617
  343TMC3    H2 5149   1.572   2.858  17.092 -0.9639  0.8204  0.5190
  343TMC3    C7 5150   1.334   2.956  17.129 -0.2390  0.0242 -0.5986
  343TMC3    C8 5151   1.774   2.993  16.980 -0.1966 -0.1547 -0.2737
  343TMC3    O1 5152   1.217   2.993  17.115  0.2729  0.3594 -0.1496
  343TMC3    O2 5153   1.785   3.019  17.099 -0.5830  0.0313 -0.6099
  344MPD2     C 5154   2.861   3.011  10.815 -0.6967 -0.2560 -0.3034
  344MPD2    C1 5155   2.976   3.061  10.869  0.0987 -0.1822  0.3176
  344MPD2    C2 5156   3.038   3.171  10.820  0.5141 -0.8199 -0.2759
  344MPD2    C3 5157   2.990   3.234  10.708 -0.4718  0.6618 -0.3869
  344MPD2    C4 5158   2.873   3.185  10.652  0.3103 -0.0381 -0.9096
  344MPD2    C5 5159   2.807   3.077  10.708  0.0077  0.0201 -0.0375
  344MPD2     H 5160   3.131   3.203  10.866 -0.7839  2.3964  0.0782
  344MPD2    H1 5161   2.834   3.224  10.558 -0.2848  0.2560 -0.5449
  344MPD2    H2 5162   2.827   2.911  10.841  4.2288 -1.7764  0.3787
  344MPD2    H3 5163   2.729   3.027  10.650  0.9374 -0.8913 -0.5055
  344MPD2     N 5164   3.051   3.342  10.651 -0.1657 -0.0391 -0.0481
  344MPD2    H5 5165   3.001   3.382  10.572 -1.4314 -2.3485 -0.4278
  344MPD2    N1 5166   3.041   2.999  10.979  0.4850 -0.0983 -0.7480
  344MPD2    H7 5167   3.141   3.013  10.987  0.3813  0.5454 -0.5638
  345TMC3    C1 5168   3.185   3.527  10.605 -0.0836  0.6428  0.2565
  345TMC3    C2 5169   3.296   3.599  10.635 -0.7170 -0.5844  0.5205
  345TMC3    C3 5170   3.295   3.728  10.590 -0.5358 -0.6560  0.1624
  345TMC3    C4 5171   3.080   3.578  10.533 -0.1069 -0.4091  0.0032
  345TMC3    C5 5172   3.078   3.713  10.495 -0.9933  0.0623 -0.4669
  345TMC3    C6 5173   3.181   3.788  10.534  0.5297 -0.8207 -0.2416
  345TMC3     C 5174   3.168   3.408  10.686  0.6325  0.5776  0.5393
  345TMC3     O 5175   3.251   3.371  10.769 -0.4662 -0.8005 -0.7070
  345TMC3     H 5176   3.367   3.552  10.702  0.1570 -0.2660 -0.1739
  345TMC3    H1 5177   3.001   3.522  10.485 -1.2730  1.6782 -0.5068
  345TMC3    H2 5178   3.195   3.889  10.498  0.8047 -0.3845  1.1030
  345TMC3    C7 5179   2.996   3.750  10.379  0.2057  0.2047  0.5581
  345TMC3    C8 5180   3.407   3.821  10.623  0.0598  0.3252  0.0114
  345TMC3    O1 5181   3.041   3.846  10.316 -0.5165 -0.6148  0.3782
  345TMC3    O2 5182   3.392   3.939  10.588 -0.6479 -0.7135 -0.2320
  346MPD2     C 5183   2.547   4.638  13.883 -0.2881  0.1074 -0.6949
  346MPD2    C1 5184   2.656   4.714  13.922 -0.5914 -0.1704 -0.0149
  346MPD2    C2 5185   2.646   0.064  14.036  0.1755  0.0448 -0.3120
  346MPD2    C3 5186   2.533   0.073  14.107  1.0597  0.6750 -0.5536
  346MPD2    C4 5187   2.418   0.008  14.062 -0.2127 -0.3716 -0.9581
  346MPD2    C5 5188   2.430   4.648  13.949  0.2904  0.5773  0.2131
  346MPD2     H 5189   2.725   0.127  14.075  1.5527 -2.2976  0.6630
  346MPD2    H1 5190   2.322   0.006  14.111 -1.2864  1.6200 -2.9661
  346MPD2    H2 5191   2.565   4.572  13.798  1.1380  1.3301 -1.3432
  346MPD2    H3 5192   2.359   4.572  13.917  1.2780 -0.2946  0.0938
  346MPD2     N 5193   2.534   0.169  14.218  0.1915  0.1903 -0.0421
  346MPD2    H5 5194   2.619   0.222  14.232  0.7421 -0.6315 -0.2418
  346MPD2    N1 5195   2.774   0.002  13.849 -0.0922 -0.3011 -0.0381
  346MPD2    H7 5196   2.837   0.070  13.891  0.3882 -1.1180  0.5599
  347TMC3    C1 5197   2.482   0.273  14.424 -0.3382  0.2264 -0.2553
  347TMC3    C2 5198   2.615   0.292  14.436  0.3604 -0.0829  0.4129
  347TMC3    C3 5199   2.669   0.418  14.480  0.2654 -0.1039 -0.2361
  347TMC3    C4 5200   2.394   0.372  14.448  0.0270  0.2535  0.3569
  347TMC3    C5 5201   2.450   0.492  14.492  0.7728  0.2039 -0.7080
  347TMC3    C6 5202   2.580   0.516  14.500 -0.0017 -0.5254  0.1450
  347TMC3     C 5203   2.443   0.185  14.316 -0.7533 -0.2406  0.3736
  347TMC3     O 5204   2.336   0.131  14.325 -0.1957 -0.2192  0.1814
  347TMC3     H 5205   2.682   0.212  14.407 -1.5751 -2.2497  1.8976
  347TMC3    H1 5206   2.287   0.353  14.449  0.0426  0.0172 -1.3632
  347TMC3    H2 5207   2.607   0.619  14.520  1.9074 -0.5942 -2.0450
  347TMC3    C7 5208   2.356   0.595  14.548  0.0118 -0.2672  0.4296
  347TMC3    C8 5209   2.819   0.431  14.491  0.2460  0.2238 -0.8866
  347TMC3    O1 5210   2.404   0.700  14.584  0.0020  0.3628 -0.0251
  347TMC3    O2 5211   2.880   0.324  14.503  0.1614 -0.0230  0.1318
  348MPD2     C 5212   1.489   4.678  12.177  0.3737  0.7697  0.4148
  348MPD2    C1 5213   1.608   4.697  12.098  0.1112 -0.3087  0.6513
  348MPD2    C2 5214   1.590   0.020  11.967  0.2995  0.1310  1.1560
  348MPD2    C3 5215   1.470   0.068  11.921 -0.0178 -0.3962 -0.4066
  348MPD2    C4 5216   1.356   0.050  12.007  0.1172  0.1512  0.6411
  348MPD2    C5 5217   1.370   4.710  12.128  0.3721  0.5992 -0.9919
  348MPD2     H 5218   1.677   0.050  11.910 -2.7427  3.6564 -1.6777
  348MPD2    H1 5219   1.255   0.082  11.982  0.2678 -1.1745 -1.7551
  348MPD2    H2 5220   1.498   4.635  12.276  1.1094  3.0294  1.3313
  348MPD2    H3 5221   1.285   4.691  12.193  2.2405 -0.8646  1.0295
  348MPD2     N 5222   1.460   0.133  11.799 -0.1221  0.0112  0.2728
  348MPD2    H5 5223   1.548   0.151  11.750 -1.1462 -2.4097 -2.4250
  348MPD2    N1 5224   1.740   4.659  12.127  0.4677  0.3172 -0.1574
  348MPD2    H7 5225   1.811   4.682  12.058  1.3927 -0.2892  0.6108
  349TMC3    C1 5226   1.909   4.551  12.237 -0.0496  0.2813 -0.3671
  349TMC3    C2 5227   1.914   4.416  12.271 -0.5175 -0.0477 -0.1848
  349TMC3    C3 5228   1.937   4.324  12.177  0.5634 -0.2057  0.4807
  349TMC3    C4 5229   1.960   4.579  12.111  0.2185  0.3439  0.1639
  349TMC3    C5 5230   1.974   4.477  12.011  0.7047  0.1113  0.5364
  349TMC3    C6 5231   1.957   4.347  12.043  0.2171  0.1526  0.2124
  349TMC3     C 5232   1.774   4.589  12.237  0.3823  0.0822  0.1657
  349TMC3     O 5233   1.712   4.543  12.329 -0.5125 -0.0208 -0.1297
  349TMC3     H 5234   1.891   4.397  12.375 -0.5104 -1.4745 -0.4501
  349TMC3    H1 5235   1.976   4.684  12.087  3.7723  0.5738  3.6224
  349TMC3    H2 5236   1.980   4.265  11.975 -0.6885  0.4529 -0.4580
  349TMC3    C7 5237   1.933   4.520  11.876 -0.5508 -0.3569 -0.3782
  349TMC3    C8 5238   1.935   4.187  12.220  0.1879  0.5042  0.0107
  349TMC3    O1 5239   1.850   4.445  11.824  0.0088  0.0247  0.7940
  349TMC3    O2 5240   1.862   4.160  12.313 -0.3025 -0.4006 -0.1597
  350MPD2     C 5241   0.645   2.390  10.059 -0.1834  0.3350  0.5875
  350MPD2    C1 5242   0.698   2.268  10.091 -0.5490  0.1772  0.0847
  350MPD2    C2 5243   0.833   2.253  10.110  0.3388  0.0437 -0.3666
  350MPD2    C3 5244   0.914   2.363  10.106  0.0020  0.3447  0.0568
  350MPD2    C4 5245   0.863   2.490  10.081 -0.3412  0.0150 -0.3636
  350MPD2    C5 5246   0.729   2.500  10.062 -0.4051  1.1375 -0.3171
  350MPD2     H 5247   0.876   2.155  10.126  1.1390  0.6221  0.9917
  350MPD2    H1 5248   0.917   2.583  10.065  2.1910 -0.7944  3.5201
  350MPD2    H2 5249   0.539   2.404  10.041  0.2898  0.0365 -2.5242
  350MPD2    H3 5250   0.688   2.590  10.018 -0.5585  0.4337 -1.6167
  350MPD2     N 5251   1.045   2.338  10.142 -0.3023 -0.7607  0.5902
  350MPD2    H5 5252   1.066   2.239  10.156  0.6202 -0.6339  0.0970
  350MPD2    N1 5253   0.627   2.148  10.091 -0.6757  0.2174 -0.2763
  350MPD2    H7 5254   0.680   2.062  10.097 -0.9135 -0.1585 -3.9682
  351TMC3    C1 5255   0.453   1.996  10.050 -0.2219 -0.6946  0.2100
  351TMC3    C2 5256   0.536   1.916   9.980 -0.7888 -0.2651  0.5608
  351TMC3    C3 5257   0.492   1.790   9.944  0.4687  0.4126  0.8397
  351TMC3    C4 5258   0.322   1.958  10.069 -0.2904 -0.2253 -0.1193
  351TMC3    C5 5259   0.287   1.832  10.031  0.1861  0.1125  0.4003
  351TMC3    C6 5260   0.367   1.745   9.974 -0.1563  1.2292 -0.3371
  351TMC3     C 5261   0.490   2.142  10.069 -0.6620  0.2025  0.0066
  351TMC3     O 5262   0.406   2.224  10.076 -0.4927 -0.7151  0.3031
  351TMC3     H 5263   0.630   1.959   9.945 -1.4391  1.6695  1.2183
  351TMC3    H1 5264   0.254   2.019  10.128  0.0432 -0.5834  0.6342
  351TMC3    H2 5265   0.334   1.652   9.929  0.2092  1.3345 -0.8208
  351TMC3    C7 5266   0.163   1.773  10.079  0.6808 -0.2443 -0.5836
  351TMC3    C8 5267   0.574   1.689   9.878  0.1593  0.0760 -0.4230
  351TMC3    O1 5268   0.122   1.690  10.001  0.8661  0.0623 -0.3731
  351TMC3    O2 5269   0.518   1.587   9.839 -0.0513  0.1351 -0.0087
  352MPD2     C 5270   3.011   3.933   1.747 -0.1307 -0.2935 -0.2726
  352MPD2    C1 5271   3.061   3.833   1.671  0.7953  1.0422 -0.4093
  352MPD2    C2 5272   3.076   3.708   1.727 -0.2528  0.0840  0.6419
  352MPD2    C3 5273   3.040   3.676   1.850  0.7824 -0.0444  0.8490
  352MPD2    C4 5274   3.012   3.779   1.931  0.8435  0.0498  0.8488
  352MPD2    C5 5275   2.992   3.904   1.873  0.1547 -0.1169 -0.8238
  352MPD2     H 5276   3.122   3.629   1.668  1.0877  1.4686 -0.1511
  352MPD2    H1 5277   2.993   3.767   2.038  0.5255  0.7328  0.8686
  352MPD2    H2 5278   3.003   4.035   1.712  1.7998  0.8757  2.6949
  352MPD2    H3 5279   2.982   3.988   1.941  0.5289  1.3428 -2.5804
  352MPD2     N 5280   3.050   3.540   1.884 -0.3396  0.1930 -0.5462
  352MPD2    H5 5281   3.089   3.475   1.816  2.3586  0.5242  0.6956
  352MPD2    N1 5282   3.094   3.870   1.535 -0.0749 -0.1760  0.3574
  352MPD2    H7 5283   3.085   3.969   1.515 -0.4559  0.0027  1.3852
  353TMC3    C1 5284   3.015   3.348   2.002  0.0748  0.2934  0.8010
  353TMC3    C2 5285   3.135   3.280   2.032  0.1679  0.1044 -0.2301
  353TMC3    C3 5286   3.156   3.171   1.958 -0.6353 -1.2087 -0.6270
  353TMC3    C4 5287   2.915   3.303   1.917  1.2364  0.0474 -1.0965
  353TMC3    C5 5288   2.935   3.187   1.856  0.5458 -0.1697 -0.4570
  353TMC3    C6 5289   3.055   3.122   1.875  0.1859 -0.1030 -0.3677
  353TMC3     C 5290   3.007   3.493   2.005 -0.6019 -0.0675  0.3665
  353TMC3     O 5291   2.966   3.551   2.108 -0.2749 -0.5645 -0.0846
  353TMC3     H 5292   3.208   3.326   2.097  2.3616  0.8120 -3.2029
  353TMC3    H1 5293   2.831   3.371   1.905  0.7594 -0.2301  0.5754
  353TMC3    H2 5294   3.078   3.033   1.818  0.2070 -0.9263  0.9135
  353TMC3    C7 5295   2.874   3.183   1.727 -0.5049  0.1234  0.7023
  353TMC3    C8 5296   3.287   3.113   1.959 -0.7527  0.8795  0.2016
  353TMC3    O1 5297   2.806   3.280   1.696  0.5086 -0.9350 -0.2732
  353TMC3    O2 5298   3.351   3.127   2.064 -0.2877 -0.8406  0.1781
  354TMC3    C1 5299   1.072   0.842  12.990 -0.1021 -1.0222 -0.0026
  354TMC3    C2 5300   0.983   0.929  12.937  0.5038  0.1925  0.2580
  354TMC3    C3 5301   1.035   1.019  12.851 -0.0617  0.4149  0.6873
  354TMC3    C4 5302   1.206   0.843  12.971  0.0503  0.1273 -0.3933
  354TMC3    C5 5303   1.258   0.927  12.874 -0.3775 -0.3734  0.0819
  354TMC3    C6 5304   1.166   1.014  12.805  0.1876  1.1379  0.0907
  354TMC3     C 5305   1.019   0.781  13.117 -1.2289  0.2463 -0.0102
  354TMC3     O 5306   0.896   0.770  13.123  0.4137 -0.3389  0.1923
  354TMC3     H 5307   0.880   0.944  12.966 -0.3050 -1.4591 -1.7742
  354TMC3    H1 5308   1.273   0.766  13.007 -0.5344 -1.2303 -2.1528
  354TMC3    H2 5309   1.200   1.070  12.718 -1.9054 -1.5629 -2.4673
  354TMC3    C7 5310   1.395   0.915  12.828 -0.2513 -0.1561 -0.3430
  354TMC3    C8 5311   0.979   1.151  12.831 -0.1598 -0.2428  0.7067
  354TMC3    O1 5312   1.468   0.839  12.886  0.5948 -0.0302  0.2174
  354TMC3    O2 5313   1.038   1.223  12.755 -0.5302 -0.2670  0.4091
  355MPD2     C 5314   0.604   2.030  11.679 -0.5290 -0.2156 -0.4038
  355MPD2    C1 5315   0.703   2.056  11.593 -0.1927  0.2528 -0.1873
  355MPD2    C2 5316   0.835   2.070  11.644  0.2630 -0.0806  0.2080
  355MPD2    C3 5317   0.856   2.075  11.781  0.4349  0.2849 -0.3950
  355MPD2    C4 5318   0.749   2.061  11.865  0.1904  0.8319 -0.1290
  355MPD2    C5 5319   0.625   2.035  11.810  0.7779  0.6621 -0.1058
  355MPD2     H 5320   0.918   2.076  11.575 -0.9745  0.6717 -1.2429
  355MPD2    H1 5321   0.755   2.065  11.973  0.2092  1.4802 -0.1533
  355MPD2    H2 5322   0.503   2.011  11.647 -1.2857  0.5589  1.5160
  355MPD2    H3 5323   0.545   2.011  11.879 -0.0940  1.3917 -0.8515
  355MPD2     N 5324   0.989   2.098  11.830  0.2264 -0.8594 -0.0286
  355MPD2    H5 5325   0.997   2.118  11.929 -2.1887  0.1506 -0.0338
  355MPD2    N1 5326   0.661   2.046  11.455  0.0882  0.1304  0.1889
  355MPD2    H7 5327   0.574   1.997  11.436  1.3821 -2.3879  0.7256
  356TMC3    C1 5328   1.225   2.136  11.823  0.4646  0.2328  0.3590
  356TMC3    C2 5329   1.348   2.095  11.776 -0.2935 -0.0273  0.0914
  356TMC3    C3 5330   1.455   2.176  11.809 -0.3977  0.4064 -0.2662
  356TMC3    C4 5331   1.203   2.253  11.895 -0.0461 -0.8494 -0.6689
  356TMC3    C5 5332   1.310   2.338  11.923  0.4138 -0.7107  0.2764
  356TMC3    C6 5333   1.436   2.298  11.875  0.6097  0.4490  0.0450
  356TMC3     C 5334   1.103   2.079  11.756  0.4050 -0.4714 -1.1371
  356TMC3     O 5335   1.126   2.006  11.658 -0.2606 -0.2935 -0.4026
  356TMC3     H 5336   1.351   2.026  11.692 -0.6026 -2.4793  2.0973
  356TMC3    H1 5337   1.107   2.281  11.936 -0.1255  2.0322 -2.8403
  356TMC3    H2 5338   1.521   2.355  11.910 -2.0783  3.3359  1.8334
  356TMC3    C7 5339   1.286   2.437  12.029  0.4407  0.6363  0.2153
  356TMC3    C8 5340   1.575   2.162  11.725  0.3234 -0.1122  0.4472
  356TMC3    O1 5341   1.195   2.413  12.110 -0.1826 -0.6093 -0.9477
  356TMC3    O2 5342   1.600   2.055  11.672 -0.0211 -0.0287 -0.5616
  357MPD2     C 5343   4.532   1.532   1.839 -0.0457 -0.4976  0.4480
  357MPD2    C1 5344   4.593   1.543   1.717 -0.2751  0.2788 -0.4401
  357MPD2    C2 5345   4.562   1.648   1.640  0.6991 -0.5501  0.0973
  357MPD2    C3 5346   4.454   1.727   1.655  0.0701 -0.0949 -0.1590
  357MPD2    C4 5347   4.396   1.715   1.777 -0.4624  0.0333  1.0667
  357MPD2    C5 5348   4.426   1.616   1.866 -0.1881 -0.0228 -0.0521
  357MPD2     H 5349   4.621   1.659   1.550 -0.2568  0.8261 -0.3631
  357MPD2    H1 5350   4.314   1.783   1.799 -1.6784  0.0375 -3.2968
  357MPD2    H2 5351   4.546   1.446   1.903 -0.3222  0.7862  2.2362
  357MPD2    H3 5352   4.374   1.601   1.960  2.4660 -0.4202  1.3758
  357MPD2     N 5353   4.400   1.820   1.565 -0.1346  0.2612 -0.3268
  357MPD2    H5 5354   4.309   1.857   1.590 -0.1168  1.0153 -1.3848
  357MPD2    N1 5355   4.698   1.461   1.674  0.0392 -0.1061  0.2351
  357MPD2    H7 5356   0.021   1.487   1.587  0.2536 -0.8204  0.1411
  358TMC3    C1 5357   0.126   1.285   1.661 -0.3949  0.2903 -0.0997
  358TMC3    C2 5358   0.091   1.245   1.534  0.1272 -0.2895  0.3549
  358TMC3    C3 5359   0.163   1.167   1.450  0.4531 -0.3702 -0.2188
  358TMC3    C4 5360   0.242   1.232   1.715 -0.7250  0.1003 -0.0376
  358TMC3    C5 5361   0.321   1.150   1.633 -0.1937  0.3776 -0.3015
  358TMC3    C6 5362   0.279   1.117   1.503  0.7506  0.3497 -0.0919
  358TMC3     C 5363   0.037   1.365   1.746 -0.2756 -0.2682 -0.0590
  358TMC3     O 5364   0.028   1.340   1.866  0.1574 -0.2455  0.7181
  358TMC3     H 5365   4.722   1.286   1.497  1.2191  0.3961 -1.6423
  358TMC3    H1 5366   0.276   1.260   1.814  1.6403 -2.7655 -0.0366
  358TMC3    H2 5367   0.350   1.077   1.431  1.4591  1.3556  0.0594
  358TMC3    C7 5368   0.467   1.135   1.663 -0.7156 -1.0764  0.4200
  358TMC3    C8 5369   0.129   1.153   1.310  0.6272  0.1723  0.1299
  358TMC3    O1 5370   0.545   1.131   1.567 -0.0725 -0.0667  0.1625
  358TMC3    O2 5371   0.047   1.234   1.267  0.0148  0.4014 -0.7434
  359MPD2     C 5372   0.903   0.048  12.543 -0.2263 -0.3548  0.8292
  359MPD2    C1 5373   1.027   0.089  12.581  1.2524  0.5878  0.0955
  359MPD2    C2 5374   1.068   0.063  12.707  0.3498 -0.9208 -0.0562
  359MPD2    C3 5375   0.979   0.015  12.802 -0.4764  0.0126  0.6160
  359MPD2    C4 5376   0.848   4.704  12.760  0.6861  0.5833  0.1137
  359MPD2    C5 5377   0.810   4.714  12.631 -0.1222 -0.4811  0.2658
  359MPD2     H 5378   1.167   0.086  12.746  0.8668 -2.9915 -0.1085
  359MPD2    H1 5379   0.774   4.669  12.830 -0.8903 -0.2674 -1.9700
  359MPD2    H2 5380   0.873   0.055  12.439  1.5624  0.9011  0.4029
  359MPD2    H3 5381   0.708   4.699  12.595 -0.5997  1.9004  0.6667
  359MPD2     N 5382   1.014   0.012  12.940 -0.4122  0.6174  0.5336
  359MPD2    H5 5383   1.111   4.718  12.965 -0.1990 -1.1933 -1.5297
  359MPD2    N1 5384   1.120   0.160  12.503 -0.4197  0.2095 -0.4467
  359MPD2    H7 5385   1.210   0.170  12.549 -0.6509 -0.1269  0.0825
  360TMC3    C1 5386   1.212   0.262  12.304 -0.1381  0.1151  0.2518
  360TMC3    C2 5387   1.333   0.282  12.363  0.1793  0.4174 -0.2152
  360TMC3    C3 5388   1.429   0.339  12.282 -0.1540 -0.0495 -0.3006
  360TMC3    C4 5389   1.181   0.303  12.179 -0.3411 -0.2452  0.3601
  360TMC3    C5 5390   1.272   0.378  12.110 -0.2565 -0.2353  0.4715
  360TMC3    C6 5391   1.406   0.383  12.151 -0.0634  0.2407  0.1501
  360TMC3     C 5392   1.103   0.206  12.377 -0.0986  0.2561  0.6560
  360TMC3     O 5393   0.996   0.217  12.321  0.1845 -0.2967 -0.3737
  360TMC3     H 5394   1.360   0.235  12.457  0.6118 -0.4767 -0.7815
  360TMC3    H1 5395   1.089   0.265  12.136  0.2716 -2.9273  1.4257
  360TMC3    H2 5396   1.468   0.449  12.091 -1.3280  1.5738  0.2806
  360TMC3    C7 5397   1.247   0.419  11.971 -0.0718  0.1760 -0.0436
  360TMC3    C8 5398   1.568   0.307  12.316  0.0346 -0.2013  0.3445
  360TMC3    O1 5399   1.345   0.459  11.907  0.8836  0.1800  0.4038
  360TMC3    O2 5400   1.587   0.254  12.422 -0.0690 -0.2317  0.3589
  361MPD2     C 5401   1.968   3.694  16.688 -0.3076  0.5042 -0.6788
  361MPD2    C1 5402   2.001   3.787  16.784  0.5882 -0.0632  0.1329
  361MPD2    C2 5403   2.133   3.781  16.829 -0.1159 -0.5234  0.6169
  361MPD2    C3 5404   2.219   3.679  16.793  0.2573 -0.7282  0.7898
  361MPD2    C4 5405   2.180   3.585  16.699  0.3775 -0.6096 -0.8530
  361MPD2    C5 5406   2.052   3.595  16.652 -0.0024 -0.1559 -0.2039
  361MPD2     H 5407   2.165   3.851  16.905  1.0408 -1.8231  1.3222
  361MPD2    H1 5408   2.247   3.506  16.665 -0.5397 -2.2102  1.0875
  361MPD2    H2 5409   1.870   3.694  16.641 -1.1069 -1.9296  0.9748
  361MPD2    H3 5410   2.027   3.515  16.583 -2.9634  2.0546 -1.6657
  361MPD2     N 5411   2.349   3.669  16.851  0.1785 -0.0350  0.5490
  361MPD2    H5 5412   2.393   3.582  16.823 -0.8025 -0.2356 -0.3676
  361MPD2    N1 5413   1.915   3.889  16.832  0.2354 -0.3217 -0.2833
  361MPD2    H7 5414   1.954   3.954  16.899  0.2815 -1.0064  0.3471
  362TMC3    C1 5415   1.742   4.034  16.849 -0.5816  0.0045 -0.2433
  362TMC3    C2 5416   1.608   4.043  16.852  0.6027  0.1144 -0.4138
  362TMC3    C3 5417   1.552   4.167  16.830  0.3855  0.0229 -0.4437
  362TMC3    C4 5418   1.824   4.145  16.838 -0.5624 -0.0659  0.3039
  362TMC3    C5 5419   1.765   4.267  16.839  0.5401  0.6331 -0.5355
  362TMC3    C6 5420   1.627   4.279  16.830  0.0235  0.2811 -0.3039
  362TMC3     C 5421   1.788   3.909  16.796  0.3393 -0.4684  0.4441
  362TMC3     O 5422   1.712   3.827  16.755  0.2952 -0.0603  0.2637
  362TMC3     H 5423   1.547   3.954  16.839  0.3528  0.3273 -0.7131
  362TMC3    H1 5424   1.932   4.135  16.840 -0.6031  0.0204  2.8853
  362TMC3    H2 5425   1.571   4.371  16.831 -0.8695 -0.2991  1.4504
  362TMC3    C7 5426   1.834   4.388  16.817 -0.2888  0.6708  0.4663
  362TMC3    C8 5427   1.410   4.178  16.829  0.8263 -0.4438  0.3190
  362TMC3    O1 5428   1.765   4.486  16.812  0.1064  0.1547 -0.2161
  362TMC3    O2 5429   1.356   4.074  16.809 -0.1163 -0.2950  0.1800
  363TMC3    C1 5430   0.904   1.728   9.313 -0.5201  0.3308  0.9490
  363TMC3    C2 5431   1.025   1.690   9.379  0.1827  0.6642  0.5984
  363TMC3    C3 5432   1.097   1.794   9.433 -0.0843 -0.1583  0.4445
  363TMC3    C4 5433   0.867   1.861   9.305 -0.3648  0.2043  0.3456
  363TMC3    C5 5434   0.958   1.958   9.348 -0.0993 -0.2494 -0.7374
  363TMC3    C6 5435   1.073   1.927   9.417 -0.7297  0.3988 -0.2510
  363TMC3     C 5436   0.832   1.626   9.241 -0.5937  0.6634  0.1882
  363TMC3     O 5437   0.715   1.655   9.231  0.2195 -0.2582  0.1470
  363TMC3     H 5438   1.035   1.589   9.417  0.3992  1.1087  1.7325
  363TMC3    H1 5439   0.777   1.887   9.251 -0.6379 -0.1649  0.6251
  363TMC3    H2 5440   1.152   2.000   9.428 -0.3935  0.0818 -0.5840
  363TMC3    C7 5441   0.900   2.092   9.355 -0.0555  0.1027 -0.0331
  363TMC3    C8 5442   1.214   1.766   9.523  0.4260 -0.6762 -0.3693
  363TMC3    O1 5443   0.794   2.108   9.296 -0.5767 -0.1112  0.7515
  363TMC3    O2 5444   1.256   1.858   9.591  0.0505 -0.4418  0.3008
  364MPD2     C 5445   0.087   0.978  10.115 -0.0520  0.0336 -0.1972
  364MPD2    C1 5446   0.127   1.048  10.230 -0.2662 -0.0659  0.0085
  364MPD2    C2 5447   0.163   0.976  10.341  0.9629  0.8250 -0.5067
  364MPD2    C3 5448   0.140   0.839  10.350  0.7602  0.4441 -0.2524
  364MPD2    C4 5449   0.104   0.774  10.231  0.2605  0.0899 -0.5376
  364MPD2    C5 5450   0.076   0.845  10.117  0.6849  0.4161  0.2852
  364MPD2     H 5451   0.209   1.024  10.427 -0.0168  0.9013 -0.0320
  364MPD2    H1 5452   0.079   0.669  10.222 -0.3819 -0.0051  2.3766
  364MPD2    H2 5453   0.060   1.023  10.021  0.0452  0.8991  0.1875
  364MPD2    H3 5454   0.036   0.793  10.030 -0.8281 -1.1921  1.9452
  364MPD2     N 5455   0.174   0.767  10.463  0.9463  0.4629 -0.5120
  364MPD2    H5 5456   0.222   0.808  10.543 -1.8280  2.4920  0.1100
  364MPD2    N1 5457   0.125   1.184  10.231 -0.1980 -0.2737 -0.1108
  364MPD2    H7 5458   0.108   1.233  10.144 -0.8252 -3.8767 -2.0169
  365TMC3    C1 5459   0.160   1.399  10.324 -0.8356  0.4292  0.0540
  365TMC3    C2 5460   0.219   1.423  10.203 -0.1655 -0.0545  0.5103
  365TMC3    C3 5461   0.326   1.509  10.204  0.0195 -0.9020  0.5063
  365TMC3    C4 5462   0.195   1.468  10.441  0.3055  0.0252 -0.4355
  365TMC3    C5 5463   0.292   1.567  10.428  0.0033 -0.0264 -0.3102
  365TMC3    C6 5464   0.369   1.583  10.318 -0.0792 -0.0635  0.4654
  365TMC3     C 5465   0.116   1.262  10.345  0.8108 -0.4214  0.4189
  365TMC3     O 5466   0.092   1.230  10.460  0.4147 -0.6141 -0.4420
  365TMC3     H 5467   0.179   1.387  10.109 -0.5549  3.6981 -0.7775
  365TMC3    H1 5468   0.123   1.457  10.522  0.4073 -0.0757 -0.3576
  365TMC3    H2 5469   0.457   1.644  10.304  1.6849 -2.0026  3.0079
  365TMC3    C7 5470   0.290   1.674  10.526 -0.3960 -0.1806 -0.0449
  365TMC3    C8 5471   0.445   1.437  10.159  0.7280  0.2668  0.0240
  365TMC3    O1 5472   0.354   1.779  10.504  0.0048  0.1439 -0.0703
  365TMC3    O2 5473   0.538   1.509  10.126 -0.3050  0.5878 -0.0335
  366MPD2     C 5474   2.646   2.174  15.274  0.7000  0.4200 -0.3675
  366MPD2    C1 5475   2.725   2.283  15.260 -0.8965  0.6254  0.5021
  366MPD2    C2 5476   2.848   2.248  15.210 -0.9022 -0.1040  0.0776
  366MPD2    C3 5477   2.889   2.123  15.181 -1.1026 -0.0452 -0.3367
  366MPD2    C4 5478   2.797   2.015  15.191 -0.4229 -0.4195  0.9675
  366MPD2    C5 5479   2.677   2.045  15.237  0.1619 -0.8563  0.1527
  366MPD2     H 5480   2.912   2.334  15.191  0.3189 -0.8138  0.9995
  366MPD2    H1 5481   2.817   1.913  15.160  0.8907  0.6503 -1.7131
  366MPD2    H2 5482   2.545   2.185  15.313  1.0249 -0.3412  0.6741
  366MPD2    H3 5483   2.599   1.971  15.251 -0.4503 -0.2932 -0.2350
  366MPD2     N 5484   3.012   2.110  15.124  0.0079  0.5902  0.4963
  366MPD2    H5 5485   3.054   2.202  15.113  0.3341  0.2156 -1.3224
  366MPD2    N1 5486   2.690   2.420  15.286  0.1584  0.4264 -0.0187
  366MPD2    H7 5487   2.771   2.479  15.296  0.1795  0.0620  1.9957
  367TMC3    C1 5488   2.574   2.619  15.312  0.4726  0.3625 -0.0760
  367TMC3    C2 5489   2.690   2.667  15.356  0.0872 -0.1780  0.1866
  367TMC3    C3 5490   2.722   2.791  15.319 -0.5742  0.2596  0.1445
  367TMC3    C4 5491   2.492   2.680  15.226 -0.0468  0.0001  0.3222
  367TMC3    C5 5492   2.536   2.804  15.194  0.8670  0.6393 -0.1540
  367TMC3    C6 5493   2.641   2.870  15.242 -0.0600 -0.5028 -0.4661
  367TMC3     C 5494   2.568   2.476  15.301 -0.2387  0.5148  0.4055
  367TMC3     O 5495   2.457   2.422  15.308 -0.4264  0.3580 -0.2312
  367TMC3     H 5496   2.760   2.631  15.430  1.7083 -2.1070 -2.3239
  367TMC3    H1 5497   2.395   2.638  15.200  0.4086 -1.8237  1.5243
  367TMC3    H2 5498   2.675   2.961  15.194 -0.6707 -0.6466 -1.1687
  367TMC3    C7 5499   2.456   2.889  15.109 -0.8282 -0.0376 -0.5646
  367TMC3    C8 5500   2.830   2.866  15.387  1.3937  0.2364 -0.0560
  367TMC3    O1 5501   2.461   3.011  15.131 -0.6681  0.0381  0.0494
  367TMC3    O2 5502   2.912   2.798  15.445 -0.4863 -0.5588  0.3140
  368MPD2     C 5503   4.254   3.844  13.244  0.8255  0.1557  0.3135
  368MPD2    C1 5504   4.289   3.933  13.146 -0.2387 -0.0033  0.1125
  368MPD2    C2 5505   4.418   3.992  13.143  0.0949  0.2505  0.3022
  368MPD2    C3 5506   4.514   3.947  13.232 -0.0790  0.4938  0.5001
  368MPD2    C4 5507   4.474   3.864  13.332 -0.8673  1.5381 -0.6103
  368MPD2    C5 5508   4.349   3.807  13.333  0.1183 -0.0799  0.9724
  368MPD2     H 5509   4.437   4.072  13.072 -1.4920  0.4250  0.0507
  368MPD2    H1 5510   4.548   3.829  13.404 -1.9271 -0.5911 -0.5555
  368MPD2    H2 5511   4.156   3.798  13.249  0.9401 -0.3680 -1.8555
  368MPD2    H3 5512   4.324   3.735  13.410 -5.8337  0.7556 -0.1729
  368MPD2     N 5513   4.646   3.995  13.233 -0.1643  0.1786  0.1662
  368MPD2    H5 5514   4.705   3.967  13.311 -0.5366 -1.1594 -0.0349
  368MPD2    N1 5515   4.189   3.975  13.052 -0.5944 -0.3431 -0.1130
  368MPD2    H7 5516   4.096   3.955  13.088 -0.8788 -0.2792 -0.8264
  369TMC3    C1 5517   4.077   4.099  12.878 -0.3019 -0.0074  0.4325
  369TMC3    C2 5518   4.070   4.226  12.823 -0.0806 -0.1811  0.1253
  369TMC3    C3 5519   3.949   4.285  12.804 -0.4747  0.0774  0.5900
  369TMC3    C4 5520   3.959   4.034  12.911  0.1272  0.0113 -0.1968
  369TMC3    C5 5521   3.839   4.092  12.882 -0.3088 -0.7247 -0.6777
  369TMC3    C6 5522   3.834   4.223  12.834 -0.3317  0.0725  0.6037
  369TMC3     C 5523   4.199   4.063  12.946 -0.2348 -0.2293  0.0523
  369TMC3     O 5524   4.302   4.115  12.904  0.3245 -0.1422 -0.3577
  369TMC3     H 5525   4.163   4.261  12.780  0.3434 -1.0574  0.3273
  369TMC3    H1 5526   3.959   3.934  12.953  0.8406  1.1809  2.5734
  369TMC3    H2 5527   3.743   4.277  12.810 -0.6721 -0.9353 -0.3923
  369TMC3    C7 5528   3.724   4.028  12.946 -0.1324  1.0620  0.4723
  369TMC3    C8 5529   3.943   4.425  12.769  0.6001  0.4986  0.2949
  369TMC3    O1 5530   3.743   3.923  13.003 -0.2247 -0.4178 -0.3078
  369TMC3    O2 5531   3.845   4.475  12.714 -0.3250  0.2008  0.0294
  370TMC3    C1 5532   3.190   0.107  16.409 -0.2018 -0.1492  0.2651
  370TMC3    C2 5533   3.111   0.056  16.505  0.2158  0.0009 -0.3269
  370TMC3    C3 5534   3.038   4.665  16.476  0.1135 -0.1460 -0.3188
  370TMC3    C4 5535   3.194   0.058  16.278 -0.0662 -0.0051 -0.5859
  370TMC3    C5 5536   3.112   4.679  16.255  0.1181 -0.7230  0.1666
  370TMC3    C6 5537   3.034   4.617  16.351  0.3113 -0.4875  0.4099
  370TMC3     C 5538   3.289   0.192  16.458  1.0924  0.1307  0.0455
  370TMC3     O 5539   3.316   0.178  16.578 -0.6470  0.3268 -0.2097
  370TMC3     H 5540   3.122   0.092  16.606  0.1326  0.6894 -0.5598
  370TMC3    H1 5541   3.257   0.100  16.201 -0.3216  1.6370  0.0947
  370TMC3    H2 5542   2.982   4.526  16.323  1.3311 -0.5492 -1.3382
  370TMC3    C7 5543   3.103   4.618  16.125  0.1801  0.3631  0.3762
  370TMC3    C8 5544   3.002   4.570  16.578  0.3227 -0.5859 -0.2622
  370TMC3    O1 5545   2.995   4.576  16.085  0.0121  0.3927  0.6047
  370TMC3    O2 5546   2.954   4.465  16.539  0.2876  0.1052 -0.3503
  371TMC3    C1 5547   4.514   3.060  15.567  0.2266 -0.1685  0.0692
  371TMC3    C2 5548   4.392   3.101  15.603  0.6332  0.4414 -0.6035
  371TMC3    C3 5549   4.362   3.234  15.614  0.1319 -0.0919 -0.1999
  371TMC3    C4 5550   4.606   3.157  15.540 -0.5860  0.0198 -0.3711
  371TMC3    C5 5551   4.569   3.287  15.529  0.3973 -0.2726  0.0400
  371TMC3    C6 5552   4.446   3.330  15.569  0.2840 -0.7463  0.5339
  371TMC3     C 5553   4.565   2.929  15.590 -0.1147  0.4117  0.5859
  371TMC3     O 5554   4.687   2.909  15.593  0.2424  0.3328  0.8360
  371TMC3     H 5555   4.312   3.033  15.632  0.0562  0.3104 -2.5057
  371TMC3    H1 5556   4.711   3.133  15.532 -0.6515 -0.4604  0.2447
  371TMC3    H2 5557   4.418   3.432  15.542  1.1741 -1.0931 -1.7148
  371TMC3    C7 5558   4.662   3.387  15.492  0.0103  0.4194 -0.1327
  371TMC3    C8 5559   4.228   3.277  15.640  0.2603 -0.0265  0.2652
  371TMC3    O1 5560   4.651   3.504  15.527  0.0930  0.0871  0.0064
  371TMC3    O2 5561   4.145   3.187  15.639 -0.0109  0.4512 -0.0590
  372MPD2     C 5562   0.053   4.415  13.470  0.5985 -0.0193 -0.1691
  372MPD2    C1 5563   0.085   4.360  13.593 -0.2959  0.1688  0.3317
  372MPD2    C2 5564   0.008   4.258  13.651  0.3736  0.5164  0.2395
  372MPD2    C3 5565   4.626   4.203  13.581 -0.0836  0.1683  0.2877
  372MPD2    C4 5566   4.591   4.266  13.460 -0.0382  0.2186 -0.7726
  372MPD2    C5 5567   4.664   4.370  13.406 -0.0666  0.5050  0.1141
  372MPD2     H 5568   0.038   4.221  13.749  0.2173 -1.8536 -0.6210
  372MPD2    H1 5569   4.511   4.219  13.404 -0.6248 -0.2385  0.4304
  372MPD2    H2 5570   0.118   4.490  13.427 -0.5709  0.4364 -1.1297
  372MPD2    H3 5571   4.632   4.408  13.310 -0.9805 -0.6736 -0.0495
  372MPD2     N 5572   4.560   4.093  13.631  0.5640  0.8815 -0.0628
  372MPD2    H5 5573   4.609   4.050  13.709  0.1570 -0.4019 -0.5175
  372MPD2    N1 5574   0.180   4.416  13.679 -0.6988 -0.0699  0.2520
  372MPD2    H7 5575   0.180   4.388  13.777  0.7393  1.5711  0.7287
  373TMC3    C1 5576   4.394   3.942  13.682  0.4159 -0.2441 -0.8812
  373TMC3    C2 5577   4.270   3.957  13.744 -0.5132  0.1017 -0.5303
  373TMC3    C3 5578   4.215   3.845  13.794  0.0304 -0.0061 -0.1848
  373TMC3    C4 5579   4.455   3.824  13.663  0.2398 -0.2355  0.3166
  373TMC3    C5 5580   4.384   3.710  13.693  0.4762 -0.6751  0.0557
  373TMC3    C6 5581   4.272   3.722  13.769 -0.2896 -0.2240 -0.0337
  373TMC3     C 5582   4.430   4.056  13.604 -0.4686 -0.3270  0.4889
  373TMC3     O 5583   4.347   4.123  13.545 -0.5732  0.3742  0.4916
  373TMC3     H 5584   4.225   4.056  13.739 -0.8406 -0.0704 -1.0393
  373TMC3    H1 5585   4.552   3.806  13.616 -0.1732  0.8063 -0.9299
  373TMC3    H2 5586   4.233   3.643  13.833 -0.9796 -0.5681 -0.8899
  373TMC3    C7 5587   4.441   3.583  13.691  1.3674 -0.1351 -0.1571
  373TMC3    C8 5588   4.074   3.835  13.823  0.1734 -0.3224 -0.0491
  373TMC3    O1 5589   4.562   3.581  13.665 -0.3693  0.1897 -0.1454
  373TMC3    O2 5590   4.017   3.748  13.760  0.2809  0.2702 -0.0845
  374TMC3    C1 5591   0.460   4.200   9.746  0.5375 -0.7625 -0.0674
  374TMC3    C2 5592   0.522   4.317   9.784  0.0262 -0.7136 -0.1981
  374TMC3    C3 5593   0.498   4.427   9.707  0.1090  0.1557 -0.2140
  374TMC3    C4 5594   0.381   4.185   9.631  0.0595  0.3739 -0.3353
  374TMC3    C5 5595   0.354   4.302   9.558  0.2798 -0.1910  0.3849
  374TMC3    C6 5596   0.411   4.425   9.604 -0.7164  0.2743  0.2282
  374TMC3     C 5597   0.513   4.084   9.820 -0.3473 -0.3690  0.5242
  374TMC3     O 5598   0.603   4.104   9.895  0.1260  0.0714 -0.3539
  374TMC3     H 5599   0.576   4.322   9.878  2.7938 -2.1934 -1.7157
  374TMC3    H1 5600   0.325   4.093   9.615 -1.1177  0.4175  3.4193
  374TMC3    H2 5601   0.385   4.517   9.552 -3.5362 -0.7684 -0.2067
  374TMC3    C7 5602   0.228   4.320   9.482  0.1639 -0.4562 -0.1059
  374TMC3    C8 5603   0.514   4.555   9.770  0.0198  0.0134 -0.5131
  374TMC3    O1 5604   0.196   4.437   9.463  0.1608  0.0363  0.1437
  374TMC3    O2 5605   0.437   4.641   9.736  0.4967 -0.1387 -0.4215
  375MPD2     C 5606   0.411   0.637  17.118  1.0201  0.1498  0.0388
  375MPD2    C1 5607   0.307   0.561  17.063 -0.3458  0.5520 -0.0779
  375MPD2    C2 5608   0.340   0.441  16.997  0.0224 -0.5747  0.3399
  375MPD2    C3 5609   0.474   0.397  17.001  0.9563 -0.0720 -0.7034
  375MPD2    C4 5610   0.576   0.474  17.057 -0.2473  0.2622 -0.2719
  375MPD2    C5 5611   0.537   0.591  17.116  0.0953  0.3524 -0.4624
  375MPD2     H 5612   0.262   0.388  16.945 -1.2192  0.2470  1.3380
  375MPD2    H1 5613   0.680   0.449  17.041 -0.5260 -1.2685  0.3454
  375MPD2    H2 5614   0.408   0.738  17.155 -1.4659  0.2325 -0.3877
  375MPD2    H3 5615   0.611   0.661  17.154 -0.9075  0.9675  0.3470
  375MPD2     N 5616   0.517   0.283  16.940  0.0487  0.3876 -0.0570
  375MPD2    H5 5617   0.618   0.278  16.928  0.0123 -1.0980  0.3134
  375MPD2    N1 5618   0.172   0.607  17.062  0.5606  0.3847  0.3133
  375MPD2    H7 5619   0.102   0.552  17.012  0.9657  0.7174 -0.6111
  376TMC3    C1 5620   0.477   0.107  16.783  0.0004  0.3428  0.8579
  376TMC3    C2 5621   0.613   0.099  16.762  0.6162  0.2722 -0.2482
  376TMC3    C3 5622   0.663   0.071  16.635  0.4986 -0.6168  0.1471
  376TMC3    C4 5623   0.395   0.115  16.672  0.0458 -0.7927 -0.3648
  376TMC3    C5 5624   0.448   0.086  16.551 -0.2798  0.1838 -0.8732
  376TMC3    C6 5625   0.582   0.054  16.532 -1.1171 -0.1809  0.2023
  376TMC3     C 5626   0.431   0.184  16.896 -0.0947 -0.0359  0.2964
  376TMC3     O 5627   0.314   0.174  16.924 -0.2514  0.5839 -0.0062
  376TMC3     H 5628   0.682   0.113  16.844  0.0587  0.9962  0.0951
  376TMC3    H1 5629   0.292   0.147  16.683 -0.0644 -1.1254 -0.4324
  376TMC3    H2 5630   0.622   0.049  16.431 -2.8485  2.1313 -0.6296
  376TMC3    C7 5631   0.386   0.161  16.445  0.1737  0.6958 -0.0683
  376TMC3    C8 5632   0.795   0.110  16.609  0.1891 -0.1775  0.6340
  376TMC3    O1 5633   0.358   0.276  16.474  0.2108 -0.2512  0.5496
  376TMC3    O2 5634   0.825   0.149  16.498  0.7316  0.1515 -0.3952
  377MPD2     C 5635   3.043   0.194  12.196  0.3806 -0.2349 -0.1627
  377MPD2    C1 5636   3.134   0.101  12.254 -0.1538  0.0342 -0.0578
  377MPD2    C2 5637   3.105   0.066  12.382 -0.0669 -0.0405  0.5586
  377MPD2    C3 5638   2.996   0.123  12.455 -0.3163 -0.3242 -0.3389
  377MPD2    C4 5639   2.912   0.220  12.395 -0.3844  0.3344 -1.0666
  377MPD2    C5 5640   2.940   0.255  12.264  0.3225 -1.0309  0.0404
  377MPD2     H 5641   3.165   4.713  12.429  0.0326  0.1345  0.7156
  377MPD2    H1 5642   2.824   0.259  12.446  1.3935  1.2470  1.2876
  377MPD2    H2 5643   3.059   0.227  12.094 -1.0198  2.0498  0.3633
  377MPD2    H3 5644   2.877   0.323  12.209 -0.5300 -1.4200  0.5241
  377MPD2     N 5645   2.972   0.090  12.591  0.1264  0.3782 -0.1017
  377MPD2    H5 5646   2.904   0.143  12.645 -0.1328  1.0706 -1.1172
  377MPD2    N1 5647   3.233   0.042  12.179 -0.8063  0.6166  0.3470
  377MPD2    H7 5648   3.252   0.094  12.094  1.1324 -1.9236 -0.7358
  378TMC3    C1 5649   3.559   4.695  11.933  0.4164  1.0404  0.4041
  378TMC3    C2 5650   3.436   4.682  11.997 -0.5981  0.0082 -0.5043
  378TMC3    C3 5651   3.439   4.663  12.129 -0.4859 -0.6686  0.1762
  378TMC3    C4 5652   3.679   4.670  11.997 -0.1156 -0.3710 -0.0635
  378TMC3    C5 5653   3.676   4.624  12.124  0.4397  0.0252  0.2246
  378TMC3    C6 5654   3.558   4.629  12.193  0.4683 -0.7576 -0.4458
  378TMC3     C 5655   3.577   0.042  11.809  0.8323 -0.4144  0.0163
  378TMC3     O 5656   3.670   0.019  11.738  0.4191 -0.4570 -0.0062
  378TMC3     H 5657   3.344   4.713  11.948 -1.2595  0.4778  1.0288
  378TMC3    H1 5658   3.772   4.703  11.953  0.3425  1.3270  2.1524
  378TMC3    H2 5659   3.560   4.606  12.299 -1.5126 -1.5064 -0.5653
  378TMC3    C7 5660   3.803   4.635  12.207 -0.1161 -0.1399  0.0850
  378TMC3    C8 5661   3.323   4.666  12.216 -1.3579  0.2100 -0.3122
  378TMC3    O1 5662   3.794   4.654  12.328  0.2628  0.1887 -0.0593
  378TMC3    O2 5663   3.320   4.595  12.314  0.4370 -0.0436 -0.8771
  379MPD2     C 5664   3.940   3.376  15.977 -0.2800 -0.4328 -0.2202
  379MPD2    C1 5665   3.907   3.244  15.997  0.4752  0.3207 -0.0949
  379MPD2    C2 5666   3.989   3.167  16.080 -0.0614  0.5820  0.1015
  379MPD2    C3 5667   4.090   3.221  16.153 -0.1801 -0.1927  0.5141
  379MPD2    C4 5668   4.120   3.356  16.134 -0.5340 -0.3900 -0.4074
  379MPD2    C5 5669   4.055   3.427  16.039 -0.0651 -0.2779  0.2590
  379MPD2     H 5670   3.969   3.061  16.090 -0.6364  0.9129  2.5135
  379MPD2    H1 5671   4.201   3.412  16.179 -0.2998 -0.8584 -0.2485
  379MPD2    H2 5672   3.889   3.436  15.903  0.3373 -0.1484 -0.4157
  379MPD2    H3 5673   4.082   3.532  16.030 -1.9913  0.2940  1.1336
  379MPD2     N 5674   4.163   3.161  16.259  0.0670 -0.1580 -0.2840
  379MPD2    H5 5675   4.221   3.219  16.320  1.6396 -0.9510 -1.0268
  379MPD2    N1 5676   3.813   3.180  15.914  0.0609  0.1945  0.1908
  379MPD2    H7 5677   3.816   3.078  15.909 -1.1904  0.2141 -0.8575
  380TMC3    C1 5678   3.642   3.158  15.751 -0.2687 -0.9788  0.4186
  380TMC3    C2 5679   3.707   3.065  15.671  0.0004 -0.7768  0.2320
  380TMC3    C3 5680   3.638   3.017  15.562 -0.4771  0.7807  0.2065
  380TMC3    C4 5681   3.522   3.213  15.709 -0.0849  0.0371  0.6431
  380TMC3    C5 5682   3.466   3.168  15.599  0.1444 -0.2152  0.5978
  380TMC3    C6 5683   3.518   3.068  15.524 -0.2371  0.2619  0.6329
  380TMC3     C 5684   3.712   3.246  15.848  0.4289  0.2950 -0.4256
  380TMC3     O 5685   3.679   3.363  15.850 -0.1424  1.0346 -0.9176
  380TMC3     H 5686   3.807   3.034  15.698  0.3397 -0.3055 -0.4951
  380TMC3    H1 5687   3.476   3.285  15.776  1.6001  3.1857 -1.5728
  380TMC3    H2 5688   3.468   3.049  15.429  0.4035 -5.6396  1.4658
  380TMC3    C7 5689   3.339   3.229  15.565  0.1750  0.1137 -0.2515
  380TMC3    C8 5690   3.711   2.952  15.458 -0.1792  0.4306  0.2257
  380TMC3    O1 5691   3.326   3.343  15.611 -0.1795  0.4334 -0.1503
  380TMC3    O2 5692   3.836   2.950  15.472  0.7078  0.5964 -0.0945
  381TMC3    C1 5693   3.085   4.075  16.132  0.3191 -0.2228  0.5915
  381TMC3    C2 5694   3.200   4.125  16.184 -0.7907 -0.1991 -0.3923
  381TMC3    C3 5695   3.193   4.187  16.304  0.1319 -0.3279  0.2968
  381TMC3    C4 5696   2.964   4.083  16.196  0.3077 -0.0885  0.5461
  381TMC3    C5 5697   2.958   4.148  16.314 -0.7366  0.0616 -0.2506
  381TMC3    C6 5698   3.074   4.199  16.371  0.2638  0.2806 -0.6166
  381TMC3     C 5699   3.087   4.052  15.990  0.6330 -0.0555 -0.3252
  381TMC3     O 5700   3.191   4.005  15.942 -0.0913  0.2446 -0.6263
  381TMC3     H 5701   3.295   4.108  16.133 -0.0875  1.9549  0.2022
  381TMC3    H1 5702   2.880   4.042  16.141  0.2031 -1.6785  1.8749
  381TMC3    H2 5703   3.061   4.246  16.468  1.1849 -2.7996  0.9771
  381TMC3    C7 5704   2.843   4.119  16.398 -0.1509  0.2852 -0.4000
  381TMC3    C8 5705   3.309   4.275  16.335  0.1304  0.5972  0.0924
  381TMC3    O1 5706   2.769   4.032  16.357 -0.3194  0.1417 -0.2520
  381TMC3    O2 5707   3.387   4.301  16.245 -0.4719  0.1483  0.4044
  382MPD2     C 5708   2.950   1.350  17.640 -0.4642  0.6015  0.5154
  382MPD2    C1 5709   2.815   1.391  17.624 -0.4665  0.2938  0.2637
  382MPD2    C2 5710   2.728   1.289  17.592  0.3600  0.3772  0.0943
  382MPD2    C3 5711   2.764   1.151  17.586 -0.0735 -0.4845 -0.5667
  382MPD2    C4 5712   2.893   1.118  17.615 -0.1417 -0.0743 -0.1850
  382MPD2    C5 5713   2.983   1.216  17.643  0.1228  0.3914  0.2080
  382MPD2     H 5714   2.633   1.321  17.552  1.1332  1.4978 -0.8619
  382MPD2    H1 5715   2.931   1.017  17.612 -0.2565 -0.1778  2.2287
  382MPD2    H2 5716   3.025   1.427  17.654 -0.5862  0.8539 -0.2159
  382MPD2    H3 5717   3.085   1.180  17.649 -0.1988 -0.7189 -1.0193
  382MPD2     N 5718   2.674   1.048  17.555 -0.4464 -0.4627 -0.3073
  382MPD2    H5 5719   2.709   0.957  17.582 -0.2944  0.3741  2.3892
  382MPD2    N1 5720   2.786   1.527  17.624 -0.0280 -0.3875  0.4948
  382MPD2    H7 5721   2.865   1.592  17.630  1.2047 -1.7166 -1.2832
  383TMC3    C1 5722   2.494   0.919  17.479 -0.8413  0.4626 -0.6095
  383TMC3    C2 5723   2.422   0.920  17.364  0.4748 -0.3072 -0.5253
  383TMC3    C3 5724   2.380   0.806  17.319 -0.1834  0.1204 -0.5011
  383TMC3    C4 5725   2.546   0.805  17.540  0.7958 -0.2524 -0.9254
  383TMC3    C5 5726   2.503   0.688  17.487  0.3081 -0.3708 -0.1737
  383TMC3    C6 5727   2.418   0.687  17.382  0.4832  0.4679 -0.7384
  383TMC3     C 5728   2.544   1.051  17.507 -0.8520 -1.2977  0.2830
  383TMC3     O 5729   2.482   1.156  17.481  0.2989 -0.0176 -0.0979
  383TMC3     H 5730   2.376   1.010  17.325  0.6271 -0.5158 -1.1792
  383TMC3    H1 5731   2.596   0.807  17.636 -0.3843  1.7841 -0.3657
  383TMC3    H2 5732   2.370   0.592  17.358  0.8826  0.5142 -1.6999
  383TMC3    C7 5733   2.524   0.565  17.552 -0.0803 -0.1488  0.1755
  383TMC3    C8 5734   2.267   0.810  17.230  0.2730  1.2020 -0.0753
  383TMC3    O1 5735   2.453   0.469  17.525  0.8896  0.2924 -0.0447
  383TMC3    O2 5736   2.191   0.908  17.220 -0.2999  0.1173 -0.8610
  384MPD2     C 5737   4.661   3.017  12.229 -0.5848 -0.0385 -0.0833
  384MPD2    C1 5738   4.662   2.911  12.315  0.3811 -0.2151 -0.1440
  384MPD2    C2 5739   0.027   2.815  12.296 -0.5782  0.5431 -0.7131
  384MPD2    C3 5740   0.117   2.819  12.193 -0.1594  0.2978 -0.6411
  384MPD2    C4 5741   0.120   2.928  12.112  0.0941  0.1285  0.1619
  384MPD2    C5 5742   0.027   3.025  12.130  0.1507  0.2366  0.5069
  384MPD2     H 5743   0.027   2.741  12.375 -1.6120 -0.1276 -1.3592
  384MPD2    H1 5744   0.182   2.938  12.023  0.6386 -0.3693  0.4903
  384MPD2    H2 5745   4.599   3.105  12.242 -2.2301 -1.1220 -0.7382
  384MPD2    H3 5746   0.031   3.115  12.070  0.3965  0.3983  0.7665
  384MPD2     N 5747   0.201   2.707  12.178 -0.2641  0.4738 -0.5776
  384MPD2    H5 5748   0.195   2.639  12.253  2.5122 -3.2413 -3.7469
  384MPD2    N1 5749   4.581   2.891  12.427 -0.6191 -0.1087  0.0275
  384MPD2    H7 5750   4.599   2.811  12.487 -0.0015 -0.4848 -0.6581
  385TMC3    C1 5751   0.343   2.556  12.081  0.1046 -0.6265  0.0627
  385TMC3    C2 5752   0.320   2.482  11.974 -0.1526 -0.8622 -0.6012
  385TMC3    C3 5753   0.312   2.345  11.991 -0.6515 -0.1131  0.0989
  385TMC3    C4 5754   0.361   2.510  12.208  0.3242 -0.1238  0.8811
  385TMC3    C5 5755   0.322   2.382  12.229  0.2808  0.2043 -0.0120
  385TMC3    C6 5756   0.301   2.302  12.120  0.6825  0.5035 -0.3145
  385TMC3     C 5757   0.286   2.687  12.076  0.2969 -0.5227  0.2888
  385TMC3     O 5758   0.302   2.754  11.975  0.5128  0.1377 -0.2863
  385TMC3     H 5759   0.309   2.533  11.879 -3.2135  1.1183  0.8318
  385TMC3    H1 5760   0.381   2.568  12.297  0.8121  1.8400 -0.5182
  385TMC3    H2 5761   0.263   2.204  12.148  0.2676  0.9521  0.6606
  385TMC3    C7 5762   0.199   2.387  12.314  0.3901  0.3410  0.4134
  385TMC3    C8 5763   0.312   2.246  11.883  0.0174 -0.3157  0.8063
  385TMC3    O1 5764   0.179   2.497  12.362  0.0558 -0.2761 -0.2897
  385TMC3    O2 5765   0.263   2.138  11.909  0.1596 -0.2018 -0.0634
  386TMC3    C1 5766   0.185   0.099  12.359  0.2092  0.3132 -0.0524
  386TMC3    C2 5767   0.268   0.103  12.253  0.1810 -0.4924 -0.3813
  386TMC3    C3 5768   0.230   0.161  12.133  0.2039 -0.3301 -0.1238
  386TMC3    C4 5769   0.066   0.160  12.363 -0.8374 -0.4453  0.5919
  386TMC3    C5 5770   0.036   0.223  12.244  1.1299 -0.1768  0.6349
  386TMC3    C6 5771   0.111   0.223  12.127  0.0527 -0.2462  0.0721
  386TMC3     C 5772   0.237   0.058  12.486 -0.4043  0.2224 -0.7108
  386TMC3     O 5773   0.183   0.107  12.588 -0.1456  0.3480 -0.0622
  386TMC3     H 5774   0.371   0.074  12.274 -0.2732 -0.1795  2.2726
  386TMC3    H1 5775   4.723   0.162  12.449 -3.1369 -1.4673 -1.1808
  386TMC3    H2 5776   0.075   0.276  12.040 -0.4786  1.6716  1.4534
  386TMC3    C7 5777   4.617   0.249  12.228  0.4551  1.2155  0.0980
  386TMC3    C8 5778   0.315   0.168  12.010 -0.1327 -0.3420  0.6925
  386TMC3    O1 5779   4.555   0.273  12.329 -0.3160  0.6330  0.0256
  386TMC3    O2 5780   0.306   0.256  11.925 -0.2078  0.1638  0.4433
  387MPD2     C 5781   2.359   0.013   9.419 -0.6014 -0.1128 -0.2996
  387MPD2    C1 5782   2.461   0.024   9.517 -0.0653 -0.2801  0.6267
  387MPD2    C2 5783   2.536   4.637   9.544  0.2404  0.2174 -0.2734
  387MPD2    C3 5784   2.500   4.508   9.495  0.0749  0.0882 -0.4027
  387MPD2    C4 5785   2.398   4.499   9.405 -0.6982  0.0022 -0.3532
  387MPD2    C5 5786   2.342   4.613   9.368  0.6895  0.3111 -0.3304
  387MPD2     H 5787   2.622   4.644   9.610  0.2100 -0.9286 -0.1034
  387MPD2    H1 5788   2.370   4.406   9.356 -0.3499  0.2828 -1.0874
  387MPD2    H2 5789   2.298   0.095   9.383 -2.1864 -2.3757 -2.7286
  387MPD2    H3 5790   2.264   4.605   9.293  0.3807  0.4099 -0.0145
  387MPD2     N 5791   2.570   4.395   9.542 -0.2625  0.4022 -0.1597
  387MPD2    H5 5792   2.632   4.420   9.618  0.4740 -0.0533 -0.6209
  387MPD2    N1 5793   2.511   0.153   9.559  0.6737 -0.2372  0.0313
  387MPD2    H7 5794   2.605   0.141   9.596  0.5737 -3.5333 -0.6981
  388TMC3    C1 5795   2.539   0.364   9.627 -0.4326 -0.1737 -0.5177
  388TMC3    C2 5796   2.483   0.408   9.744  0.5676 -0.6689 -0.8774
  388TMC3    C3 5797   2.553   0.406   9.861 -0.2033  0.0147 -0.3985
  388TMC3    C4 5798   2.667   0.320   9.624 -0.2249 -0.4805 -0.1319
  388TMC3    C5 5799   2.738   0.321   9.742 -0.8563 -0.4709 -0.2360
  388TMC3    C6 5800   2.685   0.360   9.866 -0.4301 -0.1018  0.9444
  388TMC3     C 5801   2.449   0.273   9.565  0.4194 -0.4769  0.6798
  388TMC3     O 5802   2.332   0.287   9.556  0.0354  0.0171 -0.6917
  388TMC3     H 5803   2.378   0.432   9.752  0.5226 -1.0141 -0.3822
  388TMC3    H1 5804   2.717   0.298   9.531 -3.3847  0.6998 -2.1043
  388TMC3    H2 5805   2.742   0.356   9.958 -0.9731 -1.0572  1.2374
  388TMC3    C7 5806   2.804   0.189   9.749  0.1938 -0.5347  0.0840
  388TMC3    C8 5807   2.488   0.443   9.987  0.0365 -0.0676 -0.1465
  388TMC3    O1 5808   2.775   0.124   9.648 -0.4355  0.2486 -0.8862
  388TMC3    O2 5809   2.369   0.471   9.973  0.5439  0.3068 -0.4014
  389MPD2     C 5810   2.144   3.470  11.366 -0.3666 -0.1772  0.0179
  389MPD2    C1 5811   2.075   3.360  11.317 -0.4416  1.1501  0.4989
  389MPD2    C2 5812   1.979   3.305  11.393  0.0372  0.5948  0.0307
  389MPD2    C3 5813   1.931   3.364  11.509  0.2924  0.2661 -0.0099
  389MPD2    C4 5814   1.987   3.484  11.544  0.4445  0.2461  0.2420
  389MPD2    C5 5815   2.094   3.541  11.471 -0.1469  0.5987  0.4062
  389MPD2     H 5816   1.933   3.218  11.347 -0.1304  1.1845 -0.9314
  389MPD2    H1 5817   1.944   3.554  11.614 -3.4772 -0.6217 -1.3132
  389MPD2    H2 5818   2.227   3.517  11.315  0.0960 -3.1717 -2.0041
  389MPD2    H3 5819   2.130   3.639  11.500  0.5761  0.8978 -1.5178
  389MPD2     N 5820   1.822   3.306  11.582 -0.0591 -0.8051 -0.3929
  389MPD2    H5 5821   1.768   3.378  11.628  0.7731 -0.7132  0.4475
  389MPD2    N1 5822   2.116   3.314  11.193 -0.3608  0.3886 -0.2410
  389MPD2    H7 5823   2.177   3.381  11.146 -1.4476  1.6500  0.1420
  390TMC3    C1 5824   1.643   3.153  11.629 -0.1518  0.7514  0.7371
  390TMC3    C2 5825   1.599   3.023  11.631 -0.6759  0.0216  0.2794
  390TMC3    C3 5826   1.489   2.993  11.713  0.1270  0.0823 -0.0093
  390TMC3    C4 5827   1.582   3.253  11.703  0.6464 -0.5056  0.8366
  390TMC3    C5 5828   1.480   3.218  11.786 -0.6396  0.2358 -0.0986
  390TMC3    C6 5829   1.435   3.089  11.803  0.3109  0.5624  0.0575
  390TMC3     C 5830   1.765   3.181  11.557 -0.4287  0.6622  0.2878
  390TMC3     O 5831   1.819   3.086  11.505 -0.1928  0.4500 -0.3068
  390TMC3     H 5832   1.639   2.942  11.572  0.4801  0.5386  0.3639
  390TMC3    H1 5833   1.604   3.356  11.680  0.0656 -0.9636 -1.7695
  390TMC3    H2 5834   1.362   3.060  11.877  0.6602 -2.1069 -0.6528
  390TMC3    C7 5835   1.384   3.322  11.827  0.6682 -0.2215 -0.1397
  390TMC3    C8 5836   1.419   2.870  11.690 -0.2241  0.1130 -0.0920
  390TMC3    O1 5837   1.409   3.441  11.842  0.0570 -0.7582  0.4656
  390TMC3    O2 5838   1.461   2.785  11.615 -0.3990 -0.0582  0.3008
  391MPD2     C 5839   1.062   4.514  11.194 -0.6713  0.2553 -0.4053
  391MPD2    C1 5840   1.123   4.629  11.166  0.0155  0.5423  0.6432
  391MPD2    C2 5841   1.142   4.663  11.035 -0.7128 -0.3815 -0.4972
  391MPD2    C3 5842   1.101   4.587  10.932 -0.5329 -0.4364 -0.0293
  391MPD2    C4 5843   1.044   4.460  10.961 -0.4048  0.2874  0.8951
  391MPD2    C5 5844   1.008   4.440  11.093  0.6404  0.3312 -0.5623
  391MPD2     H 5845   1.181   0.035  11.002 -4.6797  1.3738 -0.1170
  391MPD2    H1 5846   1.003   4.382  10.897  1.3178  1.2704 -1.4216
  391MPD2    H2 5847   1.034   4.479  11.293  0.7957  1.6376  0.4948
  391MPD2    H3 5848   0.955   4.346  11.103 -0.7728  1.4182  2.2483
  391MPD2     N 5849   1.101   4.640  10.804 -0.3462  0.9335 -0.2595
  391MPD2    H5 5850   1.138   0.010  10.791  2.3520 -0.1678 -0.4186
  391MPD2    N1 5851   1.161   4.708  11.278  0.4113 -0.3249  0.4370
  391MPD2    H7 5852   1.155   4.668  11.372 -0.9056 -1.8999 -0.3106
  392TMC3    C1 5853   1.119   4.636  10.573 -0.4749  0.2909  0.0685
  392TMC3    C2 5854   1.047   4.606  10.456 -0.3214 -0.2633  0.1929
  392TMC3    C3 5855   1.070   4.686  10.345 -0.2991  0.0942  0.5153
  392TMC3    C4 5856   1.205   0.020  10.581 -0.6036  0.7137  0.2160
  392TMC3    C5 5857   1.221   0.096  10.467  0.4165 -0.4476  0.3257
  392TMC3    C6 5858   1.154   0.076  10.352  0.4619  0.0696 -0.1737
  392TMC3     C 5859   1.073   4.570  10.689 -0.4773 -0.0279 -0.2617
  392TMC3     O 5860   1.021   4.461  10.662  0.0694  0.0596  0.4655
  392TMC3     H 5861   0.983   4.519  10.439 -3.4913  2.3864 -1.4107
  392TMC3    H1 5862   1.274   0.032  10.664  0.2879  0.8677 -0.5357
  392TMC3    H2 5863   1.170   0.133  10.261  0.5573  1.6289  0.8342
  392TMC3    C7 5864   1.339   0.185  10.477  0.0852  0.2352  0.0470
  392TMC3    C8 5865   0.982   4.662  10.229  0.3884  0.7759 -0.2451
  392TMC3    O1 5866   1.431   0.154  10.554  0.1531  0.6930  0.6493
  392TMC3    O2 5867   0.965   4.545  10.197  0.6485  0.1446 -0.6896
  393TMC3    C1 5868   0.474   2.592  10.536  0.2512  0.4178  0.4306
  393TMC3    C2 5869   0.353   2.606  10.598 -0.6232 -0.1966  1.1931
  393TMC3    C3 5870   0.299   2.494  10.658 -0.0219 -0.4904  0.3771
  393TMC3    C4 5871   0.540   2.474  10.537 -0.5935 -0.2728  0.3309
  393TMC3    C5 5872   0.478   2.362  10.599 -0.5272  0.3145 -0.2296
  393TMC3    C6 5873   0.354   2.373  10.659  0.9191  0.2041 -0.2353
  393TMC3     C 5874   0.493   2.677  10.416  0.2326 -0.4037 -0.3581
  393TMC3     O 5875   0.395   2.738  10.375  0.3643  0.5023  0.1915
  393TMC3     H 5876   0.304   2.702  10.588  1.1978  0.6806  0.7619
  393TMC3    H1 5877   0.632   2.472  10.479  0.1158 -2.9543  1.5237
  393TMC3    H2 5878   0.295   2.286  10.685  0.1215  1.1630  1.1620
  393TMC3    C7 5879   0.521   2.235  10.544 -0.2497 -0.4418 -0.5591
  393TMC3    C8 5880   0.154   2.503  10.658  0.3238 -0.0781 -0.4230
  393TMC3    O1 5881   0.425   2.155  10.532  0.1517  0.0423  0.2315
  393TMC3    O2 5882   0.106   2.563  10.562 -0.5975 -0.1109 -0.2958
  394TMC3    C1 5883   2.097   3.216  10.976  0.6915 -0.5110  0.7842
  394TMC3    C2 5884   2.004   3.185  10.884  0.3326 -0.4771 -0.0557
  394TMC3    C3 5885   2.038   3.201  10.750  0.2713 -0.1653 -0.6021
  394TMC3    C4 5886   2.219   3.260  10.947  0.9502 -0.4314  0.3724
  394TMC3    C5 5887   2.247   3.280  10.812 -0.0223 -0.2960  0.7141
  394TMC3    C6 5888   2.152   3.264  10.717  0.6856 -0.7462 -0.5421
  394TMC3     C 5889   2.055   3.217  11.113  0.2425 -0.7567 -0.1704
  394TMC3     O 5890   1.965   3.139  11.146  0.4121  0.1015  0.0849
  394TMC3     H 5891   1.913   3.133  10.913 -0.1769 -0.1484 -1.0574
  394TMC3    H1 5892   2.295   3.272  11.024 -0.9638 -0.9312  2.3474
  394TMC3    H2 5893   2.167   3.270  10.610 -1.1353 -1.7499 -0.8617
  394TMC3    C7 5894   2.360   3.361  10.772  0.1885  0.5805  0.0873
  394TMC3    C8 5895   1.980   3.114  10.654  0.2086 -0.0759 -0.0948
  394TMC3    O1 5896   2.352   3.422  10.665 -0.1719  0.4969 -0.0839
  394TMC3    O2 5897   1.873   3.162  10.616 -0.1563 -0.0212  0.2560
  395TMC3    C1 5898   0.942   0.684  14.423 -0.6682  0.0925  0.2970
  395TMC3    C2 5899   0.856   0.783  14.449 -0.1083 -0.6273 -0.0674
  395TMC3    C3 5900   0.911   0.910  14.483  0.2454  0.2339 -0.5200
  395TMC3    C4 5901   1.075   0.698  14.413 -0.3758  0.0749  0.3591
  395TMC3    C5 5902   1.128   0.817  14.465 -0.5268  0.7302 -0.1007
  395TMC3    C6 5903   1.047   0.925  14.492  1.0415 -0.4910  0.2658
  395TMC3     C 5904   0.904   0.556  14.475  0.1254  0.1099  0.5289
  395TMC3     O 5905   0.819   0.556  14.563  0.2502  0.2150  0.4795
  395TMC3     H 5906   0.749   0.769  14.442 -0.1277 -0.4425 -0.1202
  395TMC3    H1 5907   1.133   0.609  14.392  1.8848  1.5469  0.2913
  395TMC3    H2 5908   1.084   1.019  14.531  0.8213  0.2757 -1.3675
  395TMC3    C7 5909   1.245   0.818  14.546 -0.2374 -1.0218  0.0808
  395TMC3    C8 5910   0.834   0.974  14.585 -0.0903  0.1821  0.0246
  395TMC3    O1 5911   1.272   0.923  14.606 -0.2501 -0.2490  0.0859
  395TMC3    O2 5912   0.868   1.089  14.621  0.1456  0.1879 -0.2074
  396MPD2     C 5913   0.607   1.136  16.938  0.3396 -0.0849 -0.4696
  396MPD2    C1 5914   0.666   1.242  17.002  0.2419 -0.7658  0.0510
  396MPD2    C2 5915   0.645   1.370  16.971 -0.1256  1.2568  0.8074
  396MPD2    C3 5916   0.550   1.395  16.875  0.0024  0.0587 -0.3477
  396MPD2    C4 5917   0.485   1.295  16.808  0.2225  0.3946  0.1494
  396MPD2    C5 5918   0.509   1.166  16.849  0.0455 -0.2055  0.0117
  396MPD2     H 5919   0.692   1.451  17.026  0.1365  0.8940  1.1176
  396MPD2    H1 5920   0.420   1.305  16.722 -1.0569 -1.8027  0.8760
  396MPD2    H2 5921   0.625   1.034  16.968  4.0306  0.9640  0.8147
  396MPD2    H3 5922   0.450   1.086  16.807 -0.8299  0.8674 -0.8217
  396MPD2     N 5923   0.525   1.533  16.846 -0.0148  0.2552 -0.5373
  396MPD2    H5 5924   0.573   1.599  16.906 -1.4893  1.9529 -1.2471
  396MPD2    N1 5925   0.767   1.199  17.094 -0.3526 -0.2830  0.2044
  396MPD2    H7 5926   0.769   1.101  17.121 -0.9739 -0.4793 -0.4504
  397TMC3    C1 5927   0.970   1.212  17.205 -0.0504 -0.3655  0.2912
  397TMC3    C2 5928   1.056   1.154  17.106  0.1941 -0.3451  0.2712
  397TMC3    C3 5929   1.070   1.022  17.091 -0.8394 -0.2447  0.3957
  397TMC3    C4 5930   0.919   1.118  17.297 -0.0931  0.0880  0.1816
  397TMC3    C5 5931   0.957   0.988  17.294  0.0623 -0.1377 -0.1806
  397TMC3    C6 5932   1.035   0.931  17.187  0.0605  0.0266 -0.1894
  397TMC3     C 5933   0.863   1.285  17.140 -0.6255  0.6494 -0.0198
  397TMC3     O 5934   0.884   1.405  17.129 -0.3196 -0.2293  0.0465
  397TMC3     H 5935   1.060   1.224  17.024  1.9047 -0.3529  0.3628
  397TMC3    H1 5936   0.851   1.158  17.371  0.8026  1.9329 -0.0021
  397TMC3    H2 5937   1.059   0.826  17.188 -3.3632 -0.7579 -1.1972
  397TMC3    C7 5938   0.851   0.895  17.327  0.3755 -0.2254 -0.4971
  397TMC3    C8 5939   1.030   0.987  16.960 -0.3342 -0.5102  0.1943
  397TMC3    O1 5940   0.824   0.822  17.233  0.1815  0.1265 -0.3136
  397TMC3    O2 5941   1.076   1.044  16.858  0.3561  0.1798 -0.2494
  398MPD2     C 5942   3.734   2.490   0.549  0.3815  0.5389  0.1823
  398MPD2    C1 5943   3.850   2.438   0.481 -0.6758 -0.2895  0.4910
  398MPD2    C2 5944   3.955   2.520   0.442 -0.2618  0.5699  0.3344
  398MPD2    C3 5945   3.940   2.657   0.454  0.3660 -0.4598 -0.2096
  398MPD2    C4 5946   3.827   2.710   0.512 -0.6149  0.2933  0.4917
  398MPD2    C5 5947   3.720   2.629   0.550  0.5399 -0.1994  0.3646
  398MPD2     H 5948   4.040   2.481   0.387  0.4358  3.2575 -0.4754
  398MPD2    H1 5949   3.807   2.816   0.506  1.3221  0.6326 -0.1867
  398MPD2    H2 5950   3.654   2.432   0.592  0.1943  2.5566  2.5489
  398MPD2    H3 5951   3.630   2.671   0.592 -0.2895 -1.1291 -0.4987
  398MPD2     N 5952   4.044   2.736   0.389 -0.5990 -0.0192  0.1071
  398MPD2    H5 5953   4.117   2.680   0.347  0.6627  1.6135  0.1227
  398MPD2    N1 5954   3.863   2.302   0.470  0.0113  0.4304  0.0097
  398MPD2    H7 5955   3.953   2.274   0.431 -0.6997 -1.7798 -0.0498
  399TMC3    C1 5956   3.811   2.076   0.480 -0.1544  0.0629 -0.1841
  399TMC3    C2 5957   3.861   2.061   0.354  0.0883 -0.2922  0.0795
  399TMC3    C3 5958   3.885   1.929   0.319  1.1130  0.5027 -0.2222
  399TMC3    C4 5959   3.782   1.979   0.571  0.7398  0.3398  0.6053
  399TMC3    C5 5960   3.828   1.863   0.530 -1.2188 -0.3833 -0.6138
  399TMC3    C6 5961   3.867   1.822   0.403 -0.4801 -0.6195  0.0232
  399TMC3     C 5962   3.775   2.204   0.513  0.0516 -0.4170 -0.0403
  399TMC3     O 5963   3.673   2.212   0.572 -0.0552  0.3996  0.6470
  399TMC3     H 5964   3.879   2.144   0.286 -2.0191 -0.5253 -0.7626
  399TMC3    H1 5965   3.769   2.007   0.675 -1.0278 -0.8664  0.7006
  399TMC3    H2 5966   3.870   1.715   0.391 -3.8191 -1.1203  3.7634
  399TMC3    C7 5967   3.819   1.753   0.621 -0.8714 -0.0996  0.0884
  399TMC3    C8 5968   3.932   1.908   0.177  0.2498 -0.1456 -0.5575
  399TMC3    O1 5969   3.892   1.659   0.592  0.2561 -0.0402 -0.1418
  399TMC3    O2 5970   3.943   2.004   0.096  1.1271  0.0323 -0.0200
  400TMC3    C1 5971   2.717   1.118  17.133  0.5569  0.3455 -0.1124
  400TMC3    C2 5972   2.596   1.080  17.067  0.0274 -0.3290 -0.0595
  400TMC3    C3 5973   2.503   1.187  17.051 -0.3502  1.0750 -0.2654
  400TMC3    C4 5974   2.738   1.242  17.189 -0.3500 -0.0834 -0.2256
  400TMC3    C5 5975   2.634   1.336  17.170 -0.1219 -0.5348 -0.0269
  400TMC3    C6 5976   2.528   1.314  17.092  0.3682  0.1299  0.2343
  400TMC3     C 5977   2.777   0.998  17.186 -0.2993  0.3433 -0.3421
  400TMC3     O 5978   2.741   0.897  17.134  0.5040 -0.1065 -0.0596
  400TMC3     H 5979   2.586   0.992  17.006 -0.8938  0.3749 -0.9166
  400TMC3    H1 5980   2.812   1.264  17.265 -0.3985  0.8683 -0.4483
  400TMC3    H2 5981   2.473   1.404  17.067 -0.4249 -0.3019  0.4334
  400TMC3    C7 5982   2.665   1.466  17.218  0.2914 -0.1099 -0.0103
  400TMC3    C8 5983   2.401   1.183  16.950 -0.0385 -0.5552 -1.1504
  400TMC3    O1 5984   2.780   1.504  17.230  0.0266 -0.3044 -0.4365
  400TMC3    O2 5985   2.347   1.290  16.915 -0.4907 -1.1337 -0.1378
  401MPD2     C 5986   4.490   4.497   0.154 -0.3051 -0.1133 -0.0939
  401MPD2    C1 5987   4.604   4.436   0.212  0.4875  0.2446 -0.2235
  401MPD2    C2 5988   4.642   4.309   0.173  0.6763  0.3655 -0.0974
  401MPD2    C3 5989   4.571   4.250   0.069 -0.8056 -0.1654 -0.9160
  401MPD2    C4 5990   4.463   4.314   0.009 -0.0115 -0.0359  0.5139
  401MPD2    C5 5991   4.424   4.438   0.053 -0.2704 -0.0203  0.3706
  401MPD2     H 5992   0.004   4.262   0.220 -0.2320 -0.3575  0.8161
  401MPD2    H1 5993   4.398   4.268  17.633 -0.5546 -0.3603  1.1989
  401MPD2    H2 5994   4.474   4.601   0.183  1.3559 -0.5489  2.4592
  401MPD2    H3 5995   4.345   4.498   0.009 -0.2601  0.4267  0.9538
  401MPD2     N 5996   4.600   4.114   0.041 -0.8665  0.8604  0.1585
  401MPD2    H5 5997   4.671   4.064   0.093  0.7166  1.7428 -1.1484
  401MPD2    N1 5998   4.683   4.489   0.322 -0.3503 -0.1370 -0.1997
  401MPD2    H7 5999   0.045   4.437   0.341 -0.2131 -0.5146 -1.7946
  402TMC3    C1 6000   4.580   3.888  17.667 -0.3177  0.6455 -0.3571
  402TMC3    C2 6001   4.604   3.869   0.102  0.6943  0.1707 -0.1624
  402TMC3    C3 6002   4.715   3.799   0.142 -0.0896  0.3833  0.1510
  402TMC3    C4 6003   4.652   3.844  17.566 -0.2125 -0.4950 -1.3325
  402TMC3    C5 6004   0.032   3.769  17.610 -0.6009 -1.2751 -0.4339
  402TMC3    C6 6005   0.072   3.741   0.045  0.0919  0.1764  0.2312
  402TMC3     C 6006   4.533   4.025  17.653  0.0281  0.5075 -0.0458
  402TMC3     O 6007   4.460   4.057  17.562 -0.0538 -0.4671 -0.1700
  402TMC3     H 6008   4.535   3.910   0.175 -1.8172 -3.7011 -0.3585
  402TMC3    H1 6009   4.656   3.909  17.479 -1.0399  0.9589 -0.2845
  402TMC3    H2 6010   0.152   3.678   0.082  0.0444  1.0649  1.8230
  402TMC3    C7 6011   0.134   3.769  17.511  0.2400  0.5915 -0.4565
  402TMC3    C8 6012   0.064   3.829   0.268  0.0067  0.6266 -0.1663
  402TMC3    O1 6013   0.119   3.740  17.394  0.3355  0.2007 -0.0241
  402TMC3    O2 6014   0.177   3.789   0.291 -0.2188 -0.1754 -0.1203
  403MPD2     C 6015   3.732   2.701  13.306  0.2641 -0.8562 -0.6193
  403MPD2    C1 6016   3.803   2.581  13.302  0.6497  0.0716 -0.6059
  403MPD2    C2 6017   3.899   2.555  13.398 -0.4278  0.7336 -0.4748
  403MPD2    C3 6018   3.922   2.644  13.502 -0.6843  0.1151 -1.4506
  403MPD2    C4 6019   3.850   2.760  13.509  0.6963  1.0170 -0.1521
  403MPD2    C5 6020   3.756   2.784  13.416  0.2246 -0.1007  0.2067
  403MPD2     H 6021   3.964   2.468  13.403 -0.1866  0.8884 -0.9083
  403MPD2    H1 6022   3.878   2.842  13.574  2.8067  0.1934 -0.0191
  403MPD2    H2 6023   3.650   2.730  13.241  1.3825  3.4679 -0.1057
  403MPD2    H3 6024   3.688   2.868  13.420  1.1354  0.7679 -2.7734
  403MPD2     N 6025   4.021   2.603  13.591  0.1913  0.0744 -0.4032
  403MPD2    H5 6026   4.084   2.528  13.563 -0.7680 -1.0275  0.4130
  403MPD2    N1 6027   3.769   2.491  13.198  0.5805  0.4370 -0.6108
  403MPD2    H7 6028   3.707   2.524  13.124  0.0845  0.6498 -0.1076
  404TMC3    C1 6029   3.734   2.280  13.093  0.1267  0.2552  0.5558
  404TMC3    C2 6030   3.676   2.167  13.133  0.3069  0.4186  0.0809
  404TMC3    C3 6031   3.592   2.099  13.047 -0.2138  0.4390  0.1403
  404TMC3    C4 6032   3.702   2.327  12.974  0.1448 -0.5624 -0.0777
  404TMC3    C5 6033   3.618   2.264  12.892  0.5395 -0.1082 -0.3735
  404TMC3    C6 6034   3.566   2.145  12.922 -0.2776 -0.3681  0.4463
  404TMC3     C 6035   3.804   2.359  13.196  0.0886 -0.2020 -0.0261
  404TMC3     O 6036   3.894   2.314  13.268 -0.0405  0.4023  0.2455
  404TMC3     H 6037   3.708   2.136  13.232  1.6008  2.0315  0.1580
  404TMC3    H1 6038   3.735   2.425  12.943  0.1072 -0.8668 -1.0626
  404TMC3    H2 6039   3.507   2.087  12.851  1.8167 -1.7646 -0.1386
  404TMC3    C7 6040   3.604   2.331  12.756 -0.3718 -0.5468  0.4092
  404TMC3    C8 6041   3.532   1.977  13.100  0.3248 -0.2300 -0.1180
  404TMC3    O1 6042   3.617   2.453  12.752 -0.1710  0.4240 -0.5587
  404TMC3    O2 6043   3.499   1.894  13.014  0.1753  0.2271  0.4194
  405MPD2     C 6044   4.215   3.568  14.736  0.3422  0.5782  0.3612
  405MPD2    C1 6045   4.254   3.528  14.608  0.1234  0.1677  0.5152
  405MPD2    C2 6046   4.195   3.591  14.503  0.1856  0.3134 -0.1101
  405MPD2    C3 6047   4.102   3.693  14.509 -0.2762  0.3626 -0.3292
  405MPD2    C4 6048   4.071   3.733  14.633  0.1955  0.3033 -0.3989
  405MPD2    C5 6049   4.127   3.675  14.747  0.5717 -0.1260  0.3184
  405MPD2     H 6050   4.209   3.550  14.403  1.5211 -1.0256  0.6376
  405MPD2    H1 6051   4.004   3.812  14.662 -0.6142 -0.3503 -0.4861
  405MPD2    H2 6052   4.264   3.529  14.824  0.8028  3.2475  1.2826
  405MPD2    H3 6053   4.114   3.709  14.849 -0.5951 -2.1851  0.8640
  405MPD2     N 6054   4.045   3.734  14.391 -0.2797 -0.1915 -0.0213
  405MPD2    H5 6055   4.084   3.702  14.303  0.0891 -1.7986  0.7358
  405MPD2    N1 6056   4.339   3.421  14.581 -0.3571  0.0031  0.7788
  405MPD2    H7 6057   4.366   3.416  14.483 -2.0689  0.0046  0.3159
  406TMC3    C1 6058   3.757   3.907  14.068 -0.5703  0.4504  0.0064
  406TMC3    C2 6059   3.777   3.792  13.995 -0.3114 -0.0879 -0.3616
  406TMC3    C3 6060   3.844   3.686  14.047 -0.5640  0.4124  0.3960
  406TMC3    C4 6061   3.804   3.911  14.195 -0.2152 -0.5578  0.0608
  406TMC3    C5 6062   3.875   3.808  14.246  0.5340 -0.0622 -0.3609
  406TMC3    C6 6063   3.888   3.691  14.175  0.3467  0.7494 -0.3517
  406TMC3     C 6064   3.623   3.960  14.060  0.0374 -0.3787 -0.3658
  406TMC3     O 6065   3.579   4.047  13.987  0.0919  0.4882  0.2310
  406TMC3     H 6066   3.744   3.786  13.892  3.1078 -1.0763 -1.3879
  406TMC3    H1 6067   3.791   4.003  14.250  0.1389  0.0314 -0.8280
  406TMC3    H2 6068   3.941   3.610  14.225 -1.0853  0.2042  0.2763
  406TMC3    C7 6069   3.944   3.826  14.376 -0.5495  0.1629  0.6058
  406TMC3    C8 6070   3.867   3.564  13.966  0.0604 -0.0981  0.9890
  406TMC3    O1 6071   3.905   3.915  14.448  0.7034  0.8882  0.4381
  406TMC3    O2 6072   3.805   3.543  13.865 -0.1076  0.4626  0.0464
  407MPD2     C 6073   1.895   4.381   9.302 -0.6722 -0.8368 -0.3968
  407MPD2    C1 6074   1.999   4.320   9.373  0.3766 -0.0419  0.0219
  407MPD2    C2 6075   2.051   4.402   9.474 -0.4863 -0.0517 -0.3102
  407MPD2    C3 6076   2.002   4.534   9.498 -0.2770  0.5242  0.2384
  407MPD2    C4 6077   1.913   4.593   9.402  0.2019  0.5691 -0.3601
  407MPD2    C5 6078   1.868   4.517   9.301  0.2969 -0.1633 -0.4169
  407MPD2     H 6079   2.126   4.363   9.542 -0.0660  1.3176 -0.0064
  407MPD2    H1 6080   1.876   4.693   9.422 -1.0164  0.2307 -0.9050
  407MPD2    H2 6081   1.850   4.324   9.221 -1.3096 -0.1729 -0.5025
  407MPD2    H3 6082   1.804   4.564   9.227  1.0523  0.6106 -0.5731
  407MPD2     N 6083   2.063   4.621   9.589  0.6268 -0.3376  0.5368
  407MPD2    H5 6084   2.059   4.722   9.579  2.9393 -0.4739 -1.5943
  407MPD2    N1 6085   2.041   4.183   9.369 -0.5929 -0.4690  0.1490
  407MPD2    H7 6086   2.110   4.151   9.436  0.1181 -0.3564 -0.5422
  408TMC3    C1 6087   2.067   3.974   9.291  0.0645  0.4075  0.3097
  408TMC3    C2 6088   2.196   3.962   9.313  0.0421  0.0241  0.1993
  408TMC3    C3 6089   2.250   3.832   9.301  0.9117 -0.1602  0.1234
  408TMC3    C4 6090   1.985   3.874   9.251  0.0027 -0.2335 -0.5102
  408TMC3    C5 6091   2.035   3.745   9.235 -0.1012  0.5505 -1.1523
  408TMC3    C6 6092   2.170   3.724   9.269  0.0055  0.1371  0.1936
  408TMC3     C 6093   1.985   4.094   9.286  0.1914  0.4264  0.0930
  408TMC3     O 6094   1.891   4.106   9.212 -0.0650  0.6498 -0.4798
  408TMC3     H 6095   2.249   4.055   9.332  0.5223 -0.5932  1.8701
  408TMC3    H1 6096   1.877   3.886   9.261  0.0078 -0.5895 -0.0330
  408TMC3    H2 6097   2.211   3.628   9.237 -2.8789 -1.2065  0.5271
  408TMC3    C7 6098   1.946   3.637   9.208  0.6377  0.0628 -0.3021
  408TMC3    C8 6099   2.379   3.797   9.350  0.6213  0.0639 -0.1574
  408TMC3    O1 6100   1.974   3.525   9.238 -0.2992 -0.2363 -0.1286
  408TMC3    O2 6101   2.404   3.686   9.395 -0.4288  0.3148 -0.5239
  409MPD2     C 6102   0.949   0.450  16.759 -0.2216 -0.3323  0.1035
  409MPD2    C1 6103   1.002   0.483  16.881  0.3744 -0.4219 -0.0695
  409MPD2    C2 6104   1.106   0.580  16.880  0.2987  0.4582  0.2203
  409MPD2    C3 6105   1.157   0.639  16.769 -0.7623  0.9153  0.3690
  409MPD2    C4 6106   1.096   0.606  16.649 -0.4209 -0.5755  0.9805
  409MPD2    C5 6107   0.999   0.511  16.643  0.3160  0.1770  0.2681
  409MPD2     H 6108   1.158   0.595  16.974  0.5658 -1.2190  0.3495
  409MPD2    H1 6109   1.134   0.657  16.561  0.0170 -0.9528  0.9568
  409MPD2    H2 6110   0.877   0.369  16.756  0.6720 -1.0823 -1.0671
  409MPD2    H3 6111   0.964   0.493  16.542  2.8746  1.0058 -0.7596
  409MPD2     N 6112   1.235   0.754  16.761 -0.1021 -0.3615  0.5842
  409MPD2    H5 6113   1.265   0.787  16.670  2.3082  1.4386  2.0247
  409MPD2    N1 6114   0.967   0.423  17.009  0.2582 -0.8426  0.1359
  409MPD2    H7 6115   1.027   0.446  17.087  0.6464  0.2814 -0.4902
  410TMC3    C1 6116   1.410   0.904  16.824 -0.2705  0.2539 -0.3785
  410TMC3    C2 6117   1.513   0.818  16.809 -0.1106 -0.4575 -0.1983
  410TMC3    C3 6118   1.626   0.834  16.881  0.9355 -0.5122  0.0021
  410TMC3    C4 6119   1.429   1.015  16.893  0.2472 -0.6213  0.7675
  410TMC3    C5 6120   1.544   1.043  16.960  0.1217  0.2744 -0.6798
  410TMC3    C6 6121   1.646   0.947  16.960 -0.3103  0.7218 -0.5464
  410TMC3     C 6122   1.291   0.823  16.864 -0.3423  0.3109 -0.4021
  410TMC3     O 6123   1.264   0.814  16.985 -0.0994  0.1891 -0.0064
  410TMC3     H 6124   1.502   0.722  16.760 -2.8962 -1.7158  2.8884
  410TMC3    H1 6125   1.342   1.080  16.901  2.0913  1.9139  0.2828
  410TMC3    H2 6126   1.744   0.966  17.004 -0.6326  2.7430 -0.7051
  410TMC3    C7 6127   1.543   1.129  17.075 -0.1301 -0.0389 -0.2210
  410TMC3    C8 6128   1.716   0.718  16.880  0.1457  0.1318 -0.0206
  410TMC3    O1 6129   1.614   1.104  17.173 -0.4017  0.0011  0.3317
  410TMC3    O2 6130   1.669   0.606  16.855  0.7915 -0.0365  0.3029
  411MPD2     C 6131   1.654   1.235  14.534 -0.5349  0.2574  0.0399
  411MPD2    C1 6132   1.562   1.324  14.488 -0.5070 -0.6208  0.3029
  411MPD2    C2 6133   1.462   1.272  14.403  0.0548 -0.0666 -0.2515
  411MPD2    C3 6134   1.446   1.133  14.385  0.4846  0.1384 -0.8523
  411MPD2    C4 6135   1.529   1.048  14.454  0.3714 -0.1754  0.9567
  411MPD2    C5 6136   1.625   1.098  14.525  0.5581 -0.3698  0.0306
  411MPD2     H 6137   1.384   1.340  14.370  0.9449  0.6676 -0.8066
  411MPD2    H1 6138   1.533   0.941  14.436  0.6487  0.1340 -0.7751
  411MPD2    H2 6139   1.740   1.264  14.593 -0.8985  0.5971  0.4025
  411MPD2    H3 6140   1.698   1.037  14.577  2.9658  1.3121 -1.3416
  411MPD2     N 6141   1.352   1.074  14.298 -0.3705 -0.3571 -0.2217
  411MPD2    H5 6142   1.369   0.977  14.273  0.8870 -0.6992  1.9487
  411MPD2    N1 6143   1.562   1.459  14.531  0.1639 -0.1345  0.0893
  411MPD2    H7 6144   1.483   1.518  14.507 -0.7191 -2.8305 -3.5932
  412TMC3    C1 6145   1.170   1.065  14.138 -0.4696  0.0163 -0.2900
  412TMC3    C2 6146   1.151   1.140  14.030  0.6092  0.3910  0.6454
  412TMC3    C3 6147   1.140   1.083  13.913  0.2814  0.4419  0.1208
  412TMC3    C4 6148   1.178   0.931  14.129 -0.1490  0.1645  0.3962
  412TMC3    C5 6149   1.167   0.871  14.009 -0.4669 -0.8509 -0.1940
  412TMC3    C6 6150   1.145   0.947  13.900  0.2837  0.0733 -0.5627
  412TMC3     C 6151   1.242   1.140  14.244  0.1902 -0.3774  0.4498
  412TMC3     O 6152   1.201   1.254  14.266  0.7269  0.3392 -0.2279
  412TMC3     H 6153   1.151   1.248  14.038 -2.5502  0.5054 -1.0065
  412TMC3    H1 6154   1.197   0.865  14.213 -3.1467 -3.3700 -1.6861
  412TMC3    H2 6155   1.138   0.904  13.801  1.0262  0.9575 -0.9975
  412TMC3    C7 6156   1.265   0.769  13.990 -0.4577  0.7425  0.0159
  412TMC3    C8 6157   1.238   1.136  13.822 -0.1228  0.4453  0.3073
  412TMC3    O1 6158   1.232   0.655  14.033 -0.7727 -0.0757  0.1799
  412TMC3    O2 6159   1.320   1.057  13.781 -0.4120 -0.2858  0.8584
  413MPD2     C 6160   2.841   3.927  15.160 -0.4439 -0.2895  0.3109
  413MPD2    C1 6161   2.890   4.059  15.168 -0.0421  0.3986  0.6572
  413MPD2    C2 6162   3.028   4.079  15.172  0.1516 -0.0833 -0.2680
  413MPD2    C3 6163   3.113   3.969  15.168 -0.0416  0.3669 -0.4852
  413MPD2    C4 6164   3.061   3.839  15.159  0.7864  0.4476  0.0458
  413MPD2    C5 6165   2.923   3.822  15.162  0.0637  0.1354  0.0592
  413MPD2     H 6166   3.074   4.176  15.186  0.7078 -0.2962 -0.6132
  413MPD2    H1 6167   3.127   3.754  15.151  2.8776  1.8675  2.4318
  413MPD2    H2 6168   2.734   3.915  15.153 -0.3291 -1.0699 -0.0210
  413MPD2    H3 6169   2.877   3.724  15.157 -0.0702  0.1467  1.0670
  413MPD2     N 6170   3.250   3.993  15.162  0.1792  0.0356  0.1471
  413MPD2    H5 6171   3.273   4.092  15.156  0.5806 -0.0737 -0.1406
  413MPD2    N1 6172   2.800   4.164  15.165 -0.0279  0.4398 -0.0162
  413MPD2    H7 6173   2.703   4.134  15.160  0.7686 -1.8296 -1.6083
  414TMC3    C1 6174   3.454   3.946  15.068 -0.7525  0.2287  0.3359
  414TMC3    C2 6175   3.559   3.864  15.078  0.0702 -0.2214  0.1578
  414TMC3    C3 6176   3.645   3.866  14.970 -0.4879 -0.1142  0.5284
  414TMC3    C4 6177   3.425   4.041  14.965  0.7459 -0.4128 -0.2034
  414TMC3    C5 6178   3.528   4.054  14.879  0.0575 -0.1701  0.2166
  414TMC3    C6 6179   3.624   3.959  14.869  0.0508  0.5031  0.0381
  414TMC3     C 6180   3.350   3.903  15.155 -0.8335 -0.4307 -0.1649
  414TMC3     O 6181   3.345   3.787  15.194 -0.0530 -0.3023  0.1901
  414TMC3     H 6182   3.550   3.776  15.141  3.8295 -0.2641  0.6385
  414TMC3    H1 6183   3.336   4.103  14.965  0.8024 -0.3414  0.9217
  414TMC3    H2 6184   3.695   3.947  14.789  0.2867  0.3551  0.2691
  414TMC3    C7 6185   3.515   4.179  14.791  0.8573  0.6088  1.0271
  414TMC3    C8 6186   3.759   3.785  14.989  0.2407 -0.1787  0.0402
  414TMC3    O1 6187   3.403   4.223  14.777  0.2919  0.0083 -0.2091
  414TMC3    O2 6188   3.835   3.759  14.892  0.0083  1.0739 -0.4845
  415TMC3    C1 6189   4.623   1.957   9.949 -0.2925 -1.3999  0.4106
  415TMC3    C2 6190   0.014   2.001   9.886  0.0602  0.5279 -0.3169
  415TMC3    C3 6191   0.036   1.972   9.757  0.3317  0.4794  0.5811
  415TMC3    C4 6192   4.524   1.885   9.889 -0.4243 -0.1310 -0.4461
  415TMC3    C5 6193   4.555   1.848   9.755 -0.8648  0.6003 -0.2835
  415TMC3    C6 6194   4.673   1.889   9.694 -0.4694 -0.2587 -0.2695
  415TMC3     C 6195   4.592   2.001  10.085  0.1225  0.6234 -0.2159
  415TMC3     O 6196   4.484   1.951  10.125 -0.1182 -0.3190 -0.4878
  415TMC3     H 6197   0.097   2.050   9.936  0.4798 -1.6083  1.0356
  415TMC3    H1 6198   4.420   1.883   9.919  0.4209  3.2894  2.6534
  415TMC3    H2 6199   4.681   1.864   9.589  3.5310 -1.3750  0.3165
  415TMC3    C7 6200   4.487   1.737   9.694  0.2731  0.7841  0.2560
  415TMC3    C8 6201   0.164   1.957   9.696  0.2673 -0.9737 -0.3884
  415TMC3    O1 6202   4.528   1.705   9.583 -0.3063 -0.1459 -0.0717
  415TMC3    O2 6203   0.190   1.863   9.625 -0.2066  0.4731 -0.2239
  416MPD2     C 6204   1.527   1.319  11.174 -0.3637 -0.3380  0.0457
  416MPD2    C1 6205   1.442   1.290  11.274  0.5773 -0.1906 -0.1883
  416MPD2    C2 6206   1.389   1.161  11.284 -0.5105  0.0721 -0.9694
  416MPD2    C3 6207   1.439   1.063  11.198 -0.6417 -0.3816 -0.2222
  416MPD2    C4 6208   1.542   1.097  11.109 -1.3781 -0.0443  0.6086
  416MPD2    C5 6209   1.584   1.224  11.098  0.5801 -0.5466  0.3239
  416MPD2     H 6210   1.308   1.131  11.348  0.3259  1.9829  0.9780
  416MPD2    H1 6211   1.602   1.020  11.061  0.2208  0.4628  1.7766
  416MPD2    H2 6212   1.557   1.422  11.158 -1.3442 -0.1236 -0.3748
  416MPD2    H3 6213   1.637   1.269  11.014 -0.6486 -0.0251 -0.1698
  416MPD2     N 6214   1.393   0.922  11.202  0.1733  0.7359  0.1773
  416MPD2    H5 6215   1.338   0.892  11.281 -0.5091  0.4450 -0.4104
  416MPD2    N1 6216   1.395   1.398  11.352 -0.0738  0.7527  0.7159
  416MPD2    H7 6217   1.415   1.496  11.336  2.2611  0.2046  0.3351
  417TMC3    C1 6218   1.286   1.515  11.532  0.2623 -0.6595 -0.5885
  417TMC3    C2 6219   1.275   1.518  11.672  0.4384  0.4968  0.1953
  417TMC3    C3 6220   1.190   1.611  11.725 -0.4672  0.1785 -0.3183
  417TMC3    C4 6221   1.199   1.592  11.453 -0.6197  0.6701 -0.1563
  417TMC3    C5 6222   1.102   1.670  11.512  0.0759 -0.3683  0.3823
  417TMC3    C6 6223   1.099   1.684  11.643  0.9858 -0.0643  0.4179
  417TMC3     C 6224   1.335   1.385  11.470  0.8567 -0.5962 -0.4523
  417TMC3     O 6225   1.333   1.282  11.539  0.0416  0.4077  0.1184
  417TMC3     H 6226   1.329   1.451  11.737  0.8391  0.7646  0.1393
  417TMC3    H1 6227   1.199   1.591  11.345  0.4009  0.4760 -0.1501
  417TMC3    H2 6228   1.025   1.740  11.699  2.8009  2.3815  0.3789
  417TMC3    C7 6229   0.988   1.690  11.420  0.6652 -0.5843 -1.8178
  417TMC3    C8 6230   1.166   1.617  11.864 -0.4585 -0.2141 -0.4069
  417TMC3    O1 6231   0.994   1.673  11.297  0.4220 -0.6687  0.5410
  417TMC3    O2 6232   1.096   1.707  11.898 -0.7641 -0.0604 -0.2766
  418TMC3    C1 6233   4.316   2.923   0.142 -0.7801  0.1439 -0.2353
  418TMC3    C2 6234   4.237   2.862   0.230  0.0265  0.0146 -0.0661
  418TMC3    C3 6235   4.163   2.935   0.317 -0.9502  0.5127 -0.2454
  418TMC3    C4 6236   4.348   3.050   0.154  0.3282  0.2525 -0.4318
  418TMC3    C5 6237   4.290   3.124   0.258  0.1124  0.3833 -0.6182
  418TMC3    C6 6238   4.189   3.064   0.329  0.3284 -0.1701 -0.1174
  418TMC3     C 6239   4.383   2.841   0.041 -1.6919  0.2317  0.5518
  418TMC3     O 6240   4.399   2.891  17.626  0.4623 -0.1959  0.4104
  418TMC3     H 6241   4.212   2.757   0.213 -3.6791  0.9549 -0.4201
  418TMC3    H1 6242   4.432   3.087   0.096  0.0699 -0.4105 -1.2306
  418TMC3    H2 6243   4.130   3.124   0.396 -0.4109  1.0250 -1.8501
  418TMC3    C7 6244   4.287   3.263   0.221  0.5119 -0.6994 -0.6602
  418TMC3    C8 6245   4.056   2.875   0.388 -0.0082 -0.8404  0.1721
  418TMC3    O1 6246   4.308   3.265   0.102  0.4725  0.2942  0.1173
  418TMC3    O2 6247   3.990   2.955   0.447 -0.6961 -0.2088  0.3948
  419MPD2     C 6248   3.319   0.803  12.338  0.7536  0.1847  0.2862
  419MPD2    C1 6249   3.215   0.878  12.290 -0.4748 -0.4340  0.1063
  419MPD2    C2 6250   3.153   0.960  12.385 -0.7946  0.8306  0.0416
  419MPD2    C3 6251   3.186   0.962  12.518  0.3690 -0.0999  0.1643
  419MPD2    C4 6252   3.292   0.882  12.562 -0.5952 -0.9519 -0.0777
  419MPD2    C5 6253   3.360   0.805  12.469 -0.1240  0.2443 -0.1106
  419MPD2     H 6254   3.067   1.025  12.371 -2.6880 -1.3456  1.6497
  419MPD2    H1 6255   3.326   0.894  12.664 -0.4868  0.9383 -0.3261
  419MPD2    H2 6256   3.376   0.736  12.274 -1.3506 -0.3795 -1.0122
  419MPD2    H3 6257   3.452   0.764  12.508 -0.2892 -1.5975 -1.6538
  419MPD2     N 6258   3.115   1.050  12.597  0.2054  0.1961  0.1906
  419MPD2    H5 6259   3.044   1.109  12.554  0.3528  1.5366  1.7794
  419MPD2    N1 6260   3.173   0.883  12.154 -0.4296  0.6013 -0.0368
  419MPD2    H7 6261   3.088   0.935  12.136 -1.0487  0.1657  1.5916
  420TMC3    C1 6262   3.079   1.199  12.780  0.9789  0.6227 -0.2964
  420TMC3    C2 6263   3.041   1.294  12.695  0.5870 -0.4683  0.3740
  420TMC3    C3 6264   2.977   1.402  12.745  0.4879  1.0153  0.1980
  420TMC3    C4 6265   3.064   1.204  12.916  0.2828  0.4115 -0.2688
  420TMC3    C5 6266   2.994   1.311  12.963 -0.3060  0.0271 -0.1285
  420TMC3    C6 6267   2.948   1.409  12.879  0.0625 -0.1629  0.2308
  420TMC3     C 6268   3.141   1.080  12.727 -0.5167  0.0682 -0.1183
  420TMC3     O 6269   3.198   1.011  12.809  0.1418 -0.0389  0.3217
  420TMC3     H 6270   3.066   1.290  12.590  0.9456 -0.2125  0.4515
  420TMC3    H1 6271   3.100   1.125  12.981  1.7694  1.4141  0.1415
  420TMC3    H2 6272   2.877   1.486  12.908  1.1154  0.5843  0.8446
  420TMC3    C7 6273   2.970   1.313  13.100 -0.2683 -0.1189  0.5314
  420TMC3    C8 6274   2.930   1.508  12.649  0.4849  0.7593 -0.5163
  420TMC3    O1 6275   3.025   1.226  13.165 -0.2002 -0.4503  0.0309
  420TMC3    O2 6276   2.927   1.468  12.532 -0.6826 -0.1106 -0.5528
  421TMC3    C1 6277   4.171   2.616  13.778 -0.4063 -0.7909  0.0852
  421TMC3    C2 6278   4.224   2.695  13.872  0.1091 -0.3528  0.1643
  421TMC3    C3 6279   4.355   2.679  13.915 -0.1649 -0.0321  0.5593
  421TMC3    C4 6280   4.239   2.506  13.730 -1.0024 -0.0993 -0.2165
  421TMC3    C5 6281   4.361   2.482  13.793 -0.5387  1.1681 -0.3673
  421TMC3    C6 6282   4.428   2.576  13.869 -0.6853  1.0592 -0.0737
  421TMC3     C 6283   4.051   2.663  13.713  0.1615  0.3940 -0.5894
  421TMC3     O 6284   3.998   2.765  13.760 -0.5305  0.4020 -0.0188
  421TMC3     H 6285   4.165   2.779  13.905  0.4245 -0.3607  0.7401
  421TMC3    H1 6286   4.203   2.444  13.649 -0.9083 -1.4323  0.7535
  421TMC3    H2 6287   4.521   2.563  13.923 -0.4657  0.8124 -0.5082
  421TMC3    C7 6288   4.436   2.363  13.766 -0.4765 -0.0084  0.0108
  421TMC3    C8 6289   4.415   2.783  14.000  0.3754  0.3832 -0.6959
  421TMC3    O1 6290   4.559   2.368  13.776 -0.0289  0.1902 -0.0889
  421TMC3    O2 6291   4.340   2.849  14.072  0.3684 -0.0451  0.6529
  422TMC3    C1 6292   2.158   4.123  12.525 -0.0433  0.2580 -0.2864
  422TMC3    C2 6293   2.169   4.243  12.589  0.3817 -0.1468  0.5876
  422TMC3    C3 6294   2.056   4.296  12.647 -0.1352 -1.0139 -0.8189
  422TMC3    C4 6295   2.042   4.057  12.534  0.4788  0.3550  0.1228
  422TMC3    C5 6296   1.935   4.106  12.605  0.2479  0.3658 -0.0238
  422TMC3    C6 6297   1.934   4.238  12.653  0.3630  0.0230 -0.9531
  422TMC3     C 6298   2.267   4.086  12.439 -0.2685 -0.4370  0.2017
  422TMC3     O 6299   2.363   4.159  12.415  0.2126  0.4232  0.3332
  422TMC3     H 6300   2.256   4.307  12.577  0.1248 -0.2493 -1.7802
  422TMC3    H1 6301   2.024   3.957  12.495 -2.5604  1.4049 -1.1429
  422TMC3    H2 6302   1.863   4.283  12.721 -2.4431  0.0334 -3.8588
  422TMC3    C7 6303   1.820   4.014  12.614  0.6608  0.1505  0.1056
  422TMC3    C8 6304   2.075   4.414  12.723 -0.3122  0.4351 -0.6962
  422TMC3    O1 6305   1.835   3.891  12.583 -0.6417 -0.3208  0.2788
  422TMC3    O2 6306   2.184   4.412  12.775 -0.1552 -0.3581 -0.2086
  423MPD2     C 6307   3.630   3.892   0.877  0.1091 -0.5486  0.2390
  423MPD2    C1 6308   3.514   3.831   0.830  0.2179 -0.0405 -0.6164
  423MPD2    C2 6309   3.478   3.852   0.701 -0.3796  0.5110 -0.4313
  423MPD2    C3 6310   3.562   3.906   0.612 -0.2654 -0.4956  0.1967
  423MPD2    C4 6311   3.676   3.976   0.659  0.3976 -0.2963 -0.2711
  423MPD2    C5 6312   3.716   3.953   0.791 -0.0653  0.0040 -0.6223
  423MPD2     H 6313   3.381   3.820   0.665  0.2131 -2.9420  1.0237
  423MPD2    H1 6314   3.754   4.019   0.597 -0.5717  0.5087 -0.9338
  423MPD2    H2 6315   3.655   3.873   0.981  0.0129 -2.1770 -0.0306
  423MPD2    H3 6316   3.808   3.996   0.830  0.4077  0.3364 -2.0935
  423MPD2     N 6317   3.529   3.920   0.480  0.1255 -0.5142  0.2415
  423MPD2    H5 6318   3.587   3.986   0.429 -1.2617  0.0794 -0.5686
  423MPD2    N1 6319   3.406   3.793   0.915 -0.5881  0.5027  0.2948
  423MPD2    H7 6320   3.317   3.776   0.870  0.2843  0.1904 -1.3402
  424TMC3    C1 6321   3.277   3.818   1.103 -0.3376 -0.0709  0.3050
  424TMC3    C2 6322   3.258   3.782   1.237 -0.3153 -0.1123  0.2599
  424TMC3    C3 6323   3.163   3.853   1.311 -0.2124 -0.6843 -0.0132
  424TMC3    C4 6324   3.218   3.932   1.053 -0.2511  1.1119 -0.5798
  424TMC3    C5 6325   3.135   3.998   1.134  0.1910  0.0374 -0.1161
  424TMC3    C6 6326   3.107   3.965   1.264 -0.1573  0.0449 -0.5890
  424TMC3     C 6327   3.414   3.794   1.050  0.5037  0.0264  0.2420
  424TMC3     O 6328   3.508   3.786   1.131  0.1486  0.3258 -0.0923
  424TMC3     H 6329   3.309   3.699   1.283 -0.8745  0.0017  1.0904
  424TMC3    H1 6330   3.249   3.974   0.958  0.6999 -2.9759 -2.0784
  424TMC3    H2 6331   3.025   4.017   1.311  1.0684 -0.6621  2.3255
  424TMC3    C7 6332   3.102   4.135   1.098  0.5712  0.6005 -0.0216
  424TMC3    C8 6333   3.132   3.781   1.435 -0.3994 -0.2171  0.1211
  424TMC3    O1 6334   3.079   4.219   1.183  0.1173 -0.0749  0.0139
  424TMC3    O2 6335   3.138   3.656   1.439  0.0407 -0.3106 -0.2800
  425MPD2     C 6336   1.969   4.257  17.250  0.2217 -0.3103 -0.2922
  425MPD2    C1 6337   1.927   4.123  17.247  0.6046  0.0242  0.3731
  425MPD2    C2 6338   1.797   4.094  17.242 -0.8857  0.0890  0.5554
  425MPD2    C3 6339   1.700   4.199  17.224 -0.1776  0.1823 -0.2642
  425MPD2    C4 6340   1.748   4.327  17.213  0.5978  0.0029 -0.4067
  425MPD2    C5 6341   1.883   4.357  17.228 -0.3069  0.2232 -0.0694
  425MPD2     H 6342   1.759   3.994  17.259  0.8352 -0.8053 -0.9159
  425MPD2    H1 6343   1.681   4.409  17.189 -1.4110 -0.9062  1.9938
  425MPD2    H2 6344   2.074   4.282  17.253  0.1256  0.2570 -1.9779
  425MPD2    H3 6345   1.924   4.455  17.210 -1.1962  0.9515  1.8887
  425MPD2     N 6346   1.564   4.159  17.216 -0.0970 -0.3482  0.2504
  425MPD2    H5 6347   1.549   4.058  17.218 -2.5484  0.0139 -0.0401
  425MPD2    N1 6348   2.020   4.021  17.255  0.2984 -0.3424  0.2162
  425MPD2    H7 6349   2.115   4.052  17.273 -0.0512  0.5472  0.5248
  426TMC3    C1 6350   2.104   3.800  17.264  0.6693 -0.0565 -0.1299
  426TMC3    C2 6351   2.114   3.687  17.187 -0.3631 -1.1010 -1.0220
  426TMC3    C3 6352   2.189   3.590  17.227 -0.6137 -0.3800 -0.3867
  426TMC3    C4 6353   2.162   3.806  17.391  0.1149  0.0101  0.3989
  426TMC3    C5 6354   2.252   3.706  17.421 -0.4307 -0.4055 -0.1977
  426TMC3    C6 6355   2.266   3.596  17.342 -0.2604  0.1089 -0.7535
  426TMC3     C 6356   2.001   3.892  17.224 -0.0583 -0.5890  0.8627
  426TMC3     O 6357   1.905   3.855  17.155 -0.0998 -0.0616  0.1523
  426TMC3     H 6358   2.065   3.688  17.090 -0.0390  0.0791 -1.1861
  426TMC3    H1 6359   2.150   3.894  17.453  1.4843 -0.2705  1.0672
  426TMC3    H2 6360   2.325   3.514  17.380  2.0733  1.9508 -0.4047
  426TMC3    C7 6361   2.318   3.709  17.544 -0.3782  0.2886  0.3884
  426TMC3    C8 6362   2.212   3.476  17.136  0.3556  0.1853  0.5111
  426TMC3    O1 6363   2.421   3.636  17.548  0.0194 -0.0412  0.1397
  426TMC3    O2 6364   2.314   3.408  17.149 -0.8554 -0.6933  0.1011
  427MPD2     C 6365   0.776   1.432  14.799  0.2743 -0.4307  0.4000
  427MPD2    C1 6366   0.770   1.418  14.936  0.2251  0.1289  0.7241
  427MPD2    C2 6367   0.651   1.439  15.006 -0.1730  0.1052 -0.1858
  427MPD2    C3 6368   0.538   1.481  14.936 -0.6430  0.0910 -1.2201
  427MPD2    C4 6369   0.547   1.491  14.803  1.0483 -0.0877  0.4492
  427MPD2    C5 6370   0.662   1.466  14.730 -0.2305 -0.0952 -0.4622
  427MPD2     H 6371   0.649   1.431  15.115 -2.2050 -3.5780 -0.4963
  427MPD2    H1 6372   0.460   1.518  14.746  2.1187  0.8152 -0.7575
  427MPD2    H2 6373   0.868   1.420  14.743  0.0311  1.3522 -0.3814
  427MPD2    H3 6374   0.657   1.478  14.623  0.6062  1.6671 -0.3060
  427MPD2     N 6375   0.417   1.519  15.003  0.3360 -0.2873 -0.2237
  427MPD2    H5 6376   0.337   1.538  14.944  0.8093  1.0631 -0.4379
  427MPD2    N1 6377   0.873   1.365  15.018  0.1990  0.5312  0.1396
  427MPD2    H7 6378   0.856   1.346  15.116 -0.9703  3.2094  0.4631
  428TMC3    C1 6379   1.067   1.246  15.067 -0.1166 -0.1849 -0.0197
  428TMC3    C2 6380   0.989   1.155  15.138  0.1701 -0.4754 -0.4251
  428TMC3    C3 6381   1.046   1.089  15.241  0.1127  0.1032 -0.3364
  428TMC3    C4 6382   1.193   1.282  15.109 -0.7408  0.5403 -0.6060
  428TMC3    C5 6383   1.248   1.214  15.216  0.0525  0.7648 -0.0663
  428TMC3    C6 6384   1.172   1.120  15.287 -0.2324 -0.0068 -0.8658
  428TMC3     C 6385   0.994   1.328  14.968  0.3917  0.1350  0.5870
  428TMC3     O 6386   1.052   1.369  14.870  1.0580 -0.0687 -0.1549
  428TMC3     H 6387   0.889   1.122  15.115 -0.2475  0.5349 -0.0619
  428TMC3    H1 6388   1.237   1.367  15.059 -3.5652  1.6060 -1.2912
  428TMC3    H2 6389   1.225   1.050  15.350 -1.2275  0.2788  0.2849
  428TMC3    C7 6390   1.382   1.261  15.272  0.1600  0.2824  0.9386
  428TMC3    C8 6391   0.991   0.964  15.285  0.3783 -0.1269  0.4151
  428TMC3    O1 6392   1.408   1.208  15.377  0.6801 -0.7302 -0.0459
  428TMC3    O2 6393   0.911   0.907  15.209 -0.0510 -0.3487 -0.1809
  429MPD2     C 6394   1.485   1.405   0.111  0.8246  0.3338  0.4009
  429MPD2    C1 6395   1.611   1.368   0.065 -0.0108  0.0199 -0.7370
  429MPD2    C2 6396   1.705   1.467   0.056  0.4321  0.5685  0.2496
  429MPD2    C3 6397   1.680   1.600   0.088  0.8092 -0.3843  0.0172
  429MPD2    C4 6398   1.554   1.634   0.130  0.3380  0.1622  0.3341
  429MPD2    C5 6399   1.460   1.540   0.145  0.2722 -0.3235 -0.4942
  429MPD2     H 6400   1.801   1.435   0.016 -0.9432 -1.8445 -1.1742
  429MPD2    H1 6401   1.522   1.736   0.149  1.1066 -0.0165  2.5877
  429MPD2    H2 6402   1.406   1.335   0.134 -0.1555  2.3764  3.2660
  429MPD2    H3 6403   1.360   1.572   0.174 -0.3089 -1.1502 -1.5816
  429MPD2     N 6404   1.789   1.681   0.080  0.6756 -0.7927  0.8429
  429MPD2    H5 6405   1.881   1.653   0.047  0.7163  2.5904 -1.9572
  429MPD2    N1 6406   1.633   1.234   0.023  0.6776 -0.2899  0.3324
  429MPD2    H7 6407   1.728   1.205  17.696  0.1036 -0.5379 -1.6169
  430TMC3    C1 6408   1.892   1.878   0.021  0.1744 -0.4968  0.6912
  430TMC3    C2 6409   1.849   1.989  17.655 -0.1080 -0.5755 -0.3176
  430TMC3    C3 6410   1.908   2.033  17.536  0.8738  0.2504 -0.2315
  430TMC3    C4 6411   1.988   1.802  17.657  0.6673  0.1135 -0.7236
  430TMC3    C5 6412   2.045   1.847  17.541 -1.2373  0.1757 -0.3205
  430TMC3    C6 6413   2.005   1.965  17.478  1.0662  0.6064  0.0589
  430TMC3     C 6414   1.790   1.815   0.105 -0.3483  0.2596  0.2271
  430TMC3     O 6415   1.695   1.884   0.133  0.0692  0.1066 -0.4094
  430TMC3     H 6416   1.758   2.037  17.688  0.4374  0.1072  0.1984
  430TMC3    H1 6417   2.021   1.715   0.017 -0.8279 -0.1680 -0.2802
  430TMC3    H2 6418   2.052   1.991  17.384 -0.6632  1.0980 -0.6833
  430TMC3    C7 6419   2.165   1.776  17.502 -0.1046  0.3331 -0.5286
  430TMC3    C8 6420   1.799   2.085  17.450  0.3214 -0.1292  0.3361
  430TMC3    O1 6421   2.189   1.674  17.560  0.2956  0.2661 -0.7181
  430TMC3    O2 6422   1.680   2.084  17.482  0.0978 -0.1915 -0.1651
  431MPD2     C 6423   2.830   1.544  12.015  0.5185 -0.1550 -0.0912
  431MPD2    C1 6424   2.945   1.563  11.948  0.1672 -0.0330 -0.0193
  431MPD2    C2 6425   3.006   1.462  11.886 -0.2856 -0.0792 -0.0567
  431MPD2    C3 6426   2.962   1.329  11.910  0.6442 -0.2165  0.8463
  431MPD2    C4 6427   2.848   1.310  11.981 -0.0613  0.2935  0.1612
  431MPD2    C5 6428   2.778   1.418  12.021  0.4509 -0.2015 -0.5920
  431MPD2     H 6429   3.103   1.475  11.838 -0.6022 -0.2821 -0.7492
  431MPD2    H1 6430   2.809   1.212  12.007  2.2152 -0.3586  1.0846
  431MPD2    H2 6431   2.774   1.624  12.063 -0.8370 -0.3446 -1.3579
  431MPD2    H3 6432   2.679   1.411  12.064  0.4433  1.8506 -0.2907
  431MPD2     N 6433   3.036   1.209  11.863 -0.5367  0.0655 -0.3140
  431MPD2    H5 6434   3.001   1.122  11.903 -0.5172  1.1807  2.1506
  431MPD2    N1 6435   3.013   1.685  11.940  0.7450 -0.6305  0.4155
  431MPD2    H7 6436   3.100   1.683  11.888  1.0524  2.7839  0.7480
  432TMC3    C1 6437   3.201   1.067  11.796  0.0085 -0.4400 -0.7747
  432TMC3    C2 6438   3.228   0.995  11.678  0.2189  0.3885 -0.3417
  432TMC3    C3 6439   3.225   0.859  11.689 -0.2512 -0.0297 -0.5393
  432TMC3    C4 6440   3.177   1.008  11.918  0.7121 -0.0875 -0.7047
  432TMC3    C5 6441   3.186   0.872  11.923  0.0493 -0.6493 -0.0978
  432TMC3    C6 6442   3.203   0.795  11.806  0.2615  0.5935  0.1135
  432TMC3     C 6443   3.156   1.204  11.797  0.0914 -0.1393  0.2325
  432TMC3     O 6444   3.196   1.286  11.713 -0.3565 -0.2308 -0.2010
  432TMC3     H 6445   3.234   1.053  11.587 -1.4120  0.9164 -0.1280
  432TMC3    H1 6446   3.179   1.074  12.004  1.5718  1.0114 -1.5556
  432TMC3    H2 6447   3.235   0.693  11.820 -0.4021  0.4645  0.6766
  432TMC3    C7 6448   3.232   0.814  12.049  0.3349  0.3620  0.3341
  432TMC3    C8 6449   3.277   0.776  11.585 -0.3974  0.0087  0.2525
  432TMC3    O1 6450   3.330   0.739  12.043 -0.8730  0.3256 -0.0662
  432TMC3    O2 6451   3.265   0.654  11.576 -0.1719  0.2471  0.3089
  433MPD2     C 6452   2.166   0.631  10.915 -0.0634  0.1548 -0.2077
  433MPD2    C1 6453   2.131   0.504  10.952  0.7148  0.3660 -0.4403
  433MPD2    C2 6454   2.102   0.474  11.084  0.4420  0.3496 -0.2992
  433MPD2    C3 6455   2.114   0.570  11.182  0.8552  0.5282 -0.0927
  433MPD2    C4 6456   2.141   0.702  11.153 -0.2080  0.1603 -0.4675
  433MPD2    C5 6457   2.171   0.730  11.017 -0.2517 -0.9688  0.1458
  433MPD2     H 6458   2.075   0.372  11.109 -0.2087  0.3787 -0.8755
  433MPD2    H1 6459   2.145   0.782  11.226 -0.6621 -0.1349 -0.1164
  433MPD2    H2 6460   2.199   0.656  10.815 -0.7446  0.7746 -0.2742
  433MPD2    H3 6461   2.196   0.829  10.978 -0.5433 -0.5177  1.0993
  433MPD2     N 6462   2.089   0.524  11.316  0.2866  0.0471  0.5760
  433MPD2    H5 6463   2.104   0.425  11.329  1.0316 -0.0567 -1.0737
  433MPD2    N1 6464   2.109   0.406  10.852  0.3322 -0.2995  0.1491
  433MPD2    H7 6465   2.082   0.315  10.889 -1.1194  0.1467  0.2054
  434TMC3    C1 6466   2.050   0.306  10.638  0.1931  0.0320 -0.3182
  434TMC3    C2 6467   2.060   0.185  10.699  0.0650 -0.4446 -0.6704
  434TMC3    C3 6468   2.091   0.077  10.620 -0.7298 -0.4777  0.5488
  434TMC3    C4 6469   2.051   0.320  10.502  0.1352 -0.1394  0.5197
  434TMC3    C5 6470   2.068   0.206  10.428  0.0240  0.2399  0.0520
  434TMC3    C6 6471   2.100   0.083  10.480  0.3343 -0.9431  0.3693
  434TMC3     C 6472   2.090   0.428  10.717 -0.2579 -0.7805  0.4254
  434TMC3     O 6473   2.095   0.535  10.657 -0.2363 -0.4070 -0.9233
  434TMC3     H 6474   2.064   0.164  10.805  1.9470  1.0891 -0.4247
  434TMC3    H1 6475   2.040   0.418  10.456 -0.2050 -0.5622 -0.2962
  434TMC3    H2 6476   2.142   0.005  10.417 -0.3937  0.1225 -1.4403
  434TMC3    C7 6477   2.095   0.203  10.289  0.6903 -0.3151 -0.0968
  434TMC3    C8 6478   2.151   4.690  10.688 -0.2900  0.0233  0.0157
  434TMC3    O1 6479   2.210   0.190  10.249 -0.8276  0.0921  0.2832
  434TMC3    O2 6480   2.198   4.713  10.791  0.3347  0.2773 -0.1114
  435MPD2     C 6481   3.168   0.144  15.623 -0.0228  0.3702 -0.2349
  435MPD2    C1 6482   3.149   0.140  15.758  0.8853 -0.6214 -0.4016
  435MPD2    C2 6483   3.259   0.126  15.836  0.0840 -0.1313  0.4548
  435MPD2    C3 6484   3.386   0.096  15.783  0.5991  0.2488  0.2982
  435MPD2    C4 6485   3.402   0.109  15.648  0.0761  0.2434 -0.9247
  435MPD2    C5 6486   3.289   0.137  15.570 -0.5766  0.5127 -0.2428
  435MPD2     H 6487   3.249   0.119  15.944 -0.2768  1.2161  0.5010
  435MPD2    H1 6488   3.497   0.102  15.597  1.5822  1.5447  1.7044
  435MPD2    H2 6489   3.085   0.163  15.555  0.1180  0.2207 -0.4485
  435MPD2    H3 6490   3.299   0.144  15.462  2.6109  1.3698  0.1072
  435MPD2     N 6491   3.494   0.077  15.870  0.5085  0.1728 -0.4870
  435MPD2    H5 6492   3.473   0.075  15.969  1.3514 -0.3232 -0.3122
  435MPD2    N1 6493   3.024   0.146  15.815  0.4373 -0.0443  0.0631
  435MPD2    H7 6494   3.010   0.156  15.915  1.3180 -0.8257  0.2605
  436TMC3    C1 6495   2.734   0.208  16.056 -0.5457 -0.0094 -0.9736
  436TMC3    C2 6496   2.824   0.136  15.981  1.0321  0.4174 -0.6779
  436TMC3    C3 6497   2.796   0.141  15.848 -0.4380 -0.1965 -0.2587
  436TMC3    C4 6498   2.615   0.255  16.016 -0.1215  0.6602  0.0015
  436TMC3    C5 6499   2.591   0.248  15.890 -0.4311 -0.1383 -0.7124
  436TMC3    C6 6500   2.683   0.203  15.798 -0.1549  0.0726 -0.1578
  436TMC3     C 6501   2.772   0.218  16.198  0.1996 -0.8291 -0.2063
  436TMC3     O 6502   2.824   0.120  16.240 -0.6007 -0.5790  0.3879
  436TMC3     H 6503   2.912   0.089  16.024  0.9714 -0.7705 -1.8425
  436TMC3    H1 6504   2.542   0.310  16.075 -0.8387  1.6428 -1.7987
  436TMC3    H2 6505   2.687   0.231  15.694  3.2946  0.1193 -0.0291
  436TMC3    C7 6506   2.460   0.298  15.864  0.3592  0.0840 -0.3328
  436TMC3    C8 6507   2.899   0.136  15.753 -0.2169 -0.1104 -0.5505
  436TMC3    O1 6508   2.449   0.384  15.776 -0.4754 -0.0745  0.5776
  436TMC3    O2 6509   2.872   0.132  15.636 -0.2970 -0.2573  0.1954
  437TMC3    C1 6510   2.204   2.353  12.308 -0.2719 -0.3267 -0.4729
  437TMC3    C2 6511   2.091   2.425  12.314  1.0897  0.1064 -0.1005
  437TMC3    C3 6512   2.093   2.554  12.271  0.1916 -0.6087  0.4067
  437TMC3    C4 6513   2.311   2.404  12.239 -0.4451  0.0954  0.7553
  437TMC3    C5 6514   2.299   2.532  12.178  0.6920  0.0470  0.1167
  437TMC3    C6 6515   2.192   2.617  12.205  0.2318  0.2263  0.4212
  437TMC3     C 6516   2.210   2.230  12.384  0.3364  0.2177  0.8594
  437TMC3     O 6517   2.110   2.163  12.394 -0.2506 -0.3310  0.3078
  437TMC3     H 6518   2.007   2.390  12.373  0.2580  0.0841 -1.2947
  437TMC3    H1 6519   2.400   2.348  12.214 -1.2101 -0.9968  0.4954
  437TMC3    H2 6520   2.180   2.718  12.167 -0.4110 -0.5995 -1.6156
  437TMC3    C7 6521   2.415   2.587  12.104  0.2845  0.4255 -0.4652
  437TMC3    C8 6522   1.994   2.635  12.326  0.4600 -0.0565  0.2109
  437TMC3    O1 6523   2.391   2.652  12.005  0.1840  0.2170 -0.0300
  437TMC3    O2 6524   1.894   2.575  12.356 -0.3973  0.8995  0.6333
  438MPD2     C 6525   4.318   3.457  17.064  0.1195 -0.3958 -0.5906
  438MPD2    C1 6526   4.363   3.348  17.135 -0.4266  0.2678 -0.0321
  438MPD2    C2 6527   4.312   3.322  17.261  0.2197  0.1527  0.5805
  438MPD2    C3 6528   4.213   3.403  17.317 -0.4832 -0.1058  0.2805
  438MPD2    C4 6529   4.162   3.507  17.244  0.3654 -0.0853 -0.8182
  438MPD2    C5 6530   4.218   3.529  17.122 -0.0364 -0.7901 -0.0259
  438MPD2     H 6531   4.353   3.234  17.309  0.3397  0.5056  1.1325
  438MPD2    H1 6532   4.087   3.571  17.288  2.0009  0.9416  0.4880
  438MPD2    H2 6533   4.355   3.493  16.969  3.0965 -1.3640  0.1965
  438MPD2    H3 6534   4.176   3.609  17.063  1.1099 -1.5473 -1.8930
  438MPD2     N 6535   4.184   3.381  17.455  0.1796  0.2418 -0.3526
  438MPD2    H5 6536   4.217   3.298  17.504 -2.7929 -0.5921  0.2968
  438MPD2    N1 6537   4.448   3.261  17.072 -0.3708  0.0860 -0.3512
  438MPD2    H7 6538   4.484   3.185  17.129  1.8553  1.6081  0.3032
  439TMC3    C1 6539   4.580   3.163  16.887 -0.5720  0.0160 -0.9262
  439TMC3    C2 6540   4.575   3.135  16.753 -0.2220  0.2050 -0.7327
  439TMC3    C3 6541   4.634   3.023  16.713 -0.1243  0.2110  0.3136
  439TMC3    C4 6542   4.645   3.081  16.975  0.8661 -0.8632  0.1455
  439TMC3    C5 6543   4.683   2.963  16.929 -0.4256  0.1773 -0.3353
  439TMC3    C6 6544   4.683   2.930  16.799  0.3804  0.1188 -0.3268
  439TMC3     C 6545   4.502   3.278  16.942 -0.0771  0.2869 -1.0416
  439TMC3     O 6546   4.509   3.371  16.865 -0.5356 -0.0831  0.7504
  439TMC3     H 6547   4.528   3.206  16.686 -0.6319 -0.3920 -1.0732
  439TMC3    H1 6548   4.664   3.098  17.080  2.0003 -1.2892  0.0130
  439TMC3    H2 6549   0.006   2.839  16.762 -2.2766 -1.0846 -0.7286
  439TMC3    C7 6550   0.038   2.876  17.015  0.2781  0.0726  0.3722
  439TMC3    C8 6551   4.621   2.978  16.578  0.2930  0.6402  0.6490
  439TMC3    O1 6552   0.105   2.921  17.108 -0.0631  0.3662  0.3086
  439TMC3    O2 6553   4.650   2.864  16.550  0.4921  0.1430 -0.2855
  440MPD2     C 6554   3.815   3.455  14.396  1.0115  0.1678  0.2390
  440MPD2    C1 6555   3.797   3.489  14.529  0.7332  0.6763 -0.8573
  440MPD2    C2 6556   3.865   3.430  14.638 -0.4764 -0.4713 -0.5751
  440MPD2    C3 6557   3.945   3.315  14.609  0.7719 -0.1159  0.1413
  440MPD2    C4 6558   3.960   3.280  14.479  0.0856 -0.1925 -0.2655
  440MPD2    C5 6559   3.888   3.340  14.375  1.0017  0.3485  0.3794
  440MPD2     H 6560   3.835   3.469  14.735  1.0741  0.4110 -0.4513
  440MPD2    H1 6561   4.032   3.204  14.452  0.9738  0.4546  0.2647
  440MPD2    H2 6562   3.758   3.498  14.314  2.6108  2.5577  0.3753
  440MPD2    H3 6563   3.901   3.308  14.272  1.7397  0.0311  0.5690
  440MPD2     N 6564   4.001   3.247  14.716  0.0503 -0.2760  0.6112
  440MPD2    H5 6565   3.972   3.283  14.807 -1.5228 -0.5212  0.1948
  440MPD2    N1 6566   3.695   3.592  14.562 -0.4105  0.1849  0.1063
  440MPD2    H7 6567   3.680   3.607  14.661 -0.1828 -2.0622  0.4866
  441TMC3    C1 6568   4.136   3.102  14.832  0.6943 -0.6556 -0.5054
  441TMC3    C2 6569   4.149   3.206  14.914  1.0072 -0.0339  0.1012
  441TMC3    C3 6570   4.176   3.187  15.044  0.2773 -0.1194  0.9445
  441TMC3    C4 6571   4.127   2.975  14.879 -0.4043 -0.2755 -0.0670
  441TMC3    C5 6572   4.148   2.954  15.014 -0.6162 -0.4066  0.4025
  441TMC3    C6 6573   4.173   3.058  15.093 -1.2935  0.8103  0.7685
  441TMC3     C 6574   4.074   3.130  14.702 -0.1430 -0.2371  0.1073
  441TMC3     O 6575   4.079   3.041  14.621 -0.1351 -0.3000  0.8495
  441TMC3     H 6576   4.177   3.300  14.866  0.1942 -0.1126 -0.5232
  441TMC3    H1 6577   4.114   2.892  14.810  1.1822 -0.2583 -0.3950
  441TMC3    H2 6578   4.173   3.042  15.201 -0.2899 -2.3960  0.2834
  441TMC3    C7 6579   4.086   2.842  15.080 -0.3888  0.8732 -0.3759
  441TMC3    C8 6580   4.182   3.299  15.134 -0.5555 -0.6702 -0.7977
  441TMC3    O1 6581   4.089   2.846  15.203 -0.2006 -0.5639  0.4068
  441TMC3    O2 6582   4.222   3.278  15.245  0.0510  0.1650 -0.6571
  442MPD2     C 6583   1.694   4.080  16.414  0.4868  0.3998  0.1698
  442MPD2    C1 6584   1.591   3.986  16.395  0.4766  0.1523  0.7000
  442MPD2    C2 6585   1.625   3.851  16.382 -0.5482 -0.2021 -0.0726
  442MPD2    C3 6586   1.753   3.811  16.399 -0.0303 -0.5138 -0.7902
  442MPD2    C4 6587   1.854   3.905  16.412  0.5301  0.0166 -0.3957
  442MPD2    C5 6588   1.826   4.043  16.411  0.6092  0.2467 -0.0275
  442MPD2     H 6589   1.547   3.778  16.365 -0.5866 -0.1435 -0.1424
  442MPD2    H1 6590   1.961   3.886  16.421  0.3544 -0.2403  1.2217
  442MPD2    H2 6591   1.668   4.185  16.425  0.1660  0.5897 -2.2959
  442MPD2    H3 6592   1.899   4.123  16.414  0.2255  0.6342 -0.9994
  442MPD2     N 6593   1.788   3.672  16.394 -1.0632  0.0004 -0.3497
  442MPD2    H5 6594   1.887   3.653  16.408 -1.5790 -0.2846  2.8544
  442MPD2    N1 6595   1.459   4.030  16.375 -0.2965  0.2471  0.5500
  442MPD2    H7 6596   1.392   3.953  16.380 -0.4809  0.3758 -0.0191
  443TMC3    C1 6597   1.267   4.167  16.346  0.1552  0.2993 -0.2565
  443TMC3    C2 6598   1.222   4.264  16.258 -0.3440 -0.9795  0.4993
  443TMC3    C3 6599   1.088   4.273  16.246  1.1747 -0.2992 -0.1192
  443TMC3    C4 6600   1.184   4.086  16.419 -0.0668 -0.2744 -0.0115
  443TMC3    C5 6601   1.053   4.122  16.416  0.0278 -0.0932  1.1682
  443TMC3    C6 6602   0.999   4.212  16.327 -0.5115 -0.1069 -0.0545
  443TMC3     C 6603   1.415   4.156  16.346 -0.3016 -0.0664  0.3479
  443TMC3     O 6604   1.480   4.248  16.306  0.8227 -0.5938 -0.3561
  443TMC3     H 6605   1.288   4.328  16.201 -0.1947 -1.9634 -0.4339
  443TMC3    H1 6606   1.222   4.004  16.479  0.8087 -1.1647 -1.7601
  443TMC3    H2 6607   0.894   4.237  16.312  0.2198  2.3590 -1.1381
  443TMC3    C7 6608   0.969   4.072  16.527  0.3152 -0.3939 -0.0469
  443TMC3    C8 6609   1.036   4.366  16.148 -0.3292 -0.1827  0.1823
  443TMC3    O1 6610   1.012   3.980  16.595 -0.1297 -0.1654 -0.2774
  443TMC3    O2 6611   0.987   4.471  16.196  0.3806  0.0141 -0.4853
  444MPD2     C 6612   2.070   2.955  17.027  0.4183  1.1068  0.1919
  444MPD2    C1 6613   2.008   2.937  16.908  0.2511  0.0800 -0.2919
  444MPD2    C2 6614   2.079   2.881  16.798 -0.1545  0.4389 -0.3344
  444MPD2    C3 6615   2.213   2.840  16.808  0.1716  0.7484 -0.0668
  444MPD2    C4 6616   2.276   2.852  16.932  0.3010  0.1863  0.0860
  444MPD2    C5 6617   2.205   2.909  17.040 -0.0235  0.3237 -1.0392
  444MPD2     H 6618   2.021   2.868  16.708  1.4498 -0.3918 -1.2522
  444MPD2    H1 6619   2.374   2.812  16.956  0.4270  1.0688  1.0301
  444MPD2    H2 6620   2.010   2.995  17.108 -1.5748 -0.9189 -0.3087
  444MPD2    H3 6621   2.256   2.905  17.135 -1.8772  0.2786 -0.0494
  444MPD2     N 6622   2.274   2.767  16.699 -0.3311  0.0290 -0.6013
  444MPD2    H5 6623   2.203   2.744  16.630 -1.1027  3.4917 -0.9570
  444MPD2    N1 6624   1.869   2.958  16.891 -0.2739  0.3002 -0.4117
  444MPD2    H7 6625   1.841   2.931  16.797 -2.2347  1.3078 -0.1244
  445TMC3    C1 6626   2.425   2.612  16.600  0.2575 -0.2414  0.2555
  445TMC3    C2 6627   2.326   2.569  16.518 -1.0839  0.4703  0.4301
  445TMC3    C3 6628   2.359   2.487  16.419  0.4649 -0.1867  0.0126
  445TMC3    C4 6629   2.558   2.563  16.598  0.5579 -0.0776 -0.4610
  445TMC3    C5 6630   2.583   2.471  16.498  0.0440 -0.0417  0.7502
  445TMC3    C6 6631   2.487   2.444  16.403 -0.1053  0.0510 -0.3083
  445TMC3     C 6632   2.390   2.701  16.706  0.2437 -0.6894 -0.6655
  445TMC3     O 6633   2.488   2.719  16.780  0.8064  0.5878 -0.5234
  445TMC3     H 6634   2.222   2.596  16.534 -1.5326 -0.8129 -0.4041
  445TMC3    H1 6635   2.637   2.606  16.658 -1.0640  1.7687  0.3843
  445TMC3    H2 6636   2.521   2.398  16.312 -0.1572 -1.1346  0.2785
  445TMC3    C7 6637   2.722   2.460  16.460  0.4492 -0.6558  0.3346
  445TMC3    C8 6638   2.249   2.444  16.338 -0.1836  1.0001 -0.4108
  445TMC3    O1 6639   2.795   2.543  16.513  0.2637  0.2613  0.4560
  445TMC3    O2 6640   2.146   2.502  16.340  0.7398 -0.5865 -0.4354
  446MPD2     C 6641   1.986   4.598  11.276  0.2895 -0.0811  0.9450
  446MPD2    C1 6642   1.985   4.593  11.135 -0.2387 -0.2498 -0.6581
  446MPD2    C2 6643   2.068   4.679  11.068  0.3605  0.1783 -0.1820
  446MPD2    C3 6644   2.138   0.056  11.124 -0.0642 -1.1763  0.3534
  446MPD2    C4 6645   2.135   0.061  11.266  0.6190 -0.3401  0.2890
  446MPD2    C5 6646   2.068   4.691  11.333  0.0196  0.4698 -0.5544
  446MPD2     H 6647   2.077   4.653  10.963  1.8280  1.4536 -0.3737
  446MPD2    H1 6648   2.186   0.139  11.321 -0.7672  0.4134  0.5256
  446MPD2    H2 6649   1.932   4.534  11.345 -0.3423 -0.7455 -0.1578
  446MPD2    H3 6650   2.072   4.695  11.441 -0.5200 -2.0979 -0.4379
  446MPD2     N 6651   2.234   0.120  11.050 -0.3297 -0.4585 -0.1483
  446MPD2    H5 6652   2.250   0.090  10.954 -0.4793 -1.4583  0.1382
  446MPD2    N1 6653   1.907   4.496  11.068 -0.3470 -0.2189  0.7901
  446MPD2    H7 6654   1.938   4.478  10.973 -1.7708  2.1882 -0.1333
  447TMC3    C1 6655   2.431   0.221  11.006 -0.0494 -0.1388 -0.3559
  447TMC3    C2 6656   2.410   0.182  10.876 -0.1672 -0.1237 -0.3964
  447TMC3    C3 6657   2.515   0.125  10.807 -0.1689  0.7710  0.3977
  447TMC3    C4 6658   2.549   0.204  11.069  0.1943 -0.3818 -0.5469
  447TMC3    C5 6659   2.649   0.140  10.999 -0.2345  0.6116 -0.2638
  447TMC3    C6 6660   2.634   0.102  10.867 -0.7798  0.2051  0.5118
  447TMC3     C 6661   2.326   0.211  11.101  0.4775  0.0772 -0.2188
  447TMC3     O 6662   2.338   0.273  11.205  0.7903 -0.2067  0.4693
  447TMC3     H 6663   2.324   0.216  10.819 -0.1236  0.4309 -0.1285
  447TMC3    H1 6664   2.563   0.235  11.172 -1.3725  0.4279 -0.5704
  447TMC3    H2 6665   2.705   0.036  10.818  1.7534  1.7584  2.1047
  447TMC3    C7 6666   2.767   0.088  11.068  0.6504 -0.3855 -0.4508
  447TMC3    C8 6667   2.497   0.109  10.664 -0.0935 -0.4791  0.0815
  447TMC3    O1 6668   2.862   0.049  11.002  0.7374 -0.1166 -0.5251
  447TMC3    O2 6669   2.394   0.144  10.611  0.0327 -0.0871  0.6162
  448TMC3    C1 6670   0.087   4.591  16.861 -0.1163 -0.4087  0.4226
  448TMC3    C2 6671   0.098   4.475  16.794  0.1076 -0.4586 -0.1925
  448TMC3    C3 6672   0.135   4.366  16.868 -0.1481 -0.0804 -0.3013
  448TMC3    C4 6673   0.107   4.599  16.996  0.3394 -0.4840 -0.0710
  448TMC3    C5 6674   0.146   4.488  17.063  0.1166 -0.4128 -0.0952
  448TMC3    C6 6675   0.160   4.366  17.005  0.5886  0.0248  0.0037
  448TMC3     C 6676   0.040   4.706  16.802 -0.2965  0.4550  0.1865
  448TMC3     O 6677   0.002   0.066  16.884  0.1366 -0.6420  0.2687
  448TMC3     H 6678   0.071   4.461  16.689  0.6731  0.4570 -0.4621
  448TMC3    H1 6679   0.142   4.690  17.044 -0.4065  0.0233 -0.4808
  448TMC3    H2 6680   0.213   4.292  17.064  0.7975  1.5591  1.7332
  448TMC3    C7 6681   0.198   4.512  17.199 -0.1094  0.2771 -0.1299
  448TMC3    C8 6682   0.169   4.240  16.807 -0.4835 -0.4229 -0.0517
  448TMC3    O1 6683   0.316   4.489  17.223 -0.3517 -0.1148 -0.1337
  448TMC3    O2 6684   0.162   4.147  16.885  0.0273 -0.3052 -0.3565
  449MPD2     C 6685   1.708   2.793  13.575 -0.0979  0.7040  0.5117
  449MPD2    C1 6686   1.589   2.724  13.532  0.0877 -0.1161 -0.6903
  449MPD2    C2 6687   1.536   2.633  13.621 -0.3010 -0.1333  0.1177
  449MPD2    C3 6688   1.594   2.603  13.744  0.2746  0.0029  0.5000
  449MPD2    C4 6689   1.716   2.665  13.772  0.5692  0.4355  0.6011
  449MPD2    C5 6690   1.767   2.763  13.691  0.3652  0.3307  0.0879
  449MPD2     H 6691   1.439   2.590  13.599 -1.3859  1.0871  2.5121
  449MPD2    H1 6692   1.772   2.651  13.864  0.6773 -0.3146  0.4202
  449MPD2    H2 6693   1.754   2.876  13.524  1.0440  0.6581  1.4693
  449MPD2    H3 6694   1.865   2.804  13.711  0.0341  2.2716 -2.2712
  449MPD2     N 6695   1.528   2.513  13.825  0.0782  0.0534  0.2050
  449MPD2    H5 6696   1.448   2.470  13.778  0.4758 -0.5357  0.0695
  449MPD2    N1 6697   1.522   2.747  13.408  0.8977 -0.7428  0.3228
  449MPD2    H7 6698   1.433   2.698  13.398  1.0451 -1.2925  1.7638
  450TMC3    C1 6699   1.434   2.817  13.211 -0.2332 -0.2899  0.0632
  450TMC3    C2 6700   1.461   2.747  13.090  0.3966 -0.3315 -0.8297
  450TMC3    C3 6701   1.350   2.674  13.043 -0.2582  0.0077 -0.6226
  450TMC3    C4 6702   1.314   2.804  13.284  0.7482 -0.2939  0.7969
  450TMC3    C5 6703   1.220   2.727  13.234 -0.0456 -0.5887  0.0781
  450TMC3    C6 6704   1.236   2.663  13.113  0.3766 -0.2332 -0.1846
  450TMC3     C 6705   1.548   2.818  13.294  0.0410  0.1752 -0.4591
  450TMC3     O 6706   1.662   2.850  13.255 -0.6113  0.3038 -0.3858
  450TMC3     H 6707   1.559   2.746  13.044  1.2300  1.2642  0.9271
  450TMC3    H1 6708   1.302   2.866  13.372  0.6176  0.0309  0.5533
  450TMC3    H2 6709   1.151   2.609  13.073 -1.0246  0.5983  1.6561
  450TMC3    C7 6710   1.186   2.636  13.342 -0.5483  0.2686  0.0470
  450TMC3    C8 6711   1.368   2.579  12.928  0.3322 -1.6025  0.1483
  450TMC3    O1 6712   1.283   2.626  13.419  0.0827  0.4690  0.1167
  450TMC3    O2 6713   1.263   2.537  12.883 -0.2949 -0.3063  0.7196
  451MPD2     C 6714   1.987   1.653   1.183 -0.0188  0.8388 -0.4793
  451MPD2    C1 6715   1.918   1.577   1.273 -0.2026  0.3376  0.5392
  451MPD2    C2 6716   1.985   1.508   1.372  0.5930 -0.2183 -0.2190
  451MPD2    C3 6717   2.128   1.519   1.371 -0.2722  0.4221  0.8269
  451MPD2    C4 6718   2.189   1.590   1.277 -0.8055  0.1761  0.0654
  451MPD2    C5 6719   2.119   1.666   1.187 -0.1667 -0.4264 -0.5810
  451MPD2     H 6720   1.931   1.462   1.454  0.4900 -1.6497 -1.0958
  451MPD2    H1 6721   2.295   1.610   1.272 -0.5455 -1.3541 -0.8037
  451MPD2    H2 6722   1.944   1.711   1.103 -2.3547  0.3116  0.4024
  451MPD2    H3 6723   2.168   1.739   1.124  0.0461  0.0953  0.2020
  451MPD2     N 6724   2.212   1.453   1.466  0.2084 -0.3031 -0.6620
  451MPD2    H5 6725   2.311   1.473   1.458  0.4906 -1.4863 -0.1281
  451MPD2    N1 6726   1.774   1.573   1.271 -1.3186 -0.3235  0.1787
  451MPD2    H7 6727   1.725   1.635   1.207 -0.8435 -1.5630 -1.3950
  452TMC3    C1 6728   2.281   1.271   1.613 -0.0557 -0.4250  0.1679
  452TMC3    C2 6729   2.244   1.150   1.661  0.3594  0.3880 -0.7516
  452TMC3    C3 6730   2.343   1.058   1.667 -0.7761  0.0818  0.5176
  452TMC3    C4 6731   2.406   1.296   1.568 -0.0705  0.1050  0.7674
  452TMC3    C5 6732   2.498   1.199   1.574 -0.1874  0.3829 -0.3138
  452TMC3    C6 6733   2.470   1.079   1.629  1.0521  0.3395  0.5889
  452TMC3     C 6734   2.175   1.359   1.558  0.0648 -0.2302 -0.8877
  452TMC3     O 6735   2.063   1.333   1.590 -0.2438 -0.2062  0.6337
  452TMC3     H 6736   2.140   1.125   1.678  0.5506  0.4666  0.5241
  452TMC3    H1 6737   2.440   1.392   1.531 -0.7525 -0.2966 -0.9302
  452TMC3    H2 6738   2.551   1.008   1.629 -0.9453 -1.9240  0.4973
  452TMC3    C7 6739   2.633   1.237   1.544 -0.2827  0.4071  0.9742
  452TMC3    C8 6740   2.322   0.934   1.727  0.6568 -0.0062  0.4170
  452TMC3    O1 6741   2.662   1.355   1.565 -0.2227 -0.5376 -0.3451
  452TMC3    O2 6742   2.415   0.856   1.739 -0.0408  0.0858  0.1659
  453TMC3    C1 6743   4.679   3.259  11.279  0.6035 -0.2036  0.0974
  453TMC3    C2 6744   4.575   3.176  11.323  0.8963 -0.3282  0.0859
  453TMC3    C3 6745   4.492   3.121  11.227  0.2348  0.0787  0.2312
  453TMC3    C4 6746   4.690   3.301  11.154 -0.0431 -0.2950 -0.0329
  453TMC3    C5 6747   4.588   3.266  11.073  0.0793  0.4730 -0.7700
  453TMC3    C6 6748   4.495   3.171  11.098  0.8291 -0.3403  0.4385
  453TMC3     C 6749   0.061   3.289  11.372 -0.4796 -0.6316 -0.3062
  453TMC3     O 6750   0.110   3.396  11.358 -0.1509 -0.4228  0.3719
  453TMC3     H 6751   4.572   3.147  11.427 -0.9014 -1.5585 -0.3115
  453TMC3    H1 6752   0.042   3.368  11.116 -0.9995 -0.4846 -2.2993
  453TMC3    H2 6753   4.416   3.136  11.032  0.3179  0.1284  0.7956
  453TMC3    C7 6754   4.573   3.320  10.943  0.2862 -0.6835  0.2348
  453TMC3    C8 6755   4.373   3.047  11.265  0.6431 -0.1906  0.2362
  453TMC3    O1 6756   4.460   3.304  10.903 -0.1681  0.5439  0.1905
  453TMC3    O2 6757   4.275   3.049  11.182 -0.2518  0.2177 -0.2452
  454MPD2     C 6758   3.074   2.772  16.356  0.3114  0.7581 -0.2943
  454MPD2    C1 6759   2.975   2.872  16.355  0.0843 -0.0024  0.0309
  454MPD2    C2 6760   2.920   2.907  16.478 -0.5882  0.1305 -0.1663
  454MPD2    C3 6761   2.948   2.833  16.593  0.6462  0.5748  0.7964
  454MPD2    C4 6762   3.049   2.745  16.584 -0.0307 -0.3826 -0.3864
  454MPD2    C5 6763   3.117   2.717  16.470  0.4922 -0.5633 -0.3396
  454MPD2     H 6764   2.856   2.993  16.478 -1.1782 -0.3200 -1.9899
  454MPD2    H1 6765   3.083   2.703  16.678 -1.0142  0.3972  0.3170
  454MPD2    H2 6766   3.133   2.749  16.269 -1.9685  3.7846 -2.6508
  454MPD2    H3 6767   3.193   2.641  16.474  1.5534  0.4504 -1.5429
  454MPD2     N 6768   2.888   2.843  16.720 -0.1258 -0.5239 -0.4227
  454MPD2    H5 6769   2.933   2.800  16.800  0.5464 -2.2849 -1.7510
  454MPD2    N1 6770   2.924   2.937  16.239 -0.0587 -0.0845 -0.3669
  454MPD2    H7 6771   2.864   3.017  16.254 -1.4651 -0.7302 -2.5444
  455TMC3    C1 6772   2.689   2.971  16.655  0.3170 -0.2534 -0.2619
  455TMC3    C2 6773   2.620   3.088  16.687 -0.7894 -0.1477 -0.3295
  455TMC3    C3 6774   2.512   3.125  16.626  0.5092 -0.1809 -0.0466
  455TMC3    C4 6775   2.636   2.892  16.560  0.3062 -0.4119  0.2251
  455TMC3    C5 6776   2.522   2.937  16.495  0.4215 -0.3136 -0.7609
  455TMC3    C6 6777   2.462   3.053  16.522 -0.0968  0.0333 -0.1969
  455TMC3     C 6778   2.777   2.916  16.759 -0.4327  0.6679  0.3184
  455TMC3     O 6779   2.743   2.944  16.872 -0.0057 -0.1131 -0.0943
  455TMC3     H 6780   2.649   3.150  16.771  0.6334 -0.2267 -0.7657
  455TMC3    H1 6781   2.668   2.789  16.546 -1.4761 -0.5460 -2.8546
  455TMC3    H2 6782   2.377   3.093  16.469  0.5199  0.7894 -0.6245
  455TMC3    C7 6783   2.482   2.873  16.377 -0.4164 -0.3115 -0.2499
  455TMC3    C8 6784   2.421   3.203  16.713 -0.7054 -0.1169  0.0614
  455TMC3    O1 6785   2.371   2.902  16.326 -0.2944  0.1135  0.1831
  455TMC3    O2 6786   2.470   3.287  16.790  0.7419 -0.1839 -0.4528
  456MPD2     C 6787   0.323   2.936  16.141  0.5349 -0.1698  1.2887
  456MPD2    C1 6788   0.433   2.946  16.227  0.7365  0.1387 -0.6158
  456MPD2    C2 6789   0.416   3.025  16.340  0.0377  0.7984  0.1987
  456MPD2    C3 6790   0.294   3.089  16.367  0.0564  0.7188 -0.1855
  456MPD2    C4 6791   0.188   3.075  16.278 -0.1648 -0.0077  0.0730
  456MPD2    C5 6792   0.201   2.995  16.165  0.3295  0.5485 -0.4218
  456MPD2     H 6793   0.500   3.052  16.402  0.2390 -1.2905  0.8297
  456MPD2    H1 6794   0.092   3.123  16.291  0.9764  1.7490  2.0139
  456MPD2    H2 6795   0.335   2.879  16.049 -0.5750  0.5118  0.7220
  456MPD2    H3 6796   0.118   2.985  16.096  1.9429 -0.5451 -2.2074
  456MPD2     N 6797   0.303   3.181  16.479 -0.2371  0.1234 -0.3403
  456MPD2    H5 6798   0.378   3.170  16.546  0.4341  1.5367 -0.8514
  456MPD2    N1 6799   0.554   2.885  16.187  0.7098  0.1241  0.2777
  456MPD2    H7 6800   0.563   2.848  16.093 -2.9937  0.7688 -0.3445
  457TMC3    C1 6801   0.245   3.372  16.610 -0.0063 -0.5286  0.0026
  457TMC3    C2 6802   0.257   3.508  16.594  0.3796  0.3295  0.9005
  457TMC3    C3 6803   0.258   3.579  16.709 -0.5305  0.0671 -0.4026
  457TMC3    C4 6804   0.252   3.303  16.731 -0.1290 -0.6527 -0.9392
  457TMC3    C5 6805   0.240   3.381  16.841  0.2466 -0.4811 -0.1502
  457TMC3    C6 6806   0.238   3.517  16.833 -0.0683  0.4054  0.4694
  457TMC3     C 6807   0.215   3.290  16.497  0.3043 -0.6121  0.1694
  457TMC3     O 6808   0.145   3.344  16.413  0.9026 -0.1427  0.4479
  457TMC3     H 6809   0.258   3.552  16.495  1.6754 -1.5703  0.0664
  457TMC3    H1 6810   0.242   3.195  16.729 -1.3841 -0.5408 -0.3266
  457TMC3    H2 6811   0.248   3.577  16.922 -0.6574  0.9542  0.1682
  457TMC3    C7 6812   0.206   3.325  16.971 -0.0913 -0.3981  0.5341
  457TMC3    C8 6813   0.245   3.722  16.706  0.2235 -0.3619  0.1566
  457TMC3    O1 6814   0.243   3.211  17.004  0.0334  0.2311  0.0926
  457TMC3    O2 6815   0.249   3.784  16.811 -0.0277  0.5521  0.2494
  458MPD2     C 6816   2.921   2.675  12.026 -0.1956  0.3417 -0.9924
  458MPD2    C1 6817   2.904   2.622  12.154  0.3498 -0.6210  0.6826
  458MPD2    C2 6818   2.775   2.588  12.189  0.0264  0.2213  0.0222
  458MPD2    C3 6819   2.662   2.616  12.111 -0.2592 -0.8458 -0.3713
  458MPD2    C4 6820   2.685   2.674  11.990 -0.2467 -0.5188  0.3207
  458MPD2    C5 6821   2.809   2.706  11.950  0.3075 -0.0028 -0.0159
  458MPD2     H 6822   2.742   2.558  12.287  2.5405  0.8744  1.0760
  458MPD2    H1 6823   2.608   2.689  11.914 -0.9798 -1.9663  0.7873
  458MPD2    H2 6824   3.018   2.711  11.993 -0.6711 -0.6264 -3.4314
  458MPD2    H3 6825   2.821   2.750  11.851  0.7815  1.2727  0.6104
  458MPD2     N 6826   2.534   2.579  12.163 -0.2079 -0.3429 -0.2939
  458MPD2    H5 6827   2.537   2.523  12.248  2.7052  0.6785  0.2901
  458MPD2    N1 6828   3.023   2.597  12.232  0.1881  0.8600  0.4521
  458MPD2    H7 6829   3.106   2.634  12.187  0.1784 -0.4866 -0.6748
  459TMC3    C1 6830   3.148   2.493  12.418  0.2609 -0.3044  0.8829
  459TMC3    C2 6831   3.240   2.598  12.410 -0.0700  0.2072  0.4033
  459TMC3    C3 6832   3.318   2.620  12.521  0.3247 -0.1146  0.3686
  459TMC3    C4 6833   3.141   2.420  12.529 -0.5707 -0.3735 -0.5154
  459TMC3    C5 6834   3.222   2.447  12.640  0.7745 -0.1107 -0.0765
  459TMC3    C6 6835   3.312   2.548  12.639  0.4187 -0.7348 -0.2449
  459TMC3     C 6836   3.029   2.504  12.333  0.6066  0.0119  0.1631
  459TMC3     O 6837   2.931   2.453  12.379  0.0248 -0.2217  0.1696
  459TMC3     H 6838   3.251   2.667  12.327 -1.4872  0.2375  0.2547
  459TMC3    H1 6839   3.087   2.326  12.528 -0.1626 -0.5773 -3.1739
  459TMC3    H2 6840   3.383   2.581  12.714 -0.0183  0.4453 -0.3522
  459TMC3    C7 6841   3.213   2.367  12.757 -0.1270  0.2900 -0.9567
  459TMC3    C8 6842   3.410   2.736  12.503  0.5149 -0.3437  0.5793
  459TMC3    O1 6843   3.138   2.272  12.747  0.0221  0.0478  0.7624
  459TMC3    O2 6844   3.373   2.829  12.431  0.5252 -0.9345 -0.7173
  460MPD2     C 6845   2.770   0.052  10.426 -0.1821  0.2075  0.2198
  460MPD2    C1 6846   2.642   0.075  10.462  0.3336  0.3997 -0.2933
  460MPD2    C2 6847   2.547   0.089  10.365 -0.4679 -0.1757 -0.0143
  460MPD2    C3 6848   2.563   0.049  10.236 -0.7477  0.2660 -0.4957
  460MPD2    C4 6849   2.693   0.017  10.197 -0.3549  0.2012  0.3308
  460MPD2    C5 6850   2.795   0.026  10.289 -0.5730 -0.2878 -0.3964
  460MPD2     H 6851   2.449   0.129  10.387  0.6460  1.8272  1.3519
  460MPD2    H1 6852   2.707   4.710  10.095  1.2695 -0.5857  0.7927
  460MPD2    H2 6853   2.845   0.033  10.501 -1.4767  3.0445  2.2045
  460MPD2    H3 6854   2.898   0.004  10.263  0.6165  1.4100  2.9046
  460MPD2     N 6855   2.451   0.046  10.146 -0.4598 -0.5536  0.7421
  460MPD2    H5 6856   2.365   0.084  10.184 -1.0217 -0.0181 -1.0399
  460MPD2    N1 6857   2.618   0.080  10.603 -0.4157 -0.6562 -0.2411
  460MPD2    H7 6858   2.704   0.075  10.656 -0.6356 -2.3660 -0.0675
  461TMC3    C1 6859   2.313   0.027   9.947  0.0050  0.4866  0.2829
  461TMC3    C2 6860   2.275   4.644   9.866  0.0480 -0.6009  0.1536
  461TMC3    C3 6861   2.170   4.671   9.788  0.7880 -1.0217 -0.1043
  461TMC3    C4 6862   2.262   0.155   9.951 -0.2884 -0.1457 -0.2812
  461TMC3    C5 6863   2.171   0.173   9.852 -0.1909  0.2765 -0.2607
  461TMC3    C6 6864   2.123   0.074   9.768  0.1183 -0.0782 -0.3177
  461TMC3     C 6865   2.446   0.009  10.020 -0.5870  0.3158 -0.1643
  461TMC3     O 6866   2.540   4.685   9.961  0.2344 -0.7462 -0.4873
  461TMC3     H 6867   2.322   4.548   9.880  1.8356  0.6103  2.5857
  461TMC3    H1 6868   2.320   0.230  10.003  0.2041 -1.8043  1.5903
  461TMC3    H2 6869   2.038   0.099   9.707 -0.5758 -0.6086  0.4314
  461TMC3    C7 6870   2.108   0.308   9.846 -0.3059 -0.9066 -0.3366
  461TMC3    C8 6871   2.127   4.567   9.699  0.5263  0.1978 -0.6142
  461TMC3    O1 6872   2.062   0.334   9.735 -0.0136  0.1756  0.3476
  461TMC3    O2 6873   2.158   4.453   9.732 -0.4387 -0.7427  0.0547
  462TMC3    C1 6874   2.031   4.515   0.367  0.4264  0.5336  0.0825
  462TMC3    C2 6875   2.066   4.436   0.255  0.7367 -0.3152  0.3051
  462TMC3    C3 6876   1.988   4.456   0.140  0.9207  0.1562  0.5054
  462TMC3    C4 6877   1.929   4.615   0.369  0.3827  0.1904 -0.2968
  462TMC3    C5 6878   1.859   4.625   0.252  0.1103  0.3236  0.1247
  462TMC3    C6 6879   1.886   4.549   0.139  0.0491 -0.7269 -0.8627
  462TMC3     C 6880   2.112   4.495   0.482 -0.4460  0.1741  0.2860
  462TMC3     O 6881   2.157   4.384   0.508 -0.0378  0.6290  0.2931
  462TMC3     H 6882   2.148   4.366   0.267 -1.1030 -2.1187  2.6370
  462TMC3    H1 6883   1.891   4.660   0.461 -4.8404 -0.9157 -1.8988
  462TMC3    H2 6884   1.844   4.578   0.043 -1.0619 -0.1366 -0.2013
  462TMC3    C7 6885   1.752   0.003   0.233  0.1175  0.3561 -0.5204
  462TMC3    C8 6886   2.044   4.436   0.008 -0.1042 -0.4660  0.5909
  462TMC3    O1 6887   1.698   0.000   0.122 -0.5748  0.2372  0.8290
  462TMC3    O2 6888   1.985   4.388  17.609  0.0599 -0.4723  0.5581
  463MPD2     C 6889   2.969   4.271   2.005 -0.4001 -0.1740  1.1339
  463MPD2    C1 6890   2.927   4.296   1.877  0.2005  0.2578  0.9235
  463MPD2    C2 6891   3.019   4.278   1.775 -0.7238 -0.1843  0.9236
  463MPD2    C3 6892   3.144   4.231   1.802 -0.9930 -0.3953 -0.2120
  463MPD2    C4 6893   3.190   4.230   1.930 -0.5848  0.1496  0.4215
  463MPD2    C5 6894   3.098   4.235   2.030 -0.3291 -0.5727 -0.1806
  463MPD2     H 6895   2.987   4.287   1.672  1.2022  0.7079  0.3876
  463MPD2    H1 6896   3.290   4.200   1.961 -0.4142  0.4340  0.1503
  463MPD2    H2 6897   2.902   4.279   2.090 -0.9435 -0.9353  0.7832
  463MPD2    H3 6898   3.135   4.222   2.131 -0.2121  0.1243 -0.1302
  463MPD2     N 6899   3.236   4.191   1.701 -0.1361 -0.3095  0.0546
  463MPD2    H5 6900   3.332   4.178   1.732  1.0021  0.2054 -3.3363
  463MPD2    N1 6901   2.795   4.333   1.852 -0.1585  0.3864  0.6034
  463MPD2    H7 6902   2.769   4.365   1.759  0.9633  0.7797  0.4329
  464TMC3    C1 6903   2.559   4.326   1.872  0.7291  0.2680  0.5099
  464TMC3    C2 6904   2.539   4.450   1.816 -0.6727  0.5247 -0.7431
  464TMC3    C3 6905   2.407   4.476   1.787 -0.4153  0.3975 -0.5374
  464TMC3    C4 6906   2.459   4.226   1.880  0.7563 -0.2575  0.0158
  464TMC3    C5 6907   2.336   4.261   1.844  0.2523  0.2313  0.4956
  464TMC3    C6 6908   2.308   4.386   1.793 -0.8211 -0.4380  0.1563
  464TMC3     C 6909   2.687   4.293   1.929  0.3902  0.6829  0.0888
  464TMC3     O 6910   2.678   4.218   2.030  0.2966 -0.0966 -0.3487
  464TMC3     H 6911   2.621   4.521   1.822 -0.8745  0.5568  1.8121
  464TMC3    H1 6912   2.486   4.130   1.921 -1.8188 -1.8444 -2.0138
  464TMC3    H2 6913   2.208   4.407   1.755 -0.2662  1.7313 -0.1013
  464TMC3    C7 6914   2.239   4.155   1.850  0.0158  0.5284 -0.1586
  464TMC3    C8 6915   2.373   4.612   1.731 -0.4716 -0.0444 -0.0539
  464TMC3    O1 6916   2.264   4.066   1.928  0.3627 -0.3038 -0.3169
  464TMC3    O2 6917   2.456   4.668   1.666  0.1427 -0.0233 -0.3873
  465MPD2     C 6918   4.279   4.207  16.558  0.1413 -0.1719 -0.7796
  465MPD2    C1 6919   4.241   4.108  16.639 -0.2334 -0.4457  0.6269
  465MPD2    C2 6920   4.168   4.001  16.593 -0.5075 -0.9107  0.1853
  465MPD2    C3 6921   4.140   3.995  16.458  0.2425 -0.0684  0.3882
  465MPD2    C4 6922   4.171   4.105  16.375 -0.3086 -0.3735 -0.7902
  465MPD2    C5 6923   4.233   4.217  16.425 -0.0755  0.9243 -0.5856
  465MPD2     H 6924   4.128   3.919  16.651  0.5336 -2.3482 -1.1143
  465MPD2    H1 6925   4.131   4.107  16.275  0.2576  1.1136 -0.9828
  465MPD2    H2 6926   4.329   4.294  16.598  1.6566 -0.8040 -1.3042
  465MPD2    H3 6927   4.252   4.301  16.360  1.6600  0.4480 -0.6906
  465MPD2     N 6928   4.074   3.877  16.412 -0.1160  0.3783  0.0829
  465MPD2    H5 6929   4.040   3.814  16.483 -1.8135  1.1078 -0.0727
  465MPD2    N1 6930   4.283   4.095  16.773  0.0375 -0.4197 -0.5353
  465MPD2    H7 6931   4.252   4.017  16.830 -0.2405 -0.9995 -1.4813
  466TMC3    C1 6932   3.877   3.533  16.389 -0.6941  0.3091 -0.7853
  466TMC3    C2 6933   3.787   3.511  16.296 -0.3928  0.7347 -0.5522
  466TMC3    C3 6934   3.787   3.595  16.185  0.0034  0.6193 -0.2192
  466TMC3    C4 6935   3.961   3.633  16.391  0.5612  0.2549 -0.6304
  466TMC3    C5 6936   3.961   3.722  16.286 -0.0393  0.6726  0.0933
  466TMC3    C6 6937   3.875   3.703  16.186  0.0517 -0.2293  0.0211
  466TMC3     C 6938   3.886   3.449  16.495 -0.1732 -0.2339  0.2122
  466TMC3     O 6939   3.880   3.498  16.610 -0.3621 -0.0064 -0.4930
  466TMC3     H 6940   3.717   3.430  16.310  1.5633 -0.5511  1.9733
  466TMC3    H1 6941   4.038   3.638  16.467 -1.0516 -3.6959  1.2576
  466TMC3    H2 6942   3.875   3.771  16.101  1.1645  0.3685  0.5022
  466TMC3    C7 6943   4.044   3.839  16.284  0.4315 -0.0852  0.5905
  466TMC3    C8 6944   3.658   3.620  16.113  0.3871  0.2323 -0.4059
  466TMC3    O1 6945   4.052   3.902  16.182  0.4023 -0.1334  0.3243
  466TMC3    O2 6946   3.660   3.691  16.013 -0.3556  0.0489 -0.1858
  467TMC3    C1 6947   4.618   1.577  13.346 -0.4896  0.6375  1.1423
  467TMC3    C2 6948   4.643   1.488  13.245 -0.2402  0.5418  0.2406
  467TMC3    C3 6949   4.556   1.487  13.137  0.1195 -0.1499 -0.1497
  467TMC3    C4 6950   4.499   1.644  13.356 -0.7813 -0.1013 -0.0925
  467TMC3    C5 6951   4.405   1.623  13.260 -0.7295  0.3585 -0.7379
  467TMC3    C6 6952   4.430   1.552  13.148 -0.4586 -0.3450  0.5198
  467TMC3     C 6953   0.016   1.656  13.378 -0.6062  0.9862 -0.6509
  467TMC3     O 6954   0.126   1.599  13.380 -0.0605  0.8603 -0.0142
  467TMC3     H 6955   0.022   1.458  13.230 -0.0946  0.3852  1.5560
  467TMC3    H1 6956   4.469   1.696  13.447  2.0793  1.2141  0.1039
  467TMC3    H2 6957   4.356   1.548  13.068 -0.5435 -0.7820  0.6182
  467TMC3    C7 6958   4.269   1.674  13.272  0.3602  0.2313  0.2448
  467TMC3    C8 6959   4.630   1.528  13.015  0.2767  0.3730  0.5402
  467TMC3    O1 6960   4.206   1.680  13.166 -0.4553 -0.1690 -0.5932
  467TMC3    O2 6961   4.600   1.637  12.972  0.0052  0.0403  0.1088
  468MPD2     C 6962   0.119   4.533  10.872 -0.1452  0.1392 -0.1129
  468MPD2    C1 6963   0.176   4.494  10.989  0.5142  0.4518  0.5038
  468MPD2    C2 6964   0.163   4.369  11.037 -0.7060  0.1022  0.0779
  468MPD2    C3 6965   0.089   4.271  10.975  0.1433 -0.5558 -0.0017
  468MPD2    C4 6966   0.017   4.310  10.864  0.6170  0.3667 -0.4227
  468MPD2    C5 6967   0.041   4.442  10.811  0.1999  0.0906 -0.2219
  468MPD2     H 6968   0.224   4.349  11.124 -0.4638 -0.4454 -0.2162
  468MPD2    H1 6969   4.684   4.240  10.806  0.1377  1.0150 -0.7376
  468MPD2    H2 6970   0.134   4.630  10.825 -1.8764  0.5559  0.1894
  468MPD2    H3 6971   4.723   4.472  10.716  1.3842  2.7659  0.1092
  468MPD2     N 6972   0.081   4.134  11.010  0.7925  0.3479 -0.3262
  468MPD2    H5 6973   0.023   4.076  10.951  2.6040 -1.0716 -0.7360
  468MPD2    N1 6974   0.277   4.565  11.051  0.2163 -0.6886 -0.6333
  468MPD2    H7 6975   0.323   4.521  11.130 -0.0526 -0.9867 -0.6435
  469TMC3    C1 6976   0.391   0.044  11.111  0.1098  0.0629 -0.6667
  469TMC3    C2 6977   0.456   4.707  11.213 -0.3855  0.4716 -0.4409
  469TMC3    C3 6978   0.523   0.054  11.308  0.5298 -0.2084 -1.0422
  469TMC3    C4 6979   0.401   0.181  11.105  0.5109  1.1117 -0.1114
  469TMC3    C5 6980   0.474   0.252  11.205 -0.4715  0.2041 -0.0625
  469TMC3    C6 6981   0.544   0.188  11.303  0.4982  0.7408 -0.0777
  469TMC3     C 6982   0.288   4.700  11.035 -0.7296  0.6348 -0.2689
  469TMC3     O 6983   0.202   0.051  10.982 -0.5441 -0.2119  0.6260
  469TMC3     H 6984   0.457   4.599  11.222 -0.8829  0.2910 -2.6192
  469TMC3    H1 6985   0.352   0.233  11.023 -0.5340  0.0981 -0.1420
  469TMC3    H2 6986   0.616   0.233  11.372  0.3598  1.5141 -0.4374
  469TMC3    C7 6987   0.491   0.396  11.184  0.0825 -0.0950  0.7339
  469TMC3    C8 6988   0.564   4.707  11.433 -0.0288 -0.2151 -0.6423
  469TMC3    O1 6989   0.451   0.447  11.083 -0.0462 -0.4939  0.2815
  469TMC3    O2 6990   0.585   4.581  11.428 -0.7144 -0.0186  0.3779
  470TMC3    C1 6991   0.737   1.336   0.595  0.5302 -0.0811 -0.1339
  470TMC3    C2 6992   0.693   1.445   0.662 -0.0366  0.5741 -0.1749
  470TMC3    C3 6993   0.677   1.437   0.796  0.5469  0.7050 -0.0984
  470TMC3    C4 6994   0.750   1.211   0.652 -0.0182  0.3910  0.2638
  470TMC3    C5 6995   0.744   1.211   0.789 -0.5465  0.1268  0.4011
  470TMC3    C6 6996   0.700   1.322   0.858  0.0047 -0.3189  0.3812
  470TMC3     C 6997   0.767   1.358   0.450  0.4551 -0.3950  0.0541
  470TMC3     O 6998   0.804   1.263   0.383  0.0045  0.4533  0.3044
  470TMC3     H 6999   0.660   1.538   0.618 -0.3148  1.5110  1.9971
  470TMC3    H1 7000   0.794   1.126   0.601 -1.8913  0.4000 -1.3735
  470TMC3    H2 7001   0.693   1.329   0.966 -0.6975 -0.7598  0.3699
  470TMC3    C7 7002   0.837   1.119   0.859 -0.0467  0.6298  1.4468
  470TMC3    C8 7003   0.631   1.551   0.878 -0.3007 -0.0915 -0.6581
  470TMC3    O1 7004   0.926   1.059   0.793  0.3360 -0.1797 -0.2977
  470TMC3    O2 7005   0.675   1.547   0.994 -0.4464  0.3567  0.2390
  471MPD2     C 7006   1.620   2.244  17.014  0.3159 -0.4903  0.7369
  471MPD2    C1 7007   1.568   2.171  17.111  0.4516 -0.2643 -0.3421
  471MPD2    C2 7008   1.646   2.131  17.216  0.3338 -0.3935 -0.6870
  471MPD2    C3 7009   1.784   2.168  17.223  0.7119  0.0469 -0.1087
  471MPD2    C4 7010   1.838   2.245  17.127  0.5896  0.4812  1.0302
  471MPD2    C5 7011   1.753   2.277  17.024  0.4618  0.3385  0.1274
  471MPD2     H 7012   1.594   2.072  17.291  1.8441 -1.3237 -0.3807
  471MPD2    H1 7013   1.935   2.294  17.132  0.4344  0.9285 -0.2965
  471MPD2    H2 7014   1.571   2.280  16.924  1.9171 -2.9529 -1.0973
  471MPD2    H3 7015   1.795   2.336  16.943  1.7492 -1.6223 -0.6462
  471MPD2     N 7016   1.857   2.133  17.336 -0.3110  0.6107  0.0176
  471MPD2    H5 7017   1.958   2.145  17.328 -0.3360  0.7694 -0.0705
  471MPD2    N1 7018   1.438   2.113  17.101 -0.0604 -0.0460  0.0027
  471MPD2    H7 7019   1.414   2.044  17.172 -0.6543  1.7986  1.5850
  472TMC3    C1 7020   1.239   2.044  16.994 -0.1396  0.3156  0.1292
  472TMC3    C2 7021   1.137   2.073  16.906 -0.5554  0.2479 -0.3693
  472TMC3    C3 7022   1.060   1.963  16.867 -0.4307  0.1444 -0.6669
  472TMC3    C4 7023   1.263   1.924  17.046  0.2489 -0.6621 -0.2677
  472TMC3    C5 7024   1.200   1.818  16.983 -0.3543  0.0588 -0.0321
  472TMC3    C6 7025   1.096   1.832  16.897  0.2332  0.4153  0.5485
  472TMC3     C 7026   1.338   2.152  17.007  0.5833  0.0552  0.4113
  472TMC3     O 7027   1.337   2.248  16.933  0.4791 -0.1535 -0.0832
  472TMC3     H 7028   1.112   2.177  16.885 -0.2455  0.2216 -0.8714
  472TMC3    H1 7029   1.351   1.892  17.101  0.3132  1.7816  1.0566
  472TMC3    H2 7030   1.050   1.742  16.856  2.2114 -0.4632  0.2705
  472TMC3    C7 7031   1.237   1.680  17.008  0.3447 -0.6859  0.4308
  472TMC3    C8 7032   0.950   1.985  16.780  0.0612  0.3180 -0.1263
  472TMC3    O1 7033   1.190   1.595  16.934 -0.8530 -0.1861 -0.8551
  472TMC3    O2 7034   0.941   2.099  16.736 -0.6240  0.1654  0.0639
  473MPD2     C 7035   1.826   3.966  13.979 -0.0634 -0.6676 -0.4062
  473MPD2    C1 7036   1.834   4.075  13.902 -0.8211 -0.2050  0.0397
  473MPD2    C2 7037   1.854   4.205  13.962  0.4670  0.1190 -0.3061
  473MPD2    C3 7038   1.865   4.226  14.096 -0.4059 -0.1273 -0.0191
  473MPD2    C4 7039   1.846   4.114  14.172  0.7786 -0.5186  0.8919
  473MPD2    C5 7040   1.844   3.991  14.118 -0.0000  0.1582  0.4800
  473MPD2     H 7041   1.834   4.295  13.906  0.5244 -0.0967 -0.6741
  473MPD2    H1 7042   1.848   4.119  14.280  0.1968  0.5042  0.8529
  473MPD2    H2 7043   1.818   3.863  13.947 -0.3094 -0.6684 -0.3425
  473MPD2    H3 7044   1.846   3.908  14.188 -1.0964 -0.2603  0.0212
  473MPD2     N 7045   1.900   4.343  14.166  0.0747  0.4967  0.3350
  473MPD2    H5 7046   1.928   4.328  14.262 -1.1074 -1.4381  0.3709
  473MPD2    N1 7047   1.822   4.059  13.758 -0.3956  0.0679 -0.3477
  473MPD2    H7 7048   1.832   4.146  13.707  0.5789 -0.1536 -0.5394
  474TMC3    C1 7049   1.958   4.570  14.209  0.1889  0.6777 -0.1610
  474TMC3    C2 7050   1.915   4.695  14.193  0.7328  0.2349  0.2107
  474TMC3    C3 7051   1.945   0.064  14.291 -0.3990 -0.4210  0.5099
  474TMC3    C4 7052   2.049   4.534  14.307  0.5874  0.4420 -0.4717
  474TMC3    C5 7053   2.082   4.631  14.405 -0.3451 -0.5868  0.1881
  474TMC3    C6 7054   2.032   0.035  14.395 -0.1272 -0.2014  0.3841
  474TMC3     C 7055   1.925   4.466  14.109  0.4057 -0.9967 -0.3748
  474TMC3     O 7056   1.903   4.501  13.998 -0.2899 -0.3153 -0.1188
  474TMC3     H 7057   1.850   0.001  14.112 -1.0595  0.3232  1.6646
  474TMC3    H1 7058   2.085   4.433  14.319  0.5569  0.2929 -1.6168
  474TMC3    H2 7059   2.060   0.108  14.470 -0.1783  0.0358  0.1698
  474TMC3    C7 7060   2.209   4.610  14.476  0.1832  0.8962 -0.3650
  474TMC3    C8 7061   1.873   0.194  14.312  0.4775 -0.8823  0.8257
  474TMC3    O1 7062   2.293   4.531  14.435 -0.0105 -0.0815 -0.0974
  474TMC3    O2 7063   1.929   0.283  14.375  0.1614 -0.5923 -1.0484
  475MPD2     C 7064   0.872   1.928  10.333 -0.1403  0.1170  0.4735
  475MPD2    C1 7065   0.932   2.049  10.374 -0.3559  0.2376 -0.3726
  475MPD2    C2 7066   0.852   2.151  10.427  0.0664  0.5690  0.3447
  475MPD2    C3 7067   0.721   2.114  10.458  0.1837 -0.1567 -0.3209
  475MPD2    C4 7068   0.666   1.994  10.431 -0.0589  0.1239 -0.0962
  475MPD2    C5 7069   0.736   1.901  10.367  0.2656 -0.3946  0.3890
  475MPD2     H 7070   0.890   2.250  10.446 -1.8864  1.1228  1.3753
  475MPD2    H1 7071   0.564   1.970  10.461 -0.6063  0.8353 -1.4155
  475MPD2    H2 7072   0.934   1.848  10.294 -1.4109 -0.5160 -0.2530
  475MPD2    H3 7073   0.695   1.802  10.351 -0.7644  0.1824 -0.5635
  475MPD2     N 7074   0.655   2.225  10.515  0.1111  0.2312 -0.2154
  475MPD2    H5 7075   0.712   2.309  10.526  0.8059 -0.4267  1.1385
  475MPD2    N1 7076   1.065   2.083  10.364 -0.2980  0.5840 -0.4421
  475MPD2    H7 7077   1.095   2.164  10.417 -2.4720  2.1670 -1.6186
  476TMC3    C1 7078   1.260   2.123  10.252  0.5346  0.0347  0.4337
  476TMC3    C2 7079   1.252   2.209  10.150  0.3445 -0.3277 -0.0655
  476TMC3    C3 7080   1.269   2.344  10.172  0.1421 -0.0741 -0.4194
  476TMC3    C4 7081   1.313   2.170  10.368  0.3517 -0.5124  0.0414
  476TMC3    C5 7082   1.359   2.296  10.383  0.0761 -0.8145 -0.5568
  476TMC3    C6 7083   1.330   2.391  10.285 -0.0855  0.1724  0.0961
  476TMC3     C 7084   1.143   2.041  10.263  0.1554 -0.4956  0.4397
  476TMC3     O 7085   1.095   2.012  10.153 -0.0193  0.4861 -0.0639
  476TMC3     H 7086   1.215   2.183  10.052 -0.5365  0.5711  0.0238
  476TMC3    H1 7087   1.334   2.100  10.448 -1.1265  0.3464  1.1777
  476TMC3    H2 7088   1.357   2.496  10.294 -2.4511  1.1761 -4.1561
  476TMC3    C7 7089   1.447   2.329  10.491 -0.2638  0.6193  0.0888
  476TMC3    C8 7090   1.147   2.425  10.152  0.4005 -0.6618 -0.4842
  476TMC3    O1 7091   1.485   2.239  10.564 -0.1108  0.0342  0.4686
  476TMC3    O2 7092   1.146   2.542  10.192 -0.0367 -0.9909 -0.1100
  477MPD2     C 7093   2.456   3.635  11.476 -0.6279 -0.5283  0.4823
  477MPD2    C1 7094   2.510   3.745  11.512  0.6847 -0.5345  0.1410
  477MPD2    C2 7095   2.609   3.739  11.606  0.1380  0.1385  0.3746
  477MPD2    C3 7096   2.649   3.615  11.664  0.4011  0.3309  0.1093
  477MPD2    C4 7097   2.575   3.497  11.631  0.2657  0.0631  0.0486
  477MPD2    C5 7098   2.481   3.512  11.532  0.0285 -0.7198 -0.0750
  477MPD2     H 7099   2.667   3.828  11.630  0.4260  0.1199 -0.2547
  477MPD2    H1 7100   2.589   3.395  11.664 -2.4405 -0.7643 -1.4386
  477MPD2    H2 7101   2.393   3.628  11.387  0.1101  0.8796 -0.1646
  477MPD2    H3 7102   2.428   3.428  11.490 -1.0603  0.6109 -1.3613
  477MPD2     N 7103   2.745   3.623  11.770  0.1329 -0.9274  0.3116
  477MPD2    H5 7104   2.759   3.712  11.816  1.1968  0.1184 -2.0153
  477MPD2    N1 7105   2.469   3.861  11.450 -0.7525 -0.7228 -0.0362
  477MPD2    H7 7106   2.395   3.855  11.381 -0.5293  0.5067 -0.3666
  478TMC3    C1 7107   2.466   4.104  11.397  0.8925  0.0211  0.8798
  478TMC3    C2 7108   2.490   4.226  11.446 -0.1092 -0.0966  0.2024
  478TMC3    C3 7109   2.462   4.334  11.369 -0.0197 -0.3926  0.3064
  478TMC3    C4 7110   2.409   4.087  11.272  0.4277 -0.1056 -0.0240
  478TMC3    C5 7111   2.376   4.198  11.195 -0.5408 -0.8748 -0.4353
  478TMC3    C6 7112   2.394   4.324  11.251 -0.0856  0.6708  0.3925
  478TMC3     C 7113   2.522   3.991  11.469  0.1436  0.0906  0.5218
  478TMC3     O 7114   2.603   4.023  11.554 -0.1147 -0.0401  0.6388
  478TMC3     H 7115   2.513   4.229  11.552 -2.9299  0.1987  0.7831
  478TMC3    H1 7116   2.388   3.990  11.227  1.4206 -0.1765 -0.3344
  478TMC3    H2 7117   2.363   4.408  11.190 -0.2057  1.3233  1.3540
  478TMC3    C7 7118   2.284   4.182  11.087  0.8468 -0.7841 -0.3115
  478TMC3    C8 7119   2.449   4.461  11.434  0.1068  0.1314  0.2557
  478TMC3    O1 7120   2.206   4.089  11.093  0.7934 -0.4180 -0.4295
  478TMC3    O2 7121   2.366   4.542  11.390 -0.3800 -0.0617 -0.0083
  479MPD2     C 7122   1.631   1.476  15.117 -0.3292  0.0965 -0.0378
  479MPD2    C1 7123   1.581   1.396  15.216 -0.0095 -0.7512  0.7443
  479MPD2    C2 7124   1.644   1.383  15.338  0.5379  0.1026  0.3414
  479MPD2    C3 7125   1.749   1.474  15.369  0.2278  0.9097 -0.3368
  479MPD2    C4 7126   1.790   1.561  15.275 -0.0334  0.3329 -0.5692
  479MPD2    C5 7127   1.735   1.557  15.148  0.0191  0.2406  1.0425
  479MPD2     H 7128   1.616   1.303  15.407 -1.0040  0.2065 -0.1646
  479MPD2    H1 7129   1.876   1.627  15.287 -0.7625  0.9833  1.1882
  479MPD2    H2 7130   1.585   1.482  15.019 -2.1218 -1.3723  0.6958
  479MPD2    H3 7131   1.769   1.634  15.080  0.4806 -1.1095 -0.2769
  479MPD2     N 7132   1.824   1.483  15.490 -0.3809  0.2084  0.3817
  479MPD2    H5 7133   1.910   1.534  15.470 -0.5135 -0.2439 -1.4124
  479MPD2    N1 7134   1.461   1.331  15.188 -0.2140 -0.4805  0.1842
  479MPD2    H7 7135   1.431   1.331  15.091  1.2798 -0.2343 -0.2790
  480TMC3    C1 7136   1.501   1.303  15.775 -0.0814  0.6999  0.4115
  480TMC3    C2 7137   1.410   1.401  15.752 -0.1137 -0.3517  0.0475
  480TMC3    C3 7138   1.442   1.501  15.661  0.0364 -0.0931 -0.0440
  480TMC3    C4 7139   1.625   1.301  15.714  0.2543 -0.9564  0.3697
  480TMC3    C5 7140   1.653   1.408  15.631 -0.4348 -0.1516  0.7239
  480TMC3    C6 7141   1.568   1.509  15.612  0.4451 -0.3205 -0.1013
  480TMC3     C 7142   1.488   1.204  15.883 -0.7434  0.0455 -0.2123
  480TMC3     O 7143   1.573   1.116  15.898  0.6977 -0.0877 -0.5805
  480TMC3     H 7144   1.306   1.395  15.781 -0.4909 -1.4545 -1.5494
  480TMC3    H1 7145   1.707   1.235  15.740  1.5780  0.1171 -1.1154
  480TMC3    H2 7146   1.597   1.606  15.574  2.4812 -1.3015 -1.0176
  480TMC3    C7 7147   1.792   1.436  15.616 -0.0727 -0.0720 -0.2029
  480TMC3    C8 7148   1.329   1.538  15.571  0.4490  0.0699 -0.2779
  480TMC3    O1 7149   1.855   1.436  15.717  0.0146  0.0127 -0.1434
  480TMC3    O2 7150   1.213   1.535  15.611  0.1472  0.7898 -0.4432
  481MPD2     C 7151   3.016   1.363  14.291  0.2466 -0.4888  0.0533
  481MPD2    C1 7152   2.961   1.243  14.296  0.4100  0.3043  0.5637
  481MPD2    C2 7153   2.974   1.160  14.411  0.7726 -0.2511 -0.9309
  481MPD2    C3 7154   3.041   1.205  14.522  0.2560  0.0499 -0.1989
  481MPD2    C4 7155   3.098   1.332  14.514  0.1439  0.2002  0.0569
  481MPD2    C5 7156   3.081   1.408  14.398 -0.1499 -0.5034  0.9443
  481MPD2     H 7157   2.933   1.060  14.410 -0.0001  0.0667 -1.1962
  481MPD2    H1 7158   3.156   1.364  14.599  1.0388 -2.7234  0.5511
  481MPD2    H2 7159   3.009   1.431  14.207  0.3420 -0.2925  0.2043
  481MPD2    H3 7160   3.115   1.511  14.401  1.3533 -0.9411 -1.6980
  481MPD2     N 7161   3.070   1.129  14.638  0.1749  0.1035  0.3061
  481MPD2    H5 7162   3.128   1.175  14.709  0.2919 -0.3382  0.4952
  481MPD2    N1 7163   2.911   1.199  14.170  0.1078 -0.1331  0.0394
  481MPD2    H7 7164   2.947   1.249  14.090  0.4194  1.3730  1.1282
  482TMC3    C1 7165   2.817   1.062  14.003  0.6440  0.0287  0.0676
  482TMC3    C2 7166   2.879   0.956  13.952 -0.4182 -0.2942 -0.0004
  482TMC3    C3 7167   2.889   0.943  13.816 -0.2065 -0.7332 -0.3685
  482TMC3    C4 7168   2.770   1.163  13.928  0.0954  0.7726 -0.4120
  482TMC3    C5 7169   2.778   1.145  13.789  0.5607  0.1454 -0.0867
  482TMC3    C6 7170   2.834   1.034  13.725  0.0734  0.0701 -0.2851
  482TMC3     C 7171   2.851   1.076  14.147 -0.2355 -0.3500  0.8544
  482TMC3     O 7172   2.802   0.989  14.218  0.1371  0.5450 -0.7690
  482TMC3     H 7173   2.925   0.882  14.017 -0.1571  0.2256  0.4062
  482TMC3    H1 7174   2.740   1.250  13.984 -0.3281  0.3639 -0.0070
  482TMC3    H2 7175   2.836   1.014  13.619 -0.6182  0.7098 -0.4149
  482TMC3    C7 7176   2.766   1.272  13.715  0.6269 -0.2606  0.7257
  482TMC3    C8 7177   2.953   0.821  13.767 -0.7431 -0.1772 -0.0401
  482TMC3    O1 7178   2.720   1.367  13.783 -0.5939  0.3766  0.2640
  482TMC3    O2 7179   2.921   0.775  13.660 -0.1074 -0.0370  0.6182
  483TMC3    C1 7180   0.072   4.660   0.431  0.5230 -0.3988  0.5959
  483TMC3    C2 7181   0.085   0.070   0.443  0.8497  0.3066 -0.4776
  483TMC3    C3 7182   0.177   0.118   0.534  0.1132 -0.5069 -1.0824
  483TMC3    C4 7183   0.145   4.582   0.520  0.3661 -0.2082  0.5534
  483TMC3    C5 7184   0.218   4.633   0.617 -0.0388 -0.1387 -0.1181
  483TMC3    C6 7185   0.231   0.042   0.630  0.6415 -0.9006 -0.7485
  483TMC3     C 7186   4.670   4.613   0.374 -0.3287  1.0712 -0.5869
  483TMC3     O 7187   4.576   4.695   0.369  0.1750 -0.2212  0.6285
  483TMC3     H 7188   0.046   0.132   0.363  0.2072 -0.2797 -0.6233
  483TMC3    H1 7189   0.132   4.474   0.521 -0.9432 -0.0811 -2.0538
  483TMC3    H2 7190   0.310   0.072   0.697  1.4348  0.9618 -2.5045
  483TMC3    C7 7191   0.334   4.577   0.660  0.0029  0.2899 -0.4675
  483TMC3    C8 7192   0.274   0.208   0.470 -0.6883 -0.8048 -0.2104
  483TMC3    O1 7193   0.383   4.617   0.766 -0.1513  0.3138 -0.0336
  483TMC3    O2 7194   0.263   0.208   0.349 -0.2275 -0.2450  0.4104
  484MPD2     C 7195   3.600   2.948  12.535 -0.0850  0.3783  0.6629
  484MPD2    C1 7196   3.630   2.811  12.559  0.0383  0.4350 -0.5345
  484MPD2    C2 7197   3.766   2.782  12.577 -0.8862  0.7525  0.0636
  484MPD2    C3 7198   3.869   2.876  12.571  0.0318  0.2027 -0.0531
  484MPD2    C4 7199   3.834   3.010  12.551 -0.5816 -0.5781  0.3871
  484MPD2    C5 7200   3.705   3.036  12.522 -0.2610 -0.0971  0.1429
  484MPD2     H 7201   3.804   2.680  12.573  0.9041  1.4282 -0.0846
  484MPD2    H1 7202   3.909   3.088  12.552 -1.1050 -0.0660 -0.1805
  484MPD2    H2 7203   3.499   2.984  12.525 -0.4627 -0.9155 -0.1007
  484MPD2    H3 7204   3.693   3.142  12.501 -0.4133  0.0281  0.8477
  484MPD2     N 7205   4.009   2.850  12.571 -0.4878 -0.7534  0.0592
  484MPD2    H5 7206   4.071   2.928  12.590 -0.6392 -0.7705  0.6227
  484MPD2    N1 7207   3.530   2.711  12.559 -0.1335 -0.0215 -0.1114
  484MPD2    H7 7208   3.554   2.619  12.593 -0.6812  0.1852  0.8554
  485TMC3    C1 7209   4.221   2.746  12.548  0.8213  0.4894 -0.5062
  485TMC3    C2 7210   4.293   2.642  12.595  0.2552  0.2474 -0.6080
  485TMC3    C3 7211   4.425   2.676  12.633 -0.1661 -0.2786 -0.1157
  485TMC3    C4 7212   4.262   2.877  12.525  0.0965 -0.1971  0.2422
  485TMC3    C5 7213   4.390   2.903  12.556 -0.2815  1.0087 -0.0900
  485TMC3    C6 7214   4.469   2.806  12.627 -0.2213 -0.0082 -0.1188
  485TMC3     C 7215   4.075   2.729  12.556 -0.2841 -0.1872 -0.2577
  485TMC3     O 7216   4.029   2.614  12.555  0.5510 -0.1820 -0.2907
  485TMC3     H 7217   4.251   2.543  12.606  0.5350  0.0874 -0.9749
  485TMC3    H1 7218   4.210   2.957  12.474 -0.9658 -1.4242 -0.5870
  485TMC3    H2 7219   4.570   2.834  12.654 -0.9188  1.1609  1.2570
  485TMC3    C7 7220   4.461   2.968  12.448  0.5508  0.0692 -0.2725
  485TMC3    C8 7221   4.533   2.589  12.597 -0.6798  0.6205 -0.1572
  485TMC3    O1 7222   4.408   3.046  12.370  0.4862 -0.5316 -0.0147
  485TMC3    O2 7223   4.643   2.647  12.593  0.0735 -0.0550  0.3350
  486MPD2     C 7224   1.186   1.821  12.910 -0.2516 -0.1195  0.4478
  486MPD2    C1 7225   1.249   1.821  12.787  0.2193 -0.7404  0.2378
  486MPD2    C2 7226   1.218   1.931  12.702 -0.0264 -0.3683  0.0578
  486MPD2    C3 7227   1.139   2.040  12.747  0.5923 -0.1051 -0.3632
  486MPD2    C4 7228   1.073   2.030  12.870 -0.4064  0.0851  0.0804
  486MPD2    C5 7229   1.106   1.923  12.951 -0.3315  0.4768 -0.3513
  486MPD2     H 7230   1.259   1.933  12.601 -0.5479  2.1320 -0.0969
  486MPD2    H1 7231   0.995   2.095  12.908 -1.2333  0.1631 -1.7203
  486MPD2    H2 7232   1.187   1.735  12.975 -0.1754 -0.9871 -0.6938
  486MPD2    H3 7233   1.075   1.925  13.054 -2.3217 -2.8165 -0.8832
  486MPD2     N 7234   1.116   2.147  12.654 -0.0222  0.3607 -0.0627
  486MPD2    H5 7235   1.142   2.137  12.556  0.7942 -0.9326  0.2823
  486MPD2    N1 7236   1.338   1.715  12.750 -0.5760 -0.2573 -0.0710
  486MPD2    H7 7237   1.373   1.648  12.818 -3.0135 -2.0271 -0.5610
  487TMC3    C1 7238   1.475   1.573  12.623  0.3554 -0.4162  0.1942
  487TMC3    C2 7239   1.502   1.510  12.500 -1.0159  0.1366 -0.1338
  487TMC3    C3 7240   1.597   1.408  12.497  0.2244  0.1932  0.8420
  487TMC3    C4 7241   1.538   1.533  12.742  0.6572 -0.2831 -0.5849
  487TMC3    C5 7242   1.640   1.442  12.731  0.6637  0.2268  0.0686
  487TMC3    C6 7243   1.668   1.376  12.612  0.2914  0.0726 -0.2601
  487TMC3     C 7244   1.392   1.692  12.624 -0.4637  0.8221  0.2423
  487TMC3     O 7245   1.380   1.753  12.519 -0.1988 -0.4734 -0.5382
  487TMC3     H 7246   1.450   1.544  12.411  0.7350 -1.4470 -1.7390
  487TMC3    H1 7247   1.534   1.592  12.833 -0.3708  1.4803 -1.7690
  487TMC3    H2 7248   1.766   1.331  12.604  0.0282 -0.7132  0.9633
  487TMC3    C7 7249   1.685   1.370  12.854  0.5026 -0.8970  0.0177
  487TMC3    C8 7250   1.624   1.336  12.374  0.2287 -0.5389  0.1050
  487TMC3    O1 7251   1.681   1.431  12.958  0.4433 -0.2496  0.3771
  487TMC3    O2 7252   1.589   1.390  12.270 -0.1021 -0.4324 -0.2548
  488MPD2     C 7253   1.239   3.242  16.544  0.5476 -0.6091  0.3294
  488MPD2    C1 7254   1.181   3.361  16.503 -0.1646 -0.2000  0.2379
  488MPD2    C2 7255   1.074   3.407  16.576 -0.8939 -0.7458 -0.2588
  488MPD2    C3 7256   1.006   3.337  16.671  0.0302  0.5250 -0.4827
  488MPD2    C4 7257   1.056   3.213  16.702 -0.2275  0.4070  0.1970
  488MPD2    C5 7258   1.168   3.168  16.629  0.6150  0.7022 -0.8905
  488MPD2     H 7259   1.033   3.503  16.546  0.2853  0.0562  0.7258
  488MPD2    H1 7260   1.011   3.148  16.777 -0.4469  2.3151  1.7045
  488MPD2    H2 7261   1.334   3.206  16.505 -0.1563 -0.0956 -1.8629
  488MPD2    H3 7262   1.219   3.074  16.652  1.3174  0.7739 -2.1543
  488MPD2     N 7263   0.893   3.395  16.726  0.0754  0.3497  0.2040
  488MPD2    H5 7264   0.878   3.488  16.689  2.1066  0.2548 -0.8887
  488MPD2    N1 7265   1.229   3.442  16.392  0.3577 -0.5099 -0.2284
  488MPD2    H7 7266   1.194   3.536  16.383 -1.1412 -1.1225 -0.7068
  489TMC3    C1 7267   0.679   3.407  16.820 -0.2482  0.3132  0.3632
  489TMC3    C2 7268   0.668   3.523  16.746  0.9527  0.1380 -0.2555
  489TMC3    C3 7269   0.605   3.631  16.802 -0.7271  1.2392 -0.2043
  489TMC3    C4 7270   0.638   3.408  16.955  0.5406 -0.7602  0.1294
  489TMC3    C5 7271   0.573   3.522  17.003  0.8167  0.7283 -0.3605
  489TMC3    C6 7272   0.544   3.634  16.925  0.1968  0.3364  0.5999
  489TMC3     C 7273   0.797   3.333  16.796  0.3878  0.4551 -0.9096
  489TMC3     O 7274   0.806   3.224  16.855 -0.6164 -0.0349  0.0258
  489TMC3     H 7275   0.696   3.518  16.642  1.2971  1.8187 -0.2463
  489TMC3    H1 7276   0.653   3.320  17.016 -2.0717 -3.2984 -2.8728
  489TMC3    H2 7277   0.490   3.720  16.963 -0.7152 -0.1060  0.2892
  489TMC3    C7 7278   0.504   3.520  17.131  0.1570  0.2413 -0.0419
  489TMC3    C8 7279   0.624   3.749  16.728  0.7980  0.6856 -0.4852
  489TMC3    O1 7280   0.412   3.603  17.157  0.3081 -0.0926  0.0489
  489TMC3    O2 7281   0.689   3.734  16.624 -0.1118  0.3102  0.7494
  490MPD2     C 7282   1.602   2.598  16.899 -0.2184  0.3889  0.3929
  490MPD2    C1 7283   1.605   2.602  17.044  0.3172  0.5425 -0.0624
  490MPD2    C2 7284   1.723   2.615  17.117  0.1745  0.5427  0.2430
  490MPD2    C3 7285   1.847   2.619  17.051 -0.7321  0.2338  0.4828
  490MPD2    C4 7286   1.846   2.605  16.915  0.4414  0.2924 -0.3677
  490MPD2    C5 7287   1.730   2.587  16.845  0.0539  0.5189  0.0135
  490MPD2     H 7288   1.714   2.647  17.221  0.5301  0.1818  0.3828
  490MPD2    H1 7289   1.937   2.621  16.859  0.2296 -0.3111 -0.8855
  490MPD2    H2 7290   1.515   2.584  16.836  0.7870 -1.5326 -0.5552
  490MPD2    H3 7291   1.736   2.577  16.738  1.7561  1.2352  0.0451
  490MPD2     N 7292   1.967   2.641  17.116 -0.5042 -0.2081 -0.3209
  490MPD2    H5 7293   2.051   2.623  17.062 -0.5460  1.1861 -0.8479
  490MPD2    N1 7294   1.487   2.577  17.118  0.1982  0.4882 -0.3059
  490MPD2    H7 7295   1.483   2.542  17.213 -0.8198 -1.0248 -0.8960
  491TMC3    C1 7296   1.265   2.503  17.151  0.2442 -0.1546 -0.3220
  491TMC3    C2 7297   1.287   2.486  17.280  0.3118  1.3755  0.0675
  491TMC3    C3 7298   1.191   2.415  17.351  0.0141  0.6393 -0.1495
  491TMC3    C4 7299   1.151   2.465  17.089  0.4124 -0.0735 -0.3946
  491TMC3    C5 7300   1.051   2.412  17.165 -0.4402  0.6695 -0.4506
  491TMC3    C6 7301   1.070   2.377  17.301 -0.5774  0.5915 -0.4103
  491TMC3     C 7302   1.367   2.564  17.061 -0.0780 -0.3462  0.6597
  491TMC3     O 7303   1.324   2.612  16.958 -0.0043 -0.7231 -0.1028
  491TMC3     H 7304   1.369   2.528  17.337  0.3775 -1.3646  1.9933
  491TMC3    H1 7305   1.145   2.473  16.982 -2.3235 -1.0342 -0.3097
  491TMC3    H2 7306   1.002   2.326  17.368 -1.5877  0.1626 -1.7659
  491TMC3    C7 7307   0.934   2.359  17.098  0.2472  0.3623  0.0938
  491TMC3    C8 7308   1.198   2.406  17.493 -0.0732 -0.3557  0.1054
  491TMC3    O1 7309   0.866   2.271  17.154 -0.3407 -0.3200 -0.0540
  491TMC3    O2 7310   1.096   2.384  17.555  0.1197 -0.1420 -0.5550
  492MPD2     C 7311   2.787   3.028  11.693  0.4896  0.6335  0.8070
  492MPD2    C1 7312   2.784   2.913  11.614 -0.4201 -0.4066 -0.4428
  492MPD2    C2 7313   2.671   2.841  11.615 -0.2344 -0.0868 -0.1900
  492MPD2    C3 7314   2.559   2.875  11.689 -0.2346  0.1986  0.8728
  492MPD2    C4 7315   2.565   2.985  11.775  0.0661  0.2702 -1.3320
  492MPD2    C5 7316   2.679   3.062  11.764  0.0383 -0.8520  0.4568
  492MPD2     H 7317   2.668   2.746  11.563 -1.3105  1.0795 -2.2281
  492MPD2    H1 7318   2.484   3.017  11.839  0.6673  1.1135 -0.9880
  492MPD2    H2 7319   2.879   3.083  11.710  0.3753  0.9580  0.3751
  492MPD2    H3 7320   2.688   3.145  11.834 -1.6056 -0.5402  0.2833
  492MPD2     N 7321   2.444   2.797  11.704 -0.7737 -0.1828 -0.2922
  492MPD2    H5 7322   2.378   2.803  11.782 -0.8140 -1.0744 -0.2647
  492MPD2    N1 7323   2.894   2.882  11.532  0.9669 -0.0640 -0.7542
  492MPD2    H7 7324   2.950   2.961  11.501  1.1340  1.4803  3.4555
  493TMC3    C1 7325   3.009   2.756  11.377  0.1889  0.3342  0.3049
  493TMC3    C2 7326   3.027   2.867  11.293 -0.2188 -0.4127 -0.6734
  493TMC3    C3 7327   3.073   2.853  11.166  0.0409  0.8497 -0.1799
  493TMC3    C4 7328   3.040   2.628  11.333 -0.0910 -0.3212  0.0101
  493TMC3    C5 7329   3.075   2.625  11.199  0.3567  0.7786  0.4071
  493TMC3    C6 7330   3.107   2.731  11.120  0.0443 -0.5101 -0.1969
  493TMC3     C 7331   2.922   2.761  11.495 -0.9884 -0.1477 -0.3798
  493TMC3     O 7332   2.889   2.652  11.545 -0.3405 -0.1723 -0.4919
  493TMC3     H 7333   2.986   2.963  11.321  0.6586 -0.5562  1.0961
  493TMC3    H1 7334   2.989   2.547  11.385 -0.4723 -1.0009 -1.4124
  493TMC3    H2 7335   3.119   2.714  11.014  0.5855 -2.9533  0.2635
  493TMC3    C7 7336   3.006   2.521  11.121 -0.4147 -0.1191 -0.2861
  493TMC3    C8 7337   2.983   2.911  11.072 -0.1575 -0.4783 -0.6009
  493TMC3    O1 7338   2.967   2.556  11.012  0.5188  0.1495  0.0187
  493TMC3    O2 7339   2.868   2.878  11.073 -0.6738 -0.0878 -0.0339
  494TMC3    C1 7340   2.656   4.667   0.698  0.5917 -0.0768  0.4686
  494TMC3    C2 7341   2.658   4.560   0.782  0.6722 -0.0852 -0.2845
  494TMC3    C3 7342   2.666   4.433   0.725 -0.4153 -0.2562 -0.6144
  494TMC3    C4 7343   2.644   4.657   0.561  1.0382 -0.4650 -0.2308
  494TMC3    C5 7344   2.638   4.533   0.508  0.4270 -0.2746  0.5341
  494TMC3    C6 7345   2.662   4.423   0.589 -0.1743 -0.6108 -0.0400
  494TMC3     C 7346   2.631   0.069   0.765 -0.3533  0.4657  0.0425
  494TMC3     O 7347   2.619   0.071   0.891 -0.0555 -0.0113 -0.4113
  494TMC3     H 7348   2.666   4.572   0.889  0.0213 -1.4767 -0.0819
  494TMC3    H1 7349   2.597   0.013   0.505 -0.7251 -1.5028 -0.2494
  494TMC3    H2 7350   2.671   4.327   0.539  1.9413  0.2380 -1.2405
  494TMC3    C7 7351   2.581   4.516   0.374  0.4674 -0.4442 -0.0357
  494TMC3    C8 7352   2.693   4.313   0.800 -0.5426 -0.0386 -0.9546
  494TMC3    O1 7353   2.557   4.619   0.306  0.7665 -0.2020 -0.1537
  494TMC3    O2 7354   2.708   4.206   0.742 -0.0966  0.4096  0.2187
  495TMC3    C1 7355   1.609   1.641  14.665 -0.6332 -0.1208  0.0928
  495TMC3    C2 7356   1.537   1.719  14.571 -0.2025  0.0403  0.4855
  495TMC3    C3 7357   1.483   1.830  14.629  0.6128 -0.1903  0.7317
  495TMC3    C4 7358   1.613   1.673  14.800  0.2763 -0.7862 -0.3935
  495TMC3    C5 7359   1.546   1.786  14.845 -0.1336  0.5270 -0.7520
  495TMC3    C6 7360   1.476   1.863  14.760  0.3976 -0.2625  0.7785
  495TMC3     C 7361   1.631   1.505  14.637 -0.2769 -0.6483  0.0974
  495TMC3     O 7362   1.704   1.445  14.714  0.1950  0.2758  0.7926
  495TMC3     H 7363   1.530   1.697  14.466  0.5637  1.0749  0.2198
  495TMC3    H1 7364   1.668   1.619  14.876 -3.4140 -2.5438  1.0507
  495TMC3    H2 7365   1.420   1.950  14.792  0.6917  0.5634 -0.9539
  495TMC3    C7 7366   1.500   1.763  14.978 -0.6590  0.1496  0.8134
  495TMC3    C8 7367   1.370   1.880  14.554 -0.7156 -0.3759  0.6860
  495TMC3    O1 7368   1.565   1.819  15.068 -0.3632  0.0809  0.2196
  495TMC3    O2 7369   1.265   1.894  14.615 -0.5214 -0.0745  0.1212
  496MPD2     C 7370   3.208   1.225  15.027 -0.8042 -0.5409 -0.0105
  496MPD2    C1 7371   3.287   1.206  15.137 -0.1086 -0.0230  0.0514
  496MPD2    C2 7372   3.246   1.251  15.256  0.9846  0.6092  0.6795
  496MPD2    C3 7373   3.121   1.306  15.275 -0.9761  0.4175 -0.9342
  496MPD2    C4 7374   3.034   1.312  15.165 -0.3971  0.0439 -0.4849
  496MPD2    C5 7375   3.082   1.283  15.041 -0.0233 -0.1566  0.0026
  496MPD2     H 7376   3.311   1.227  15.338 -2.6264 -2.3414  2.7044
  496MPD2    H1 7377   2.935   1.358  15.165 -1.1152 -1.4632  1.6818
  496MPD2    H2 7378   3.239   1.193  14.928  2.3765  0.5390  0.6349
  496MPD2    H3 7379   3.016   1.272  14.957 -0.6499 -2.4417  0.7741
  496MPD2     N 7380   3.068   1.356  15.396  0.7645 -0.5324 -0.0482
  496MPD2    H5 7381   2.970   1.380  15.394  0.9914  0.3479 -0.5918
  496MPD2    N1 7382   3.402   1.124  15.115 -0.2702  0.4860 -0.0629
  496MPD2    H7 7383   3.417   1.100  15.017 -0.3971  0.4968 -0.0855
  497TMC3    C1 7384   3.067   1.457  15.612  0.1993 -0.3125  0.5413
  497TMC3    C2 7385   2.961   1.540  15.580 -0.3830  0.6784 -0.0142
  497TMC3    C3 7386   2.868   1.572  15.677  0.0575 -0.7805  0.2698
  497TMC3    C4 7387   3.077   1.414  15.742 -0.3936 -0.1268 -0.1314
  497TMC3    C5 7388   2.998   1.461  15.844 -0.0350 -0.2693 -0.0183
  497TMC3    C6 7389   2.887   1.540  15.809 -0.6615 -0.4655 -0.3313
  497TMC3     C 7390   3.141   1.389  15.510  0.0921  0.0971  0.9291
  497TMC3     O 7391   3.258   1.355  15.535  0.2766 -0.1020 -0.0931
  497TMC3     H 7392   2.952   1.569  15.476 -0.5819 -0.5403 -0.3453
  497TMC3    H1 7393   3.162   1.347  15.752  0.6564  1.1513 -0.4676
  497TMC3    H2 7394   2.815   1.563  15.887  0.3566 -2.7187  1.2610
  497TMC3    C7 7395   2.996   1.387  15.970 -0.3388 -0.0745  0.6427
  497TMC3    C8 7396   2.766   1.664  15.642  0.1852  0.4265 -0.0899
  497TMC3    O1 7397   2.890   1.409  16.027 -0.2030 -0.0746 -0.6145
  497TMC3    O2 7398   2.711   1.646  15.535 -0.1928 -0.0259 -0.0630
  498MPD2     C 7399   0.657   2.108   9.663 -0.0894 -0.7927  0.3679
  498MPD2    C1 7400   0.580   2.216   9.709 -0.7147 -0.5262  0.1316
  498MPD2    C2 7401   0.446   2.192   9.739 -0.5736 -0.4925  0.5853
  498MPD2    C3 7402   0.388   2.072   9.712 -0.3417  0.3814 -0.5871
  498MPD2    C4 7403   0.462   1.969   9.654 -0.3831  0.2697 -0.0245
  498MPD2    C5 7404   0.596   1.988   9.636  0.3138  0.7553 -0.2853
  498MPD2     H 7405   0.390   2.273   9.785  0.0375 -0.2782  0.9443
  498MPD2    H1 7406   0.430   1.867   9.638  1.2239 -0.4413  1.2310
  498MPD2    H2 7407   0.759   2.125   9.633 -0.2198 -1.4119 -0.3994
  498MPD2    H3 7408   0.663   1.911   9.597  0.3874  0.9648 -0.5714
  498MPD2     N 7409   0.249   2.064   9.730  0.4306  0.0559  0.4381
  498MPD2    H5 7410   0.204   2.144   9.774  2.3115  0.4403  1.6473
  498MPD2    N1 7411   0.630   2.345   9.720  0.0575  0.1869  0.0588
  498MPD2    H7 7412   0.565   2.415   9.754  1.0622  0.5649  1.2236
  499TMC3    C1 7413   0.775   2.529   9.705 -0.3559 -0.2437 -0.1335
  499TMC3    C2 7414   0.889   2.572   9.754  0.2442  0.3313 -0.0631
  499TMC3    C3 7415   0.922   2.705   9.743  0.7797 -0.3634  0.8584
  499TMC3    C4 7416   0.680   2.611   9.657 -0.3096  0.0226  0.1437
  499TMC3    C5 7417   0.710   2.746   9.647  0.3325 -0.5911  0.3914
  499TMC3    C6 7418   0.832   2.796   9.692 -0.6086 -0.6168 -0.6777
  499TMC3     C 7419   0.759   2.385   9.711  0.7351 -0.1626 -0.3782
  499TMC3     O 7420   0.858   2.314   9.728 -0.3267  0.7149 -0.2330
  499TMC3     H 7421   0.956   2.501   9.799  0.6024  0.2406 -0.7299
  499TMC3    H1 7422   0.581   2.573   9.636  0.3852 -1.5303 -0.2696
  499TMC3    H2 7423   0.862   2.898   9.676 -0.6372 -0.5708 -0.4438
  499TMC3    C7 7424   0.617   2.848   9.608  0.3698 -0.9158 -0.1737
  499TMC3    C8 7425   1.059   2.753   9.753 -0.1326  0.4864  0.2606
  499TMC3    O1 7426   0.629   2.964   9.650 -0.4790 -0.0388  0.2622
  499TMC3    O2 7427   1.076   2.872   9.724  1.3307  0.0753 -0.1749
  500MPD2     C 7428   1.563   4.035  10.404  0.1425  1.2551  0.3178
  500MPD2    C1 7429   1.642   4.022  10.296 -0.1537 -0.2196  0.1023
  500MPD2    C2 7430   1.591   3.969  10.175 -0.2986  0.3109  0.2840
  500MPD2    C3 7431   1.461   3.922  10.168 -0.6634  0.5909  0.8123
  500MPD2    C4 7432   1.382   3.941  10.283 -0.6446  0.1681 -0.9453
  500MPD2    C5 7433   1.432   3.988  10.400  0.7291 -0.1894 -0.4529
  500MPD2     H 7434   1.665   3.968  10.096 -0.3186  0.2386  0.2666
  500MPD2    H1 7435   1.280   3.905  10.293 -0.5264  0.8672  2.7366
  500MPD2    H2 7436   1.602   4.080  10.495  1.1565 -0.8714  0.9370
  500MPD2    H3 7437   1.369   4.005  10.487  0.6299  0.5020 -0.6589
  500MPD2     N 7438   1.411   3.855  10.050 -0.1447  0.6428 -0.4544
  500MPD2    H5 7439   1.315   3.828  10.068 -0.4790  0.4741 -2.5240
  500MPD2    N1 7440   1.782   4.051  10.302  0.3662 -0.2274 -0.5615
  500MPD2    H7 7441   1.832   4.046  10.214 -1.5214 -0.3580 -1.6362
  501TMC3    C1 7442   1.995   4.121  10.379 -0.3051 -0.5281  0.7307
  501TMC3    C2 7443   2.008   4.210  10.274 -0.1114 -0.1937 -0.7473
  501TMC3    C3 7444   2.135   4.274  10.263 -0.0373  0.2370 -0.7703
  501TMC3    C4 7445   2.092   4.096  10.468 -0.3177 -0.1073 -1.0669
  501TMC3    C5 7446   2.205   4.172  10.460  0.1992 -0.2449 -0.5284
  501TMC3    C6 7447   2.233   4.249  10.349 -0.9699  0.0643 -0.8927
  501TMC3     C 7448   1.856   4.081  10.413 -0.1402  0.2666  0.1479
  501TMC3     O 7449   1.821   4.078  10.533  0.4689  0.3202 -0.5241
  501TMC3     H 7450   1.921   4.242  10.218 -0.3327 -3.1276 -2.0628
  501TMC3    H1 7451   2.062   4.033  10.552  0.9168 -1.6519 -1.7774
  501TMC3    H2 7452   2.332   4.293  10.340 -1.3820  1.1455 -0.0465
  501TMC3    C7 7453   2.318   4.134  10.544  0.2014 -0.3813 -0.7759
  501TMC3    C8 7454   2.128   4.416  10.227 -0.1442  0.2450 -0.5084
  501TMC3    O1 7455   2.301   4.028  10.602 -0.1575 -0.6998 -0.0064
  501TMC3    O2 7456   2.180   4.486  10.313 -0.5574  0.3243  0.4152
  502TMC3    C1 7457   0.860   2.837  15.483  0.1228  0.3104  0.8463
  502TMC3    C2 7458   0.949   2.929  15.435  0.5242  0.5411  0.1061
  502TMC3    C3 7459   0.951   2.950  15.305 -0.1019  1.0158 -0.2002
  502TMC3    C4 7460   0.780   2.762  15.402 -0.2338 -0.4043 -0.0466
  502TMC3    C5 7461   0.790   2.786  15.267  0.2355 -0.1280 -0.4565
  502TMC3    C6 7462   0.877   2.883  15.213  0.1586  0.0255  0.5494
  502TMC3     C 7463   0.868   2.787  15.618  0.1488 -0.2107 -0.4013
  502TMC3     O 7464   0.979   2.747  15.654 -0.0984 -0.4783  0.1311
  502TMC3     H 7465   1.035   2.960  15.493  1.8085  0.3125 -1.6717
  502TMC3    H1 7466   0.748   2.668  15.446  0.9849 -1.1228 -0.7007
  502TMC3    H2 7467   0.882   2.909  15.108 -1.7781 -2.3898 -0.1414
  502TMC3    C7 7468   0.711   2.695  15.182  0.5110  0.2040 -0.3349
  502TMC3    C8 7469   0.971   3.088  15.266 -0.3188 -0.6632  0.2147
  502TMC3    O1 7470   0.736   2.675  15.064 -0.2094  0.2886 -0.0192
  502TMC3    O2 7471   1.022   3.115  15.160  0.5137 -0.4548 -0.1812
  503MPD2     C 7472   2.977   3.272  16.761  0.1800 -0.0722 -0.2282
  503MPD2    C1 7473   2.922   3.234  16.883 -0.5699 -0.1555  0.7234
  503MPD2    C2 7474   2.979   3.126  16.942  0.7852 -0.2581 -0.2426
  503MPD2    C3 7475   3.083   3.047  16.882 -0.1100  0.1270 -0.1282
  503MPD2    C4 7476   3.134   3.083  16.761 -0.0846  0.5597  0.4815
  503MPD2    C5 7477   3.079   3.196  16.707 -0.1032  0.3584 -0.5401
  503MPD2     H 7478   2.944   3.098  17.041  0.7514 -1.0412 -0.4730
  503MPD2    H1 7479   3.220   3.041  16.711 -1.0460 -0.7985 -0.0474
  503MPD2    H2 7480   2.952   3.369  16.720  0.7024 -1.3341 -3.5563
  503MPD2    H3 7481   3.135   3.237  16.623 -0.8127  1.1411 -0.6349
  503MPD2     N 7482   3.143   2.938  16.952 -0.5971  0.3498  0.2324
  503MPD2    H5 7483   3.108   2.920  17.045  1.4842  0.8476  1.0922
  503MPD2    N1 7484   2.815   3.306  16.946 -0.5654  0.0033  0.4129
  503MPD2    H7 7485   2.780   3.271  17.035  0.0748 -1.1124  0.2282
  504TMC3    C1 7486   3.308   2.779  17.011 -0.1033 -0.5766  0.3290
  504TMC3    C2 7487   3.273   2.791  17.147  0.1985 -0.5678 -0.0851
  504TMC3    C3 7488   3.368   2.778  17.247 -0.2847 -0.4015 -0.2030
  504TMC3    C4 7489   3.440   2.739  16.988  0.1321  0.3307  0.0292
  504TMC3    C5 7490   3.533   2.740  17.088 -0.3181 -0.3705  0.3181
  504TMC3    C6 7491   3.498   2.756  17.214  0.6220 -0.6677  0.6907
  504TMC3     C 7492   3.253   2.867  16.909 -0.0541 -0.2353  0.0897
  504TMC3     O 7493   3.321   2.881  16.811  0.2294 -0.4439 -0.2337
  504TMC3     H 7494   3.168   2.792  17.173  0.5714 -0.0061  1.4185
  504TMC3    H1 7495   3.475   2.732  16.885  1.6409  2.7543  0.3683
  504TMC3    H2 7496   3.559   2.728  17.300  0.1857  0.9521  1.5307
  504TMC3    C7 7497   3.663   2.775  17.037  0.7689 -0.0090  0.1590
  504TMC3    C8 7498   3.310   2.716  17.363 -0.2015 -0.1129 -0.2888
  504TMC3    O1 7499   3.680   2.805  16.922  0.5133  0.0585  0.3230
  504TMC3    O2 7500   3.227   2.628  17.343 -0.1038 -0.5838  0.3787
  505MPD2     C 7501   3.655   1.513  10.309  0.0340  0.1731 -0.3868
  505MPD2    C1 7502   3.773   1.474  10.373 -0.1218  0.2563  0.4858
  505MPD2    C2 7503   3.834   1.560  10.462  0.5432  0.3275 -0.1438
  505MPD2    C3 7504   3.783   1.680  10.485 -0.4092 -0.8073  0.3504
  505MPD2    C4 7505   3.669   1.718  10.410 -0.1483  0.0104  0.3829
  505MPD2    C5 7506   3.601   1.641  10.321 -0.0487  0.0046 -0.5224
  505MPD2     H 7507   3.930   1.542  10.510  0.2229 -0.1901  0.3001
  505MPD2    H1 7508   3.636   1.816  10.443 -0.5108  0.4411 -1.2402
  505MPD2    H2 7509   3.599   1.452  10.239 -2.9945  0.4390  1.8167
  505MPD2    H3 7510   3.513   1.677  10.270  1.1782  1.5232 -1.5679
  505MPD2     N 7511   3.854   1.765  10.570  0.5777  0.2251 -0.0971
  505MPD2    H5 7512   3.940   1.727  10.608 -0.3346 -2.9690 -1.2775
  505MPD2    N1 7513   3.831   1.346  10.341 -0.7935 -0.2817 -0.4612
  505MPD2    H7 7514   3.796   1.303  10.255  0.5892 -1.5558 -0.3992
  506TMC3    C1 7515   3.988   1.172  10.344 -0.2301 -0.5130  0.0748
  506TMC3    C2 7516   3.993   1.175  10.207  0.1588  0.0113  0.5882
  506TMC3    C3 7517   4.106   1.153  10.136  0.0961 -0.6597  0.0144
  506TMC3    C4 7518   4.099   1.124  10.411  0.3808 -0.0393  0.4859
  506TMC3    C5 7519   4.217   1.127  10.341  0.3032 -0.5586 -0.2946
  506TMC3    C6 7520   4.228   1.141  10.199 -0.2122 -0.2648  0.6584
  506TMC3     C 7521   3.926   1.278  10.414 -0.2255  0.1020 -0.8167
  506TMC3     O 7522   3.964   1.302  10.527 -0.1572 -0.6985  0.4306
  506TMC3     H 7523   3.913   1.228  10.157 -0.2737 -1.0590  0.1580
  506TMC3    H1 7524   4.106   1.111  10.518  1.5984 -2.2710  0.1251
  506TMC3    H2 7525   4.325   1.134  10.152 -0.9129  2.9996 -1.3125
  506TMC3    C7 7526   4.331   1.184  10.417  0.7696  0.0967 -0.2794
  506TMC3    C8 7527   4.115   1.191   9.997  0.2430  0.5271  0.1736
  506TMC3    O1 7528   4.439   1.198  10.366  0.0820 -0.0428  0.5399
  506TMC3    O2 7529   4.019   1.167   9.923  0.1123 -0.2339  0.4738
  507TMC3    C1 7530   4.390   3.017  14.562 -0.1169  0.0891  0.3108
  507TMC3    C2 7531   4.370   3.034  14.429 -0.3144 -0.0724  0.2417
  507TMC3    C3 7532   4.396   3.158  14.377 -0.3081 -0.0539  0.0085
  507TMC3    C4 7533   4.436   3.110  14.644  0.4180 -0.2941  1.3880
  507TMC3    C5 7534   4.462   3.229  14.592  0.0765 -0.0304  0.1510
  507TMC3    C6 7535   4.452   3.251  14.463 -0.2387  0.3960 -1.0229
  507TMC3     C 7536   4.357   2.884  14.609 -0.5588  0.1304  0.3761
  507TMC3     O 7537   4.286   2.809  14.545 -0.5537 -0.0350  0.3547
  507TMC3     H 7538   4.347   2.949  14.366  0.3388  1.0273 -1.4726
  507TMC3    H1 7539   4.440   3.102  14.752 -0.9440  0.0420  1.4611
  507TMC3    H2 7540   4.480   3.349  14.426  0.4541 -0.1017 -1.8334
  507TMC3    C7 7541   4.408   3.342  14.665  0.6374  0.0847 -0.5371
  507TMC3    C8 7542   4.323   3.217  14.270  0.5424 -0.4431  0.5519
  507TMC3    O1 7543   4.403   3.346  14.791 -0.4138 -0.2707  0.3051
  507TMC3    O2 7544   4.334   3.342  14.269  0.7438 -0.3665 -0.0103
  508MPD2     C 7545   0.392   0.059  16.099  0.7626  0.0107  0.4325
  508MPD2    C1 7546   0.365   0.142  16.207  0.2456 -0.8325 -0.2185
  508MPD2    C2 7547   0.307   0.263  16.183 -0.1146 -0.2083  0.1234
  508MPD2    C3 7548   0.277   0.309  16.053 -0.0644  0.0476 -0.0547
  508MPD2    C4 7549   0.296   0.218  15.947  0.5031 -0.2049 -0.2574
  508MPD2    C5 7550   0.370   0.108  15.970  0.0180 -0.1008  0.5087
  508MPD2     H 7551   0.283   0.320  16.273 -2.4032  0.7714 -1.1110
  508MPD2    H1 7552   0.278   0.244  15.844  1.5864  0.6761 -0.2221
  508MPD2    H2 7553   0.438   4.685  16.111  1.5078  0.2495 -0.5539
  508MPD2    H3 7554   0.400   0.041  15.890 -1.6888  1.4457 -1.4313
  508MPD2     N 7555   0.231   0.444  16.035 -0.0846  0.0577 -0.1835
  508MPD2    H5 7556   0.221   0.500  16.119 -0.1983 -2.9691  1.8367
  508MPD2    N1 7557   0.399   0.097  16.330 -1.4709 -0.2743  0.0808
  508MPD2    H7 7558   0.432   0.002  16.344  0.4000  0.3123 -0.3981
  509TMC3    C1 7559   0.062   0.833  15.855 -0.3080  0.0125 -0.2119
  509TMC3    C2 7560   0.141   0.910  15.933 -0.1920  0.3250 -1.0646
  509TMC3    C3 7561   0.226   0.851  16.022  0.2377 -0.2189  0.1749
  509TMC3    C4 7562   0.063   0.694  15.866 -0.3824 -0.1018 -0.2891
  509TMC3    C5 7563   0.159   0.639  15.940 -0.3128 -0.4325  0.8770
  509TMC3    C6 7564   0.246   0.717  16.017  0.3576 -0.3710  0.7183
  509TMC3     C 7565   4.670   0.904  15.809  0.0872  0.2348 -0.3099
  509TMC3     O 7566   4.564   0.873  15.868  0.0904  0.2005  0.0559
  509TMC3     H 7567   0.140   1.018  15.926  4.1289  0.5004  0.8589
  509TMC3    H1 7568   0.015   0.627  15.796 -0.2576 -0.9890  0.4699
  509TMC3    H2 7569   0.315   0.665  16.082  3.2088  0.7491 -1.4067
  509TMC3    C7 7570   0.179   0.495  15.923 -0.0489  0.5541  0.3422
  509TMC3    C8 7571   0.335   0.930  16.072 -0.4673 -0.9667 -0.1015
  509TMC3    O1 7572   0.150   0.437  15.817 -0.6493 -0.5097 -0.0608
  509TMC3    O2 7573   0.448   0.880  16.078  0.1314 -0.2874  0.4323
  510MPD2     C 7574   2.878   2.326  14.371 -0.3675  0.1579  0.2409
  510MPD2    C1 7575   2.905   2.208  14.433 -0.6685 -0.2299  0.2721
  510MPD2    C2 7576   3.006   2.128  14.381 -0.0691  0.1062  0.0667
  510MPD2    C3 7577   3.057   2.159  14.257  1.0277 -0.2892 -0.2182
  510MPD2    C4 7578   3.023   2.273  14.194  0.3380 -0.1790  0.5765
  510MPD2    C5 7579   2.936   2.359  14.252  0.6290 -0.3687  0.2160
  510MPD2     H 7580   3.041   2.036  14.427  0.6297 -0.3949 -1.4696
  510MPD2    H1 7581   3.071   2.298  14.100  2.5804  1.2114  2.0954
  510MPD2    H2 7582   2.796   2.391  14.398 -0.8987 -0.9650  1.2431
  510MPD2    H3 7583   2.910   2.445  14.191 -2.7233 -0.1681  1.8871
  510MPD2     N 7584   3.154   2.065  14.204 -0.0366 -0.3842  0.7112
  510MPD2    H5 7585   3.193   1.996  14.267  0.0934 -0.9571  0.0022
  510MPD2    N1 7586   2.814   2.162  14.532 -0.6154 -0.0945  0.4399
  510MPD2    H7 7587   2.748   2.235  14.557  2.5915  2.7207  0.6059
  511TMC3    C1 7588   2.673   2.010  14.650  0.0485 -0.3717 -0.5800
  511TMC3    C2 7589   2.623   2.071  14.762 -0.2966 -0.2037 -0.1154
  511TMC3    C3 7590   2.525   2.006  14.840  0.2445  0.2280  0.4317
  511TMC3    C4 7591   2.639   1.880  14.620  0.0099 -0.3877 -0.4173
  511TMC3    C5 7592   2.551   1.809  14.701  0.2599 -0.1037 -0.9173
  511TMC3    C6 7593   2.499   1.868  14.818 -0.3440  0.2292 -0.1780
  511TMC3     C 7594   2.805   2.038  14.595 -0.0323  0.1774 -0.2841
  511TMC3     O 7595   2.886   1.944  14.603 -0.3333  0.0185  0.5871
  511TMC3     H 7596   2.651   2.172  14.791  2.4610 -0.8472 -0.5080
  511TMC3    H1 7597   2.682   1.833  14.532 -2.8413 -2.6444 -0.5864
  511TMC3    H2 7598   2.434   1.804  14.876 -0.4078  0.5759  0.1262
  511TMC3    C7 7599   2.501   1.679  14.651 -0.0326  0.2694  1.2047
  511TMC3    C8 7600   2.468   2.060  14.967  0.7995 -0.1388  0.0262
  511TMC3    O1 7601   2.482   1.672  14.529 -0.1052 -0.9104  0.4670
  511TMC3    O2 7602   2.486   2.181  14.983  0.3015  0.4469  0.6000
  512TMC3    C1 7603   2.163   1.408  13.143  0.1420  0.1674  0.2112
  512TMC3    C2 7604   2.143   1.486  13.254  0.0587 -0.0462 -0.0349
  512TMC3    C3 7605   2.183   1.443  13.373  0.3430 -0.0659 -0.5072
  512TMC3    C4 7606   2.233   1.290  13.140  0.2651  0.3749 -0.9292
  512TMC3    C5 7607   2.259   1.237  13.261  0.1792  0.0224  0.3362
  512TMC3    C6 7608   2.238   1.313  13.375  0.7687 -0.1383 -0.7039
  512TMC3     C 7609   2.119   1.473  13.018  0.0970 -0.2599  0.1175
  512TMC3     O 7610   2.065   1.582  13.031 -0.2451  0.3102  0.7524
  512TMC3     H 7611   2.120   1.592  13.243  0.6048 -0.0581 -1.2644
  512TMC3    H1 7612   2.231   1.220  13.057 -1.6911 -2.0025  1.1302
  512TMC3    H2 7613   2.236   1.256  13.466  0.8196 -1.3199 -1.4454
  512TMC3    C7 7614   2.311   1.109  13.269  0.5582 -0.1368  0.5095
  512TMC3    C8 7615   2.107   1.474  13.488 -0.2857  0.3251  0.3606
  512TMC3    O1 7616   2.312   1.047  13.167 -0.7052 -0.1371 -0.0547
  512TMC3    O2 7617   2.098   1.401  13.585 -0.2408 -0.0326 -0.7427
  513MPD2     C 7618   0.033   0.567  12.703 -0.0550 -0.6684 -0.2628
  513MPD2    C1 7619   4.686   0.658  12.622 -0.0164 -0.4866 -0.0578
  513MPD2    C2 7620   4.578   0.720  12.675 -0.2398  0.0467  0.7480
  513MPD2    C3 7621   4.543   0.701  12.806  0.4354 -0.1723  0.0699
  513MPD2    C4 7622   4.608   0.607  12.883  0.0193  0.5412 -0.7004
  513MPD2    C5 7623   4.714   0.540  12.831  0.4782  0.6250 -0.0784
  513MPD2     H 7624   4.527   0.794  12.616  1.0036  1.2648  1.1776
  513MPD2    H1 7625   4.565   0.576  12.978 -1.3749  0.4594 -1.3663
  513MPD2    H2 7626   0.117   0.515  12.658 -1.3024 -1.2553 -1.8973
  513MPD2    H3 7627   0.033   0.454  12.883 -0.7604 -0.4897 -0.9064
  513MPD2     N 7628   4.433   0.776  12.850  0.4364  0.1342 -0.2636
  513MPD2    H5 7629   4.392   0.844  12.787 -1.4273 -0.0698  0.7378
  513MPD2    N1 7630   4.721   0.678  12.483  0.1431  0.0821  0.3267
  513MPD2    H7 7631   4.673   0.757  12.440 -1.6827 -1.9633 -1.3653
  514TMC3    C1 7632   0.085   0.671  12.269  0.1210  0.0394 -0.0264
  514TMC3    C2 7633   0.014   0.603  12.179 -0.1749  0.8904  0.6850
  514TMC3    C3 7634   4.662   0.670  12.085 -0.2779  0.0260  0.1259
  514TMC3    C4 7635   0.066   0.807  12.274 -0.4198  0.8059  0.3339
  514TMC3    C5 7636   4.700   0.865  12.199 -0.3039  0.1509 -0.2438
  514TMC3    C6 7637   4.651   0.806  12.086  0.8026  0.0953 -0.0343
  514TMC3     C 7638   0.070   0.598  12.396  0.9006  0.3769  0.4418
  514TMC3     O 7639   0.094   0.478  12.397  0.0013 -0.0565  0.1991
  514TMC3     H 7640   0.021   0.496  12.170 -0.6356  0.6160  3.5106
  514TMC3    H1 7641   0.110   0.862  12.357 -0.7255 -0.7120  1.4983
  514TMC3    H2 7642   4.594   0.863  12.014  2.0159 -0.2839 -1.2741
  514TMC3    C7 7643   4.598   0.927  12.280  0.7532  0.9581 -0.3390
  514TMC3    C8 7644   4.670   0.620  11.951  0.0929 -0.0329  0.2302
  514TMC3    O1 7645   4.626   0.923  12.398 -0.2009 -0.2519  0.3821
  514TMC3    O2 7646   0.005   0.514  11.925  0.4455 -0.2946  0.6294
  515MPD2     C 7647   1.185   3.412  14.970  0.9830  0.5357 -0.5420
  515MPD2    C1 7648   1.258   3.320  14.900 -1.0812 -0.0212 -0.6835
  515MPD2    C2 7649   1.388   3.344  14.893  0.2815  0.4718 -0.6017
  515MPD2    C3 7650   1.449   3.437  14.977  0.3677  0.4974 -0.3762
  515MPD2    C4 7651   1.369   3.519  15.051 -0.2116  0.0024  0.8304
  515MPD2    C5 7652   1.239   3.509  15.047 -0.2374 -0.3171  0.6624
  515MPD2     H 7653   1.446   3.262  14.850 -1.2765 -0.7378 -0.3995
  515MPD2    H1 7654   1.414   3.587  15.123 -1.4484  0.1732  1.4336
  515MPD2    H2 7655   1.078   3.425  14.962  1.1025  1.1774 -1.0271
  515MPD2    H3 7656   1.177   3.581  15.099  0.5735 -0.0737  1.2850
  515MPD2     N 7657   1.586   3.457  14.988 -0.0783  0.2850 -0.2010
  515MPD2    H5 7658   1.617   3.521  15.061 -0.9436  0.0200  0.3910
  515MPD2    N1 7659   1.201   3.216  14.822 -0.3362 -0.2184 -0.3331
  515MPD2    H7 7660   1.261   3.148  14.776  0.8210  1.5434 -1.4185
  516TMC3    C1 7661   1.042   3.061  14.750 -0.4456 -0.3689 -0.1217
  516TMC3    C2 7662   1.111   3.024  14.640 -0.0476  0.3308 -0.1598
  516TMC3    C3 7663   1.109   2.885  14.610  0.0801 -0.1959  0.5077
  516TMC3    C4 7664   0.995   2.976  14.842  0.0820 -0.7653 -0.0749
  516TMC3    C5 7665   1.008   2.843  14.824  0.2056  0.4338 -0.2297
  516TMC3    C6 7666   1.045   2.796  14.697  0.3181 -0.0993 -0.2883
  516TMC3     C 7667   1.065   3.195  14.809  0.0200 -0.0141  0.3827
  516TMC3     O 7668   0.967   3.244  14.869  0.2350  0.2723  0.0280
  516TMC3     H 7669   1.156   3.094  14.570  0.1537  1.4917  1.1364
  516TMC3    H1 7670   0.973   3.028  14.935 -2.7958 -0.3350 -1.0019
  516TMC3    H2 7671   1.050   2.692  14.669 -0.5357 -0.0910 -0.4771
  516TMC3    C7 7672   1.065   2.764  14.936 -0.5293  0.5725 -0.2772
  516TMC3    C8 7673   1.140   2.837  14.473  0.0921  0.3398  0.3048
  516TMC3    O1 7674   1.041   2.648  14.937 -0.2395 -0.0669 -0.5271
  516TMC3    O2 7675   1.083   2.736  14.434 -0.0264  0.0369 -0.2964
  517MPD2     C 7676   0.739   4.334  17.400 -0.1827 -0.6156  0.5861
  517MPD2    C1 7677   0.877   4.369  17.413 -0.2274 -0.0485 -0.4586
  517MPD2    C2 7678   0.911   4.488  17.485  0.1142 -0.3805  0.5421
  517MPD2    C3 7679   0.815   4.568  17.548  0.4096  0.2647  0.1088
  517MPD2    C4 7680   0.682   4.522  17.533  0.8342 -0.3164  0.1442
  517MPD2    C5 7681   0.648   4.417  17.453 -0.0267 -0.3425  0.2330
  517MPD2     H 7682   1.018   4.506  17.496  0.5073 -2.0457 -0.5736
  517MPD2    H1 7683   0.602   4.582  17.575  1.3993  1.1521 -0.8646
  517MPD2    H2 7684   0.711   4.247  17.342 -1.4033  0.0542  0.1672
  517MPD2    H3 7685   0.543   4.397  17.435 -0.3314  1.6234 -0.2574
  517MPD2     N 7686   0.836   4.689  17.618 -0.7032  0.2215  0.6382
  517MPD2    H5 7687   0.761   0.025  17.652 -0.6779  0.3408  0.4782
  517MPD2    N1 7688   0.982   4.288  17.367 -0.5507 -0.3828 -0.1965
  517MPD2    H7 7689   1.074   4.308  17.405 -0.4754  0.3557 -0.7586
  518TMC3    C1 7690   1.103   4.137  17.234 -0.5078  0.4795 -0.6641
  518TMC3    C2 7691   1.105   4.012  17.189 -0.6323  0.4148 -0.9334
  518TMC3    C3 7692   1.220   3.977  17.130 -1.1684  0.2043 -1.0866
  518TMC3    C4 7693   1.213   4.215  17.245 -0.6401  0.2878  0.4291
  518TMC3    C5 7694   1.331   4.162  17.204 -0.7410  0.1584 -0.3742
  518TMC3    C6 7695   1.338   4.047  17.137  0.5348 -0.2447  0.5394
  518TMC3     C 7696   0.974   4.195  17.263 -0.1308  0.1770  0.4155
  518TMC3     O 7697   0.882   4.153  17.200  0.1819 -0.3194  0.1384
  518TMC3     H 7698   1.016   3.951  17.176 -0.6578 -0.1689  2.0393
  518TMC3    H1 7699   1.215   4.317  17.281  1.8177  1.2431 -2.4157
  518TMC3    H2 7700   1.431   4.009  17.096 -1.6888 -1.6143 -3.2412
  518TMC3    C7 7701   1.454   4.239  17.225  0.0094  0.1670  0.1492
  518TMC3    C8 7702   1.240   3.844  17.077  0.8158  0.0832  0.4915
  518TMC3    O1 7703   1.439   4.356  17.258  0.3201  0.4244  0.2278
  518TMC3    O2 7704   1.209   3.748  17.142  0.2523 -0.0292 -0.5580
  519MPD2     C 7705   3.071   3.166  14.250 -0.7277 -0.1014  0.0987
  519MPD2    C1 7706   2.967   3.079  14.222 -0.6598  0.0774  0.4325
  519MPD2    C2 7707   2.989   2.948  14.201 -0.0627  0.3047  0.5368
  519MPD2    C3 7708   3.120   2.908  14.185 -0.1585 -0.2985 -0.2630
  519MPD2    C4 7709   3.226   2.997  14.194  0.0847  0.1244 -0.3034
  519MPD2    C5 7710   3.199   3.128  14.234  0.2474 -0.6791  0.0427
  519MPD2     H 7711   2.909   2.875  14.202 -0.8641  1.1909  0.4857
  519MPD2    H1 7712   3.332   2.974  14.194  0.3567  1.3602 -1.3547
  519MPD2    H2 7713   3.055   3.266  14.287 -2.7633 -0.5146  0.3167
  519MPD2    H3 7714   3.273   3.206  14.245  0.3094 -0.8196  0.6327
  519MPD2     N 7715   3.164   2.781  14.137 -0.1457  0.2933  0.2993
  519MPD2    H5 7716   3.262   2.759  14.125  0.0353  2.5408 -2.3344
  519MPD2    N1 7717   2.831   3.134  14.230  0.1626  0.3775  0.1052
  519MPD2    H7 7718   2.824   3.225  14.274 -1.5959  0.2238  0.1405
  520TMC3    C1 7719   3.142   2.579  14.019 -0.0930 -0.0885  0.4445
  520TMC3    C2 7720   3.080   2.541  13.901 -0.4263  0.6886  0.4232
  520TMC3    C3 7721   3.135   2.443  13.821 -0.4568  0.4197  0.0507
  520TMC3    C4 7722   3.259   2.522  14.062 -0.6136  0.4360 -0.7696
  520TMC3    C5 7723   3.310   2.423  13.983 -1.0622  0.7622 -0.2359
  520TMC3    C6 7724   3.254   2.382  13.863  0.1855  0.2964  0.2884
  520TMC3     C 7725   3.075   2.690  14.089 -0.6831  0.9332  0.9830
  520TMC3     O 7726   2.956   2.705  14.062  0.3317  0.1362  0.8504
  520TMC3     H 7727   3.000   2.603  13.863  0.0594  1.1743  0.2020
  520TMC3    H1 7728   3.294   2.526  14.165  0.9624  0.9293 -1.3256
  520TMC3    H2 7729   3.283   2.292  13.810  2.6183 -0.3627  2.7820
  520TMC3    C7 7730   3.426   2.345  14.029  0.3318  0.4057 -0.5565
  520TMC3    C8 7731   3.087   2.422  13.686  0.1038 -0.3097  0.1741
  520TMC3    O1 7732   3.449   2.355  14.150  0.5156 -0.9426  0.5105
  520TMC3    O2 7733   3.164   2.377  13.602 -0.0078 -0.3886 -0.2426
  521MPD2     C 7734   4.032   0.897  17.633 -0.6008  0.1690  0.3043
  521MPD2    C1 7735   3.995   0.804  17.537  0.1136 -0.4800 -0.0613
  521MPD2    C2 7736   4.093   0.767  17.444 -0.0256  0.1824  0.4502
  521MPD2    C3 7737   4.215   0.838  17.433 -0.1515 -0.8112 -0.3461
  521MPD2    C4 7738   4.244   0.925  17.535  0.4584 -0.5969  0.5113
  521MPD2    C5 7739   4.158   0.954  17.639  0.4846 -0.6014 -0.5425
  521MPD2     H 7740   4.060   0.696  17.369  0.1319 -0.3854  0.9097
  521MPD2    H1 7741   4.333   0.988  17.540  1.0841 -1.3124 -1.9152
  521MPD2    H2 7742   3.970   0.937   0.014 -1.5748  2.7875 -1.8048
  521MPD2    H3 7743   4.185   1.024   0.021  2.3682 -0.2771 -1.4906
  521MPD2     N 7744   4.298   0.801  17.322  0.1961  0.3565 -0.4912
  521MPD2    H5 7745   4.255   0.737  17.256  2.3636  0.7296 -2.2953
  521MPD2    N1 7746   3.866   0.739  17.552  0.4832  0.1702 -0.1822
  521MPD2    H7 7747   3.802   0.771  17.624  0.1682 -2.9018  0.8674
  522TMC3    C1 7748   4.500   0.799  17.197 -0.1259 -0.2475 -0.1670
  522TMC3    C2 7749   4.637   0.791  17.197  0.0662  0.3557  0.1564
  522TMC3    C3 7750   4.707   0.731  17.096 -0.4206 -0.5877 -0.3933
  522TMC3    C4 7751   4.431   0.742  17.090 -0.0332 -0.2736  0.1730
  522TMC3    C5 7752   4.501   0.677  16.990  0.0429  0.3960  0.1399
  522TMC3    C6 7753   4.637   0.672  16.995 -0.7049  0.3028  0.6563
  522TMC3     C 7754   4.428   0.844  17.309 -0.0487  0.2282  0.5667
  522TMC3     O 7755   4.488   0.914  17.391  0.3654 -0.0712  0.1381
  522TMC3     H 7756   4.691   0.838  17.279 -1.6101 -0.3470  1.6501
  522TMC3    H1 7757   4.323   0.736  17.090 -0.2047  2.7275  3.1322
  522TMC3    H2 7758   4.674   0.632  16.902  0.2773  0.1562  1.1093
  522TMC3    C7 7759   4.446   0.620  16.867  0.3216  0.4551 -0.4075
  522TMC3    C8 7760   0.129   0.725  17.111  0.3628  0.2740 -0.4115
  522TMC3    O1 7761   4.511   0.523  16.824 -0.4932 -0.0132 -0.5264
  522TMC3    O2 7762   0.183   0.813  17.178 -0.1187  0.3014 -0.2466
  523MPD2     C 7763   2.025   0.536  10.134  0.1589  0.1603  0.1197
  523MPD2    C1 7764   2.023   0.489  10.006  0.2430  0.2508 -0.4110
  523MPD2    C2 7765   1.971   0.571   9.906 -0.8156  1.1713 -0.3871
  523MPD2    C3 7766   1.900   0.678   9.947  0.1145  0.2086  0.5072
  523MPD2    C4 7767   1.901   0.726  10.072 -0.0496  0.0586  0.1113
  523MPD2    C5 7768   1.967   0.654  10.164  0.0151  0.2966 -0.1685
  523MPD2     H 7769   1.975   0.546   9.800 -1.3990 -0.2671 -0.0618
  523MPD2    H1 7770   1.853   0.821  10.087 -0.9274 -0.2982 -0.4457
  523MPD2    H2 7771   2.095   0.498  10.207 -0.1364  2.0544  1.3962
  523MPD2    H3 7772   1.979   0.679  10.268  0.3026 -0.4146 -0.0297
  523MPD2     N 7773   1.829   0.751   9.847  0.4724 -0.0657 -0.7223
  523MPD2    H5 7774   1.777   0.831   9.883 -1.8013 -1.6865 -0.4140
  523MPD2    N1 7775   2.093   0.371   9.972 -0.0300 -0.0924  0.6785
  523MPD2    H7 7776   2.144   0.322  10.044 -0.7612 -0.3044  1.0472
  524TMC3    C1 7777   1.721   0.828   9.643 -0.0131 -0.1848  0.1708
  524TMC3    C2 7778   1.648   0.785   9.537 -0.2565 -0.0265 -0.0653
  524TMC3    C3 7779   1.560   0.866   9.468 -0.8950  0.3564 -0.8241
  524TMC3    C4 7780   1.719   0.956   9.675 -0.6986  0.2192  0.4641
  524TMC3    C5 7781   1.635   1.044   9.606 -0.1120  0.0214  1.2225
  524TMC3    C6 7782   1.552   0.996   9.506  0.0507  0.2998  0.0443
  524TMC3     C 7783   1.809   0.731   9.714  0.1874 -0.0052 -0.2097
  524TMC3     O 7784   1.843   0.632   9.641 -0.2219 -0.0120 -0.0681
  524TMC3     H 7785   1.627   0.679   9.529  1.7277 -0.4268 -0.0891
  524TMC3    H1 7786   1.783   0.996   9.754  1.5928 -0.5245 -1.0250
  524TMC3    H2 7787   1.476   1.057   9.459 -2.0737 -2.1011  0.3402
  524TMC3    C7 7788   1.624   1.174   9.659  0.5258  0.2086 -0.4445
  524TMC3    C8 7789   1.447   0.814   9.391  0.2982 -0.0310  0.0811
  524TMC3    O1 7790   1.676   1.193   9.767 -1.0775  0.8603  0.1304
  524TMC3    O2 7791   1.353   0.890   9.365 -0.2047 -0.4445 -0.2515
  525MPD2     C 7792   4.700   2.348  14.423  0.1353 -0.6267  0.1677
  525MPD2    C1 7793   4.684   2.412  14.538  0.5118  0.7559 -0.3181
  525MPD2    C2 7794   4.724   2.542  14.552 -0.2463 -0.3937 -0.0468
  525MPD2    C3 7795   0.057   2.609  14.448  0.6299 -0.5105 -0.3659
  525MPD2    C4 7796   0.076   2.541  14.329 -0.3458  0.1641  0.7090
  525MPD2    C5 7797   0.039   2.411  14.322  0.2781 -0.0754 -0.1922
  525MPD2     H 7798   4.713   2.571  14.656  2.5803 -1.5750  0.5719
  525MPD2    H1 7799   0.140   2.574  14.248 -0.4861 -2.1537 -0.3397
  525MPD2    H2 7800   4.660   2.248  14.411 -3.4765  0.7301  0.7040
  525MPD2    H3 7801   0.057   2.349  14.235 -0.2621  0.6442 -0.8249
  525MPD2     N 7802   0.099   2.744  14.464 -0.1248 -0.7097 -0.2314
  525MPD2    H5 7803   0.050   2.793  14.538 -0.6753  1.5246 -2.0817
  525MPD2    N1 7804   4.636   2.350  14.660  0.8147 -0.0392  0.1702
  525MPD2    H7 7805   4.655   2.389  14.752  1.5928 -1.0713  0.4476
  526TMC3    C1 7806   4.558   2.176  14.783  0.6073  0.1123 -0.3955
  526TMC3    C2 7807   4.440   2.107  14.807 -0.2653 -0.6619  0.0487
  526TMC3    C3 7808   4.432   2.046  14.934  0.1314  0.4288  0.5926
  526TMC3    C4 7809   4.670   2.176  14.864  0.4243  0.3780  1.4269
  526TMC3    C5 7810   4.655   2.090  14.979  0.4065 -0.6107  0.0535
  526TMC3    C6 7811   4.535   2.036  15.021 -0.1304  0.0109  0.3966
  526TMC3     C 7812   4.571   2.234  14.654 -0.5712  0.4319 -0.0628
  526TMC3     O 7813   4.536   2.170  14.558  0.3779  0.2201  0.6495
  526TMC3     H 7814   4.366   2.119  14.729  0.5033  2.0570 -0.2362
  526TMC3    H1 7815   0.040   2.225  14.842 -0.5923  0.9830 -1.6243
  526TMC3    H2 7816   4.525   1.980  15.113 -0.9160 -0.3887  0.0625
  526TMC3    C7 7817   0.059   2.052  15.043 -0.1660  0.1785  0.5127
  526TMC3    C8 7818   4.307   1.992  14.976 -0.2339  0.4807  0.2419
  526TMC3    O1 7819   0.047   2.005  15.154 -0.2061 -0.8496  0.0162
  526TMC3    O2 7820   4.236   1.942  14.889 -0.1048 -0.2900 -0.2030
  527MPD2     C 7821   2.992   4.495   0.748  0.7259  0.3104  0.6907
  527MPD2    C1 7822   3.018   4.503   0.886  0.1349 -0.9810 -0.3872
  527MPD2    C2 7823   3.053   4.393   0.961  0.4113  0.1535 -0.2216
  527MPD2    C3 7824   3.066   4.270   0.897  0.1445 -0.0833 -0.2255
  527MPD2    C4 7825   3.046   4.258   0.766  0.4868  0.0552 -0.3547
  527MPD2    C5 7826   3.013   4.371   0.691  0.3023  0.9212 -0.2993
  527MPD2     H 7827   3.092   4.413   1.061  1.7257  1.1368 -0.9205
  527MPD2    H1 7828   3.078   4.170   0.711  0.6124 -1.0869  1.5217
  527MPD2    H2 7829   2.968   4.582   0.688  1.9946  0.2733  0.1115
  527MPD2    H3 7830   3.005   4.364   0.584  0.4805 -0.0714 -0.2484
  527MPD2     N 7831   3.096   4.151   0.961  0.3636  0.0912 -0.7907
  527MPD2    H5 7832   3.105   4.070   0.900 -0.6257 -0.5353 -0.1186
  527MPD2    N1 7833   3.003   4.627   0.957  0.1119  0.5794 -0.0806
  527MPD2    H7 7834   2.996   4.619   1.058  0.1291  0.1140 -0.1141
  528TMC3    C1 7835   2.928   0.130   0.995 -0.3256 -0.3786 -0.3925
  528TMC3    C2 7836   2.884   0.097   1.117 -0.1528 -0.1041 -0.0612
  528TMC3    C3 7837   2.813   0.197   1.184  0.0994  0.2681  0.2152
  528TMC3    C4 7838   2.920   0.255   0.940  0.2022 -0.0276 -0.1769
  528TMC3    C5 7839   2.850   0.350   1.009 -0.2883 -0.1151 -0.0998
  528TMC3    C6 7840   2.794   0.319   1.128  0.1157 -0.5747  0.2734
  528TMC3     C 7841   2.972   0.029   0.903  0.9149 -0.3977 -0.4980
  528TMC3     O 7842   2.984   0.057   0.789  0.3906 -0.4457 -0.5518
  528TMC3     H 7843   2.907   4.722   1.157 -2.3606 -0.5778  0.0587
  528TMC3    H1 7844   2.970   0.290   0.851  0.4052  0.0869 -0.0192
  528TMC3    H2 7845   2.741   0.402   1.172 -1.1748 -2.4497  2.2519
  528TMC3    C7 7846   2.894   0.491   0.994 -0.3260 -0.3572  0.2487
  528TMC3    C8 7847   2.778   0.182   1.319 -0.1523  0.3926 -0.4040
  528TMC3    O1 7848   2.891   0.556   1.098 -0.2079  0.1783  0.4494
  528TMC3    O2 7849   2.711   0.265   1.376 -0.2107  0.0716 -0.3433
  529MPD2     C 7850   4.612   0.243   0.854 -0.1724  0.0214  0.3590
  529MPD2    C1 7851   4.619   0.125   0.780 -0.7900 -0.2837  0.1967
  529MPD2    C2 7852   4.562   0.127   0.650  0.4858  0.7567 -0.2901
  529MPD2    C3 7853   4.511   0.241   0.601  0.1106  0.3882  1.3397
  529MPD2    C4 7854   4.513   0.356   0.678 -0.4186 -0.3990  0.5993
  529MPD2    C5 7855   4.553   0.356   0.809 -0.4235 -0.0156 -0.9762
  529MPD2     H 7856   4.578   0.034   0.597  0.0539  0.7857 -0.4722
  529MPD2    H1 7857   4.480   0.449   0.634  4.0604  0.5232 -0.8719
  529MPD2    H2 7858   4.652   0.244   0.955 -0.4760 -0.4859  0.4865
  529MPD2    H3 7859   4.548   0.443   0.873  3.3806 -0.4110 -0.1404
  529MPD2     N 7860   4.465   0.243   0.467  0.4015  0.1016  0.5341
  529MPD2    H5 7861   4.478   0.156   0.416 -1.8601  0.4444 -0.6193
  529MPD2    N1 7862   4.674   0.003   0.829  0.2554 -0.2598  0.1947
  529MPD2    H7 7863   4.655   4.642   0.777  3.3817 -1.6906  1.3913
  530TMC3    C1 7864   0.065   4.590   0.986 -0.1078 -0.7074  0.2797
  530TMC3    C2 7865   0.192   4.575   1.025  0.0135 -0.2404 -0.4091
  530TMC3    C3 7866   0.250   4.446   1.024 -0.0179  0.3009  0.0590
  530TMC3    C4 7867   4.707   4.480   0.956  0.3522  0.0642 -0.6810
  530TMC3    C5 7868   0.037   4.353   0.971  0.2330  0.0629 -0.1468
  530TMC3    C6 7869   0.167   4.335   1.005  0.2395 -0.3013  1.3950
  530TMC3     C 7870   0.023   4.722   0.945 -0.3101 -0.0764 -0.7787
  530TMC3     O 7871   0.073   0.089   1.010  0.3999  0.3072 -0.2148
  530TMC3     H 7872   0.255   4.663   1.035 -0.9132  0.2368  1.1708
  530TMC3    H1 7873   4.605   4.490   0.920  0.2342 -1.8870 -0.8769
  530TMC3    H2 7874   0.212   4.238   1.023 -0.9864 -0.9937  0.6990
  530TMC3    C7 7875   4.674   4.252   0.935 -0.4595 -0.4102  0.1178
  530TMC3    C8 7876   0.376   4.423   1.088 -0.0706  0.0378 -0.4514
  530TMC3    O1 7877   4.578   4.279   0.862 -0.1680 -0.0181 -0.6182
  530TMC3    O2 7878   0.395   4.525   1.158 -0.4996 -0.4238 -0.5128
  531MPD2     C 7879   4.124   0.939  12.447 -0.0663  0.4827 -0.5115
  531MPD2    C1 7880   4.236   0.995  12.508 -0.0433 -0.1040  0.3383
  531MPD2    C2 7881   4.354   0.995  12.427 -0.2409  0.3142 -0.5441
  531MPD2    C3 7882   4.357   0.941  12.302 -0.1888  0.1226  0.0976
  531MPD2    C4 7883   4.237   0.900  12.246  0.0710 -0.3057  0.4825
  531MPD2    C5 7884   4.128   0.891  12.319 -0.5229 -0.5412  0.0795
  531MPD2     H 7885   4.446   1.034  12.470 -0.5046  0.2331  0.0987
  531MPD2    H1 7886   4.236   0.870  12.141 -0.2999 -0.2947  0.4825
  531MPD2    H2 7887   4.030   0.935  12.500  1.3620 -0.4618  1.9352
  531MPD2    H3 7888   4.039   0.855  12.269 -0.8543 -2.5178  2.0837
  531MPD2     N 7889   4.473   0.920  12.227 -0.1275 -0.4426  0.6845
  531MPD2    H5 7890   4.457   0.876  12.137 -3.0152 -0.4522  1.2075
  531MPD2    N1 7891   4.218   1.048  12.644  0.5578 -0.1097 -0.1384
  531MPD2    H7 7892   4.126   1.037  12.686  0.2142  0.2534 -0.7872
  532TMC3    C1 7893   4.295   1.088  12.846 -0.1129 -0.1995 -0.5973
  532TMC3    C2 7894   4.272   0.952  12.884  0.2917  0.2988  0.4647
  532TMC3    C3 7895   4.322   0.903  13.004  0.1221  0.4166  0.0516
  532TMC3    C4 7896   4.393   1.157  12.916 -0.0057 -0.8793  0.3511
  532TMC3    C5 7897   4.451   1.107  13.031  0.1893  0.1523  0.1780
  532TMC3    C6 7898   4.404   0.987  13.078  0.5519 -0.6755 -0.1520
  532TMC3     C 7899   4.321   1.098  12.710 -0.1603  0.1159 -0.7795
  532TMC3     O 7900   4.438   1.110  12.675 -0.2543 -0.3667 -0.1315
  532TMC3     H 7901   4.199   0.888  12.834  2.2448 -1.5785  0.0144
  532TMC3    H1 7902   4.429   1.250  12.873  0.7122 -0.4914  1.7881
  532TMC3    H2 7903   4.432   0.949  13.176 -0.6973  3.1037  1.6720
  532TMC3    C7 7904   4.599   1.103  13.026  0.2284 -1.1165  0.2781
  532TMC3    C8 7905   4.391   0.782  12.978 -0.0730  0.7014  0.6863
  532TMC3    O1 7906   4.663   1.203  12.998 -0.0528 -0.3243  0.0551
  532TMC3    O2 7907   4.446   0.736  13.078 -0.1271 -0.2523 -0.0023
  533TMC3    C1 7908   0.163   2.964  14.398 -0.2636 -0.4384 -0.3584
  533TMC3    C2 7909   0.292   3.008  14.402  0.1559  0.0592 -0.8040
  533TMC3    C3 7910   0.318   3.096  14.507 -0.3150 -0.2398  0.3234
  533TMC3    C4 7911   0.069   2.995  14.497 -0.4410 -0.0012 -0.1137
  533TMC3    C5 7912   0.092   3.094  14.591  0.2399  0.2111 -0.1344
  533TMC3    C6 7913   0.221   3.142  14.597  0.5668  0.0965 -0.7881
  533TMC3     C 7914   0.167   2.822  14.371 -0.8256  0.1747 -0.5267
  533TMC3     O 7915   0.248   2.780  14.292 -0.3440 -0.3750 -0.3282
  533TMC3     H 7916   0.370   2.974  14.335  1.3589 -0.5508  0.8836
  533TMC3    H1 7917   4.689   2.965  14.494 -0.1903 -1.0796  1.4891
  533TMC3    H2 7918   0.251   3.217  14.669  1.2279  0.2416 -1.2091
  533TMC3    C7 7919   0.033   3.049  14.718  0.1642  0.4294 -0.1236
  533TMC3    C8 7920   0.443   3.165  14.516  0.4428  0.6854  1.0674
  533TMC3    O1 7921   0.006   2.930  14.713 -0.2905 -0.0874  0.6018
  533TMC3    O2 7922   0.441   3.270  14.582  0.6982  0.0129 -0.1940
  534MPD2     C 7923   1.980   4.016   1.846  0.1924  0.0041 -0.4384
  534MPD2    C1 7924   2.026   4.089   1.739  0.5359  0.3905  0.4238
  534MPD2    C2 7925   1.959   4.096   1.622 -0.7298  0.6804 -0.4520
  534MPD2    C3 7926   1.843   4.024   1.604  0.2155 -0.2198 -0.5325
  534MPD2    C4 7927   1.785   3.955   1.710 -0.2786 -0.7345  0.1069
  534MPD2    C5 7928   1.858   3.948   1.829 -0.5419  0.6651  0.3895
  534MPD2     H 7929   2.007   4.150   1.541  0.6172 -1.9727 -1.4406
  534MPD2    H1 7930   1.703   3.885   1.698 -1.1645  0.4528 -0.8216
  534MPD2    H2 7931   2.021   4.027   1.946  3.1986 -1.8067 -1.4824
  534MPD2    H3 7932   1.817   3.892   1.912  0.2298 -0.3081  0.1167
  534MPD2     N 7933   1.775   4.023   1.476 -0.3954 -0.9048  0.7548
  534MPD2    H5 7934   1.676   3.998   1.470 -0.3033 -0.5232 -2.1076
  534MPD2    N1 7935   2.144   4.161   1.751 -0.2919  0.6864  0.3221
  534MPD2    H7 7936   2.167   4.229   1.679 -2.4892  1.5451  0.4540
  535TMC3    C1 7937   1.752   4.024   1.244 -0.7740 -0.1805 -0.2297
  535TMC3    C2 7938   1.616   4.045   1.259 -0.2642 -0.0908  0.5597
  535TMC3    C3 7939   1.549   4.014   1.147 -0.6010  0.0575  0.0281
  535TMC3    C4 7940   1.824   3.990   1.127 -0.3300 -0.2408  0.0080
  535TMC3    C5 7941   1.746   3.945   1.030  0.1260  0.1059 -0.0865
  535TMC3    C6 7942   1.612   3.965   1.039  0.0716  0.0645  0.0302
  535TMC3     C 7943   1.839   4.040   1.357  0.1177 -0.3097 -0.1705
  535TMC3     O 7944   1.962   4.041   1.342 -0.1898  0.3660 -0.3490
  535TMC3     H 7945   1.573   4.083   1.351 -0.1972  0.7069  0.2658
  535TMC3    H1 7946   1.932   3.980   1.124 -0.2455  0.4143  0.8507
  535TMC3    H2 7947   1.550   3.936   0.955  1.7289 -1.1902 -0.7703
  535TMC3    C7 7948   1.816   3.908   0.913  0.0766 -0.8433 -0.2529
  535TMC3    C8 7949   1.407   4.038   1.126  0.1412 -0.0293 -0.3282
  535TMC3    O1 7950   1.930   3.860   0.933  0.1922 -0.0354 -0.4249
  535TMC3    O2 7951   1.349   3.966   1.048  0.7033  0.3190 -0.1886
  536MPD2     C 7952   4.640   1.876  16.420  0.0644  0.4265 -0.7081
  536MPD2    C1 7953   0.034   1.945  16.419 -0.2908  0.2085  0.3388
  536MPD2    C2 7954   0.051   2.055  16.335 -0.1711 -0.4365  0.0011
  536MPD2    C3 7955   4.672   2.096  16.252  0.9078  0.2287  0.0526
  536MPD2    C4 7956   4.556   2.024  16.254 -0.2205  0.1416  0.2564
  536MPD2    C5 7957   4.538   1.919  16.337 -0.3063 -0.2141  0.0877
  536MPD2     H 7958   0.147   2.106  16.326 -0.1742 -0.3881  0.2616
  536MPD2    H1 7959   4.472   2.058  16.196  0.7131 -0.9629 -1.7274
  536MPD2    H2 7960   4.616   1.798  16.491  1.1238  0.4454 -0.3307
  536MPD2    H3 7961   4.444   1.865  16.341 -0.7675  0.5061 -1.0609
  536MPD2     N 7962   4.681   2.205  16.158 -0.3655 -0.5700 -0.1445
  536MPD2    H5 7963   4.597   2.223  16.104 -1.6240 -0.0183  2.0179
  536MPD2    N1 7964   0.129   1.904  16.510  0.1023 -0.2263 -0.6888
  536MPD2    H7 7965   0.100   1.819  16.558 -0.6703  0.8726  0.7948
  537TMC3    C1 7966   0.328   1.912  16.641  0.8536  0.2750  0.0320
  537TMC3    C2 7967   0.399   1.998  16.718  0.5649  0.8144 -0.0475
  537TMC3    C3 7968   0.475   1.946  16.812  0.0291  0.5703 -0.4312
  537TMC3    C4 7969   0.344   1.781  16.647 -0.0650  0.5721  0.1992
  537TMC3    C5 7970   0.412   1.728  16.754  1.0039  0.4421 -0.5085
  537TMC3    C6 7971   0.490   1.812  16.828 -0.0048  0.1568  0.3661
  537TMC3     C 7972   0.248   1.965  16.534 -0.2893 -0.2870 -0.6724
  537TMC3     O 7973   0.294   2.063  16.478  0.0297  0.2506  0.5198
  537TMC3     H 7974   0.378   2.105  16.714 -0.2784  0.5939 -1.4600
  537TMC3    H1 7975   0.290   1.713  16.582 -0.7762  0.0930  1.2884
  537TMC3    H2 7976   0.542   1.771  16.914 -0.5248  1.0839  1.1306
  537TMC3    C7 7977   0.442   1.587  16.749 -0.8774 -0.0490  0.2366
  537TMC3    C8 7978   0.584   2.031  16.854 -0.1592  0.2106  1.0471
  537TMC3    O1 7979   0.381   1.532  16.660 -0.0018  0.6113 -0.2419
  537TMC3    O2 7980   0.614   2.029  16.969  0.1216 -0.6149  0.5445
  538TMC3    C1 7981   2.837   0.837  10.578 -0.5683 -0.2159  0.1906
  538TMC3    C2 7982   2.907   0.715  10.568  0.2230 -0.3014  0.0308
  538TMC3    C3 7983   2.892   0.652  10.449 -0.4343 -0.2840 -0.6218
  538TMC3    C4 7984   2.762   0.882  10.471  0.8932  0.3035  0.3844
  538TMC3    C5 7985   2.755   0.804  10.358 -0.4592  0.2135  0.2211
  538TMC3    C6 7986   2.825   0.690  10.337  0.8667  0.0470  0.2142
  538TMC3     C 7987   2.835   0.911  10.697  0.3829  1.1073  0.0585
  538TMC3     O 7988   2.784   1.023  10.684 -0.6975  0.0353 -0.1410
  538TMC3     H 7989   2.968   0.673  10.648  0.4010  0.0667  0.0884
  538TMC3    H1 7990   2.728   0.984  10.458  1.0722  0.2273 -0.6873
  538TMC3    H2 7991   2.811   0.626  10.251  2.7380 -0.3494  0.2147
  538TMC3    C7 7992   2.647   0.842  10.272  0.9690  0.3223 -0.2722
  538TMC3    C8 7993   2.935   0.515  10.456 -0.0671 -0.4240  0.1230
  538TMC3    O1 7994   2.653   0.826  10.150  0.6975 -0.0293  0.3392
  538TMC3    O2 7995   2.914   0.453  10.563 -0.2236 -0.4381 -0.1736
  539MPD2     C 7996   2.644   4.583  11.726 -0.3180  0.1118  1.0612
  539MPD2    C1 7997   2.551   4.590  11.625  0.0840 -0.2444 -0.6968
  539MPD2    C2 7998   2.466   4.696  11.630  0.2819  0.3678  0.0383
  539MPD2    C3 7999   2.487   0.078  11.718  0.7724  0.2303 -0.0124
  539MPD2    C4 8000   2.581   0.060  11.822  0.4146  0.8582  0.9160
  539MPD2    C5 8001   2.656   4.674  11.824  0.0434 -0.3966 -0.4236
  539MPD2     H 8002   2.386   4.699  11.557  0.1006  0.8934  0.2554
  539MPD2    H1 8003   2.602   0.141  11.892 -0.5524  0.1746  2.0049
  539MPD2    H2 8004   2.710   4.498  11.733  0.1059  0.2905 -0.7468
  539MPD2    H3 8005   2.732   4.659  11.899 -0.6058  1.0848  0.5141
  539MPD2     N 8006   2.421   0.203  11.712 -0.0228 -1.0157  0.6037
  539MPD2    H5 8007   2.433   0.270  11.787  0.1293 -0.6092  0.2148
  539MPD2    N1 8008   2.543   4.480  11.535 -0.0863  0.1048  0.1854
  539MPD2    H7 8009   2.616   4.412  11.551 -1.0066 -0.8217  0.4606
  540TMC3    C1 8010   2.274   0.365  11.628  1.1933 -0.3471 -0.5578
  540TMC3    C2 8011   2.228   0.435  11.520 -0.2869  0.2299  0.3696
  540TMC3    C3 8012   2.135   0.536  11.541  0.2985  0.1674  0.5461
  540TMC3    C4 8013   2.238   0.401  11.758  0.1180  0.1789  0.5299
  540TMC3    C5 8014   2.142   0.499  11.771 -0.0452  0.4877 -0.1877
  540TMC3    C6 8015   2.097   0.577  11.668 -0.2567  0.0848 -0.4132
  540TMC3     C 8016   2.349   0.244  11.601 -0.4257  0.1218 -0.2581
  540TMC3     O 8017   2.328   0.197  11.492  0.1976  0.3215 -0.2169
  540TMC3     H 8018   2.263   0.415  11.420  1.5218  1.0136  0.8363
  540TMC3    H1 8019   2.264   0.344  11.846 -0.7772 -1.9020 -0.5444
  540TMC3    H2 8020   2.004   0.633  11.674  1.2628  2.3671  1.5359
  540TMC3    C7 8021   2.038   0.476  11.872  0.7412 -1.0558  0.3010
  540TMC3    C8 8022   2.083   0.605  11.426  0.0032  0.5916  0.6738
  540TMC3    O1 8023   1.923   0.500  11.841 -0.0445  0.6076  0.0921
  540TMC3    O2 8024   2.057   0.725  11.445 -0.0786  0.4334  0.0041
  541MPD2     C 8025   0.763   1.317  13.076  0.1346  0.6700 -0.3307
  541MPD2    C1 8026   0.824   1.303  12.958 -0.1289 -0.0371 -0.3860
  541MPD2    C2 8027   0.828   1.408  12.875 -0.1228  0.1165  0.0585
  541MPD2    C3 8028   0.775   1.530  12.906  0.2250 -0.5032 -0.1882
  541MPD2    C4 8029   0.714   1.543  13.027  0.4856  0.2668 -0.0200
  541MPD2    C5 8030   0.716   1.435  13.113 -0.1573 -0.0540 -0.0178
  541MPD2     H 8031   0.875   1.396  12.778 -2.3345 -0.5501 -0.9445
  541MPD2    H1 8032   0.664   1.629  13.068 -1.9695 -0.4707 -1.4776
  541MPD2    H2 8033   0.762   1.234  13.147 -1.2356  1.7171  0.8634
  541MPD2    H3 8034   0.663   1.439  13.208  1.0723  1.9214  0.5787
  541MPD2     N 8035   0.792   1.651  12.833  0.1498 -0.2860  0.0936
  541MPD2    H5 8036   0.744   1.735  12.863 -0.2611 -0.4519 -0.1059
  541MPD2    N1 8037   0.903   1.187  12.946  0.2201  0.1767 -0.5748
  541MPD2    H7 8038   0.891   1.122  13.023  0.3177 -0.4768 -1.1210
  542TMC3    C1 8039   0.851   1.785  12.665 -0.2487  0.4796 -0.5218
  542TMC3    C2 8040   0.953   1.818  12.584 -0.6400 -0.1121 -0.4682
  542TMC3    C3 8041   0.933   1.883  12.468  1.5280 -0.0609  0.0265
  542TMC3    C4 8042   0.727   1.826  12.638  0.0198  0.6582 -0.0689
  542TMC3    C5 8043   0.715   1.913  12.528  0.6776  0.1777  0.9188
  542TMC3    C6 8044   0.814   1.940  12.437  0.2099  0.7271 -0.1761
  542TMC3     C 8045   0.868   1.657  12.721  0.3572  0.6016 -0.3572
  542TMC3     O 8046   0.964   1.584  12.691  0.2265  0.6457  0.4044
  542TMC3     H 8047   1.049   1.769  12.602  0.3624  1.7858 -0.6691
  542TMC3    H1 8048   0.649   1.786  12.701  0.0508  0.1540 -0.3471
  542TMC3    H2 8049   0.791   1.994  12.345 -3.5450 -1.4139 -0.4866
  542TMC3    C7 8050   0.582   1.967  12.508  0.3869  0.7506  0.1141
  542TMC3    C8 8051   0.988   1.806  12.356  0.1762 -0.3870 -0.7018
  542TMC3    O1 8052   0.569   2.080  12.460  0.3137  0.5095 -0.2422
  542TMC3    O2 8053   0.962   1.848  12.243  0.0844 -0.1385  0.5863
  543TMC3    C1 8054   4.051   3.390  17.646  0.8115 -0.0878 -0.0691
  543TMC3    C2 8055   4.033   3.261  17.632  0.8526  0.3737 -0.5814
  543TMC3    C3 8056   3.965   3.193   0.032 -0.4941  0.0822 -0.1577
  543TMC3    C4 8057   3.988   3.461   0.044 -0.1005  0.2134  0.4450
  543TMC3    C5 8058   3.912   3.393   0.141  0.0944  1.1075 -0.5003
  543TMC3    C6 8059   3.910   3.254   0.140 -0.3055 -0.6659  0.4223
  543TMC3     C 8060   4.106   3.461  17.532 -0.0754  0.2416  0.2558
  543TMC3     O 8061   4.068   3.575  17.512 -0.3304 -0.9639 -0.4403
  543TMC3     H 8062   4.065   3.202  17.546  1.8062 -1.3360  0.9567
  543TMC3    H1 8063   3.970   3.567   0.027 -1.1672  0.6815  4.5309
  543TMC3    H2 8064   3.845   3.202   0.210  0.2915 -1.0343  0.7055
  543TMC3    C7 8065   3.842   3.457   0.250  0.0225  0.2043 -0.0512
  543TMC3    C8 8066   3.973   3.049   0.025  0.5285  0.1360 -0.2990
  543TMC3    O1 8067   3.747   3.401   0.295 -0.4543  0.0492  0.3379
  543TMC3    O2 8068   4.061   2.994  17.655  0.7073  0.1184 -0.7058
  544MPD2     C 8069   3.780   2.592   0.149 -0.3545  0.3862  0.0974
  544MPD2    C1 8070   3.899   2.628   0.093 -0.3780 -0.0409 -0.7977
  544MPD2    C2 8071   3.923   2.758   0.056 -0.4194 -0.4810 -0.8610
  544MPD2    C3 8072   3.833   2.857   0.090 -0.1658  0.1709  0.4988
  544MPD2    C4 8073   3.711   2.819   0.142  0.2652  0.5047 -0.1211
  544MPD2    C5 8074   3.688   2.689   0.182 -0.5586 -0.1818  0.4387
  544MPD2     H 8075   4.019   2.786   0.014  0.8343 -1.7561  1.1297
  544MPD2    H1 8076   3.639   2.899   0.158  0.1449  0.2003  0.8911
  544MPD2    H2 8077   3.764   2.489   0.179  1.0630 -0.1471 -0.9419
  544MPD2    H3 8078   3.593   2.653   0.218  0.1020 -3.5812 -1.1928
  544MPD2     N 8079   3.856   2.996   0.068  0.1645 -0.4807 -0.0286
  544MPD2    H5 8080   3.777   3.054   0.096 -0.0805 -1.4165  1.2338
  544MPD2    N1 8081   3.996   2.519   0.071 -0.3186 -0.2115  0.0569
  544MPD2    H7 8082   3.970   2.425   0.097 -0.1399 -0.4136 -0.4905
  545TMC3    C1 8083   4.167   2.398  17.693  0.5800 -0.6366  0.3545
  545TMC3    C2 8084   4.177   2.323  17.576  0.3384 -0.3329  0.4437
  545TMC3    C3 8085   4.215   2.198  17.581  0.7893  0.2382  0.5058
  545TMC3    C4 8086   4.163   2.337   0.118 -1.0386 -0.6768 -0.2389
  545TMC3    C5 8087   4.174   2.201   0.114  0.2367 -0.6229  0.1650
  545TMC3    C6 8088   4.209   2.135   0.003  0.0717  0.0246  0.4353
  545TMC3     C 8089   4.105   2.528  17.693 -0.2099 -0.3693  0.6548
  545TMC3     O 8090   4.132   2.621  17.618 -0.5580 -0.0612  0.1885
  545TMC3     H 8091   4.169   2.384  17.487  0.2435 -1.3983 -0.2865
  545TMC3    H1 8092   4.175   2.400   0.205 -3.2568  0.5223 -0.7998
  545TMC3    H2 8093   4.229   2.028   0.001  2.7130  0.6016 -3.5001
  545TMC3    C7 8094   4.178   2.149   0.250 -0.2168 -0.5901  0.3529
  545TMC3    C8 8095   4.182   2.110  17.465  0.1672  0.0232 -0.6570
  545TMC3    O1 8096   4.128   2.225   0.328  0.3258 -0.4591  0.3102
  545TMC3    O2 8097   4.187   1.990  17.486 -0.7063  0.6127  0.2838
  546MPD2     C 8098   1.191   2.758  17.585  0.4476  0.6635 -0.1812
  546MPD2    C1 8099   1.119   2.775  17.469  0.1718 -0.2229 -0.6500
  546MPD2    C2 8100   1.185   2.832  17.358  0.0977  0.0667  0.3642
  546MPD2    C3 8101   1.321   2.856  17.357 -0.1271 -0.2729  0.0411
  546MPD2    C4 8102   1.389   2.805  17.468 -0.1122 -0.2338  0.2759
  546MPD2    C5 8103   1.326   2.758  17.580 -0.1849 -0.2780 -0.3377
  546MPD2     H 8104   1.136   2.871  17.270  1.5235  0.1988 -0.3820
  546MPD2    H1 8105   1.496   2.820  17.476  0.1058 -1.6299 -0.0583
  546MPD2    H2 8106   1.141   2.720  17.673 -0.7157  1.3867 -0.5395
  546MPD2    H3 8107   1.385   2.728  17.665 -1.5458  2.1012  1.4407
  546MPD2     N 8108   1.388   2.905  17.247 -0.3282  0.0224 -0.0849
  546MPD2    H5 8109   1.490   2.909  17.255 -0.5623 -0.5725  3.2408
  546MPD2    N1 8110   0.982   2.733  17.471 -0.0912 -0.4736 -0.0581
  546MPD2    H7 8111   0.949   2.694  17.558  2.3485  0.9588  1.5074
  547TMC3    C1 8112   0.771   2.658  17.401 -1.3503 -1.3383  0.0578
  547TMC3    C2 8113   0.660   2.678  17.316  0.3956 -0.0576 -0.0175
  547TMC3    C3 8114   0.555   2.583  17.320  0.7442 -0.2451 -0.4646
  547TMC3    C4 8115   0.775   2.535  17.470  0.5498 -0.2229 -0.3853
  547TMC3    C5 8116   0.660   2.465  17.494  0.7005  0.3637  0.1281
  547TMC3    C6 8117   0.545   2.486  17.420 -0.3900 -0.0585  0.5541
  547TMC3     C 8118   0.892   2.726  17.371  0.0134  0.5299 -0.3814
  547TMC3     O 8119   0.910   2.751  17.256  0.0667  0.6610  0.3963
  547TMC3     H 8120   0.646   2.763  17.249  2.1602  0.3492  0.1379
  547TMC3    H1 8121   0.869   2.522  17.522 -0.3246 -1.9999  0.7364
  547TMC3    H2 8122   0.460   2.420  17.435 -1.3240  0.9827 -0.1784
  547TMC3    C7 8123   0.656   2.383  17.611 -0.0234  0.0824  0.0230
  547TMC3    C8 8124   0.441   2.620  17.247 -0.6178 -0.1588  0.5300
  547TMC3    O1 8125   0.543   2.361  17.654  0.8110 -0.2801  0.3697
  547TMC3    O2 8126   0.427   2.735  17.202 -0.2873  0.0256 -0.5839
  548MPD2     C 8127   1.523   3.768  12.175 -0.4389 -0.3994  0.6766
  548MPD2    C1 8128   1.458   3.644  12.197 -0.4777  0.6287 -0.6431
  548MPD2    C2 8129   1.514   3.531  12.149 -0.1494  0.0464 -0.3531
  548MPD2    C3 8130   1.631   3.532  12.084 -0.1382  0.0235 -0.2426
  548MPD2    C4 8131   1.691   3.652  12.056 -0.0851 -0.3418  0.4584
  548MPD2    C5 8132   1.640   3.770  12.106 -0.0289 -0.2284  0.6461
  548MPD2     H 8133   1.477   3.431  12.168 -0.4988 -0.1748 -2.2099
  548MPD2    H1 8134   1.786   3.653  12.005  0.2036  0.9259  1.0419
  548MPD2    H2 8135   1.479   3.860  12.210 -2.0888 -1.0653  0.3689
  548MPD2    H3 8136   1.673   3.869  12.078  1.9664 -0.9078  0.6207
  548MPD2     N 8137   1.685   3.408  12.055  0.5410  0.1732 -0.2052
  548MPD2    H5 8138   1.650   3.325  12.102 -0.6447  0.1165 -1.1854
  548MPD2    N1 8139   1.338   3.643  12.277  0.2055  0.7411  0.6177
  548MPD2    H7 8140   1.306   3.733  12.313 -2.7032  0.6616 -1.8162
  549TMC3    C1 8141   1.173   3.552  12.408  0.3508  0.8415 -0.0875
  549TMC3    C2 8142   1.109   3.672  12.419 -0.2591  0.3369  0.2486
  549TMC3    C3 8143   1.012   3.693  12.516 -0.2593  0.0387 -0.1612
  549TMC3    C4 8144   1.144   3.440  12.478 -0.3544 -0.4503 -0.2903
  549TMC3    C5 8145   1.056   3.465  12.584 -0.0334 -0.4930 -0.4383
  549TMC3    C6 8146   0.984   3.584  12.594  0.1720 -0.3232  0.1010
  549TMC3     C 8147   1.276   3.532  12.308  0.3720  0.2823  0.2833
  549TMC3     O 8148   1.289   3.415  12.270  0.4372  0.8472  0.8055
  549TMC3     H 8149   1.136   3.758  12.360  3.5638  0.3713  2.0670
  549TMC3    H1 8150   1.210   3.354  12.474 -0.0001 -0.2025  0.2902
  549TMC3    H2 8151   0.899   3.593  12.661 -0.9634 -0.8161 -1.2694
  549TMC3    C7 8152   1.050   3.364  12.690 -0.3211  1.1381  0.1697
  549TMC3    C8 8153   0.908   3.779  12.461 -0.2153 -0.1655 -0.1824
  549TMC3    O1 8154   1.032   3.409  12.803 -0.3233 -0.6312 -0.7049
  549TMC3    O2 8155   0.907   3.791  12.339 -0.3729 -0.4296  0.4586
  550TMC3    C1 8156   4.559   1.284  12.374  0.3599  0.0822 -0.1645
  550TMC3    C2 8157   4.464   1.338  12.460 -0.1789  0.3936 -0.3124
  550TMC3    C3 8158   4.338   1.358  12.419  0.4200  0.2173 -0.0491
  550TMC3    C4 8159   4.531   1.272  12.242  0.6746  0.2736 -0.0765
  550TMC3    C5 8160   4.404   1.302  12.201 -0.0304  0.0107 -0.8537
  550TMC3    C6 8161   4.305   1.338  12.290 -0.4365  0.0101 -0.6632
  550TMC3     C 8162   4.698   1.249  12.421  0.1312  0.0634  0.0273
  550TMC3     O 8163   0.065   1.269  12.341 -0.1894  0.4039  0.6877
  550TMC3     H 8164   4.494   1.357  12.563  2.1522  0.3577 -0.9771
  550TMC3    H1 8165   4.600   1.231  12.169  1.4135  0.3502  0.5790
  550TMC3    H2 8166   4.207   1.362  12.250 -0.7667 -0.5887 -0.2159
  550TMC3    C7 8167   4.371   1.312  12.061 -0.3245  0.2058 -0.5947
  550TMC3    C8 8168   4.241   1.404  12.509 -0.0773 -0.1131  0.6601
  550TMC3    O1 8169   4.407   1.224  11.984  0.0609  0.2515 -0.2646
  550TMC3    O2 8170   4.283   1.464  12.607 -0.6476  0.1180 -0.0562
  551TMC3    C1 8171   2.185   3.713  13.213  0.4850  0.0892  0.2177
  551TMC3    C2 8172   2.311   3.714  13.152 -0.2876  0.5099 -0.9412
  551TMC3    C3 8173   2.407   3.801  13.197  0.1033 -0.4815 -0.4231
  551TMC3    C4 8174   2.159   3.790  13.328 -0.4730  0.3537 -0.3729
  551TMC3    C5 8175   2.260   3.875  13.361  0.6695 -0.6823 -0.5177
  551TMC3    C6 8176   2.379   3.887  13.296  0.2606 -0.0695  0.0852
  551TMC3     C 8177   2.077   3.670  13.120 -0.3925 -0.0235 -0.3293
  551TMC3     O 8178   2.109   3.666  12.998 -0.0502 -0.2249  0.3660
  551TMC3     H 8179   2.324   3.663  13.057  1.9853 -0.2471 -0.2097
  551TMC3    H1 8180   2.061   3.803  13.371 -0.6783  0.2141 -0.7976
  551TMC3    H2 8181   2.464   3.947  13.327 -0.3452  0.9894 -0.3346
  551TMC3    C7 8182   2.246   3.944  13.483  0.5883 -0.1082  0.3979
  551TMC3    C8 8183   2.515   3.825  13.103  0.1697 -0.1363 -0.2569
  551TMC3    O1 8184   2.150   3.910  13.551  0.1852 -0.2861  0.7033
  551TMC3    O2 8185   2.531   3.740  13.014  0.0958 -0.5145 -0.1449
  552MPD2     C 8186   3.839   1.009  13.893  0.2784 -0.3923  0.0319
  552MPD2    C1 8187   3.964   1.039  13.849  0.2640  0.6353 -0.0904
  552MPD2    C2 8188   4.051   1.117  13.929  0.6541 -0.0881 -0.0435
  552MPD2    C3 8189   4.001   1.149  14.060  0.3952  0.3192 -0.4019
  552MPD2    C4 8190   3.869   1.130  14.094 -0.0935 -0.1659  0.6680
  552MPD2    C5 8191   3.791   1.060  14.009 -0.0175 -0.3390 -0.3134
  552MPD2     H 8192   4.157   1.127  13.910  0.7106 -0.3551  0.1240
  552MPD2    H1 8193   3.826   1.172  14.183  0.3442 -0.3408  0.9615
  552MPD2    H2 8194   3.771   0.947  13.835 -1.7111  0.5381  1.3913
  552MPD2    H3 8195   3.685   1.053  14.028  0.1006  0.3192  0.6030
  552MPD2     N 8196   4.084   1.209  14.157 -0.7713 -0.3836 -0.2090
  552MPD2    H5 8197   4.037   1.222  14.247  0.3376 -0.7670  0.4246
  552MPD2    N1 8198   4.013   0.997  13.725  0.2788  0.1138  0.6487
  552MPD2    H7 8199   4.107   1.018  13.695  1.0145 -0.4850  2.6062
  553TMC3    C1 8200   4.018   0.888  13.521 -0.4062 -0.3738  0.0876
  553TMC3    C2 8201   4.023   0.763  13.472 -0.5229  0.6104 -0.1530
  553TMC3    C3 8202   4.129   0.722  13.401 -0.4047 -0.6882 -0.1223
  553TMC3    C4 8203   4.118   0.977  13.496 -0.4357  0.8840  0.0424
  553TMC3    C5 8204   4.218   0.940  13.411  0.1283  0.3013 -0.4995
  553TMC3    C6 8205   4.232   0.814  13.373 -0.1423  0.1889  0.9031
  553TMC3     C 8206   3.948   0.910  13.644 -0.0318 -0.1677 -0.3712
  553TMC3     O 8207   3.859   0.831  13.663  0.6788 -0.1506  0.3561
  553TMC3     H 8208   3.938   0.697  13.488 -0.0720  0.5116  1.8110
  553TMC3    H1 8209   4.109   1.085  13.507 -0.1553  1.0281 -1.1499
  553TMC3    H2 8210   4.305   0.786  13.298 -1.6125  0.2738 -0.5834
  553TMC3    C7 8211   4.334   1.028  13.404 -0.6705  0.5657  0.4217
  553TMC3    C8 8212   4.119   0.593  13.327 -0.1081  0.1734  0.2563
  553TMC3    O1 8213   4.318   1.151  13.403 -0.4390  0.0768 -0.3069
  553TMC3    O2 8214   4.008   0.533  13.319  0.2264 -0.3560  0.3474
  554TMC3    C1 8215   1.372   0.179  11.591  0.3772  0.2631  0.2111
  554TMC3    C2 8216   1.294   0.103  11.500  0.1068 -0.2244 -0.4402
  554TMC3    C3 8217   1.323   0.129  11.364 -0.0426 -0.1836  0.2967
  554TMC3    C4 8218   1.481   0.252  11.558 -0.2987  0.4767 -0.1878
  554TMC3    C5 8219   1.516   0.260  11.424 -0.2444  0.1744 -0.0812
  554TMC3    C6 8220   1.436   0.206  11.331  0.1202 -0.3494 -0.4265
  554TMC3     C 8221   1.341   0.155  11.733  0.3895 -0.7850  0.0896
  554TMC3     O 8222   1.228   0.112  11.752 -0.0933  0.2144  0.0720
  554TMC3     H 8223   1.207   0.047  11.533 -2.7755  1.3727 -5.3634
  554TMC3    H1 8224   1.535   0.300  11.639 -0.3836 -0.0849  0.2019
  554TMC3    H2 8225   1.464   0.230  11.229 -0.3068 -0.5602 -0.5938
  554TMC3    C7 8226   1.618   0.349  11.377 -0.2759 -0.1683  0.6268
  554TMC3    C8 8227   1.222   0.106  11.265 -0.4027  0.1120 -0.0255
  554TMC3    O1 8228   1.672   0.321  11.271 -0.1773 -0.3433 -0.0568
  554TMC3    O2 8229   1.223   0.189  11.176 -0.3663 -0.5620 -0.0002
  555TMC3    C1 8230   0.101   4.150  15.192  0.1292 -0.4749  0.8971
  555TMC3    C2 8231   0.109   4.244  15.294  0.1363  0.3433  0.6416
  555TMC3    C3 8232   0.158   4.194  15.410 -0.5806  0.6220  0.0039
  555TMC3    C4 8233   0.138   4.024  15.210 -0.0521 -0.5846  0.3074
  555TMC3    C5 8234   0.188   3.985  15.334 -0.7312 -0.0617 -0.0040
  555TMC3    C6 8235   0.201   4.066  15.438  0.0241  0.0230  0.2760
  555TMC3     C 8236   0.063   4.183  15.052 -0.2984 -0.3239  1.2305
  555TMC3     O 8237   0.112   4.106  14.969 -0.4051  0.1792  0.3098
  555TMC3     H 8238   0.087   4.350  15.280 -1.5100  0.0922  1.2218
  555TMC3    H1 8239   0.115   3.953  15.131  0.5549 -0.9134  0.4251
  555TMC3    H2 8240   0.221   4.025  15.536 -1.0322 -0.2104  0.4008
  555TMC3    C7 8241   0.196   3.842  15.351 -0.2913 -0.0700  0.9952
  555TMC3    C8 8242   0.191   4.289  15.509  0.0959 -0.2017  0.1457
  555TMC3    O1 8243   0.198   3.799  15.464  0.1069 -0.3124  0.0168
  555TMC3    O2 8244   0.134   4.395  15.496  0.0719  0.2526  0.1678
  556MPD2     C 8245   3.858   0.844  10.369 -0.3762  0.5294  0.1873
  556MPD2    C1 8246   3.781   0.761  10.449 -0.2772 -0.8012 -0.8327
  556MPD2    C2 8247   3.744   0.639  10.401  0.3139 -0.0461  0.3654
  556MPD2    C3 8248   3.798   0.597  10.279 -0.1116 -0.2817 -1.0579
  556MPD2    C4 8249   3.879   0.676  10.209 -0.6788  1.6311 -0.7251
  556MPD2    C5 8250   3.908   0.802  10.248  0.5311 -0.8404  1.0234
  556MPD2     H 8251   3.671   0.582  10.457  0.5852 -0.4396  0.3179
  556MPD2    H1 8252   3.915   0.640  10.114 -1.7422  2.9411 -1.6237
  556MPD2    H2 8253   3.884   0.942  10.407  2.7061 -0.4777  0.7107
  556MPD2    H3 8254   3.985   0.856  10.193 -1.6310  0.4342 -0.7628
  556MPD2     N 8255   3.766   0.466  10.226 -0.0325  0.1647 -0.0684
  556MPD2    H5 8256   3.694   0.418  10.278  2.2757 -0.5905  2.4237
  556MPD2    N1 8257   3.729   0.800  10.579  0.4793  0.4193 -0.2992
  556MPD2    H7 8258   3.687   0.723  10.629  0.4564  0.5992 -0.0368
  557TMC3    C1 8259   3.734   0.290  10.063  0.4221  0.0556 -0.2291
  557TMC3    C2 8260   3.803   0.202   9.984  0.4314 -0.7453 -0.0888
  557TMC3    C3 8261   3.742   0.081   9.955  0.4653  0.4587  0.0167
  557TMC3    C4 8262   3.610   0.257  10.118 -0.4102 -0.0660  0.0689
  557TMC3    C5 8263   3.560   0.139  10.084 -1.1699  0.2563  0.5277
  557TMC3    C6 8264   3.620   0.044  10.006 -1.0679  0.3075 -0.6369
  557TMC3     C 8265   3.811   0.407  10.107 -0.4214  0.2033 -0.4447
  557TMC3     O 8266   3.917   0.426  10.048  0.2128 -0.1638 -0.5757
  557TMC3     H 8267   3.901   0.227   9.947  0.5046 -0.4722  0.2834
  557TMC3    H1 8268   3.572   0.318  10.200 -0.3644  1.3681 -0.9618
  557TMC3    H2 8269   3.575   4.671   9.988  0.9954 -0.9034  0.7543
  557TMC3    C7 8270   3.439   0.093  10.146 -0.8583 -0.8005 -0.6216
  557TMC3    C8 8271   3.791   0.031   9.829  0.0720 -0.2378 -0.1219
  557TMC3    O1 8272   3.409   4.697  10.156  0.3542 -0.5500 -0.3535
  557TMC3    O2 8273   3.912   0.016   9.817  0.3489  0.0571  0.2342
  558TMC3    C1 8274   1.424   3.729   9.852  0.1755  0.2617 -0.4798
  558TMC3    C2 8275   1.362   3.633   9.933 -0.3067 -0.6983  1.0109
  558TMC3    C3 8276   1.264   3.553   9.876  0.4360 -0.2108 -0.0390
  558TMC3    C4 8277   1.381   3.757   9.726  0.1843  0.6130  0.3153
  558TMC3    C5 8278   1.281   3.683   9.678  0.0140  0.3131 -0.4444
  558TMC3    C6 8279   1.222   3.582   9.745 -0.1594  0.6274  0.1123
  558TMC3     C 8280   1.479   3.839   9.933  0.0205 -0.1802 -0.3796
  558TMC3     O 8281   1.570   3.903   9.880  0.2438  0.1555  0.0251
  558TMC3     H 8282   1.394   3.626  10.037  3.5743  0.5253 -0.1022
  558TMC3    H1 8283   1.422   3.830   9.657 -3.0178  3.2292  1.1805
  558TMC3    H2 8284   1.154   3.513   9.695  1.5365 -0.7881 -0.2192
  558TMC3    C7 8285   1.249   3.697   9.539 -0.0302  0.1233  0.4526
  558TMC3    C8 8286   1.182   3.466   9.962 -0.6054 -0.6008  0.3233
  558TMC3    O1 8287   1.327   3.763   9.476 -0.6113  0.4787 -0.2566
  558TMC3    O2 8288   1.088   3.426   9.898  0.4075 -0.1416 -0.2965
  559MPD2     C 8289   1.266   4.416  10.310  0.0942  1.1803 -0.3789
  559MPD2    C1 8290   1.219   4.309  10.390 -0.0161 -0.5273  0.2760
  559MPD2    C2 8291   1.286   4.288  10.515 -0.2549 -0.1150 -0.0052
  559MPD2    C3 8292   1.386   4.374  10.550  0.6109 -0.5361 -0.9072
  559MPD2    C4 8293   1.422   4.480  10.473  0.0057  0.3929 -0.6340
  559MPD2    C5 8294   1.365   4.497  10.356 -0.3594 -0.0762  0.7282
  559MPD2     H 8295   1.262   4.208  10.584  1.9828 -0.0657  0.8168
  559MPD2    H1 8296   1.500   4.550  10.501 -1.0199  1.0014  0.6554
  559MPD2    H2 8297   1.223   4.443  10.214 -1.0580 -0.6287 -0.3734
  559MPD2    H3 8298   1.400   4.585  10.302  1.2487 -2.1145 -1.5311
  559MPD2     N 8299   1.469   4.336  10.658 -0.6961  0.0579  0.0843
  559MPD2    H5 8300   1.445   4.251  10.707  0.9068  0.4814  1.5818
  559MPD2    N1 8301   1.120   4.222  10.338  0.2620  0.6046  0.5894
  559MPD2    H7 8302   1.071   4.245  10.252  2.6857  2.7413 -0.2083
  560TMC3    C1 8303   1.653   4.335  10.801  0.5593 -0.1318  0.0087
  560TMC3    C2 8304   1.641   4.201  10.812 -0.3072 -0.9914  0.0837
  560TMC3    C3 8305   1.695   4.136  10.923  0.1526 -0.0907  0.0641
  560TMC3    C4 8306   1.733   4.398  10.891 -0.7714  0.3868 -0.2491
  560TMC3    C5 8307   1.761   4.334  11.014  0.2679  0.8483 -0.5087
  560TMC3    C6 8308   1.741   4.202  11.034 -0.1575  0.5308  0.4377
  560TMC3     C 8309   1.580   4.408  10.696  0.2329  0.4705 -0.0617
  560TMC3     O 8310   1.626   4.521  10.673  0.2318  0.4119 -0.1945
  560TMC3     H 8311   1.604   4.143  10.728  0.5901 -0.2047 -0.8571
  560TMC3    H1 8312   1.737   4.506  10.891 -1.6464  0.4184  0.3986
  560TMC3    H2 8313   1.745   4.165  11.135  0.1757  0.7926  0.5208
  560TMC3    C7 8314   1.826   4.400  11.117 -0.0525  0.4187 -0.1551
  560TMC3    C8 8315   1.698   3.987  10.924 -0.3037 -0.2124  0.1465
  560TMC3    O1 8316   1.793   4.375  11.228  0.4020  0.7268  0.1138
  560TMC3    O2 8317   1.622   3.935  10.839 -0.8347  0.0602 -0.0030
  561TMC3    C1 8318   3.855   3.283  11.150  0.2025 -0.5810  0.4245
  561TMC3    C2 8319   3.799   3.206  11.252 -0.9266 -0.6276  0.0123
  561TMC3    C3 8320   3.738   3.281  11.349  0.5664 -0.0109 -0.8640
  561TMC3    C4 8321   3.869   3.418  11.149 -0.3658 -0.3266  0.4224
  561TMC3    C5 8322   3.818   3.486  11.255 -0.6419  0.2655  0.5439
  561TMC3    C6 8323   3.752   3.418  11.355 -0.0714 -0.2886  0.4173
  561TMC3     C 8324   3.905   3.201  11.039  0.7993 -0.0107 -0.2628
  561TMC3     O 8325   3.936   3.083  11.056  0.0380 -0.5654 -0.1556
  561TMC3     H 8326   3.768   3.103  11.248 -0.3807 -0.7615 -0.7265
  561TMC3    H1 8327   3.930   3.465  11.073  0.1679 -1.6474  0.0386
  561TMC3    H2 8328   3.711   3.475  11.437  0.7181  0.9373 -0.0446
  561TMC3    C7 8329   3.884   3.608  11.294  0.1692  0.3963 -0.1773
  561TMC3    C8 8330   3.704   3.218  11.471 -0.8409  0.1991  0.0458
  561TMC3    O1 8331   3.826   3.684  11.373 -0.3252  0.4950 -0.0382
  561TMC3    O2 8332   3.749   3.102  11.477 -0.3378 -0.6150  0.7176
  562TMC3    C1 8333   4.469   4.524  15.945 -0.2903  0.1306  0.7831
  562TMC3    C2 8334   4.386   4.621  15.896 -0.1034 -0.1171 -0.1536
  562TMC3    C3 8335   4.341   4.616  15.768 -0.6467 -0.5630  0.1173
  562TMC3    C4 8336   4.514   4.427  15.862 -0.8764 -0.7570 -0.3938
  562TMC3    C5 8337   4.472   4.429  15.732  0.0679 -0.4875 -0.3272
  562TMC3    C6 8338   4.385   4.522  15.682 -0.5490 -0.2114  0.0752
  562TMC3     C 8339   4.494   4.499  16.088 -0.4521 -0.4221  0.0258
  562TMC3     O 8340   4.585   4.420  16.112 -0.6354 -0.1487 -0.0868
  562TMC3     H 8341   4.353   4.699  15.964  1.1344 -0.9903  1.4716
  562TMC3    H1 8342   4.576   4.346  15.901 -0.8518 -0.8259 -0.5774
  562TMC3    H2 8343   4.339   4.519  15.584  2.2552  0.4892 -1.2601
  562TMC3    C7 8344   4.525   4.341  15.632 -0.1130  0.4419 -0.3131
  562TMC3    C8 8345   4.239   4.709  15.721  0.2027  0.0086  1.3082
  562TMC3    O1 8346   4.513   4.375  15.517  0.4253  0.3335 -0.0795
  562TMC3    O2 8347   4.148   0.007  15.801  0.0454  0.2632 -0.2157
  563MPD2     C 8348   2.207   0.907  15.792  0.2257 -0.2760  0.2778
  563MPD2    C1 8349   2.199   1.034  15.847 -0.7542  0.2472  0.1866
  563MPD2    C2 8350   2.303   1.086  15.915 -0.4287  0.1558 -0.0347
  563MPD2    C3 8351   2.423   1.020  15.930 -0.9727 -1.1927  0.1545
  563MPD2    C4 8352   2.435   0.901  15.864  0.1220  0.0587 -1.0778
  563MPD2    C5 8353   2.333   0.848  15.793  0.0383 -0.3746 -0.6965
  563MPD2     H 8354   2.284   1.172  15.977 -0.3717  0.4671 -0.4434
  563MPD2    H1 8355   2.521   0.836  15.876  0.2739  0.7948  1.9120
  563MPD2    H2 8356   2.127   0.852  15.745  1.2269 -0.3508 -1.3451
  563MPD2    H3 8357   2.348   0.745  15.761 -1.0539 -0.6433 -0.3510
  563MPD2     N 8358   2.525   1.071  16.014  0.3482  0.3630 -0.2975
  563MPD2    H5 8359   2.610   1.016  16.018  0.3677  0.4414  0.3219
  563MPD2    N1 8360   2.073   1.096  15.863 -0.0956 -0.6629  0.1608
  563MPD2    H7 8361   1.995   1.031  15.861  1.2450 -2.2985  1.1822
  564TMC3    C1 8362   1.941   1.263  15.981 -0.1688  0.8284  0.2414
  564TMC3    C2 8363   1.856   1.164  15.999 -0.4650  0.0700  0.2224
  564TMC3    C3 8364   1.792   1.160  16.119  0.9820 -0.8079 -0.8122
  564TMC3    C4 8365   1.965   1.360  16.070  0.1437  0.4493 -0.2788
  564TMC3    C5 8366   1.906   1.352  16.194 -0.1385 -0.4634 -0.1168
  564TMC3    C6 8367   1.825   1.249  16.220  0.5640  0.3454  0.3842
  564TMC3     C 8368   2.059   1.231  15.893 -0.0678 -0.2970  0.6467
  564TMC3     O 8369   2.141   1.321  15.875  0.0675  0.2157 -0.1852
  564TMC3     H 8370   1.835   1.097  15.917 -0.9964  0.6056 -0.0761
  564TMC3    H1 8371   2.049   1.426  16.050  0.5319  1.0921  3.4773
  564TMC3    H2 8372   1.792   1.231  16.322 -4.1852  0.5589 -1.0799
  564TMC3    C7 8373   1.977   1.401  16.313  0.2438 -0.5676 -0.2888
  564TMC3    C8 8374   1.775   1.025  16.173  0.2842 -0.3228 -0.3208
  564TMC3    O1 8375   1.981   1.316  16.401 -0.2867 -0.0358 -0.5075
  564TMC3    O2 8376   1.763   1.010  16.298  0.5229 -0.6108 -0.6041
  565TMC3    C1 8377   2.388   2.627  10.277  0.0708 -0.1510 -0.7847
  565TMC3    C2 8378   2.335   2.521  10.211  0.7587 -0.0095  0.2380
  565TMC3    C3 8379   2.222   2.547  10.140  0.7579  0.0526 -0.6119
  565TMC3    C4 8380   2.335   2.750  10.281  0.2366 -0.0377 -0.7915
  565TMC3    C5 8381   2.223   2.772  10.205  0.5651  0.0953  0.2458
  565TMC3    C6 8382   2.169   2.674  10.132 -0.0430  0.0678 -0.7366
  565TMC3     C 8383   2.520   2.606  10.330 -0.0868  0.0259  0.0313
  565TMC3     O 8384   2.550   2.491  10.350 -0.0711  0.8910  0.6374
  565TMC3     H 8385   2.386   2.426  10.217 -1.2667 -1.1104  0.1299
  565TMC3    H1 8386   2.363   2.821  10.359 -1.2559 -0.2600 -0.0532
  565TMC3    H2 8387   2.072   2.689  10.085  0.8598  0.2836 -2.5277
  565TMC3    C7 8388   2.148   2.896  10.213 -0.4062  0.2401 -0.1568
  565TMC3    C8 8389   2.144   2.439  10.083  0.4346  0.1176 -0.3338
  565TMC3    O1 8390   2.031   2.893  10.182  0.0306  0.0008 -0.4486
  565TMC3    O2 8391   2.030   2.468  10.052  0.2880 -0.8102 -0.1592
  566MPD2     C 8392   4.118   4.156  14.228  0.2620 -0.4547  0.0104
  566MPD2    C1 8393   4.191   4.042  14.203 -0.1532 -0.4470 -0.2047
  566MPD2    C2 8394   4.165   3.970  14.085  0.0969  0.8412 -0.9450
  566MPD2    C3 8395   4.066   4.022  13.997 -0.4334  0.6454  0.1014
  566MPD2    C4 8396   4.001   4.138  14.026  0.2153 -1.0021 -0.4192
  566MPD2    C5 8397   4.025   4.209  14.139 -0.5555 -0.6000  0.3462
  566MPD2     H 8398   4.228   3.885  14.059 -0.9809 -0.5488  1.0755
  566MPD2    H1 8399   3.926   4.188  13.965 -0.0416 -0.5961  0.2155
  566MPD2    H2 8400   4.129   4.210  14.322  0.5183 -2.2221  0.9994
  566MPD2    H3 8401   3.969   4.300  14.151  3.6690  2.1272 -0.5167
  566MPD2     N 8402   4.019   3.949  13.887  0.6323 -0.3231 -0.6761
  566MPD2    H5 8403   3.928   3.971  13.848  0.1540  0.6101  0.9988
  566MPD2    N1 8404   4.283   4.018  14.300  0.2026  0.6297  0.0130
  566MPD2    H7 8405   4.299   4.095  14.364  0.3402 -1.4775  2.4982
  567TMC3    C1 8406   4.444   3.923  14.424 -0.5413 -0.1040 -0.3233
  567TMC3    C2 8407   4.529   4.026  14.395  0.2113 -0.1312  0.2028
  567TMC3    C3 8408   4.656   4.029  14.457  0.2168 -0.8110 -0.8897
  567TMC3    C4 8409   4.491   3.812  14.486  0.8887  1.0284  0.7467
  567TMC3    C5 8410   4.618   3.816  14.542 -0.1291  0.3525  0.6850
  567TMC3    C6 8411   4.697   3.930  14.537 -0.6665  0.0680  0.4206
  567TMC3     C 8412   4.358   3.900  14.307 -0.0306 -0.1596 -0.5710
  567TMC3     O 8413   4.344   3.787  14.262  0.0062  0.7010  0.2435
  567TMC3     H 8414   4.501   4.106  14.327  1.2146 -2.0676 -2.4589
  567TMC3    H1 8415   4.425   3.728  14.503 -0.3467  1.2402 -2.9516
  567TMC3    H2 8416   0.063   3.937  14.597 -0.4707  0.3812  0.0928
  567TMC3    C7 8417   4.643   3.737  14.658 -0.1098 -0.0872 -0.7758
  567TMC3    C8 8418   0.032   4.126  14.398 -0.4459 -0.2674 -0.1836
  567TMC3    O1 8419   0.020   3.679  14.690 -0.2226 -0.4707  0.5752
  567TMC3    O2 8420   4.703   4.200  14.318  0.0871 -0.2836 -0.1636
  568MPD2     C 8421   2.193   4.485  16.842 -0.1223  0.0626 -0.2828
  568MPD2    C1 8422   2.058   4.496  16.804 -0.7538  0.3693 -0.1810
  568MPD2    C2 8423   2.028   4.605  16.728 -0.0146  0.0790  0.1092
  568MPD2    C3 8424   2.124   4.705  16.697 -0.1413  0.6798 -0.2108
  568MPD2    C4 8425   2.256   4.686  16.734  0.3733 -0.7578  0.7227
  568MPD2    C5 8426   2.285   4.574  16.804 -0.1933  0.0303  0.2697
  568MPD2     H 8427   1.930   4.614  16.682  0.2979 -0.1129 -0.5991
  568MPD2    H1 8428   2.329   0.033  16.696 -1.4396  0.3555 -0.6280
  568MPD2    H2 8429   2.222   4.391  16.888 -0.9757  0.7059  1.5713
  568MPD2    H3 8430   2.388   4.547  16.825  0.5967  3.4826  0.8097
  568MPD2     N 8431   2.080   0.092  16.621 -0.0041  0.1345 -0.2953
  568MPD2    H5 8432   1.983   0.086  16.592  0.1996  1.2020 -1.1897
  568MPD2    N1 8433   1.975   4.386  16.814 -0.3087 -0.0639 -0.4457
  568MPD2    H7 8434   2.014   4.304  16.858 -2.0675 -1.1064 -0.8160
  569TMC3    C1 8435   2.061   0.328  16.572  0.4664 -0.0361 -0.2860
  569TMC3    C2 8436   2.091   0.444  16.635 -0.7433  0.4107 -0.1785
  569TMC3    C3 8437   1.982   0.527  16.643  0.3706 -0.2616 -0.6489
  569TMC3    C4 8438   1.938   0.303  16.518 -0.6263 -0.2920  0.2565
  569TMC3    C5 8439   1.832   0.386  16.534 -0.2296 -0.5876 -0.1662
  569TMC3    C6 8440   1.854   0.496  16.610 -0.7486 -0.6327 -0.3733
  569TMC3     C 8441   2.142   0.213  16.620  0.2126 -0.1528  0.4952
  569TMC3     O 8442   2.248   0.248  16.670 -0.3422  0.4468 -0.4091
  569TMC3     H 8443   2.190   0.471  16.671  0.3302 -1.3913 -1.7705
  569TMC3    H1 8444   1.920   0.218  16.454 -0.1718 -0.8657  0.8862
  569TMC3    H2 8445   1.775   0.565  16.638  0.3092 -0.6169  2.5009
  569TMC3    C7 8446   1.768   0.413  16.409  0.1688  0.5624  0.2316
  569TMC3    C8 8447   1.993   0.669  16.621  0.3863 -0.0421  0.6687
  569TMC3    O1 8448   1.752   0.311  16.344 -0.5736 -0.3005 -0.0017
  569TMC3    O2 8449   1.913   0.724  16.547 -0.4835  0.2012  0.5561
  570TMC3    C1 8450   1.356   3.505  16.202  0.0088  0.4153  0.1182
  570TMC3    C2 8451   1.465   3.487  16.123 -0.0633 -0.3298 -0.4287
  570TMC3    C3 8452   1.508   3.602  16.056  0.3958 -0.3700 -0.1931
  570TMC3    C4 8453   1.277   3.621  16.205  0.2891  0.3396  0.0518
  570TMC3    C5 8454   1.319   3.721  16.118  0.6610 -0.2237 -0.1056
  570TMC3    C6 8455   1.436   3.717  16.059  0.1114 -0.4778 -0.1410
  570TMC3     C 8456   1.322   3.401  16.297 -0.3895 -0.7856 -0.1234
  570TMC3     O 8457   1.393   3.298  16.290  0.4987 -0.1815 -0.6333
  570TMC3     H 8458   1.526   3.400  16.144 -1.1372 -1.4534 -1.9416
  570TMC3    H1 8459   1.176   3.622  16.244  0.0148 -0.8279 -0.6150
  570TMC3    H2 8460   1.475   3.809  16.017  1.3846 -1.4604 -1.0921
  570TMC3    C7 8461   1.237   3.841  16.105  0.3387  0.0821  0.4128
  570TMC3    C8 8462   1.654   3.609  16.014  0.2789 -0.7883  0.1707
  570TMC3    O1 8463   1.163   3.879  16.192 -0.1764 -0.3051  0.2523
  570TMC3    O2 8464   1.704   3.720  16.000  0.4456  0.0387  0.1654
  571MPD2     C 8465   4.354   1.073   0.282  0.0886 -0.2210 -0.3412
  571MPD2    C1 8466   4.249   0.986   0.294  0.4476 -0.3429  0.2455
  571MPD2    C2 8467   4.130   1.023   0.371 -0.0697  0.2014 -0.1794
  571MPD2    C3 8468   4.122   1.152   0.423  0.0383 -0.1215 -0.1688
  571MPD2    C4 8469   4.232   1.234   0.409  0.2663  0.6576 -0.3013
  571MPD2    C5 8470   4.338   1.198   0.335  0.0623 -0.5616  0.1132
  571MPD2     H 8471   4.056   0.950   0.400  0.9999 -0.8805 -0.1685
  571MPD2    H1 8472   4.235   1.340   0.429  0.3296  0.6813 -0.4406
  571MPD2    H2 8473   4.441   1.040   0.227 -0.1784  0.4515 -1.1770
  571MPD2    H3 8474   4.422   1.267   0.332 -0.5673  0.1500 -1.2020
  571MPD2     N 8475   4.011   1.208   0.487  0.3215 -0.2423 -0.2233
  571MPD2    H5 8476   4.032   1.306   0.494  0.0593 -0.2802  1.0376
  571MPD2    N1 8477   4.257   0.861   0.224 -0.2410 -0.1285 -0.1911
  571MPD2    H7 8478   4.334   0.836   0.163 -1.6479 -4.3468 -0.2147
  572TMC3    C1 8479   3.780   1.243   0.521  0.5090  0.3635 -0.2466
  572TMC3    C2 8480   3.677   1.213   0.611  0.4722  0.1724  0.0813
  572TMC3    C3 8481   3.580   1.303   0.617  0.1881  0.1348 -0.9896
  572TMC3    C4 8482   3.786   1.359   0.445 -0.3681 -0.2123 -0.4207
  572TMC3    C5 8483   3.669   1.438   0.452  0.4471 -0.2407  0.6384
  572TMC3    C6 8484   3.565   1.409   0.531 -0.4306  0.1592  0.8263
  572TMC3     C 8485   3.884   1.150   0.503 -0.0873  0.2021  0.0580
  572TMC3     O 8486   3.853   1.031   0.485  0.0027 -0.3586  0.3237
  572TMC3     H 8487   3.695   1.133   0.681 -0.0114 -0.4635 -0.5316
  572TMC3    H1 8488   3.875   1.380   0.387 -1.2681  4.9805  0.0219
  572TMC3    H2 8489   3.469   1.458   0.515 -0.7498 -0.6805  0.2038
  572TMC3    C7 8490   3.652   1.540   0.354  0.0235  0.3554  0.0685
  572TMC3    C8 8491   3.481   1.293   0.724 -0.6282  0.8612  0.6002
  572TMC3    O1 8492   3.737   1.543   0.263 -0.2682 -0.1485  0.0873
  572TMC3    O2 8493   3.429   1.395   0.761  0.0701 -0.1394  0.3597
  573MPD2     C 8494   0.205   0.863   1.093  0.0076  0.2823 -0.2681
  573MPD2    C1 8495   0.157   0.986   1.124 -0.2202 -0.6936 -0.0035
  573MPD2    C2 8496   0.100   1.067   1.023 -0.2006 -0.2139  0.4686
  573MPD2    C3 8497   0.090   1.028   0.895  0.5384  0.4290 -0.4557
  573MPD2    C4 8498   0.116   0.894   0.864 -0.6279 -0.9733  0.1608
  573MPD2    C5 8499   0.181   0.821   0.964 -0.1759  0.3510  0.1434
  573MPD2     H 8500   0.095   1.174   1.043  1.0844 -0.6854  3.2901
  573MPD2    H1 8501   0.098   0.854   0.765  0.1251 -0.3724 -0.2193
  573MPD2    H2 8502   0.237   0.790   1.166  0.2520  0.8058  0.1452
  573MPD2    H3 8503   0.206   0.719   0.936  0.8989  0.4470  0.7530
  573MPD2     N 8504   0.040   1.108   0.792  0.3539  0.2591  0.0316
  573MPD2    H5 8505   0.057   1.083   0.695 -1.0530 -1.1229  0.1274
  573MPD2    N1 8506   0.187   1.040   1.251  0.6516 -0.0029 -0.1840
  573MPD2    H7 8507   0.229   0.969   1.310  2.2468  1.4086  0.3621
  574TMC3    C1 8508   4.642   1.281   0.697 -0.1143 -0.0546 -0.3744
  574TMC3    C2 8509   4.546   1.380   0.709 -0.3559  0.4751 -0.1836
  574TMC3    C3 8510   4.520   1.460   0.600 -0.2001  0.5258 -0.2278
  574TMC3    C4 8511   4.713   1.267   0.584 -0.9770  0.2806 -0.0540
  574TMC3    C5 8512   4.688   1.355   0.480 -0.2781 -0.3802  0.7461
  574TMC3    C6 8513   4.599   1.452   0.490 -0.4023 -0.4291  0.1853
  574TMC3     C 8514   4.695   1.224   0.819 -0.1775  0.8516 -0.6828
  574TMC3     O 8515   4.666   1.278   0.924 -0.6043  0.2081 -0.0309
  574TMC3     H 8516   4.491   1.386   0.802 -0.8935 -1.1893 -0.4017
  574TMC3    H1 8517   0.069   1.195   0.571 -2.2257 -1.2184  0.6426
  574TMC3    H2 8518   4.569   1.515   0.406 -1.0223 -0.1341  0.6250
  574TMC3    C7 8519   0.039   1.337   0.356 -0.0419  0.6680 -0.3996
  574TMC3    C8 8520   4.453   1.584   0.626 -0.4584  0.2759 -0.0154
  574TMC3    O1 8521   0.076   1.222   0.342 -0.8691  0.1742  0.1553
  574TMC3    O2 8522   4.442   1.623   0.739  0.4227 -0.9480 -0.0691
  575TMC3    C1 8523   1.577   1.972   9.541 -0.2459 -0.9639  0.6141
  575TMC3    C2 8524   1.506   2.072   9.478 -0.3967 -0.7147  0.4192
  575TMC3    C3 8525   1.503   2.200   9.525  0.5231  0.0447  0.0510
  575TMC3    C4 8526   1.657   2.008   9.644  0.5275  0.3411 -0.5275
  575TMC3    C5 8527   1.665   2.141   9.680  0.0563  0.6201  0.2006
  575TMC3    C6 8528   1.585   2.236   9.625  0.5258 -0.0597  0.4566
  575TMC3     C 8529   1.608   1.851   9.460  0.0928  0.1309 -0.7451
  575TMC3     O 8530   1.586   1.852   9.336 -0.2498  0.0172 -0.2819
  575TMC3     H 8531   1.445   2.042   9.393  0.2938 -1.3518  0.1483
  575TMC3    H1 8532   1.728   1.939   9.689 -1.6062 -0.8063  1.0994
  575TMC3    H2 8533   1.592   2.336   9.666 -0.1780  0.7384 -1.3252
  575TMC3    C7 8534   1.774   2.178   9.770 -1.2263 -0.5470 -0.2666
  575TMC3    C8 8535   1.428   2.298   9.449  0.0452  0.0230 -0.3306
  575TMC3    O1 8536   1.784   2.295   9.806 -0.1081 -0.1814  0.7814
  575TMC3    O2 8537   1.348   2.250   9.366 -0.3566 -0.7747 -0.3383
  576MPD2     C 8538   2.771   3.523  12.510 -0.0729  0.2542  0.0020
  576MPD2    C1 8539   2.766   3.634  12.421  0.0553  0.4826  0.0775
  576MPD2    C2 8540   2.682   3.738  12.456  0.3321 -0.1693 -0.1106
  576MPD2    C3 8541   2.613   3.741  12.576  0.0659 -0.4123 -0.4581
  576MPD2    C4 8542   2.612   3.630  12.656  0.7259 -0.3947  0.4987
  576MPD2    C5 8543   2.690   3.527  12.618 -0.7113  0.3237 -0.1541
  576MPD2     H 8544   2.667   3.831  12.402 -0.3879  0.3364  0.9693
  576MPD2    H1 8545   2.562   3.619  12.752  1.0434 -2.2449  0.4470
  576MPD2    H2 8546   2.817   3.428  12.486  0.8668  0.7981 -0.3764
  576MPD2    H3 8547   2.696   3.439  12.682 -1.7685  0.6439  0.3828
  576MPD2     N 8548   2.541   3.856  12.610  0.4922 -0.6859  0.6662
  576MPD2    H5 8549   2.562   3.942  12.562 -1.0241 -0.7796 -0.1868
  576MPD2    N1 8550   2.829   3.640  12.295  0.5287  0.8011  0.1986
  576MPD2    H7 8551   2.823   3.726  12.241  0.2543  0.2847 -0.6069
  577TMC3    C1 8552   2.978   3.582  12.133 -0.8313  0.4526  0.8159
  577TMC3    C2 8553   3.100   3.521  12.117 -0.1104  0.2259 -0.4265
  577TMC3    C3 8554   3.137   3.481  11.997 -0.1356  0.3183  0.3291
  577TMC3    C4 8555   2.886   3.598  12.029 -0.0941  0.0892 -0.0518
  577TMC3    C5 8556   2.919   3.547  11.905 -0.4764  0.3549  0.2851
  577TMC3    C6 8557   3.046   3.492  11.891 -0.1456  0.4781  0.3712
  577TMC3     C 8558   2.916   3.544  12.254 -0.9417 -0.1200 -0.1425
  577TMC3     O 8559   2.959   3.445  12.311 -0.0593  0.8890  0.4004
  577TMC3     H 8560   3.164   3.513  12.204 -0.0492  5.5755  0.0524
  577TMC3    H1 8561   2.782   3.619  12.048  0.5593  1.8947  1.4498
  577TMC3    H2 8562   3.072   3.434  11.804  0.3462 -1.5430  1.8563
  577TMC3    C7 8563   2.822   3.516  11.808  0.3826 -0.0098 -0.0445
  577TMC3    C8 8564   3.229   3.369  11.992  0.6328 -0.5416 -0.5291
  577TMC3    O1 8565   2.838   3.419  11.747  0.6157  0.2008  0.2312
  577TMC3    O2 8566   3.255   3.310  12.095 -0.5203 -0.3358 -0.2109
  578MPD2     C 8567   4.687   4.089   0.488  0.0412  0.0639  0.1066
  578MPD2    C1 8568   0.046   3.999   0.435  1.3063  0.7187  0.2625
  578MPD2    C2 8569   0.170   3.991   0.489  0.0159  0.0635 -0.7616
  578MPD2    C3 8570   0.216   4.084   0.581 -0.0957 -0.0090 -0.0983
  578MPD2    C4 8571   0.130   4.179   0.640  0.4106 -0.5465 -0.5082
  578MPD2    C5 8572   0.004   4.178   0.586  0.0087 -0.0189  1.1764
  578MPD2     H 8573   0.247   3.929   0.444  1.4565  1.4108 -0.1723
  578MPD2    H1 8574   0.161   4.256   0.711  1.9241 -0.2420 -1.4955
  578MPD2    H2 8575   4.588   4.105   0.447 -0.8515  0.3883  2.3804
  578MPD2    H3 8576   4.666   4.260   0.622  0.1192  0.2954  0.6478
  578MPD2     N 8577   0.346   4.065   0.624  0.0292 -0.9436  0.0071
  578MPD2    H5 8578   0.398   3.996   0.571  1.8572  1.7774 -1.7781
  578MPD2    N1 8579   4.715   3.923   0.336  0.4098 -0.0460  0.4113
  578MPD2    H7 8580   4.625   3.955   0.301  0.1055 -0.9204  0.3910
  579TMC3    C1 8581   0.548   4.082   0.757 -0.0294 -0.0434 -0.2522
  579TMC3    C2 8582   0.636   4.170   0.815  0.8317  0.5536  0.3630
  579TMC3    C3 8583   0.767   4.145   0.824 -0.4955  0.5064 -0.0830
  579TMC3    C4 8584   0.584   3.960   0.718 -0.2236  0.0732  0.4648
  579TMC3    C5 8585   0.717   3.930   0.741  0.3580  1.0479 -0.2896
  579TMC3    C6 8586   0.812   4.022   0.784 -0.0338  0.6922 -0.8181
  579TMC3     C 8587   0.415   4.135   0.719 -0.6125  0.1379 -0.4771
  579TMC3     O 8588   0.374   4.220   0.798  0.5869  0.3678  0.7284
  579TMC3     H 8589   0.599   4.266   0.849  0.8525  1.2209 -1.5401
  579TMC3    H1 8590   0.511   3.885   0.690  1.2338 -0.9719 -0.5334
  579TMC3    H2 8591   0.913   3.986   0.798  0.0086  1.6354  1.1813
  579TMC3    C7 8592   0.770   3.796   0.726  0.0931 -0.0822  0.3123
  579TMC3    C8 8593   0.826   4.205   0.940 -0.0320  0.0329 -0.3439
  579TMC3    O1 8594   0.885   3.788   0.695  0.5661  0.0195  0.0492
  579TMC3    O2 8595   0.756   4.293   0.994 -0.2642 -0.1394  0.2650
  580TMC3    C1 8596   0.522   3.133  11.605  0.2544  0.2583 -0.5793
  580TMC3    C2 8597   0.543   3.220  11.709  0.0459  0.1139 -1.2231
  580TMC3    C3 8598   0.574   3.171  11.833 -0.2348 -0.5109 -0.1315
  580TMC3    C4 8599   0.527   3.001  11.629  0.3033  0.3727 -0.0683
  580TMC3    C5 8600   0.551   2.956  11.753  0.4329 -0.0476 -0.3020
  580TMC3    C6 8601   0.574   3.036  11.856  0.1879 -0.4026  0.5452
  580TMC3     C 8602   0.527   3.183  11.472 -0.6152  0.4835  0.4797
  580TMC3     O 8603   0.583   3.111  11.390  0.1647 -1.0702 -0.4419
  580TMC3     H 8604   0.585   3.315  11.676  1.1921 -0.1803 -0.6113
  580TMC3    H1 8605   0.529   2.944  11.537  0.6063 -0.1011  0.2316
  580TMC3    H2 8606   0.624   3.010  11.949  1.6884 -0.7551 -0.3678
  580TMC3    C7 8607   0.561   2.813  11.755 -0.2476 -0.4731  0.2250
  580TMC3    C8 8608   0.668   3.246  11.911 -0.6836 -0.0303 -0.6397
  580TMC3    O1 8609   0.535   2.759  11.651  0.1091  0.0934 -0.1776
  580TMC3    O2 8610   0.629   3.315  12.005  0.0425 -0.2608  0.2581
  581MPD2     C 8611   3.309   2.567  14.569 -0.5828 -1.0979 -1.1016
  581MPD2    C1 8612   3.219   2.473  14.614 -0.2096 -0.4193  0.5323
  581MPD2    C2 8613   3.087   2.511  14.607  0.0395 -0.2996 -0.6157
  581MPD2    C3 8614   3.046   2.633  14.556  0.1808  0.1824 -0.0293
  581MPD2    C4 8615   3.140   2.715  14.495 -0.3803 -0.1975  1.0864
  581MPD2    C5 8616   3.272   2.689  14.511  0.6701  0.2729  0.3446
  581MPD2     H 8617   3.015   2.431  14.620 -1.3156  0.9517 -0.4156
  581MPD2    H1 8618   3.116   2.803  14.436  0.4823 -1.3807 -1.0165
  581MPD2    H2 8619   3.412   2.535  14.585 -0.5862  0.0653  1.3105
  581MPD2    H3 8620   3.355   2.749  14.474  1.2118 -0.5702  0.1844
  581MPD2     N 8621   2.911   2.662  14.550  0.3123 -0.8879 -0.6648
  581MPD2    H5 8622   2.846   2.589  14.578 -1.0805  0.3788 -0.5485
  581MPD2    N1 8623   3.279   2.356  14.671 -0.0938  0.0884  0.4139
  581MPD2    H7 8624   3.379   2.347  14.661 -0.3915 -0.5275 -2.1443
  582TMC3    C1 8625   3.263   2.158  14.798  0.2247  0.5818 -0.6813
  582TMC3    C2 8626   3.372   2.213  14.866  0.3206  0.0556  0.1850
  582TMC3    C3 8627   3.374   2.181  15.002 -0.2801  0.2157 -0.3121
  582TMC3    C4 8628   3.172   2.075  14.858  0.1887  0.2049  0.2194
  582TMC3    C5 8629   3.185   2.048  14.991 -0.0030  0.6171  0.6279
  582TMC3    C6 8630   3.283   2.106  15.064  0.1178 -0.5651  0.6363
  582TMC3     C 8631   3.203   2.250  14.703  0.0168  0.1365  0.5574
  582TMC3     O 8632   3.084   2.236  14.699  0.0255 -1.1382  0.3409
  582TMC3     H 8633   3.442   2.288  14.830  0.1170 -0.8488 -2.1133
  582TMC3    H1 8634   3.082   2.042  14.808  1.4803  0.8934 -2.5955
  582TMC3    H2 8635   3.302   2.065  15.163 -0.7990  0.6335  1.3115
  582TMC3    C7 8636   3.068   2.005  15.064  0.6101  0.5361 -0.0242
  582TMC3    C8 8637   3.478   2.244  15.078 -0.1586 -0.3128 -0.6425
  582TMC3    O1 8638   3.005   1.902  15.037 -0.1524  0.0272 -0.6420
  582TMC3    O2 8639   3.570   2.297  15.014 -0.2376 -0.4694  0.5125
  583MPD2     C 8640   2.726   4.018  16.647 -0.1832  0.4028  0.7918
  583MPD2    C1 8641   2.766   4.150  16.627 -0.6848  0.1483  0.0500
  583MPD2    C2 8642   2.753   4.240  16.732 -0.4135 -0.3165 -0.2633
  583MPD2    C3 8643   2.716   4.195  16.856 -0.2452 -0.2554  0.3142
  583MPD2    C4 8644   2.674   4.064  16.877  0.2815  0.5571 -0.3741
  583MPD2    C5 8645   2.674   3.980  16.773  0.1143  0.0490 -0.0028
  583MPD2     H 8646   2.800   4.338  16.729  1.1889 -1.0350  1.4950
  583MPD2    H1 8647   2.629   4.026  16.968 -0.1059  0.1298 -0.7452
  583MPD2    H2 8648   2.742   3.946  16.568  2.5312 -0.3675  2.0734
  583MPD2    H3 8649   2.652   3.876  16.797  1.0390 -0.3088 -0.7057
  583MPD2     N 8650   2.712   4.294  16.956  0.5443  0.2744 -0.4150
  583MPD2    H5 8651   2.751   4.385  16.930  0.5907 -0.0222 -1.3823
  583MPD2    N1 8652   2.841   4.194  16.509  0.6266  0.1813  0.1177
  583MPD2    H7 8653   2.897   4.277  16.524  2.4745 -0.6752 -2.2546
  584TMC3    C1 8654   2.702   4.388  17.181 -0.1011 -0.0618  0.3555
  584TMC3    C2 8655   2.793   4.485  17.142 -0.2405  0.2977  0.1501
  584TMC3    C3 8656   2.837   4.582  17.229 -0.0861  0.1922  0.5189
  584TMC3    C4 8657   2.644   4.388  17.303  0.1057 -0.2154  0.1862
  584TMC3    C5 8658   2.688   4.489  17.394  0.0732 -0.0962 -0.0034
  584TMC3    C6 8659   2.780   4.580  17.353  0.4827 -0.5240  0.2280
  584TMC3     C 8660   2.666   4.282  17.087  0.1342  0.1100  0.1493
  584TMC3     O 8661   2.586   4.196  17.126  0.4752  0.2670 -0.5902
  584TMC3     H 8662   2.839   4.484  17.043 -0.2282  0.7947  0.1519
  584TMC3    H1 8663   2.587   4.300  17.327  0.6862 -0.5979  0.1676
  584TMC3    H2 8664   2.824   4.649  17.425  0.1027  0.5283 -0.5451
  584TMC3    C7 8665   2.664   4.464  17.535  0.1360  1.0239  0.1459
  584TMC3    C8 8666   2.884   4.709  17.181 -0.7047 -0.1921 -0.0032
  584TMC3    O1 8667   2.723   4.524  17.621  0.3607 -0.2221 -0.8368
  584TMC3    O2 8668   2.857   0.002  17.063 -0.5425 -0.3524 -0.4395
  585MPD2     C 8669   2.614   3.162   0.094  0.4544  0.3799 -1.0604
  585MPD2    C1 8670   2.482   3.130   0.117  0.7068  0.0053  0.2926
  585MPD2    C2 8671   2.423   3.050   0.018 -0.4503 -0.3268  0.1806
  585MPD2    C3 8672   2.493   3.006  17.602  0.0475  0.4064 -0.4623
  585MPD2    C4 8673   2.619   3.055  17.581  0.0752 -0.3680  0.4041
  585MPD2    C5 8674   2.684   3.127  17.679  0.1935  0.2080  0.0088
  585MPD2     H 8675   2.324   3.009   0.035  0.3133 -2.1195  0.3388
  585MPD2    H1 8676   2.674   3.046  17.488  0.3919  1.8193  0.3784
  585MPD2    H2 8677   2.667   3.236   0.155 -0.8053 -0.4725  1.0627
  585MPD2    H3 8678   2.782   3.173  17.672 -1.1860  2.9629 -1.0005
  585MPD2     N 8679   2.443   2.923  17.500 -0.0264  0.3861  0.6049
  585MPD2    H5 8680   2.497   2.908  17.415 -0.1656  1.7179  0.2815
  585MPD2    N1 8681   2.416   3.184   0.229  0.3795  0.2471 -0.0671
  585MPD2    H7 8682   2.478   3.237   0.289  1.2272 -1.9083  0.9236
  586TMC3    C1 8683   2.291   2.812  17.369  0.8936 -0.1072 -0.0238
  586TMC3    C2 8684   2.372   2.699  17.346  0.2309  0.6848  0.4114
  586TMC3    C3 8685   2.324   2.589  17.280 -0.3370 -0.1996 -0.1899
  586TMC3    C4 8686   2.158   2.796  17.349  0.3702  0.0712  0.1415
  586TMC3    C5 8687   2.120   2.682  17.285 -0.3825  0.5852 -0.1732
  586TMC3    C6 8688   2.192   2.579  17.245  0.1216 -0.4338 -0.3024
  586TMC3     C 8689   2.315   2.882  17.498  0.0219 -0.5806  0.2771
  586TMC3     O 8690   2.218   2.889  17.572 -0.3103  0.2492 -0.3377
  586TMC3     H 8691   2.471   2.686  17.387  1.5186  0.6399 -2.6894
  586TMC3    H1 8692   2.084   2.866  17.385 -0.2834 -1.0840  1.0599
  586TMC3    H2 8693   2.152   2.484  17.210  1.6056 -0.7387 -1.1853
  586TMC3    C7 8694   1.985   2.689  17.246  0.2297  0.2805  0.7827
  586TMC3    C8 8695   2.405   2.467  17.283 -0.1397 -0.8657 -0.0672
  586TMC3    O1 8696   1.900   2.741  17.322 -0.5622 -0.7404  0.2503
  586TMC3    O2 8697   2.348   2.371  17.324 -0.4600  0.5428 -0.4971
  587TMC3    C1 8698   4.444   1.789  16.909  0.3264 -0.1667  0.0234
  587TMC3    C2 8699   4.369   1.849  16.808  0.5483 -0.1042  0.0287
  587TMC3    C3 8700   4.423   1.958  16.742  0.0709 -0.3867 -0.0452
  587TMC3    C4 8701   4.565   1.846  16.945  0.1847  0.6479 -0.7506
  587TMC3    C5 8702   4.616   1.954  16.874  0.3245  0.3792 -0.3579
  587TMC3    C6 8703   4.552   2.004  16.762  0.1009  0.4106  0.1413
  587TMC3     C 8704   4.422   1.654  16.943 -0.1252  0.1313 -0.4101
  587TMC3     O 8705   4.453   1.608  17.051 -1.0584  0.2696  0.0143
  587TMC3     H 8706   4.272   1.807  16.784  0.6276 -0.7627  0.8477
  587TMC3    H1 8707   4.621   1.791  17.021  0.1511  1.1923 -0.3364
  587TMC3    H2 8708   4.595   2.079  16.696  1.3418  0.0117  0.4884
  587TMC3    C7 8709   0.017   2.012  16.922  0.1809  0.1965 -0.0941
  587TMC3    C8 8710   4.347   2.014  16.631 -0.0513  0.2419 -0.4878
  587TMC3    O1 8711   0.085   1.944  17.003  0.3665 -0.4282 -0.3656
  587TMC3    O2 8712   4.240   1.956  16.605  0.2902  0.3467 -0.1917
  588TMC3    C1 8713   2.653   4.195   9.601  0.1096  1.2489  0.7380
  588TMC3    C2 8714   2.616   4.080   9.661  0.0575 -0.1566  0.3605
  588TMC3    C3 8715   2.700   4.023   9.755 -0.1219 -0.2063 -1.0405
  588TMC3    C4 8716   2.767   4.263   9.635  0.0474 -0.6520 -0.4651
  588TMC3    C5 8717   2.848   4.204   9.731  0.4163  0.1875 -0.0353
  588TMC3    C6 8718   2.817   4.084   9.788  0.2336 -0.5219 -0.6838
  588TMC3     C 8719   2.544   4.265   9.527  0.3173  0.1678 -0.0358
  588TMC3     O 8720   2.458   4.196   9.474 -0.1073 -0.4261 -0.2696
  588TMC3     H 8721   2.515   4.046   9.641  0.1205 -1.2155  1.8308
  588TMC3    H1 8722   2.794   4.353   9.582 -0.9838  0.1678  0.4061
  588TMC3    H2 8723   2.884   4.043   9.863  0.8044  0.8632 -0.4450
  588TMC3    C7 8724   2.962   4.281   9.790  0.1893  0.0793  0.1764
  588TMC3    C8 8725   2.658   3.907   9.834 -0.5316 -0.8602  0.3543
  588TMC3    O1 8726   3.036   4.232   9.874  0.0168  0.1577 -0.4687
  588TMC3    O2 8727   2.555   3.854   9.803 -0.1189 -0.1486  1.0264
  589TMC3    C1 8728   0.381   2.046   1.624 -0.1567  0.1776 -0.1418
  589TMC3    C2 8729   0.449   1.987   1.732 -0.4442 -0.2306 -0.3257
  589TMC3    C3 8730   0.540   1.896   1.687 -0.0509  0.3259 -0.3254
  589TMC3    C4 8731   0.374   2.000   1.494 -0.4872 -0.2989 -0.4517
  589TMC3    C5 8732   0.449   1.889   1.470  0.3845 -0.2970 -0.5581
  589TMC3    C6 8733   0.542   1.841   1.562 -0.9812 -0.2113 -0.4264
  589TMC3     C 8734   0.298   2.157   1.658  0.0495  0.5990  0.3230
  589TMC3     O 8735   0.263   2.226   1.563 -0.3298  0.5579 -0.2220
  589TMC3     H 8736   0.456   2.039   1.827  0.1584 -1.2434  0.1739
  589TMC3    H1 8737   0.308   2.045   1.421 -0.4067  1.3470  0.5012
  589TMC3    H2 8738   0.622   1.774   1.533  0.0598  1.3360 -1.0986
  589TMC3    C7 8739   0.477   1.852   1.325  0.0076 -0.3351 -0.4142
  589TMC3    C8 8740   0.654   1.874   1.774  0.2941 -0.7853  1.0663
  589TMC3    O1 8741   0.564   1.768   1.316 -0.0546  0.7430  0.6561
  589TMC3    O2 8742   0.642   1.903   1.894 -0.6535 -0.3044 -0.4192
  590MPD2     C 8743   1.086   0.023  16.801 -0.4230 -0.2010 -1.0559
  590MPD2    C1 8744   1.016   0.086  16.703 -0.2160 -0.4470  0.0408
  590MPD2    C2 8745   1.074   0.194  16.637  0.0397 -0.3598  0.6959
  590MPD2    C3 8746   1.205   0.226  16.666 -0.1122 -0.0196  0.6629
  590MPD2    C4 8747   1.280   0.149  16.755  0.0758  0.1111  0.3945
  590MPD2    C5 8748   1.218   0.045  16.827  0.4274  0.0420 -0.0369
  590MPD2     H 8749   1.010   0.249  16.569  0.7544  0.3664  0.6022
  590MPD2    H1 8750   1.383   0.176  16.773  1.0668 -3.0551 -0.6525
  590MPD2    H2 8751   1.041   4.657  16.844 -1.2454  0.8739  0.3202
  590MPD2    H3 8752   1.282   4.706  16.887 -0.3489  0.9834  1.7788
  590MPD2     N 8753   1.262   0.322  16.575 -0.5997 -0.2305 -0.1622
  590MPD2    H5 8754   1.204   0.344  16.495 -0.6054  0.0197 -0.0877
  590MPD2    N1 8755   0.881   0.045  16.692 -0.4354 -0.3372  0.1178
  590MPD2    H7 8756   0.839   4.699  16.753  2.6996 -1.3991  1.0839
  591TMC3    C1 8757   1.420   0.447  16.477 -0.4909  0.9569 -0.8465
  591TMC3    C2 8758   1.394   0.386  16.358  0.2442 -0.3889 -0.5476
  591TMC3    C3 8759   1.364   0.464  16.248 -0.4087 -0.3876  0.1960
  591TMC3    C4 8760   1.427   0.577  16.479 -0.2639 -0.4444  0.0315
  591TMC3    C5 8761   1.411   0.657  16.373 -0.2563  0.1862 -0.2590
  591TMC3    C6 8762   1.375   0.602  16.253 -0.3291  0.3020 -0.8268
  591TMC3     C 8763   1.377   0.389  16.596 -0.6248  0.0941  0.2918
  591TMC3     O 8764   1.443   0.402  16.700  0.3778  0.2095 -0.1167
  591TMC3     H 8765   1.346   0.290  16.344 -0.0168 -0.5188  1.2992
  591TMC3    H1 8766   1.437   0.622  16.578 -2.6386 -4.5945  2.1666
  591TMC3    H2 8767   1.359   0.660  16.163  1.3422 -0.9407 -1.9223
  591TMC3    C7 8768   1.383   0.797  16.391 -0.4189  0.0538  1.0535
  591TMC3    C8 8769   1.354   0.401  16.113  0.1925  0.0127  0.1251
  591TMC3    O1 8770   1.341   0.832  16.501  0.0213 -0.0603  0.0065
  591TMC3    O2 8771   1.375   0.281  16.107  0.4481  0.0794 -0.3751
  592MPD2     C 8772   1.859   2.391  11.350 -0.1766  0.7152  0.0583
  592MPD2    C1 8773   1.823   2.482  11.450 -1.2881  0.2251 -0.0759
  592MPD2    C2 8774   1.738   2.449  11.551 -0.9742 -1.1117  0.4955
  592MPD2    C3 8775   1.699   2.319  11.570 -0.3642  0.0316  0.0764
  592MPD2    C4 8776   1.748   2.224  11.484  0.2209  0.3690 -0.1177
  592MPD2    C5 8777   1.813   2.266  11.367 -0.3135 -0.0075  0.6479
  592MPD2     H 8778   1.717   2.515  11.635 -0.9772  0.2882 -0.6181
  592MPD2    H1 8779   1.724   2.119  11.493 -0.3378  0.4368 -0.8298
  592MPD2    H2 8780   1.913   2.429  11.264 -3.1497  3.1822 -0.7485
  592MPD2    H3 8781   1.817   2.197  11.284 -0.4134  1.5172 -0.6353
  592MPD2     N 8782   1.614   2.288  11.679 -0.1678 -0.1420 -0.1290
  592MPD2    H5 8783   1.582   2.360  11.742  1.1474  0.0386  0.3329
  592MPD2    N1 8784   1.888   2.611  11.442  0.1195 -0.5068  0.1388
  592MPD2    H7 8785   1.950   2.636  11.366 -0.4591 -1.7167 -0.7233
  593TMC3    C1 8786   1.970   2.820  11.540  0.6003 -0.1630 -0.3166
  593TMC3    C2 8787   1.983   2.891  11.653 -0.0012  0.1508  0.0348
  593TMC3    C3 8788   2.068   3.000  11.642  0.3410 -1.1603  0.0779
  593TMC3    C4 8789   2.028   2.844  11.419  0.5048 -0.1789  0.7900
  593TMC3    C5 8790   2.108   2.953  11.416 -0.6991  0.2104  0.4184
  593TMC3    C6 8791   2.133   3.034  11.527 -0.7747  0.5431  0.9148
  593TMC3     C 8792   1.889   2.695  11.549  0.0730 -0.0577 -0.1802
  593TMC3     O 8793   1.812   2.712  11.648 -0.3048  0.0805  0.0157
  593TMC3     H 8794   1.941   2.858  11.747 -2.2406 -1.6085 -1.5729
  593TMC3    H1 8795   2.007   2.799  11.323  0.4080  0.9401  0.2920
  593TMC3    H2 8796   2.204   3.116  11.529 -0.1631  0.0020  1.4968
  593TMC3    C7 8797   2.217   2.944  11.323  0.0082  0.2460  0.3881
  593TMC3    C8 8798   2.129   3.045  11.762  0.7341 -0.0065 -0.4860
  593TMC3    O1 8799   2.234   2.834  11.275 -0.4107  0.5794 -0.0530
  593TMC3    O2 8800   2.192   2.962  11.826 -0.2762 -0.5996 -0.1209
  594MPD2     C 8801   4.688   1.704  14.092  0.3545 -0.3207  0.4141
  594MPD2    C1 8802   4.718   1.596  14.180 -1.5624  0.3254 -0.1811
  594MPD2    C2 8803   0.124   1.562  14.196 -0.0835 -0.0146  0.1689
  594MPD2    C3 8804   0.224   1.664  14.164 -0.1333  0.1848 -0.0274
  594MPD2    C4 8805   0.186   1.774  14.097 -0.1679 -0.2147  0.3550
  594MPD2    C5 8806   0.060   1.800  14.055  0.1186  0.2666  0.5238
  594MPD2     H 8807   0.145   1.471  14.250 -1.9721 -1.7473 -2.0211
  594MPD2    H1 8808   0.257   1.852  14.070 -0.8155  0.5495  0.8345
  594MPD2    H2 8809   4.586   1.733  14.070  0.8632  1.6022  0.5959
  594MPD2    H3 8810   0.046   1.895  14.005  1.6795  0.6482  0.8096
  594MPD2     N 8811   0.355   1.642  14.221 -0.2140 -0.1101 -0.3561
  594MPD2    H5 8812   0.366   1.559  14.278  0.3156 -0.7408 -1.3561
  594MPD2    N1 8813   4.607   1.519  14.231 -0.0797 -0.5160  0.4679
  594MPD2    H7 8814   4.514   1.551  14.206  0.0191  0.1689  1.0137
  595TMC3    C1 8815   0.755   1.812  14.394  0.1263  0.2515  0.3842
  595TMC3    C2 8816   0.693   1.749  14.277  0.3438 -0.8097 -0.3373
  595TMC3    C3 8817   0.570   1.696  14.302  1.0331 -1.0581  0.5074
  595TMC3    C4 8818   0.699   1.814  14.521  0.5815  0.8564 -0.2563
  595TMC3    C5 8819   0.582   1.750  14.536 -0.3332 -0.0507 -0.5026
  595TMC3    C6 8820   0.523   1.680  14.431 -0.1280 -0.7724  0.1768
  595TMC3     C 8821   0.881   1.868  14.389  0.0800 -0.1334  0.1596
  595TMC3     O 8822   0.926   1.899  14.497 -0.3187  0.2939 -0.2714
  595TMC3     H 8823   0.727   1.757  14.174  0.5585 -1.6057 -0.3257
  595TMC3    H1 8824   0.744   1.859  14.609 -0.3088  1.9948 -0.3862
  595TMC3    H2 8825   0.419   1.655  14.445 -0.4238 -0.8478 -2.1789
  595TMC3    C7 8826   0.492   1.817  14.634  0.0777  0.2324 -0.0216
  595TMC3    C8 8827   0.466   1.719  14.206  0.5989 -0.5498 -0.1361
  595TMC3    O1 8828   0.379   1.837  14.595 -0.1744  0.1210  0.4039
  595TMC3    O2 8829   0.493   1.822  14.146 -0.3122 -0.1929  0.5823
  596MPD2     C 8830   3.475   4.017  16.480  0.0350 -0.2083  0.0701
  596MPD2    C1 8831   3.593   4.093  16.489  0.7346 -0.1552  0.3199
  596MPD2    C2 8832   3.691   4.084  16.385 -0.3147  0.0256  0.0736
  596MPD2    C3 8833   3.662   4.021  16.269 -0.4293  0.5468 -0.5301
  596MPD2    C4 8834   3.547   3.951  16.261  0.6767 -0.8168 -0.3511
  596MPD2    C5 8835   3.450   3.954  16.360  0.2520  0.2633  0.1504
  596MPD2     H 8836   3.782   4.142  16.399 -2.2093  2.9389  0.2743
  596MPD2    H1 8837   3.526   3.890  16.175 -0.6299 -0.6965 -0.1128
  596MPD2    H2 8838   3.388   4.031  16.543 -0.1246 -0.1298 -0.1664
  596MPD2    H3 8839   3.355   3.905  16.338  1.6620 -1.7628 -1.5220
  596MPD2     N 8840   3.750   4.030  16.153  0.2801  0.1631 -0.2492
  596MPD2    H5 8841   3.721   3.969  16.077 -1.6118  1.0459 -0.2200
  596MPD2    N1 8842   3.612   4.181  16.602 -0.0794  0.3355  0.1830
  596MPD2    H7 8843   3.698   4.231  16.620 -1.2673  2.3211  0.4129
  597TMC3    C1 8844   3.545   4.289  16.810  0.1273 -0.1345  0.2911
  597TMC3    C2 8845   3.632   4.386  16.786 -0.3027 -1.0102 -0.5118
  597TMC3    C3 8846   3.656   4.481  16.883  0.3763  0.0553  0.6234
  597TMC3    C4 8847   3.461   4.282  16.916 -0.6542  0.0870  0.8133
  597TMC3    C5 8848   3.482   4.376  17.015  0.2877 -0.3782 -0.2795
  597TMC3    C6 8849   3.585   4.472  17.004  0.1632  0.0122 -0.3046
  597TMC3     C 8850   3.519   4.188  16.710 -0.2706 -0.1456  0.4572
  597TMC3     O 8851   3.428   4.110  16.736  0.4337  1.0253  0.7213
  597TMC3     H 8852   3.671   4.394  16.685  2.0404  3.5848  0.8049
  597TMC3    H1 8853   3.381   4.210  16.931 -1.0369  0.8795  2.4853
  597TMC3    H2 8854   3.611   4.535  17.089  1.6850  2.0069 -2.2498
  597TMC3    C7 8855   3.435   4.350  17.149 -0.5871  0.1007 -0.4847
  597TMC3    C8 8856   3.749   4.593  16.860  0.3300 -0.8860 -0.3397
  597TMC3    O1 8857   3.415   4.234  17.174  0.6348 -0.3907  1.1779
  597TMC3    O2 8858   3.765   4.667  16.959  0.5513 -0.0990 -0.0408
  598TMC3    C1 8859   2.320   1.013  15.327  0.1430  0.2944  0.0825
  598TMC3    C2 8860   2.321   0.877  15.323  0.6277 -0.1878  0.0326
  598TMC3    C3 8861   2.272   0.807  15.211  0.3116 -0.3824  0.1656
  598TMC3    C4 8862   2.282   1.099  15.218  0.5526 -0.6188  0.1650
  598TMC3    C5 8863   2.234   1.027  15.109 -0.2343  0.0355 -0.3529
  598TMC3    C6 8864   2.233   0.889  15.101  0.0982 -1.4936  0.5764
  598TMC3     C 8865   2.365   1.089  15.445  0.2985  0.7458  0.1699
  598TMC3     O 8866   2.319   1.201  15.461  0.1216  0.0477 -0.4317
  598TMC3     H 8867   2.361   0.823  15.408  2.6404  0.6807 -0.3617
  598TMC3    H1 8868   2.268   1.206  15.221 -4.0007 -1.2487  1.7158
  598TMC3    H2 8869   2.223   0.844  15.003  3.4560  1.7017 -1.2281
  598TMC3    C7 8870   2.230   1.093  14.976  0.4261 -0.6334 -0.5260
  598TMC3    C8 8871   2.324   0.682  15.178 -0.1851  0.5903 -0.2992
  598TMC3    O1 8872   2.170   1.028  14.891  0.2382  0.0634  0.1312
  598TMC3    O2 8873   2.419   0.633  15.240 -0.2922 -0.2770 -0.3762
  599MPD2     C 8874   2.593   3.421  16.259 -0.1283 -0.7462  0.4030
  599MPD2    C1 8875   2.522   3.321  16.188  0.2936  0.2383  0.4098
  599MPD2    C2 8876   2.384   3.317  16.204 -0.2835  0.6921  0.4239
  599MPD2    C3 8877   2.317   3.409  16.282  0.3189  0.3686  0.5244
  599MPD2    C4 8878   2.393   3.508  16.336 -0.5582  0.2893 -0.6817
  599MPD2    C5 8879   2.528   3.523  16.325 -1.0581 -0.4055  0.6200
  599MPD2     H 8880   2.320   3.248  16.151  0.2209  1.6753 -1.4935
  599MPD2    H1 8881   2.339   3.579  16.397  0.4546  1.0137 -0.6286
  599MPD2    H2 8882   2.701   3.413  16.264 -0.0799 -1.0683 -1.2582
  599MPD2    H3 8883   2.566   3.613  16.372  1.8375 -2.2016  1.7353
  599MPD2     N 8884   2.181   3.403  16.315  0.1998  0.3274 -0.4729
  599MPD2    H5 8885   2.140   3.489  16.349 -1.2933 -0.6415  0.2018
  599MPD2    N1 8886   2.599   3.221  16.129 -0.5214 -0.4467 -0.0745
  599MPD2    H7 8887   2.697   3.234  16.153 -0.7052  1.2904 -0.2220
  600TMC3    C1 8888   1.975   3.308  16.364 -0.3384  0.2076  0.9938
  600TMC3    C2 8889   1.907   3.203  16.412 -0.3806 -0.0720  0.0265
  600TMC3    C3 8890   1.777   3.224  16.446 -0.3699  0.6818 -1.0542
  600TMC3    C4 8891   1.915   3.432  16.352 -0.3301 -0.0348  1.3499
  600TMC3    C5 8892   1.778   3.439  16.386  0.2171  0.2701 -0.2670
  600TMC3    C6 8893   1.704   3.337  16.428 -0.4572 -0.0982  0.5482
  600TMC3     C 8894   2.109   3.284  16.321  0.3216  0.5682 -0.2151
  600TMC3     O 8895   2.165   3.175  16.319  0.3384  0.6000  0.3701
  600TMC3     H 8896   1.955   3.110  16.440  0.7867  0.1481 -1.2494
  600TMC3    H1 8897   1.973   3.506  16.297 -2.0475 -0.3029 -0.8555
  600TMC3    H2 8898   1.598   3.346  16.449 -0.4454 -0.1870  0.6430
  600TMC3    C7 8899   1.700   3.563  16.386  0.2472  1.1349  0.6385
  600TMC3    C8 8900   1.707   3.113  16.502  0.0302  0.2963 -0.5391
  600TMC3    O1 8901   1.579   3.564  16.383  0.3821  0.2313  0.3565
  600TMC3    O2 8902   1.776   3.034  16.565  0.2341  0.3286  0.4802
  601MPD2     C 8903   3.474   2.002   0.221 -0.2013  0.6279  0.3385
  601MPD2    C1 8904   3.553   1.910   0.158 -0.1622 -0.6497  0.2529
  601MPD2    C2 8905   3.590   1.792   0.214 -0.0664  0.0792  0.2126
  601MPD2    C3 8906   3.552   1.765   0.341 -0.2926  0.0548  0.2954
  601MPD2    C4 8907   3.477   1.855   0.407 -0.3424 -0.5985  0.0230
  601MPD2    C5 8908   3.432   1.971   0.347  0.0987  0.5300  0.7126
  601MPD2     H 8909   3.643   1.720   0.153  1.4512 -0.1379  1.7719
  601MPD2    H1 8910   3.445   1.836   0.509 -0.8358 -1.3666 -0.2726
  601MPD2    H2 8911   3.433   2.091   0.176  0.4890  0.3284 -0.8661
  601MPD2    H3 8912   3.362   2.036   0.399 -0.5340 -0.8841  1.6550
  601MPD2     N 8913   3.570   1.641   0.405 -0.2420 -0.5323 -0.6414
  601MPD2    H5 8914   3.528   1.630   0.497  0.7686  1.5601  0.0761
  601MPD2    N1 8915   3.583   1.942   0.021 -0.2207  0.7216 -0.1261
  601MPD2    H7 8916   3.568   2.038  17.688 -1.6140  0.1504 -1.2768
  602TMC3    C1 8917   3.685   1.907  17.499  0.4103 -0.3085  0.6251
  602TMC3    C2 8918   3.735   2.041  17.501 -0.1996 -0.4167  0.3208
  602TMC3    C3 8919   3.789   2.087  17.388  0.4723 -0.1190 -0.0454
  602TMC3    C4 8920   3.687   1.826  17.384 -0.4898 -0.8027 -0.7391
  602TMC3    C5 8921   3.739   1.881  17.278 -0.3363 -0.5391 -0.6306
  602TMC3    C6 8922   3.793   2.013  17.270  0.1989  0.3961  0.0041
  602TMC3     C 8923   3.639   1.848  17.629  0.6798 -0.2122  0.4689
  602TMC3     O 8924   3.625   1.728  17.625 -0.6372 -0.2282  0.3279
  602TMC3     H 8925   3.713   2.104  17.586  1.4313 -0.5462  0.8402
  602TMC3    H1 8926   3.644   1.726  17.380 -1.5146 -0.2668 -2.5517
  602TMC3    H2 8927   3.855   2.055  17.192 -0.4588  0.9476 -0.2200
  602TMC3    C7 8928   3.755   1.794  17.165 -0.6203  0.0450  0.1438
  602TMC3    C8 8929   3.834   2.222  17.382  0.3233  0.4087  0.2563
  602TMC3    O1 8930   3.777   1.675  17.180 -0.8394  1.0186 -0.0805
  602TMC3    O2 8931   3.878   2.282  17.480  0.0484 -0.1748  0.1495
  603TMC3    C1 8932   2.779   1.563  10.542 -0.1123  0.2036 -0.5802
  603TMC3    C2 8933   2.874   1.550  10.642 -0.0443  0.0591  0.4208
  603TMC3    C3 8934   2.878   1.637  10.744 -0.0005 -0.4765 -1.2553
  603TMC3    C4 8935   2.686   1.668  10.548 -0.3378  0.8343 -0.0892
  603TMC3    C5 8936   2.691   1.749  10.658 -0.2141  0.3625 -0.2604
  603TMC3    C6 8937   2.797   1.746  10.743 -0.2454 -0.6544  0.4885
  603TMC3     C 8938   2.800   1.494  10.422  0.1815 -0.2370 -0.6284
  603TMC3     O 8939   2.743   1.535  10.324 -0.3715 -0.3542 -0.5341
  603TMC3     H 8940   2.956   1.478  10.640 -0.3946 -0.3504  0.6943
  603TMC3    H1 8941   2.614   1.685  10.469 -0.3110  1.6854  0.0704
  603TMC3    H2 8942   2.782   1.801  10.836  3.6956 -0.1654  0.8513
  603TMC3    C7 8943   2.615   1.873  10.652 -0.5206  0.5502 -0.1768
  603TMC3    C8 8944   2.968   1.620  10.846 -0.7926  0.1787  0.2289
  603TMC3    O1 8945   2.660   1.978  10.704  0.0975 -0.9367  0.3106
  603TMC3    O2 8946   3.018   1.510  10.865 -0.1080  0.8824 -0.0345
  604MPD2     C 8947   2.852   0.503  16.618  0.4753 -0.5810 -0.4238
  604MPD2    C1 8948   2.764   0.579  16.543 -0.1457 -0.9823  0.0471
  604MPD2    C2 8949   2.730   0.521  16.416 -0.6145  0.4127  0.8339
  604MPD2    C3 8950   2.773   0.393  16.376 -1.0234  0.0329 -0.1001
  604MPD2    C4 8951   2.836   0.310  16.466  0.5668 -0.3539  0.0503
  604MPD2    C5 8952   2.882   0.374  16.582 -0.6537  0.1213  0.3644
  604MPD2     H 8953   2.667   0.579  16.349 -3.7521 -2.1192  1.5669
  604MPD2    H1 8954   2.880   0.213  16.447  2.5382  0.2914  1.3463
  604MPD2    H2 8955   2.902   0.544  16.705 -0.1741 -0.1105 -0.2630
  604MPD2    H3 8956   2.942   0.317  16.652  0.3439 -0.6560 -1.1330
  604MPD2     N 8957   2.737   0.343  16.251 -0.1383 -0.4048 -0.3608
  604MPD2    H5 8958   2.686   0.409  16.194  1.4867  0.4108 -0.8713
  604MPD2    N1 8959   2.715   0.704  16.597  0.1214  0.6536 -0.2234
  604MPD2    H7 8960   2.747   0.728  16.690 -0.5247  3.5721 -0.7504
  605TMC3    C1 8961   2.619   0.920  16.602  0.1463  0.1316  0.0153
  605TMC3    C2 8962   2.716   0.959  16.687  1.0033 -0.1144  0.3967
  605TMC3    C3 8963   2.716   1.093  16.725 -0.1999  0.1087  0.3300
  605TMC3    C4 8964   2.527   1.009  16.547  0.5141 -0.7582 -0.0916
  605TMC3    C5 8965   2.531   1.144  16.581 -0.2791 -0.3580 -0.2127
  605TMC3    C6 8966   2.619   1.184  16.684 -0.0402 -0.3735  0.4249
  605TMC3     C 8967   2.634   0.786  16.539 -0.4520 -0.1391  0.1777
  605TMC3     O 8968   2.574   0.762  16.439  0.2128 -0.2226 -0.2071
  605TMC3     H 8969   2.802   0.901  16.717  1.5730  0.0005 -1.0197
  605TMC3    H1 8970   2.457   0.971  16.473 -0.1676  0.6082 -0.1500
  605TMC3    H2 8971   2.627   1.283  16.727 -3.2066 -0.1464  0.5276
  605TMC3    C7 8972   2.445   1.226  16.504  0.2924  0.9798  0.0329
  605TMC3    C8 8973   2.822   1.153  16.802  0.3948  0.8856 -0.5524
  605TMC3    O1 8974   2.396   1.174  16.404 -0.4417 -0.1902  0.4799
  605TMC3    O2 8975   2.792   1.256  16.859  0.1188 -0.9651 -0.3927
  606TMC3    C1 8976   3.763   4.229  17.299  0.4993 -1.0479  0.3694
  606TMC3    C2 8977   3.792   4.341  17.368  0.1318  0.2104  0.2244
  606TMC3    C3 8978   3.749   4.351  17.501 -0.5321 -0.4479  0.4307
  606TMC3    C4 8979   3.700   4.125  17.359  0.3439 -0.2781 -1.2154
  606TMC3    C5 8980   3.680   4.134  17.495  0.0177 -0.0283  0.0804
  606TMC3    C6 8981   3.691   4.250  17.567  0.2941 -0.0321 -0.1160
  606TMC3     C 8982   3.802   4.215  17.158 -0.1359 -0.0268  0.2253
  606TMC3     O 8983   3.746   4.136  17.092  0.7453 -0.6179  0.0949
  606TMC3     H 8984   3.838   4.428  17.321 -0.4791  0.2432 -0.3119
  606TMC3    H1 8985   3.671   4.032  17.309 -1.3188  0.4514 -1.6269
  606TMC3    H2 8986   3.666   4.246  17.672  1.3053 -0.0175  0.1241
  606TMC3    C7 8987   3.663   4.008  17.571  0.1051  0.4648  0.1606
  606TMC3    C8 8988   3.793   4.472  17.567  0.4582  0.3834 -0.0996
  606TMC3    O1 8989   3.617   4.015  17.688  0.6727  0.3836 -0.0593
  606TMC3    O2 8990   3.865   4.562  17.518  0.2936 -0.1080 -0.0481
  607MPD2     C 8991   2.105   2.071  11.264 -0.2275 -0.1206 -0.0057
  607MPD2    C1 8992   2.120   2.099  11.398 -0.1004 -1.0191 -0.1200
  607MPD2    C2 8993   2.066   2.008  11.485 -0.1205  0.5853 -0.2902
  607MPD2    C3 8994   2.001   1.893  11.446  0.0443 -0.3683 -0.1722
  607MPD2    C4 8995   2.006   1.856  11.305  0.3395 -0.3017 -0.3496
  607MPD2    C5 8996   2.060   1.948  11.215  0.3808  0.1853 -0.2262
  607MPD2     H 8997   2.057   2.031  11.590 -1.1350 -1.0621 -0.0068
  607MPD2    H1 8998   1.970   1.765  11.259 -1.8174  0.2618  0.1921
  607MPD2    H2 8999   2.146   2.143  11.195 -2.6477 -0.1645 -1.5032
  607MPD2    H3 9000   2.078   1.917  11.113 -0.6805  0.7508 -0.5835
  607MPD2     N 9001   1.925   1.818  11.543  0.4805 -0.5837  0.5837
  607MPD2    H5 9002   1.929   1.847  11.640  0.8271 -0.7655  0.6220
  607MPD2    N1 9003   2.175   2.208  11.464 -0.3168 -0.1659  0.3749
  607MPD2    H7 9004   2.187   2.214  11.565 -1.5719 -0.3183  0.5312
  608TMC3    C1 9005   2.221   2.421  11.516  0.4584  0.5334 -0.7834
  608TMC3    C2 9006   2.140   2.396  11.621  0.7148  0.3110 -0.3383
  608TMC3    C3 9007   2.137   2.489  11.724  0.0363  0.5558 -0.3640
  608TMC3    C4 9008   2.301   2.525  11.504  0.5999  0.5846 -0.2007
  608TMC3    C5 9009   2.309   2.607  11.616  0.4674  0.0234  0.5040
  608TMC3    C6 9010   2.225   2.595  11.726  0.0083  0.2296 -1.2950
  608TMC3     C 9011   2.203   2.328  11.407  0.2140  0.5545 -0.5720
  608TMC3     O 9012   2.217   2.353  11.289 -0.1138 -0.0285 -0.4296
  608TMC3     H 9013   2.055   2.329  11.621  1.0374 -0.0987 -0.9805
  608TMC3    H1 9014   2.338   2.549  11.405 -0.9311 -0.1828 -0.9589
  608TMC3    H2 9015   2.242   2.641  11.823 -2.2575 -0.7401 -0.4447
  608TMC3    C7 9016   2.407   2.712  11.600 -0.3921  0.3507  0.4200
  608TMC3    C8 9017   2.085   2.454  11.859  0.1855 -0.3536 -0.2614
  608TMC3    O1 9018   2.462   2.715  11.492 -0.4128  0.2251 -0.7631
  608TMC3    O2 9019   2.035   2.545  11.921  0.2126  0.2230  0.5225
  609TMC3    C1 9020   0.387   0.509   9.157  0.6720  0.3009 -0.1730
  609TMC3    C2 9021   0.300   0.427   9.085  0.0479  0.5815  0.0844
  609TMC3    C3 9022   0.359   0.331   9.013  0.6867 -0.9929  0.3639
  609TMC3    C4 9023   0.524   0.492   9.156 -0.3642  0.5713 -0.0868
  609TMC3    C5 9024   0.573   0.389   9.075  0.1876 -0.2631 -0.3215
  609TMC3    C6 9025   0.494   0.303   9.008  0.2050 -0.3208  0.5804
  609TMC3     C 9026   0.326   0.614   9.237  0.2276  0.6835 -0.0038
  609TMC3     O 9027   0.210   0.645   9.207 -0.0980 -0.4868 -0.4775
  609TMC3     H 9028   0.195   0.452   9.085 -0.1482 -0.2408  0.0565
  609TMC3    H1 9029   0.595   0.549   9.215  1.6905 -0.4638 -1.5347
  609TMC3    H2 9030   0.527   0.222   8.944  0.0145 -0.7528  1.0312
  609TMC3    C7 9031   0.707   0.345   9.102 -0.3017 -0.6481  0.4063
  609TMC3    C8 9032   0.276   0.241   8.941  0.1994  0.0802 -0.0558
  609TMC3    O1 9033   0.766   0.392   9.204  0.1475  0.2860  0.6822
  609TMC3    O2 9034   0.321   0.197   8.837  0.0457  0.0438  0.7324
  610TMC3    C1 9035   2.314   1.896  12.201 -0.2447  0.2620 -0.8262
  610TMC3    C2 9036   2.322   2.018  12.141 -0.0967 -0.9376  0.0680
  610TMC3    C3 9037   2.448   2.046  12.099 -0.3622 -0.8409 -0.0609
  610TMC3    C4 9038   2.430   1.824  12.232 -1.1143  0.2533 -0.0484
  610TMC3    C5 9039   2.556   1.869  12.201 -0.2187 -0.1573  0.2728
  610TMC3    C6 9040   2.568   1.984  12.137  0.8589 -1.1897 -0.3897
  610TMC3     C 9041   2.188   1.826  12.220 -0.2904  0.1708 -0.5802
  610TMC3     O 9042   2.201   1.708  12.208  0.1554  0.0321  0.0635
  610TMC3     H 9043   2.238   2.080  12.112 -0.5714 -0.2730  2.8681
  610TMC3    H1 9044   2.413   1.737  12.294 -1.3890 -0.2878 -0.8751
  610TMC3    H2 9045   2.664   2.032  12.122 -0.8539  2.3728  0.1054
  610TMC3    C7 9046   2.661   1.814  12.286 -0.5343 -0.2470 -0.1348
  610TMC3    C8 9047   2.454   2.147  11.998 -0.3718 -0.5264 -0.1853
  610TMC3    O1 9048   2.656   1.695  12.311 -0.2029 -0.7643  0.3319
  610TMC3    O2 9049   2.360   2.228  11.988 -0.0203  0.4916 -0.5433
  611MPD2     C 9050   1.260   1.733  10.543 -0.1760 -0.0396 -0.4477
  611MPD2    C1 9051   1.291   1.713  10.410  0.2085  0.2311  0.3114
  611MPD2    C2 9052   1.395   1.777  10.353  0.2844  0.3912  0.0742
  611MPD2    C3 9053   1.483   1.854  10.432 -0.9317  0.5232  0.2890
  611MPD2    C4 9054   1.450   1.865  10.563 -0.4999 -0.1937 -0.8295
  611MPD2    C5 9055   1.341   1.811  10.617 -0.8653 -0.4177 -0.4074
  611MPD2     H 9056   1.411   1.762  10.247 -1.6858  1.4825 -0.3709
  611MPD2    H1 9057   1.501   1.929  10.634  2.4160  0.2925 -3.3739
  611MPD2    H2 9058   1.183   1.672  10.588 -1.4317  1.1263 -1.0007
  611MPD2    H3 9059   1.324   1.825  10.723 -1.0800  0.8987 -0.6189
  611MPD2     N 9060   1.605   1.909  10.382  0.3573 -0.1319  0.3703
  611MPD2    H5 9061   1.655   1.974  10.442  0.0648 -0.7075  1.2477
  611MPD2    N1 9062   1.207   1.622  10.340 -0.0465  0.2182  0.3372
  611MPD2    H7 9063   1.125   1.586  10.387 -1.3816 -0.8440 -2.8152
  612TMC3    C1 9064   1.746   2.005  10.223 -0.1533  0.0628  0.2523
  612TMC3    C2 9065   1.846   2.025  10.309  0.0120  0.3613 -0.4341
  612TMC3    C3 9066   1.888   2.151  10.327  0.1927 -0.5782 -0.5378
  612TMC3    C4 9067   1.705   2.100  10.139  0.0611  0.5763  0.4661
  612TMC3    C5 9068   1.751   2.227  10.157 -0.1894 -0.1759 -0.3279
  612TMC3    C6 9069   1.838   2.258  10.260  0.1580 -0.3114 -0.0403
  612TMC3     C 9070   1.638   1.912  10.254 -0.0088 -0.0260  0.1332
  612TMC3     O 9071   1.591   1.852  10.156  0.0232 -0.4165  0.2431
  612TMC3     H 9072   1.867   1.948  10.383 -0.0972  0.5864 -0.1681
  612TMC3    H1 9073   1.616   2.084  10.080  0.7235 -1.0218 -0.1180
  612TMC3    H2 9074   1.877   2.357  10.279 -3.3609  0.7321  1.6496
  612TMC3    C7 9075   1.671   2.329  10.101 -0.0173 -0.2470 -0.7960
  612TMC3    C8 9076   2.012   2.168  10.403  0.2570  0.2470  0.2067
  612TMC3    O1 9077   1.554   2.300  10.064 -0.2640  0.0201  0.9838
  612TMC3    O2 9078   2.033   2.283  10.432  0.2700 -0.0193  0.0322
  613MPD2     C 9079   0.712   3.520  16.378  0.7056 -0.1136  0.0962
  613MPD2    C1 9080   0.635   3.617  16.318 -0.6969 -0.0543  0.6983
  613MPD2    C2 9081   0.518   3.589  16.259  0.7161  1.1112 -0.6256
  613MPD2    C3 9082   0.469   3.456  16.252  0.0613 -0.2303  0.2634
  613MPD2    C4 9083   0.548   3.361  16.305  0.2210  1.0094 -0.6724
  613MPD2    C5 9084   0.659   3.395  16.372  0.6834 -0.5867 -0.9097
  613MPD2     H 9085   0.459   3.668  16.213  0.4262  0.6376 -1.0773
  613MPD2    H1 9086   0.519   3.258  16.284 -2.1092  1.4553  0.3387
  613MPD2    H2 9087   0.795   3.545  16.443  2.4154 -2.8426 -1.0150
  613MPD2    H3 9088   0.711   3.317  16.426 -2.6108 -2.6373 -0.7263
  613MPD2     N 9089   0.358   3.435  16.167  0.3486 -0.8118  0.9896
  613MPD2    H5 9090   0.348   3.344  16.123 -0.8694 -0.1949 -0.0120
  613MPD2    N1 9091   0.689   3.745  16.335 -0.4298 -0.5563 -0.2071
  613MPD2    H7 9092   0.780   3.753  16.381 -1.3591 -1.3824  1.7761
  614TMC3    C1 9093   0.708   3.978  16.313  1.0276 -0.3189  0.3328
  614TMC3    C2 9094   0.806   3.960  16.221  0.2886 -0.1021  0.8403
  614TMC3    C3 9095   0.807   4.036  16.109  0.4702 -0.3308 -0.9893
  614TMC3    C4 9096   0.626   4.084  16.310  1.4180  0.2775  0.3288
  614TMC3    C5 9097   0.641   4.178  16.208 -0.1162  0.1294  0.4607
  614TMC3    C6 9098   0.728   4.150  16.102  0.0041 -0.7359 -0.9797
  614TMC3     C 9099   0.618   3.864  16.316  0.0688 -0.0581  0.3588
  614TMC3     O 9100   0.507   3.873  16.260  0.3974  0.2165  0.1768
  614TMC3     H 9101   0.863   3.868  16.214  0.2058 -0.0971  0.0576
  614TMC3    H1 9102   0.541   4.084  16.378 -0.0698 -0.8139 -1.5292
  614TMC3    H2 9103   0.745   4.225  16.026  2.9493  3.0657  3.4407
  614TMC3    C7 9104   0.521   4.253  16.174 -0.3715 -0.0748 -0.2097
  614TMC3    C8 9105   0.800   3.966  15.981 -0.8450 -0.4193 -0.1525
  614TMC3    O1 9106   0.451   4.312  16.256 -0.1170  0.9253  0.6805
  614TMC3    O2 9107   0.796   3.844  15.993  0.4482  0.1218  0.2513
  615MPD2     C 9108   4.508   0.410  16.117  0.0224  0.6452 -0.2539
  615MPD2    C1 9109   4.483   0.530  16.053 -0.1065 -1.0289 -0.2334
  615MPD2    C2 9110   4.487   0.538  15.921 -0.2190  0.0458  0.4967
  615MPD2    C3 9111   4.517   0.420  15.852 -0.2415 -0.0083  0.0959
  615MPD2    C4 9112   4.551   0.305  15.915  0.0915 -0.3401  0.6581
  615MPD2    C5 9113   4.542   0.303  16.047  0.5847 -0.4025 -0.0919
  615MPD2     H 9114   4.465   0.628  15.865  0.5692 -0.6292 -0.9137
  615MPD2    H1 9115   4.553   0.212  15.860 -0.2396 -0.6138  1.1116
  615MPD2    H2 9116   4.491   0.406  16.224 -0.7330  1.3453 -0.3455
  615MPD2    H3 9117   4.564   0.206  16.089 -0.3846 -1.0881 -1.1755
  615MPD2     N 9118   4.514   0.430  15.715 -0.1477  0.6433  0.1146
  615MPD2    H5 9119   4.512   0.520  15.667  1.5004  1.2734  1.2445
  615MPD2    N1 9120   4.440   0.643  16.121  0.2356  0.3639 -0.9605
  615MPD2    H7 9121   4.398   0.718  16.066  0.0609  0.3575 -0.8372
  616TMC3    C1 9122   4.393   0.781  16.306  0.2673  0.0816  0.1284
  616TMC3    C2 9123   4.437   0.834  16.423 -0.3310 -0.4117 -0.0885
  616TMC3    C3 9124   4.357   0.921  16.490 -0.1041 -0.6248 -0.4022
  616TMC3    C4 9125   4.269   0.808  16.254 -0.7016  0.0517  0.0468
  616TMC3    C5 9126   4.195   0.897  16.323  0.4344 -0.4450 -0.0296
  616TMC3    C6 9127   4.231   0.958  16.442  1.0394  0.9387  0.2335
  616TMC3     C 9128   4.461   0.667  16.252  0.4002  0.0294 -0.1819
  616TMC3     O 9129   4.537   0.601  16.326  0.0411 -0.2319  0.3607
  616TMC3     H 9130   4.533   0.802  16.461  0.4420  0.3756 -1.3431
  616TMC3    H1 9131   4.231   0.742  16.177  1.0229  0.9523 -1.5881
  616TMC3    H2 9132   4.173   1.029  16.499 -1.6118 -0.5187 -0.6095
  616TMC3    C7 9133   4.063   0.922  16.262 -0.2293 -0.0748 -0.6167
  616TMC3    C8 9134   4.421   1.009  16.580  0.0961  0.2001 -0.0026
  616TMC3    O1 9135   3.976   0.949  16.347 -0.6580 -0.2537 -0.6206
  616TMC3    O2 9136   4.351   1.075  16.655 -0.2212 -0.1559 -0.3184
  617MPD2     C 9137   2.706   3.763  13.677 -0.3307  0.1562  0.1088
  617MPD2    C1 9138   2.703   3.678  13.789  0.6028  1.0235 -0.4213
  617MPD2    C2 9139   2.588   3.645  13.852  0.7239 -0.2854 -0.3226
  617MPD2    C3 9140   2.467   3.690  13.802  0.4058  0.7664 -0.0380
  617MPD2    C4 9141   2.467   3.768  13.691  0.1662 -0.3997  1.4193
  617MPD2    C5 9142   2.585   3.802  13.624 -0.1281 -0.0417 -0.2911
  617MPD2     H 9143   2.582   3.577  13.936 -0.3132 -0.4305 -0.5134
  617MPD2    H1 9144   2.375   3.794  13.641  1.2080 -0.0349 -0.2967
  617MPD2    H2 9145   2.799   3.794  13.631 -0.9442  1.4125 -0.2791
  617MPD2    H3 9146   2.589   3.861  13.533 -1.1138 -3.0838 -2.3025
  617MPD2     N 9147   2.344   3.645  13.853  1.0919 -0.1278  0.2624
  617MPD2    H5 9148   2.256   3.668  13.806  3.0479 -0.5140 -3.5429
  617MPD2    N1 9149   2.824   3.636  13.840 -0.1640 -0.2979  0.5477
  617MPD2    H7 9150   2.910   3.676  13.804  0.2257 -0.5039  1.2587
  618TMC3    C1 9151   2.965   3.512  13.954 -0.4552  0.1316 -0.3394
  618TMC3    C2 9152   3.032   3.389  13.946 -0.0944 -0.3773 -0.0085
  618TMC3    C3 9153   3.172   3.391  13.950  0.3190  0.6520  0.1341
  618TMC3    C4 9154   3.041   3.629  13.952  0.5556 -0.0301 -0.3992
  618TMC3    C5 9155   3.174   3.628  13.949  0.4100 -0.3339 -0.4548
  618TMC3    C6 9156   3.241   3.508  13.961 -0.1123 -0.1512 -1.1017
  618TMC3     C 9157   2.835   3.516  13.906 -0.4069 -0.6769  0.8493
  618TMC3     O 9158   2.766   3.418  13.913  0.7051  0.1083 -0.4267
  618TMC3     H 9159   2.974   3.299  13.929  0.5767 -0.6674 -0.7838
  618TMC3    H1 9160   2.988   3.722  13.969  0.0991 -0.5010  0.7661
  618TMC3    H2 9161   3.340   3.506  14.003  0.9596 -0.8427 -3.6877
  618TMC3    C7 9162   3.193   3.672  13.812 -0.0476 -0.2822  0.2953
  618TMC3    C8 9163   3.239   3.272  13.902 -0.6196  0.4588  0.2115
  618TMC3    O1 9164   3.092   3.719  13.760  0.4252 -0.2514  0.1578
  618TMC3    O2 9165   3.188   3.165  13.919  0.1087  0.4698  0.3739
  619MPD2     C 9166   0.096   0.159  13.853 -0.4907 -0.6452  0.0453
  619MPD2    C1 9167   0.021   0.129  13.739 -0.0527 -0.3807  0.4610
  619MPD2    C2 9168   4.623   0.069  13.767  0.7178  0.4499  0.1069
  619MPD2    C3 9169   4.562   0.074  13.891 -0.2629  0.1282 -0.0387
  619MPD2    C4 9170   4.636   0.117  14.001 -0.5674  0.1156 -0.0016
  619MPD2    C5 9171   0.041   0.147  13.975 -0.1990  0.3394 -0.2445
  619MPD2     H 9172   4.559   0.029  13.689 -1.0364 -1.2956  2.4150
  619MPD2    H1 9173   4.600   0.120  14.103 -0.3098 -1.0429  0.1310
  619MPD2    H2 9174   0.187   0.218  13.845 -0.5459 -0.1833  2.9540
  619MPD2    H3 9175   0.104   0.172  14.060  0.0385 -2.1947  0.3239
  619MPD2     N 9176   4.427   0.049  13.920 -0.1802  0.3514 -0.1494
  619MPD2    H5 9177   4.390   0.091  14.004 -1.5746  0.6274 -0.8861
  619MPD2    N1 9178   0.058   0.142  13.604  0.2325 -0.2688  0.7439
  619MPD2    H7 9179   4.702   0.130  13.543 -0.0014  1.8607  0.6422
  620TMC3    C1 9180   0.169   0.275  13.442  0.7138 -0.6509 -0.1811
  620TMC3    C2 9181   0.080   0.239  13.344 -0.6643  0.1305  0.0471
  620TMC3    C3 9182   0.090   0.294  13.223 -0.5977  0.0863  0.6071
  620TMC3    C4 9183   0.260   0.379  13.418  0.3098 -0.2304 -0.2594
  620TMC3    C5 9184   0.275   0.429  13.291 -1.2758  0.0786  0.8350
  620TMC3    C6 9185   0.188   0.388  13.199 -0.2570 -0.8011  0.1518
  620TMC3     C 9186   0.182   0.193  13.564 -0.0044  0.1666 -0.1949
  620TMC3     O 9187   0.284   0.210  13.630  0.4709 -0.1064  0.5018
  620TMC3     H 9188   0.009   0.159  13.357 -0.5725 -0.2337 -1.7024
  620TMC3    H1 9189   0.313   0.416  13.505  0.1833 -1.1630  0.2086
  620TMC3    H2 9190   0.197   0.437  13.103 -2.3206  1.4177  1.0873
  620TMC3    C7 9191   0.281   0.574  13.290  0.6373 -0.3767 -0.3155
  620TMC3    C8 9192   4.694   0.356  13.187  0.8123 -0.2701  0.2733
  620TMC3    O1 9193   0.386   0.628  13.323 -0.6619  0.1706 -0.1041
  620TMC3    O2 9194   4.688   0.476  13.209  0.0830 -0.0511 -0.1866
  621MPD2     C 9195   0.608   4.629  10.610 -0.8676 -0.1790  0.1099
  621MPD2    C1 9196   0.492   4.639  10.549 -0.1262 -0.0876 -0.1402
  621MPD2    C2 9197   0.462   0.028  10.479 -0.6762 -0.2329 -0.0742
  621MPD2    C3 9198   0.553   0.124  10.464 -0.5499 -0.8584  0.0635
  621MPD2    C4 9199   0.675   0.114  10.520 -0.5037 -0.4868 -0.5308
  621MPD2    C5 9200   0.699   0.005  10.599 -0.2408 -0.0816  0.0149
  621MPD2     H 9201   0.364   0.040  10.436  0.0626 -1.0626 -1.9950
  621MPD2    H1 9202   0.750   0.191  10.526  0.9073 -1.9235  0.3638
  621MPD2    H2 9203   0.644   4.546  10.671  2.2063  2.0425  1.3376
  621MPD2    H3 9204   0.789   4.722  10.659 -1.2645 -0.0749  1.5680
  621MPD2     N 9205   0.507   0.237  10.397 -0.0351 -0.8012 -0.0544
  621MPD2    H5 9206   0.411   0.219  10.367 -0.4572  1.0332  0.1953
  621MPD2    N1 9207   0.402   4.528  10.535  0.2845 -0.4482  0.5544
  621MPD2    H7 9208   0.320   4.532  10.475  0.0926  1.7486  0.9806
  622TMC3    C1 9209   0.337   4.301  10.544  0.3038  0.3936 -0.7870
  622TMC3    C2 9210   0.213   4.328  10.494 -0.1163 -0.5234  0.0136
  622TMC3    C3 9211   0.161   4.243  10.399  0.2072 -0.2979  0.7879
  622TMC3    C4 9212   0.397   4.178  10.508  0.4701 -0.0254 -0.3525
  622TMC3    C5 9213   0.334   4.088  10.429 -0.4839 -0.0268 -0.0594
  622TMC3    C6 9214   0.222   4.122  10.374 -0.0037  0.8438  0.7429
  622TMC3     C 9215   0.429   4.402  10.593 -0.0611  0.6975  0.7086
  622TMC3     O 9216   0.522   4.369  10.665 -0.1922 -0.0958  0.2252
  622TMC3     H 9217   0.156   4.409  10.537 -1.1023 -1.8035  1.1179
  622TMC3    H1 9218   0.485   4.143  10.561  0.9211 -1.3214 -1.9268
  622TMC3    H2 9219   0.186   4.049  10.302 -0.3175  1.1189  0.6204
  622TMC3    C7 9220   0.366   3.947  10.458  0.1834 -0.1294  0.3614
  622TMC3    C8 9221   0.018   4.241  10.356 -0.1108  0.2896  0.4299
  622TMC3    O1 9222   0.422   3.923  10.567  0.1274  0.3380 -0.2148
  622TMC3    O2 9223   4.696   4.130  10.353 -0.2264 -0.0397 -0.3374
  623MPD2     C 9224   3.051   0.798  16.105 -0.4501  0.1768  0.0931
  623MPD2    C1 9225   3.041   0.865  16.215  0.0601  0.4596 -0.4360
  623MPD2    C2 9226   3.156   0.862  16.294 -1.0864  0.4053 -0.2036
  623MPD2    C3 9227   3.269   0.793  16.263  0.3115  0.2308 -0.1197
  623MPD2    C4 9228   3.262   0.723  16.147  0.2427  0.1782 -0.0057
  623MPD2    C5 9229   3.156   0.726  16.066  0.0909 -0.3888 -0.0396
  623MPD2     H 9230   3.169   0.908  16.392  1.8464  1.9606 -1.3306
  623MPD2    H1 9231   3.346   0.660  16.120 -0.1664  0.3690 -1.7388
  623MPD2    H2 9232   2.968   0.791  16.035 -0.8620  1.8274  0.4171
  623MPD2    H3 9233   3.153   0.675  15.971 -1.7959 -3.6769  1.7969
  623MPD2     N 9234   3.375   0.794  16.351  0.3348 -0.2465 -0.3214
  623MPD2    H5 9235   3.359   0.834  16.443  0.2953 -1.6302  0.2595
  623MPD2    N1 9236   2.920   0.937  16.243 -0.1473 -0.5712 -0.0634
  623MPD2    H7 9237   2.843   0.925  16.177 -1.3178 -2.5599  1.6832
  624TMC3    C1 9238   3.730   0.834  16.572 -0.1823  0.6208 -0.3211
  624TMC3    C2 9239   3.639   0.866  16.665  0.3280  0.1065 -0.6225
  624TMC3    C3 9240   3.516   0.806  16.665 -0.1543  0.4767 -0.0440
  624TMC3    C4 9241   3.692   0.769  16.454 -0.3268  0.2202 -0.5418
  624TMC3    C5 9242   3.566   0.727  16.449  0.7034 -0.0736  0.2543
  624TMC3    C6 9243   3.486   0.730  16.555 -0.1356  0.6567 -0.1681
  624TMC3     C 9244   3.860   0.798  16.620 -0.1954  0.4083  0.0006
  624TMC3     O 9245   3.877   0.821  16.740 -0.0202  0.3043  0.5287
  624TMC3     H 9246   3.663   0.943  16.738 -3.1443  0.5967  0.0128
  624TMC3    H1 9247   3.754   0.765  16.365  0.9245  1.5313  0.2480
  624TMC3    H2 9248   3.392   0.676  16.560 -0.4453  1.1832 -0.2772
  624TMC3    C7 9249   3.496   0.743  16.327 -0.0922 -0.1498 -1.0631
  624TMC3    C8 9250   3.401   0.886  16.694 -0.1067 -0.1062  0.3488
  624TMC3    O1 9251   3.563   0.744  16.222 -0.1397 -0.0581 -0.0551
  624TMC3    O2 9252   3.316   0.881  16.607  0.4573  0.5169 -0.3150
  625MPD2     C 9253   3.653   2.749   0.883 -0.5013  0.4929 -0.6328
  625MPD2    C1 9254   3.709   2.853   0.809  0.6252 -0.5071 -0.1257
  625MPD2    C2 9255   3.837   2.888   0.830 -0.4147 -0.1823 -0.2042
  625MPD2    C3 9256   3.922   2.800   0.895 -0.8181  0.0456  0.2052
  625MPD2    C4 9257   3.873   2.697   0.971 -0.2376 -0.1872 -0.4992
  625MPD2    C5 9258   3.734   2.679   0.970 -0.2539 -0.1264  0.4582
  625MPD2     H 9259   3.885   2.972   0.782  0.5613 -0.5100  0.1866
  625MPD2    H1 9260   3.930   2.615   1.014 -0.4666 -0.1887 -0.2005
  625MPD2    H2 9261   3.554   2.708   0.864  0.1556 -1.5361  0.2880
  625MPD2    H3 9262   3.695   2.609   1.041  0.1614 -0.0478  0.7654
  625MPD2     N 9263   4.060   2.823   0.896  0.1989 -0.1587  0.2580
  625MPD2    H5 9264   4.092   2.898   0.835 -0.4895  0.9751  1.2922
  625MPD2    N1 9265   3.635   2.927   0.715 -0.2785  0.1879  0.2281
  625MPD2    H7 9266   3.681   2.998   0.658  0.4352 -0.2964  0.2015
  626TMC3    C1 9267   3.449   3.035   0.618  0.8064 -0.3571  0.2675
  626TMC3    C2 9268   3.486   3.019   0.487  0.3727 -0.1723 -0.4726
  626TMC3    C3 9269   3.393   3.053   0.388 -0.1381  0.1327  0.4663
  626TMC3    C4 9270   3.327   3.087   0.650  0.0287  0.4212  0.3583
  626TMC3    C5 9271   3.240   3.116   0.549  0.1104 -0.2268 -1.0440
  626TMC3    C6 9272   3.268   3.096   0.424 -0.1701  0.2363 -0.0331
  626TMC3     C 9273   3.497   2.940   0.714  0.4957  0.4604 -0.3421
  626TMC3     O 9274   3.422   2.909   0.802 -0.6555  0.0843 -0.4085
  626TMC3     H 9275   3.576   2.971   0.451  1.0323 -1.4769  2.8654
  626TMC3    H1 9276   3.301   3.106   0.753  0.1296  0.8540  0.3060
  626TMC3    H2 9277   3.199   3.116   0.343 -1.4603  2.9134  1.6987
  626TMC3    C7 9278   3.099   3.117   0.595 -0.0033 -0.5252  0.1251
  626TMC3    C8 9279   3.411   2.992   0.256 -0.8979  0.6023  0.1519
  626TMC3    O1 9280   3.083   3.186   0.697  0.3021 -0.0210 -0.2334
  626TMC3    O2 9281   3.422   3.061   0.154 -0.1562  0.3347  0.4330
  627MPD2     C 9282   2.437   2.508  14.101 -0.0667 -0.1049 -0.3286
  627MPD2    C1 9283   2.384   2.541  14.224 -0.6967 -0.6751  0.2878
  627MPD2    C2 9284   2.276   2.470  14.275  0.3032  0.1723  0.2831
  627MPD2    C3 9285   2.222   2.364  14.212 -0.2080  0.6103  0.3452
  627MPD2    C4 9286   2.275   2.332  14.092 -0.3285  0.6131  0.4794
  627MPD2    C5 9287   2.373   2.411  14.035 -0.0832  0.2548  0.6347
  627MPD2     H 9288   2.236   2.478  14.376 -1.4207 -0.8993 -0.3166
  627MPD2    H1 9289   2.233   2.260  14.022  3.0984 -0.8639 -0.0400
  627MPD2    H2 9290   2.518   2.563  14.056  0.5593  0.4076  1.4292
  627MPD2    H3 9291   2.405   2.391  13.934 -0.2000 -2.2557  1.0877
  627MPD2     N 9292   2.115   2.299  14.278  0.1297 -0.5400 -0.5761
  627MPD2    H5 9293   2.070   2.347  14.356 -0.2686  1.7593 -2.2383
  627MPD2    N1 9294   2.448   2.644  14.292  0.5023  0.2188  0.5410
  627MPD2    H7 9295   2.517   2.690  14.232 -1.5607  1.5399 -0.8114
  628TMC3    C1 9296   2.519   2.783  14.461 -0.3618  0.0297  0.0739
  628TMC3    C2 9297   2.639   2.747  14.479 -0.0628  1.1234 -0.5731
  628TMC3    C3 9298   2.721   2.803  14.571  0.1408 -0.2882 -0.6129
  628TMC3    C4 9299   2.459   2.871  14.547 -0.6461 -0.3934 -0.0081
  628TMC3    C5 9300   2.534   2.942  14.640 -0.9494 -0.6558 -0.0542
  628TMC3    C6 9301   2.668   2.909  14.647  0.3311 -0.6619  0.1018
  628TMC3     C 9302   2.424   2.687  14.417  0.0292 -0.1299 -0.8981
  628TMC3     O 9303   2.333   2.654  14.488 -0.6243  0.1143 -0.3561
  628TMC3     H 9304   2.671   2.660  14.423 -0.1831  1.5713 -1.3462
  628TMC3    H1 9305   2.353   2.892  14.542 -0.2266  1.8505  0.2664
  628TMC3    H2 9306   2.740   2.980  14.687  0.0126 -0.9866  1.2509
  628TMC3    C7 9307   2.506   3.080  14.667 -0.1541 -0.1599  0.4430
  628TMC3    C8 9308   2.867   2.791  14.563 -0.4183  0.0247 -0.2774
  628TMC3    O1 9309   2.581   3.139  14.744  0.7132  0.1174  0.3582
  628TMC3    O2 9310   2.934   2.891  14.596  0.0365 -0.2494  0.2898
  629MPD2     C 9311   0.074   1.343  16.668 -0.4689  0.1419 -0.4483
  629MPD2    C1 9312   0.115   1.252  16.575  0.3823 -0.6807  0.3676
  629MPD2    C2 9313   0.033   1.146  16.545  0.7249 -0.4918 -0.6987
  629MPD2    C3 9314   4.626   1.137  16.590  0.2846 -1.0942  0.4572
  629MPD2    C4 9315   4.598   1.223  16.694  0.2413  0.3593  0.0232
  629MPD2    C5 9316   4.681   1.327  16.734  0.0459  0.2860 -0.8119
  629MPD2     H 9317   0.049   1.090  16.454 -1.4909 -1.4037 -0.5320
  629MPD2    H1 9318   4.504   1.232  16.749  1.1834  2.3459  1.2957
  629MPD2    H2 9319   0.134   1.424  16.707 -0.7245  0.1679 -0.1089
  629MPD2    H3 9320   4.647   1.398  16.808  1.1382 -0.2587  0.2102
  629MPD2     N 9321   4.546   1.032  16.543  0.2122 -0.2424 -0.1621
  629MPD2    H5 9322   4.583   0.985  16.461 -0.9720 -3.2410  1.0210
  629MPD2    N1 9323   0.242   1.256  16.524  0.0912  0.5461  0.1039
  629MPD2    H7 9324   0.293   1.342  16.542  0.2338  0.0332  2.1874
  630TMC3    C1 9325   0.447   1.199  16.440  0.0504  0.2026 -0.4523
  630TMC3    C2 9326   0.479   1.329  16.431 -0.2294  0.6689  0.5894
  630TMC3    C3 9327   0.609   1.364  16.440 -0.6375 -0.0022 -0.0110
  630TMC3    C4 9328   0.541   1.095  16.438  0.3167 -0.5523  0.4518
  630TMC3    C5 9329   0.675   1.130  16.447 -0.7707  0.9028  0.7637
  630TMC3    C6 9330   0.708   1.264  16.445 -0.5030 -0.2173  0.2072
  630TMC3     C 9331   0.307   1.157  16.465 -0.2700 -0.6172 -0.0984
  630TMC3     O 9332   0.281   1.036  16.457 -0.2372  0.0282 -0.3295
  630TMC3     H 9333   0.410   1.412  16.440 -0.9538  0.1361 -0.0239
  630TMC3    H1 9334   0.510   0.992  16.450  1.1737 -0.8024  0.4713
  630TMC3    H2 9335   0.814   1.280  16.456 -0.8033  1.3252  0.9599
  630TMC3    C7 9336   0.775   1.046  16.510  0.4288 -0.1557  0.0757
  630TMC3    C8 9337   0.640   1.487  16.519  0.0904  0.2154  0.0723
  630TMC3    O1 9338   0.882   1.094  16.542 -0.1675 -0.7884 -0.0127
  630TMC3    O2 9339   0.747   1.473  16.574 -0.7986  0.0434  0.5837
  631MPD2     C 9340   3.847   0.583  15.430 -0.1244 -0.0970  0.6660
  631MPD2    C1 9341   3.922   0.661  15.343  0.3407  0.3828  0.0992
  631MPD2    C2 9342   4.056   0.616  15.325  0.5315  0.1497 -0.4350
  631MPD2    C3 9343   4.108   0.508  15.395  0.0446  0.6558  0.4336
  631MPD2    C4 9344   4.034   0.448  15.490  0.4921 -0.2242  0.3066
  631MPD2    C5 9345   3.906   0.485  15.503 -0.3568 -0.3179  0.0468
  631MPD2     H 9346   4.113   0.669  15.249  0.1769  1.1383  0.0005
  631MPD2    H1 9347   4.077   0.355  15.524 -0.8675 -1.5226 -1.5531
  631MPD2    H2 9348   3.751   0.621  15.462  0.3179  1.9115 -0.3744
  631MPD2    H3 9349   3.847   0.423  15.570  0.6089 -0.5665  0.6698
  631MPD2     N 9350   4.238   0.461  15.386 -0.8843 -0.2126  0.4973
  631MPD2    H5 9351   4.278   0.413  15.467  0.2656  1.0713  0.6988
  631MPD2    N1 9352   3.860   0.768  15.277 -0.4339  0.5195  0.3314
  631MPD2    H7 9353   3.761   0.778  15.295 -0.8353 -3.4605  0.4867
  632TMC3    C1 9354   3.817   0.948  15.117  0.4855  0.4701  0.2397
  632TMC3    C2 9355   3.707   0.984  15.190 -0.0156 -0.4697 -0.2731
  632TMC3    C3 9356   3.622   1.066  15.125  0.6621  0.1470 -0.3159
  632TMC3    C4 9357   3.849   0.996  14.993 -0.4407 -0.4038  0.5663
  632TMC3    C5 9358   3.760   1.084  14.941 -0.4904 -0.4317  0.1831
  632TMC3    C6 9359   3.643   1.115  14.999 -0.1593 -0.2189 -0.2864
  632TMC3     C 9360   3.908   0.847  15.172  0.6506  0.6903  0.5229
  632TMC3     O 9361   4.008   0.817  15.106 -0.0536 -0.0360  0.4939
  632TMC3     H 9362   3.685   0.947  15.290 -2.3815 -1.4638 -1.1474
  632TMC3    H1 9363   3.930   0.957  14.933 -2.1445  1.6422 -3.0457
  632TMC3    H2 9364   3.591   1.195  14.948 -0.0439 -0.3217 -0.5646
  632TMC3    C7 9365   3.815   1.165  14.834  0.1224 -0.7008  0.0556
  632TMC3    C8 9366   3.508   1.103  15.200  0.7018 -0.0985  0.5452
  632TMC3    O1 9367   3.730   1.236  14.780 -0.1126 -0.5661 -0.2085
  632TMC3    O2 9368   3.519   1.112  15.322 -0.2835  0.1229 -0.1304
  633MPD2     C 9369   2.965   3.491  17.197 -0.7386 -0.1333  0.6641
  633MPD2    C1 9370   3.056   3.487  17.096 -0.1569 -0.6906  0.0199
  633MPD2    C2 9371   3.151   3.387  17.089  0.1853 -0.3318 -0.0138
  633MPD2    C3 9372   3.152   3.282  17.178 -0.1583  0.5541 -0.2544
  633MPD2    C4 9373   3.060   3.284  17.278  0.2373  0.3934  0.6848
  633MPD2    C5 9374   2.963   3.384  17.286  0.2582  0.6185  0.7538
  633MPD2     H 9375   3.227   3.394  17.012  0.1529 -0.5215 -0.0621
  633MPD2    H1 9376   3.054   3.206  17.353 -0.7964  0.0727  0.2659
  633MPD2    H2 9377   2.896   3.574  17.208 -0.5050 -0.0366  1.3677
  633MPD2    H3 9378   2.885   3.390  17.362 -0.3350  2.7647 -0.0268
  633MPD2     N 9379   3.243   3.178  17.184 -0.5204  0.0574 -0.0236
  633MPD2    H5 9380   3.244   3.119  17.267 -2.8155  2.6920  1.8632
  633MPD2    N1 9381   3.059   3.578  16.992 -0.3401  0.8306 -0.4153
  633MPD2    H7 9382   3.123   3.563  16.914 -1.1034  0.5365 -0.9914
  634TMC3    C1 9383   2.999   3.746  16.850 -0.1529 -0.0114  0.2065
  634TMC3    C2 9384   3.028   3.663  16.742  0.0350  1.1491 -0.0949
  634TMC3    C3 9385   3.068   3.724  16.628  0.3763  0.2449  0.4374
  634TMC3    C4 9386   3.022   3.878  16.860 -0.2218 -0.2230  0.0035
  634TMC3    C5 9387   3.079   3.935  16.751  0.4642 -0.3093 -0.6061
  634TMC3    C6 9388   3.085   3.864  16.629 -0.8486 -0.0657 -0.5130
  634TMC3     C 9389   2.967   3.681  16.975 -0.6139 -0.3614 -0.5589
  634TMC3     O 9390   2.877   3.727  17.048 -0.4937  0.0216 -0.2817
  634TMC3     H 9391   3.028   3.555  16.747 -1.8498  1.2137  0.9744
  634TMC3    H1 9392   2.998   3.927  16.953  1.5037  0.0947  0.2713
  634TMC3    H2 9393   3.121   3.923  16.545  0.4572 -3.3598 -2.2590
  634TMC3    C7 9394   3.097   4.080  16.739  1.0410  0.1817  0.6605
  634TMC3    C8 9395   3.127   3.648  16.515 -0.2340 -0.5292 -0.1950
  634TMC3    O1 9396   3.141   4.126  16.637  0.4446  0.2215  0.4156
  634TMC3    O2 9397   3.201   3.557  16.549 -0.3605 -0.4540  0.3901
  635TMC3    C1 9398   4.187   0.656   0.144 -0.0393  0.2351 -0.2294
  635TMC3    C2 9399   4.288   0.652   0.055 -0.3845  0.7269  0.1576
  635TMC3    C3 9400   4.291   0.558  17.652 -0.3573  0.9498  0.9168
  635TMC3    C4 9401   4.086   0.564   0.138  0.0905 -0.5252 -0.2307
  635TMC3    C5 9402   4.099   0.457   0.048 -0.7190  0.6884  0.5524
  635TMC3    C6 9403   4.194   0.461  17.647 -0.0034 -0.0058 -0.3797
  635TMC3     C 9404   4.152   0.775   0.220 -0.2431  0.2002  0.6897
  635TMC3     O 9405   4.044   0.778   0.273  0.1520  0.3264  0.0901
  635TMC3     H 9406   4.363   0.727   0.031  0.4138  0.1852  0.9335
  635TMC3    H1 9407   4.004   0.562   0.209 -2.5713 -0.9385 -3.3347
  635TMC3    H2 9408   4.205   0.385  17.570 -2.5677  0.5617 -1.2946
  635TMC3    C7 9409   3.972   0.391   0.007  0.5935 -0.6385  1.0073
  635TMC3    C8 9410   4.418   0.515  17.607  0.0770 -0.3933  0.3954
  635TMC3    O1 9411   3.880   0.401   0.086  0.2123  0.4637  0.2311
  635TMC3    O2 9412   4.428   0.393  17.602 -0.5476 -0.2070 -0.2808
  636MPD2     C 9413   4.566   4.103  15.473 -0.8985 -0.1508 -0.1749
  636MPD2    C1 9414   4.599   4.109  15.609 -0.2796  0.2571  0.1793
  636MPD2    C2 9415   4.635   3.994  15.675 -0.6973 -0.1873  0.0227
  636MPD2    C3 9416   4.638   3.872  15.614  0.3187 -0.2458 -1.0848
  636MPD2    C4 9417   4.606   3.868  15.479  0.4767 -0.0811  0.2796
  636MPD2    C5 9418   4.571   3.977  15.407 -0.7033 -0.1861  0.7894
  636MPD2     H 9419   4.658   4.004  15.781  0.3667  0.0916 -0.2370
  636MPD2    H1 9420   4.600   3.774  15.424 -1.4124  2.1445 -3.3170
  636MPD2    H2 9421   4.525   4.187  15.419 -2.3920 -0.3643  0.6316
  636MPD2    H3 9422   4.522   3.965  15.310 -1.0904 -2.1895  1.2284
  636MPD2     N 9423   4.692   3.755  15.674  0.1718 -0.4058  1.2151
  636MPD2    H5 9424   4.714   3.685  15.604  2.4939  0.3354  1.2092
  636MPD2    N1 9425   4.577   4.224  15.681 -0.6436  0.2573  0.5427
  636MPD2    H7 9426   4.573   4.203  15.781 -3.0917 -1.6500  0.0425
  637TMC3    C1 9427   0.105   3.640  15.830  0.4482 -0.0729  0.3151
  637TMC3    C2 9428   0.121   3.610  15.968 -0.2269  0.3026  0.1032
  637TMC3    C3 9429   0.219   3.523  15.997 -0.1777 -0.0423  0.3570
  637TMC3    C4 9430   0.195   3.615  15.735 -0.7549 -0.0500  0.2024
  637TMC3    C5 9431   0.310   3.556  15.775 -0.0933  0.0565  0.5151
  637TMC3    C6 9432   0.304   3.496  15.898 -0.1362  0.0049  0.0081
  637TMC3     C 9433   0.009   3.752  15.804 -0.7229 -0.4970  0.0369
  637TMC3     O 9434   4.696   3.816  15.904 -0.0065  0.2790  0.3739
  637TMC3     H 9435   0.045   3.637  16.041 -0.5651  0.6379 -0.3711
  637TMC3    H1 9436   0.202   3.660  15.636  0.2710 -1.2054 -0.2568
  637TMC3    H2 9437   0.391   3.437  15.923  0.3766  0.0917 -1.5484
  637TMC3    C7 9438   0.416   3.655  15.784 -0.2472 -0.0406 -0.1391
  637TMC3    C8 9439   0.276   3.544  16.123  0.7162  0.7491  0.0070
  637TMC3    O1 9440   0.478   3.650  15.887  0.1944  0.1309  0.1138
  637TMC3    O2 9441   0.252   3.655  16.178 -0.2591  0.3696  0.0939
  638MPD2     C 9442   4.617   3.243  15.002 -0.0741 -0.2373  0.1042
  638MPD2    C1 9443   4.661   3.131  14.931  0.1826 -0.2610  0.3204
  638MPD2    C2 9444   4.645   3.011  14.994 -0.2622 -0.2805  0.6514
  638MPD2    C3 9445   4.571   2.993  15.113 -0.1422 -0.5976 -0.5864
  638MPD2    C4 9446   4.520   3.101  15.176 -0.5593 -0.6571  0.1198
  638MPD2    C5 9447   4.542   3.226  15.113 -0.7925  0.2628 -0.3001
  638MPD2     H 9448   4.703   2.925  14.961 -0.8088 -1.0612  1.7076
  638MPD2    H1 9449   4.455   3.094  15.262 -0.6405 -2.0529 -0.0646
  638MPD2    H2 9450   4.626   3.345  14.965  1.6820 -1.0172 -1.5936
  638MPD2    H3 9451   4.511   3.312  15.171 -0.1159  0.0486  0.3799
  638MPD2     N 9452   4.565   2.862  15.163 -0.4775 -0.1165 -0.2680
  638MPD2    H5 9453   4.621   2.794  15.114 -1.3650  0.0419 -1.4870
  638MPD2    N1 9454   0.001   3.149  14.805 -0.3156 -0.3704 -1.0459
  638MPD2    H7 9455   0.003   3.242  14.762  2.5670  0.4428  0.8828
  639TMC3    C1 9456   4.493   2.678  15.267 -0.2980 -0.8325 -0.2954
  639TMC3    C2 9457   4.376   2.599  15.270  0.1520  0.2742  0.7102
  639TMC3    C3 9458   4.393   2.461  15.270  0.3424 -0.0130 -0.0019
  639TMC3    C4 9459   4.618   2.623  15.284  0.4776 -0.2939  0.4179
  639TMC3    C5 9460   4.635   2.487  15.295 -1.0396  0.0236 -0.3316
  639TMC3    C6 9461   4.519   2.408  15.285 -0.4628  0.4207  0.4775
  639TMC3     C 9462   4.469   2.814  15.248 -0.1102  0.0935 -0.0744
  639TMC3     O 9463   4.361   2.862  15.278  0.1804  0.4406  0.0018
  639TMC3     H 9464   4.281   2.651  15.278 -0.6765 -1.1359  0.1273
  639TMC3    H1 9465   4.702   2.690  15.267 -1.2702  2.0454  0.9332
  639TMC3    H2 9466   4.535   2.301  15.275 -0.3661  0.3934  0.9224
  639TMC3    C7 9467   0.038   2.430  15.258 -0.1735 -0.6957 -0.1218
  639TMC3    C8 9468   4.304   2.378  15.199  0.1618 -0.0791 -0.8961
  639TMC3    O1 9469   0.027   2.332  15.188 -0.0139  0.1730 -0.0863
  639TMC3    O2 9470   4.359   2.277  15.153  0.1076  0.5943 -0.4000
  640MPD2     C 9471   1.034   1.505   9.718  0.0965  0.7694  0.2668
  640MPD2    C1 9472   0.900   1.464   9.687  0.0110  0.5391  0.2319
  640MPD2    C2 9473   0.791   1.547   9.724  0.2275 -0.1125 -0.7169
  640MPD2    C3 9474   0.813   1.648   9.815  0.1560 -0.0306  0.0405
  640MPD2    C4 9475   0.944   1.690   9.841  0.5135  0.4287  0.9763
  640MPD2    C5 9476   1.044   1.619   9.787  0.0449 -0.0004 -0.8692
  640MPD2     H 9477   0.690   1.514   9.705  0.4093 -0.4714 -1.0522
  640MPD2    H1 9478   0.976   1.771   9.905  1.1354  1.2976 -0.4287
  640MPD2    H2 9479   1.123   1.452   9.684 -2.1923 -2.2661 -0.9742
  640MPD2    H3 9480   1.146   1.646   9.814 -0.2160  0.8176 -0.7059
  640MPD2     N 9481   0.708   1.723   9.877 -0.9954 -0.4797  0.4445
  640MPD2    H5 9482   0.734   1.796   9.943  0.4320 -1.8549  1.4231
  640MPD2    N1 9483   0.882   1.348   9.617 -0.2279  0.3112  0.0036
  640MPD2    H7 9484   0.969   1.302   9.592 -0.8879 -0.2025 -1.3429
  641TMC3    C1 9485   0.776   1.166   9.502 -0.2587  0.6119 -0.3498
  641TMC3    C2 9486   0.891   1.098   9.532 -0.3435 -0.8163  0.2452
  641TMC3    C3 9487   0.933   1.018   9.427  0.6215 -0.3315  0.4569
  641TMC3    C4 9488   0.705   1.148   9.386 -0.3349 -0.1481 -0.0152
  641TMC3    C5 9489   0.748   1.064   9.288 -0.0366  0.3389  0.2061
  641TMC3    C6 9490   0.869   0.995   9.310  0.7733 -0.2115 -0.0292
  641TMC3     C 9491   0.764   1.294   9.567  0.8195  0.2583 -0.9657
  641TMC3     O 9492   0.654   1.341   9.560 -0.0822 -0.2517 -0.0309
  641TMC3     H 9493   0.930   1.099   9.633 -0.3904  2.0888  0.2421
  641TMC3    H1 9494   0.614   1.205   9.376  0.8696  1.9617  0.9806
  641TMC3    H2 9495   0.909   0.914   9.251  0.1514 -0.5440  0.0060
  641TMC3    C7 9496   0.647   1.008   9.194 -0.1093  0.3629  0.6022
  641TMC3    C8 9497   1.016   0.910   9.477 -0.1442  0.4132 -0.2954
  641TMC3    O1 9498   0.537   1.052   9.209 -0.1942 -0.4371  0.4028
  641TMC3    O2 9499   0.993   0.802   9.427  0.3822 -1.1170 -0.2672
  642TMC3    C1 9500   1.843   3.254  12.007  0.0356  0.8178  0.0215
  642TMC3    C2 9501   1.973   3.249  12.051 -0.6660  0.4182  0.2633
  642TMC3    C3 9502   2.018   3.129  12.106  0.1527 -0.2867 -0.3388
  642TMC3    C4 9503   1.746   3.155  12.033  0.2683 -0.1869 -0.0423
  642TMC3    C5 9504   1.801   3.037  12.080  0.4036  0.4920  0.0927
  642TMC3    C6 9505   1.934   3.018  12.119  0.2174 -0.0008 -0.5330
  642TMC3     C 9506   1.799   3.388  11.987  0.1991 -0.0466  0.8974
  642TMC3     O 9507   1.864   3.457  11.909 -0.2431 -0.2306  0.0331
  642TMC3     H 9508   2.043   3.330  12.040 -1.7504  1.3574  0.2633
  642TMC3    H1 9509   1.644   3.165  11.997  0.5270 -2.1133 -1.3287
  642TMC3    H2 9510   1.971   2.919  12.143  2.4607  0.9143 -0.2018
  642TMC3    C7 9511   1.710   2.924  12.081  0.0881 -0.5263 -0.4270
  642TMC3    C8 9512   2.140   3.117  12.194  0.5875 -0.3470 -0.0875
  642TMC3    O1 9513   1.757   2.810  12.065  0.6188  0.1773  0.0888
  642TMC3    O2 9514   2.185   3.008  12.211  0.5036  0.2128  0.0777
  643TMC3    C1 9515   0.300   2.058   0.558  0.2374  0.7354  0.2445
  643TMC3    C2 9516   0.216   2.051   0.453  0.0500 -0.6609 -0.1982
  643TMC3    C3 9517   0.250   1.967   0.348 -0.5523  0.1192  0.6682
  643TMC3    C4 9518   0.424   2.001   0.552 -0.1878 -0.9737  0.0589
  643TMC3    C5 9519   0.466   1.936   0.439  0.2711  0.0482  0.0664
  643TMC3    C6 9520   0.374   1.911   0.340 -0.8131  0.3558 -0.1540
  643TMC3     C 9521   0.288   2.184   0.624 -0.7311  0.0003  0.3508
  643TMC3     O 9522   0.183   2.243   0.610  0.0893  0.7064  0.5947
  643TMC3     H 9523   0.133   2.120   0.440  0.4492  0.2755  2.2762
  643TMC3    H1 9524   0.505   2.028   0.618 -1.1886  1.2228  0.3833
  643TMC3    H2 9525   0.414   1.857   0.255  0.2712 -0.2538  0.7358
  643TMC3    C7 9526   0.602   1.963   0.400  0.3209  0.4538 -0.1796
  643TMC3    C8 9527   0.209   2.006   0.218 -0.4474  0.3226  0.4360
  643TMC3    O1 9528   0.693   1.953   0.486  0.0484  0.4866 -0.6528
  643TMC3    O2 9529   0.206   1.922   0.135 -0.3868  0.2257  0.4545
  644MPD2     C 9530   1.062   2.397   9.461 -0.6317 -0.0828  0.2317
  644MPD2    C1 9531   0.956   2.325   9.407  0.0359  0.0230  0.5589
  644MPD2    C2 9532   0.846   2.395   9.352  0.0402  0.0821 -0.4344
  644MPD2    C3 9533   0.850   2.535   9.350 -0.1452 -0.5865 -0.1827
  644MPD2    C4 9534   0.965   2.604   9.392  0.8414 -0.0516  0.0628
  644MPD2    C5 9535   1.069   2.533   9.449  0.6112  1.0093  0.8420
  644MPD2     H 9536   0.769   2.347   9.293 -1.0912  2.2267 -0.6954
  644MPD2    H1 9537   0.983   2.710   9.378 -0.2762  0.2771  1.1481
  644MPD2    H2 9538   1.152   2.346   9.492  0.4591  1.2327 -0.8083
  644MPD2    H3 9539   1.156   2.584   9.488  0.2815  0.7775  1.8622
  644MPD2     N 9540   0.745   2.599   9.283 -0.0997  0.1397 -0.0615
  644MPD2    H5 9541   0.678   2.541   9.233  1.4871 -1.2109 -0.6194
  644MPD2    N1 9542   0.971   2.187   9.417  0.6723 -0.4760  0.1804
  644MPD2    H7 9543   1.062   2.165   9.458  0.1337  0.5204  1.9171
  645TMC3    C1 9544   0.623   2.785   9.196  0.3607 -0.3006 -0.2037
  645TMC3    C2 9545   0.636   2.912   9.136  0.8460 -0.0769 -0.3788
  645TMC3    C3 9546   0.535   2.947   9.050 -0.4952  0.0865  0.2718
  645TMC3    C4 9547   0.517   2.704   9.165  0.7974  0.6489  0.7091
  645TMC3    C5 9548   0.427   2.748   9.071 -0.3639  0.1127  0.6813
  645TMC3    C6 9549   0.428   2.869   9.011 -0.4451 -0.5957  0.0734
  645TMC3     C 9550   0.725   2.740   9.286 -0.2975  0.5975  0.3672
  645TMC3     O 9551   0.791   2.829   9.336 -0.1165 -0.0635  0.1639
  645TMC3     H 9552   0.699   2.986   9.183  0.1041  0.9809 -1.0370
  645TMC3    H1 9553   0.504   2.609   9.215 -1.3966  0.3313 -0.4734
  645TMC3    H2 9554   0.363   2.895   8.928 -2.2402 -1.0859  1.3272
  645TMC3    C7 9555   0.299   2.677   9.050 -0.1567 -0.3272 -0.8187
  645TMC3    C8 9556   0.531   3.090   9.021 -0.0892  0.6024 -0.3022
  645TMC3    O1 9557   0.206   2.747   9.021  0.8407  0.1000 -0.1621
  645TMC3    O2 9558   0.631   3.162   9.015  0.7662  0.6008 -0.1715
  646MPD2     C 9559   4.717   1.737  14.664  0.1742 -0.6191 -0.1429
  646MPD2    C1 9560   4.643   1.716  14.773 -0.5330  0.7384  0.2041
  646MPD2    C2 9561   4.502   1.735  14.764  0.3768 -0.0289 -0.1995
  646MPD2    C3 9562   4.439   1.767  14.646 -0.3604 -0.5219 -0.2052
  646MPD2    C4 9563   4.529   1.765  14.532  0.0167  0.6470 -0.0604
  646MPD2    C5 9564   4.660   1.752  14.542  0.2714 -0.3541  0.5379
  646MPD2     H 9565   4.443   1.738  14.855  0.8742  0.4980  0.1108
  646MPD2    H1 9566   4.495   1.771  14.429  1.2382  1.7849 -0.3986
  646MPD2    H2 9567   0.099   1.713  14.670 -0.0283 -1.4684 -0.0291
  646MPD2    H3 9568   4.715   1.748  14.448 -2.2793  1.9592 -1.0461
  646MPD2     N 9569   4.300   1.801  14.637 -0.0393 -0.7723 -0.1273
  646MPD2    H5 9570   4.246   1.799  14.723  0.3309  0.0584  0.1292
  646MPD2    N1 9571   4.716   1.682  14.889  0.2061 -0.4941  0.4121
  646MPD2    H7 9572   0.089   1.661  14.870  0.1690  0.3568 -0.7380
  647TMC3    C1 9573   0.054   1.616  15.120  0.1799  0.6065 -0.1823
  647TMC3    C2 9574   0.009   1.565  15.239  0.0055 -0.5124  0.9618
  647TMC3    C3 9575   0.107   1.514  15.324 -0.6739 -0.2560  0.1098
  647TMC3    C4 9576   0.182   1.614  15.094 -0.2882  0.1463  0.8393
  647TMC3    C5 9577   0.270   1.569  15.189 -0.5989  0.2396 -0.0146
  647TMC3    C6 9578   0.242   1.522  15.312  0.2253 -0.9078  0.2129
  647TMC3     C 9579   4.665   1.652  15.017  0.0813  0.4014 -0.0112
  647TMC3     O 9580   4.551   1.669  15.058 -0.4429  0.5290 -0.0806
  647TMC3     H 9581   4.629   1.536  15.248  0.3974 -0.8234  4.3773
  647TMC3    H1 9582   0.213   1.664  15.003 -1.7072 -0.5829 -0.0549
  647TMC3    H2 9583   0.315   1.489  15.385 -0.1371  0.3281  1.1347
  647TMC3    C7 9584   0.401   1.525  15.141  0.8029 -0.3375  0.2349
  647TMC3    C8 9585   0.064   1.391  15.397 -0.3093 -0.1052  0.8107
  647TMC3    O1 9586   0.485   1.512  15.231  0.1482 -0.3716 -0.5110
  647TMC3    O2 9587   0.143   1.295  15.392 -0.0137  0.4270 -0.0882
  648TMC3    C1 9588   3.873   4.142  15.989 -0.4743  0.5567  0.6405
  648TMC3    C2 9589   3.892   4.029  15.907  0.3062  0.0420 -0.3956
  648TMC3    C3 9590   3.858   4.026  15.775 -0.1279  0.0291 -0.2088
  648TMC3    C4 9591   3.805   4.252  15.930 -0.2717  0.5983  0.8848
  648TMC3    C5 9592   3.758   4.246  15.805 -0.7498  0.1224  0.8397
  648TMC3    C6 9593   3.777   4.129  15.727 -0.1049  0.2909  0.2025
  648TMC3     C 9594   3.842   4.125  16.130 -0.0067 -0.2488  0.2745
  648TMC3     O 9595   3.877   4.216  16.207  0.2333 -0.2765 -0.1467
  648TMC3     H 9596   3.932   3.938  15.949 -0.1339 -0.5064 -1.1622
  648TMC3    H1 9597   3.769   4.329  15.997 -1.6730  0.4044  0.3514
  648TMC3    H2 9598   3.726   4.119  15.632 -1.1845 -0.0697  0.8210
  648TMC3    C7 9599   3.640   4.322  15.757 -0.6575 -0.1561  0.0933
  648TMC3    C8 9600   3.854   3.893  15.710  0.1611 -0.1006  0.3874
  648TMC3    O1 9601   3.619   4.308  15.635  0.0418 -0.1962  0.2600
  648TMC3    O2 9602   3.773   3.880  15.617  0.4476  0.3787 -0.5875
  649TMC3    C1 9603   3.342   0.380  12.684 -0.4377 -0.0587 -0.2869
  649TMC3    C2 9604   3.456   0.454  12.669 -0.5348 -1.1114 -0.2459
  649TMC3    C3 9605   3.562   0.428  12.753  0.8404  0.6188  0.0863
  649TMC3    C4 9606   3.347   0.270  12.770 -0.6800  0.4881 -0.2670
  649TMC3    C5 9607   3.449   0.249  12.844 -0.8800 -0.0755  0.4137
  649TMC3    C6 9608   3.560   0.329  12.847  0.2656 -0.2555  0.3806
  649TMC3     C 9609   3.214   0.429  12.625  0.0434 -0.6302  0.2369
  649TMC3     O 9610   3.120   0.438  12.700  0.3874 -0.5936  0.1143
  649TMC3     H 9611   3.466   0.527  12.590  0.0435  0.3924  1.2052
  649TMC3    H1 9612   3.262   0.204  12.762  0.9262 -1.7301  0.7469
  649TMC3    H2 9613   3.647   0.308  12.909  1.2104 -0.8778 -1.1654
  649TMC3    C7 9614   3.432   0.161  12.957 -0.5227  0.2723 -0.1010
  649TMC3    C8 9615   3.689   0.496  12.716  0.0597  0.2737 -0.8081
  649TMC3    O1 9616   3.504   0.188  13.050  0.6993 -0.3804 -0.2736
  649TMC3    O2 9617   3.677   0.599  12.650 -0.3885 -0.1078  0.1369
  650TMC3    C1 9618   1.044   2.368  12.581 -0.1917 -0.2190  0.7059
  650TMC3    C2 9619   1.061   2.497  12.613 -0.0788  0.6558 -0.6741
  650TMC3    C3 9620   1.031   2.581  12.516  0.1555  0.3020  0.0880
  650TMC3    C4 9621   0.984   2.320  12.470 -0.3162  0.2849  0.8206
  650TMC3    C5 9622   0.944   2.405  12.374 -0.6597  0.5368 -0.0438
  650TMC3    C6 9623   0.971   2.538  12.399  0.5951  0.1828 -0.2753
  650TMC3     C 9624   1.071   2.272  12.688  0.4883 -0.3650  0.8206
  650TMC3     O 9625   1.039   2.306  12.804 -0.4092  0.4105  0.1659
  650TMC3     H 9626   1.127   2.521  12.695  2.2045 -0.6273 -2.1549
  650TMC3    H1 9627   0.962   2.215  12.454  1.9190 -0.2520  1.3177
  650TMC3    H2 9628   0.959   2.610  12.319 -0.9504  1.0657  0.7507
  650TMC3    C7 9629   0.862   2.365  12.266  0.5811  0.4081  0.2900
  650TMC3    C8 9630   1.040   2.719  12.541 -0.6352 -0.0766  0.1702
  650TMC3    O1 9631   0.834   2.245  12.244  0.6196 -0.0540 -0.5104
  650TMC3    O2 9632   1.018   2.800  12.447  0.1315  0.6814  1.0194
  651MPD2     C 9633   0.501   3.509  10.840  0.3667  0.0422 -0.0832
  651MPD2    C1 9634   0.474   3.649  10.849  0.0672 -0.2425 -0.0643
  651MPD2    C2 9635   0.554   3.736  10.777 -0.2299  0.1549  0.0888
  651MPD2    C3 9636   0.655   3.690  10.697  0.9447  0.4940  0.0058
  651MPD2    C4 9637   0.689   3.556  10.702 -0.7691 -0.2498 -0.5396
  651MPD2    C5 9638   0.617   3.469  10.781  0.1866  0.7704  0.4418
  651MPD2     H 9639   0.533   3.841  10.759  0.9071  0.5852  1.3530
  651MPD2    H1 9640   0.771   3.511  10.646 -1.1993 -0.3245 -1.1142
  651MPD2    H2 9641   0.448   3.426  10.886  1.2786 -1.0635 -1.0305
  651MPD2    H3 9642   0.644   3.364  10.779  2.0628  1.2579  0.0329
  651MPD2     N 9643   0.707   3.788  10.607 -0.1395  0.0465  0.0658
  651MPD2    H5 9644   0.664   3.880  10.606  0.4664  0.3264 -0.1299
  651MPD2    N1 9645   0.359   3.700  10.914  0.2797  0.1894  0.1351
  651MPD2    H7 9646   0.363   3.801  10.924  1.6305  0.5437 -4.3611
  652TMC3    C1 9647   0.967   4.030  10.352 -0.7780 -0.0057  0.4772
  652TMC3    C2 9648   0.948   3.907  10.411  0.1534  0.1493  0.2474
  652TMC3    C3 9649   0.816   3.866  10.424  0.6763  0.4317 -0.1415
  652TMC3    C4 9650   0.857   4.101  10.313  1.2815 -0.2532 -0.3709
  652TMC3    C5 9651   0.725   4.060  10.332 -0.2755 -0.0425  0.2065
  652TMC3    C6 9652   0.710   3.934  10.381  0.3143 -0.0613  0.0937
  652TMC3     C 9653   1.083   4.104  10.400  0.0102  0.2672 -0.4876
  652TMC3     O 9654   1.126   4.064  10.509  0.4049 -0.7992 -0.4507
  652TMC3     H 9655   1.030   3.846  10.446  2.0619  0.9566 -2.8086
  652TMC3    H1 9656   0.868   4.202  10.274 -1.8281 -0.1893 -1.0994
  652TMC3    H2 9657   0.610   3.893  10.388  0.1914  0.5304  1.8337
  652TMC3    C7 9658   0.618   4.119  10.254 -0.4583  0.1663  0.0963
  652TMC3    C8 9659   0.799   3.756  10.508 -0.1988 -0.3634 -0.2118
  652TMC3    O1 9660   0.526   4.047  10.204 -0.0161  0.1061  0.4078
  652TMC3    O2 9661   0.861   3.652  10.478 -0.6207  0.2147 -0.1690
  653MPD2     C 9662   2.921   3.627   0.057 -0.0512  0.3367  0.0269
  653MPD2    C1 9663   2.963   3.714  17.658  0.1955  0.1811  0.1014
  653MPD2    C2 9664   2.903   3.717  17.526  0.2159 -0.2608  0.1527
  653MPD2    C3 9665   2.797   3.632  17.502  0.2040  0.2601 -0.2490
  653MPD2    C4 9666   2.762   3.536  17.602  0.0063 -0.2233  0.4620
  653MPD2    C5 9667   2.820   3.543   0.028 -0.3114  0.3228 -0.0267
  653MPD2     H 9668   2.937   3.783  17.448 -3.1441  1.7523  0.4086
  653MPD2    H1 9669   2.682   3.464  17.592  0.9991 -1.1137 -1.1400
  653MPD2    H2 9670   2.966   3.609   0.154  0.1818  0.1226 -0.1209
  653MPD2    H3 9671   2.785   3.471   0.101  0.4593 -0.8112 -0.7741
  653MPD2     N 9672   2.728   3.638  17.382 -0.8444  0.3604  0.0750
  653MPD2    H5 9673   2.757   3.718  17.327 -0.7042 -0.7375 -1.4820
  653MPD2    N1 9674   3.078   3.798  17.687 -0.6192 -0.0087 -0.5824
  653MPD2    H7 9675   3.114   3.848  17.607  0.0465 -1.0971 -0.9728
  654TMC3    C1 9676   2.605   3.577  17.195 -0.1387 -0.6009  0.8451
  654TMC3    C2 9677   2.546   3.686  17.139  0.7405 -0.1906 -0.3291
  654TMC3    C3 9678   2.533   3.678  17.003 -0.0675 -0.0183  0.0157
  654TMC3    C4 9679   2.660   3.472  17.123 -0.0328 -0.0960  0.3750
  654TMC3    C5 9680   2.647   3.474  16.984  0.0253  1.2345  0.4271
  654TMC3    C6 9681   2.578   3.577  16.929  0.3345 -0.2965  0.0076
  654TMC3     C 9682   2.634   3.552  17.335  0.3643  0.4030 -0.1348
  654TMC3     O 9683   2.620   3.440  17.380  0.0131  0.4226  0.2731
  654TMC3     H 9684   2.503   3.762  17.203  2.2284 -0.4432  0.9572
  654TMC3    H1 9685   2.732   3.407  17.171  2.7764  0.5643 -2.9379
  654TMC3    H2 9686   2.564   3.569  16.822 -0.6702  3.3138 -0.1235
  654TMC3    C7 9687   2.750   3.411  16.895 -0.6066 -0.1325  0.0635
  654TMC3    C8 9688   2.413   3.747  16.951 -0.0279 -0.0639 -0.4763
  654TMC3    O1 9689   2.772   3.478  16.794  0.7080  0.7797  0.5834
  654TMC3    O2 9690   2.373   3.837  17.023 -0.6107 -0.3049  0.4093
  655MPD2     C 9691   4.142   4.325  16.044  0.0048  0.3319  0.0149
  655MPD2    C1 9692   4.097   4.404  15.938 -0.4336  0.5845  0.4879
  655MPD2    C2 9693   4.112   4.366  15.805  0.4114 -0.7884 -0.4320
  655MPD2    C3 9694   4.187   4.249  15.774  0.6248  0.0871 -0.2587
  655MPD2    C4 9695   4.238   4.175  15.880  0.0981  0.3767 -0.0555
  655MPD2    C5 9696   4.217   4.211  16.011  0.6164  0.1172 -0.5685
  655MPD2     H 9697   4.063   4.436  15.739  0.2765  0.4559  0.9923
  655MPD2    H1 9698   4.299   4.086  15.871  1.9315  1.6494 -0.4314
  655MPD2    H2 9699   4.108   4.341  16.146 -2.0974  4.0311 -1.2524
  655MPD2    H3 9700   4.253   4.152  16.094  1.1255  1.7692  0.3739
  655MPD2     N 9701   4.204   4.195  15.642 -0.5002 -0.8375  0.1306
  655MPD2    H5 9702   4.248   4.104  15.644  2.3120  0.5612  2.3519
  655MPD2    N1 9703   4.014   4.522  15.957  0.0812 -0.4041  0.3166
  655MPD2    H7 9704   3.992   4.573  15.872 -2.4070 -3.1337 -0.6780
  656TMC3    C1 9705   3.861   4.655  16.074  1.0066 -0.7029 -0.4660
  656TMC3    C2 9706   3.803   4.692  16.191  0.2739 -1.0676 -0.2570
  656TMC3    C3 9707   3.705   0.064  16.188  0.0541 -0.6786  0.2064
  656TMC3    C4 9708   3.811   4.704  15.952 -0.4557  0.5926 -0.2515
  656TMC3    C5 9709   3.712   0.071  15.949 -0.2740  0.2011  0.3269
  656TMC3    C6 9710   3.666   0.120  16.070 -0.1469 -0.2080  0.0518
  656TMC3     C 9711   3.971   4.569  16.082 -0.2257 -0.0432  0.5271
  656TMC3     O 9712   4.020   4.540  16.194 -0.4414 -0.0004 -0.2784
  656TMC3     H 9713   3.827   4.645  16.286 -0.6167  0.6444  0.8170
  656TMC3    H1 9714   3.841   4.657  15.859 -0.9742 -1.2068  0.4836
  656TMC3    H2 9715   3.589   0.196  16.075  0.6293  0.5147  0.9022
  656TMC3    C7 9716   3.627   0.074  15.834 -0.3033  0.8076 -0.0586
  656TMC3    C8 9717   3.586   0.003  16.239  0.4590 -0.0558  0.0808
  656TMC3    O1 9718   3.680   0.073  15.719 -0.6451 -0.1020  0.3883
  656TMC3    O2 9719   3.487   4.716  16.169 -0.2741 -0.0232 -0.0627
  657TMC3    C1 9720   3.554   3.769  14.552  0.2040  0.6785  0.3146
  657TMC3    C2 9721   3.479   3.721  14.655  0.1384 -0.2436  0.5402
  657TMC3    C3 9722   3.365   3.791  14.688  0.1891  0.3947  0.0638
  657TMC3    C4 9723   3.532   3.888  14.494 -0.4384 -0.9120  0.0296
  657TMC3    C5 9724   3.424   3.959  14.530  0.2118  0.9614 -0.0449
  657TMC3    C6 9725   3.332   3.912  14.624 -0.4355  0.4514 -0.1223
  657TMC3     C 9726   3.633   3.669  14.473 -0.0073 -0.2287 -0.2572
  657TMC3     O 9727   3.641   3.686  14.355  0.4655 -0.5540  0.3756
  657TMC3     H 9728   3.493   3.620  14.693 -1.2598  0.3708  2.6997
  657TMC3    H1 9729   3.604   3.918  14.419 -0.3160 -0.7251  0.2221
  657TMC3    H2 9730   3.241   3.962  14.653 -0.6392  1.0453 -1.8186
  657TMC3    C7 9731   3.420   4.099  14.480  0.2188  0.0396  0.1207
  657TMC3    C8 9732   3.253   3.727  14.764  0.0608  0.1001 -0.2705
  657TMC3    O1 9733   3.517   4.136  14.415  0.1896 -0.2914 -0.1920
  657TMC3    O2 9734   3.139   3.763  14.736  0.3265  0.0902  0.0194
  658MPD2     C 9735   4.470   3.667  15.145 -0.5085 -0.5544  0.2049
  658MPD2    C1 9736   4.406   3.780  15.090 -0.3027 -0.1583  1.1449
  658MPD2    C2 9737   4.425   3.807  14.952 -0.5856 -0.0144 -0.5017
  658MPD2    C3 9738   4.521   3.733  14.881 -0.8828 -0.4226  1.0153
  658MPD2    C4 9739   4.589   3.632  14.942 -0.3822 -0.0453 -0.4764
  658MPD2    C5 9740   4.558   3.600  15.071  0.0566  0.0102 -0.0100
  658MPD2     H 9741   4.370   3.888  14.907  0.2975  0.9042  0.0884
  658MPD2    H1 9742   4.660   3.578  14.881 -2.5223 -1.0284 -2.1206
  658MPD2    H2 9743   4.451   3.642  15.249 -1.6826  1.0434  0.3779
  658MPD2    H3 9744   4.613   3.517  15.115 -0.9236  0.3257  1.7865
  658MPD2     N 9745   4.540   3.772  14.743  0.7431 -0.1307  0.1887
  658MPD2    H5 9746   4.475   3.832  14.693 -0.4363 -1.4547  0.1381
  658MPD2    N1 9747   4.317   3.863  15.166 -0.3182 -0.8964  0.7856
  658MPD2    H7 9748   4.274   3.941  15.118  0.1519 -0.5953  0.8524
  659TMC3    C1 9749   4.174   3.954  15.322 -0.1437 -0.0387  0.5155
  659TMC3    C2 9750   4.213   4.047  15.413 -0.4556  0.4607 -0.0894
  659TMC3    C3 9751   4.140   4.159  15.423 -0.3621 -0.1899  0.5274
  659TMC3    C4 9752   4.091   3.984  15.219 -1.3309 -0.2473  0.6038
  659TMC3    C5 9753   4.023   4.104  15.230 -0.2903  0.2627 -0.3185
  659TMC3    C6 9754   4.041   4.186  15.334 -0.4330  0.2008 -0.0333
  659TMC3     C 9755   4.273   3.852  15.296 -0.5162 -0.5035  0.0118
  659TMC3     O 9756   4.305   3.771  15.381  0.5214 -0.0217 -0.3103
  659TMC3     H 9757   4.299   4.031  15.476 -1.8310 -0.0547  1.6697
  659TMC3    H1 9758   4.061   3.910  15.146 -3.0186  3.3749 -2.3435
  659TMC3    H2 9759   3.987   4.280  15.331  1.4425  1.1933 -1.8631
  659TMC3    C7 9760   3.927   4.141  15.126  0.5201  0.1101  0.9312
  659TMC3    C8 9761   4.155   4.254  15.529  0.2035  0.5989  0.3769
  659TMC3    O1 9762   3.812   4.172  15.153  0.1731  0.0999 -0.1671
  659TMC3    O2 9763   4.118   4.369  15.515 -0.0469 -0.1090 -0.1293
  660MPD2     C 9764   2.923   2.696  12.579  0.4081  0.2774  0.2982
  660MPD2    C1 9765   2.807   2.735  12.520  0.1117 -0.0567  0.1433
  660MPD2    C2 9766   2.682   2.671  12.548  0.8510  0.0240  0.1510
  660MPD2    C3 9767   2.682   2.575  12.650 -0.3010  0.4276  0.5682
  660MPD2    C4 9768   2.795   2.545  12.721 -0.9408  0.2925  0.1941
  660MPD2    C5 9769   2.915   2.595  12.674  0.4453  0.0555  0.0897
  660MPD2     H 9770   2.600   2.706  12.486  0.5141 -1.4527 -0.2481
  660MPD2    H1 9771   2.795   2.465  12.794  1.2282 -1.1066 -1.3427
  660MPD2    H2 9772   3.016   2.734  12.538  1.0403 -1.5034  0.0856
  660MPD2    H3 9773   3.003   2.554  12.722  1.1693  1.2513 -0.2196
  660MPD2     N 9774   2.561   2.509  12.691 -0.1158  0.6937 -0.8512
  660MPD2    H5 9775   2.559   2.460  12.780  1.7809  1.3590 -0.4505
  660MPD2    N1 9776   2.825   2.838  12.422  0.5163  0.3098 -0.0305
  660MPD2    H7 9777   2.920   2.866  12.400  0.6024 -1.8459 -2.4674
  661TMC3    C1 9778   2.782   2.997  12.263  0.2821 -0.1271  0.0511
  661TMC3    C2 9779   2.906   2.978  12.208  0.3130 -0.3352 -0.3560
  661TMC3    C3 9780   2.941   3.066  12.106 -0.5916  0.6573  0.4397
  661TMC3    C4 9781   2.695   3.094  12.219  0.5148  0.5878  0.0347
  661TMC3    C5 9782   2.737   3.178  12.127  0.4647 -0.3461  0.6592
  661TMC3    C6 9783   2.865   3.172  12.073 -1.0803  0.0243 -0.4726
  661TMC3     C 9784   2.726   2.902  12.362 -0.4323 -0.1603  0.6349
  661TMC3     O 9785   2.606   2.900  12.388  0.5649 -0.1024  0.1883
  661TMC3     H 9786   2.973   2.897  12.234  1.5132  0.6343 -0.4553
  661TMC3    H1 9787   2.599   3.108  12.268  0.9613 -0.8906  1.3203
  661TMC3    H2 9788   2.890   3.253  12.006  0.0441 -0.3190 -0.4683
  661TMC3    C7 9789   2.650   3.280  12.077  0.1950 -0.5877 -0.6138
  661TMC3    C8 9790   3.053   3.031  12.025  0.1231 -0.3228 -0.1589
  661TMC3    O1 9791   2.703   3.390  12.059  0.6515 -0.7731 -0.1919
  661TMC3    O2 9792   3.133   2.951  12.077 -0.2052  0.1562  0.1953
  662MPD2     C 9793   2.847   2.228  17.295  1.0987 -0.2848  0.2931
  662MPD2    C1 9794   2.736   2.214  17.375  0.5099 -0.5534  0.0586
  662MPD2    C2 9795   2.630   2.302  17.359 -0.0662  0.0818 -0.4515
  662MPD2    C3 9796   2.635   2.398  17.262 -0.1566 -0.1064 -0.2924
  662MPD2    C4 9797   2.744   2.419  17.185  0.2653 -0.3577 -0.0265
  662MPD2    C5 9798   2.850   2.336  17.205 -0.5550 -0.6172 -0.0575
  662MPD2     H 9799   2.537   2.289  17.414  0.3655 -2.6378 -0.3508
  662MPD2    H1 9800   2.747   2.505  17.119  1.6112  0.4553  1.0894
  662MPD2    H2 9801   2.937   2.167  17.297  1.3483  0.0689 -0.1565
  662MPD2    H3 9802   2.934   2.350  17.138  0.9965 -0.3769  1.9332
  662MPD2     N 9803   2.534   2.489  17.239 -0.3688  0.7024  0.0813
  662MPD2    H5 9804   2.542   2.571  17.179  1.4227  1.4240  1.2870
  662MPD2    N1 9805   2.726   2.108  17.467  0.4599 -0.2620  0.0036
  662MPD2    H7 9806   2.642   2.105  17.524  0.8837 -0.9130  0.5796
  663TMC3    C1 9807   2.756   1.932  17.601 -0.4228 -0.0256 -0.0889
  663TMC3    C2 9808   2.657   2.000  17.669  0.0498 -0.1956  0.1559
  663TMC3    C3 9809   2.551   1.930   0.018 -0.2644 -0.1288 -0.4223
  663TMC3    C4 9810   2.766   1.793  17.582  0.5758 -0.8591  0.5645
  663TMC3    C5 9811   2.653   1.725  17.624 -0.4821 -0.2366  0.6012
  663TMC3    C6 9812   2.552   1.797  17.684 -0.2690 -0.2322 -0.0334
  663TMC3     C 9813   2.812   2.009  17.495  0.4452  0.2734 -0.0873
  663TMC3     O 9814   2.902   1.971  17.427 -0.2588  0.0755 -0.1180
  663TMC3     H 9815   2.691   2.090   0.023  1.6348 -0.4948 -0.3750
  663TMC3    H1 9816   2.830   1.757  17.502 -0.3735 -1.1776 -0.0441
  663TMC3    H2 9817   2.450   1.762  17.670 -0.5322 -0.1812  1.7481
  663TMC3    C7 9818   2.657   1.580  17.634  0.6540  0.2525 -0.4106
  663TMC3    C8 9819   2.446   2.003  17.663 -0.8423  0.4250 -0.2870
  663TMC3    O1 9820   2.557   1.525  17.673 -0.2755  0.0012 -0.2385
  663TMC3    O2 9821   2.474   2.070  17.565  0.0015  0.4367  0.2194
  664MPD2     C 9822   0.656   0.692  17.425 -0.0778  0.0511 -0.3669
  664MPD2    C1 9823   0.706   0.794  17.506 -0.3656 -0.4599 -0.4149
  664MPD2    C2 9824   0.667   0.799  17.642 -0.0790  0.0646  0.0724
  664MPD2    C3 9825   0.574   0.713  17.687  0.9440  0.2024 -0.3964
  664MPD2    C4 9826   0.518   0.619  17.597  0.1978  0.2253  0.0189
  664MPD2    C5 9827   0.557   0.609  17.471 -0.1585  0.3677 -0.6678
  664MPD2     H 9828   0.706   0.878   0.008 -3.4621  2.4166 -0.7969
  664MPD2    H1 9829   0.441   0.550  17.629  2.4781 -0.8725  3.2039
  664MPD2    H2 9830   0.705   0.676  17.330  0.8047 -1.3028  0.3218
  664MPD2    H3 9831   0.516   0.536  17.402  1.7187 -1.0058 -0.3182
  664MPD2     N 9832   0.543   0.724   0.128  0.8055  0.2733 -0.4648
  664MPD2    H5 9833   0.591   0.801   0.175  0.2142 -0.7765  1.8988
  664MPD2    N1 9834   0.800   0.892  17.460  0.4949 -0.0970  0.0976
  664MPD2    H7 9835   0.826   0.964  17.526 -1.6685  0.0800  0.7516
  665TMC3    C1 9836   0.426   0.694   0.334  0.4108  1.0008 -0.1370
  665TMC3    C2 9837   0.346   0.618   0.407  0.9398  0.4269 -0.1407
  665TMC3    C3 9838   0.326   0.649   0.539  1.0008 -0.0853  0.3057
  665TMC3    C4 9839   0.483   0.808   0.388  0.5448  0.3055  0.6433
  665TMC3    C5 9840   0.459   0.843   0.516 -0.3847  0.0313  0.2271
  665TMC3    C6 9841   0.379   0.765   0.597  0.1484 -0.0724 -0.1243
  665TMC3     C 9842   0.446   0.651   0.200 -0.0079  0.3745 -0.2771
  665TMC3     O 9843   0.381   0.560   0.152 -0.0123 -0.3972  0.2973
  665TMC3     H 9844   0.316   0.522   0.366  1.2587 -0.1169  0.8826
  665TMC3    H1 9845   0.542   0.873   0.324 -0.5748 -1.0175 -1.7215
  665TMC3    H2 9846   0.363   0.791   0.701  1.7014  0.7744 -0.0898
  665TMC3    C7 9847   0.450   0.982   0.533  0.4908  0.1451  0.2444
  665TMC3    C8 9848   0.201   0.597   0.602 -0.6217  0.3822 -0.2071
  665TMC3    O1 9849   0.468   1.058   0.438  1.0517  0.5857 -0.1252
  665TMC3    O2 9850   0.200   0.585   0.724  0.3107  0.4171  0.0818
  666TMC3    C1 9851   0.507   0.431  10.272 -0.5109 -0.3754 -0.2975
  666TMC3    C2 9852   0.427   0.364  10.182 -0.2960 -0.5167  0.1420
  666TMC3    C3 9853   0.361   0.438  10.087  0.2057  0.0396  0.2923
  666TMC3    C4 9854   0.505   0.565  10.280 -0.8808 -0.5244  0.2837
  666TMC3    C5 9855   0.452   0.638  10.176  0.6065 -0.2795 -0.5117
  666TMC3    C6 9856   0.368   0.575  10.089 -0.0047 -0.7063 -0.9185
  666TMC3     C 9857   0.579   0.352  10.369  0.0668 -0.2833 -0.0175
  666TMC3     O 9858   0.692   0.380  10.400  0.5158 -1.0687 -0.5246
  666TMC3     H 9859   0.409   0.257  10.179  3.5454 -1.1834  1.1447
  666TMC3    H1 9860   0.557   0.624  10.354 -2.2221  0.4139  0.4924
  666TMC3    H2 9861   0.325   0.633  10.009 -1.5442 -0.8434 -0.1896
  666TMC3    C7 9862   0.453   0.784  10.183 -0.1018 -0.1182 -0.2813
  666TMC3    C8 9863   0.276   0.367   9.998 -0.3573  0.4236  0.2565
  666TMC3    O1 9864   0.463   0.833  10.295  0.4923  0.1866  0.2624
  666TMC3    O2 9865   0.310   0.255   9.966  0.1477 -0.3940 -0.5678
  667MPD2     C 9866   1.575   0.565  14.821  0.0405 -0.2322  0.3748
  667MPD2    C1 9867   1.539   0.695  14.837  0.1080  0.3875  0.4514
  667MPD2    C2 9868   1.452   0.741  14.742  0.2141  0.7091  0.2832
  667MPD2    C3 9869   1.405   0.657  14.639 -1.1851 -0.3605 -0.1281
  667MPD2    C4 9870   1.443   0.526  14.627  0.1956  0.2841  0.1680
  667MPD2    C5 9871   1.533   0.480  14.724 -0.1164  0.3027  0.0958
  667MPD2     H 9872   1.422   0.845  14.752  1.5727  1.0446  0.9262
  667MPD2    H1 9873   1.402   0.458  14.553  3.5722 -0.0343 -1.4528
  667MPD2    H2 9874   1.642   0.522  14.895 -0.3857 -2.6223 -0.6023
  667MPD2    H3 9875   1.564   0.376  14.721  0.2966  0.3912  1.1398
  667MPD2     N 9876   1.303   0.692  14.555  0.4800 -0.3013 -0.4038
  667MPD2    H5 9877   1.262   0.618  14.499  1.9359 -1.4993  0.1086
  667MPD2    N1 9878   1.583   0.774  14.945 -0.4733  0.8065  0.6867
  667MPD2    H7 9879   1.549   0.870  14.941  2.5973  1.7951 -1.6057
  668TMC3    C1 9880   1.671   0.831  15.147  0.5147  0.1608  0.2853
  668TMC3    C2 9881   1.712   0.957  15.118 -0.5811 -0.0752  0.5823
  668TMC3    C3 9882   1.730   1.047  15.216 -0.1112 -0.5697  1.0881
  668TMC3    C4 9883   1.640   0.790  15.269  0.1067 -0.1711  0.4196
  668TMC3    C5 9884   1.635   0.891  15.359  0.1062  0.6674  0.5240
  668TMC3    C6 9885   1.677   1.018  15.340  0.6864 -0.4906  0.1350
  668TMC3     C 9886   1.669   0.729  15.047 -0.3493  0.1364  0.3143
  668TMC3     O 9887   1.726   0.621  15.066  0.1410 -0.3638  0.4384
  668TMC3     H 9888   1.753   0.967  15.018  0.9769  0.6239  1.2783
  668TMC3    H1 9889   1.600   0.690  15.283  0.9248 -0.6581 -0.6863
  668TMC3    H2 9890   1.685   1.081  15.428  4.7861  0.4904 -0.9494
  668TMC3    C7 9891   1.577   0.855  15.485 -0.3824 -0.9379  0.2783
  668TMC3    C8 9892   1.848   1.122  15.223  0.0243  0.2491  0.4914
  668TMC3    O1 9893   1.593   0.738  15.515 -0.3683  0.2081  0.0760
  668TMC3    O2 9894   1.904   1.133  15.336  0.1832  0.0426  0.4226
  669TMC3    C1 9895   4.347   1.214  14.479  0.6205 -0.6366 -0.3078
  669TMC3    C2 9896   4.258   1.205  14.374  0.1654 -0.3279 -0.6892
  669TMC3    C3 9897   4.278   1.284  14.268  0.3660 -0.4342 -0.5653
  669TMC3    C4 9898   4.451   1.297  14.482 -0.3469 -0.5222 -0.1230
  669TMC3    C5 9899   4.474   1.375  14.366  0.2785 -0.6809 -0.1469
  669TMC3    C6 9900   4.398   1.351  14.255 -0.4110  0.2704 -0.0788
  669TMC3     C 9901   4.341   1.103  14.570  0.2158  0.5704  0.0238
  669TMC3     O 9902   4.271   1.007  14.533  0.6214 -0.3842 -0.0273
  669TMC3     H 9903   4.171   1.141  14.382 -0.1148 -0.1927 -2.6883
  669TMC3    H1 9904   4.519   1.299  14.566 -0.1497  0.7461 -0.3081
  669TMC3    H2 9905   4.426   1.391  14.158  0.5977  0.7751  0.4219
  669TMC3    C7 9906   4.609   1.431  14.338  0.0980  0.5151 -0.4862
  669TMC3    C8 9907   4.211   1.251  14.141 -0.0910  0.0090  0.0253
  669TMC3    O1 9908   4.708   1.398  14.402  0.5921 -0.1463 -0.3345
  669TMC3    O2 9909   4.269   1.266  14.037 -0.3911  0.3708 -0.4807
  670MPD2     C 9910   2.392   3.393  13.393  0.2961 -0.0690  0.4336
  670MPD2    C1 9911   2.521   3.429  13.443  0.1286 -0.2734 -0.1308
  670MPD2    C2 9912   2.551   3.412  13.575 -0.6195 -0.0026 -0.4739
  670MPD2    C3 9913   2.472   3.332  13.656  0.0476 -0.8466  0.0814
  670MPD2    C4 9914   2.356   3.283  13.593 -0.2685  0.6944 -0.0450
  670MPD2    C5 9915   2.314   3.315  13.474 -0.4112 -0.3412  0.1890
  670MPD2     H 9916   2.641   3.459  13.614 -1.8146  1.8537  0.0496
  670MPD2    H1 9917   2.290   3.214  13.645  1.4870 -2.4062 -1.9629
  670MPD2    H2 9918   2.363   3.439  13.299 -0.4026  2.4720  1.8993
  670MPD2    H3 9919   2.216   3.281  13.442 -0.9208  0.6815  0.6639
  670MPD2     N 9920   2.511   3.309  13.795 -0.4019  0.1113 -0.2889
  670MPD2    H5 9921   2.593   3.361  13.825  0.3585  0.3195 -2.6939
  670MPD2    N1 9922   2.614   3.493  13.352  0.3506 -0.0399 -0.0068
  670MPD2    H7 9923   2.706   3.519  13.385  0.2682 -0.5898  0.6653
  671TMC3    C1 9924   2.464   3.235  14.014 -1.4647  0.5886 -0.0992
  671TMC3    C2 9925   2.592   3.228  14.062 -0.5618  0.1986  0.5885
  671TMC3    C3 9926   2.609   3.168  14.182  0.6164 -0.0045 -0.8910
  671TMC3    C4 9927   2.357   3.192  14.089 -0.0584 -0.2952 -0.2398
  671TMC3    C5 9928   2.380   3.140  14.210 -0.5069 -0.2063 -0.7614
  671TMC3    C6 9929   2.503   3.133  14.263  0.9817  0.6787 -0.3930
  671TMC3     C 9930   2.444   3.218  13.875  1.1960  0.0973 -0.1458
  671TMC3     O 9931   2.356   3.135  13.856 -0.4912  0.0749  0.0864
  671TMC3     H 9932   2.679   3.234  13.998 -0.0806 -2.6340  0.9808
  671TMC3    H1 9933   2.255   3.221  14.064  0.3360  0.5954 -0.8335
  671TMC3    H2 9934   2.521   3.071  14.350  0.8483  1.1668 -0.0198
  671TMC3    C7 9935   2.310   3.018  14.235  0.2798  0.1060 -0.2696
  671TMC3    C8 9936   2.715   3.076  14.190  0.1109 -0.1253 -0.2989
  671TMC3    O1 9937   2.267   2.999  14.347  0.3125  0.3794 -0.2549
  671TMC3    O2 9938   2.693   2.962  14.151  0.2676  0.8304  0.0824
  672MPD2     C 9939   2.783   3.022   1.246 -0.2522 -0.9190  0.0143
  672MPD2    C1 9940   2.805   3.148   1.296 -0.3414  0.2193 -0.0581
  672MPD2    C2 9941   2.840   3.166   1.430 -0.9600  0.5161  0.5684
  672MPD2    C3 9942   2.867   3.057   1.511 -0.5144 -0.1069 -0.9290
  672MPD2    C4 9943   2.847   2.933   1.460 -1.0925  0.1712 -0.3020
  672MPD2    C5 9944   2.804   2.915   1.332 -0.1940  0.9918  0.4833
  672MPD2     H 9945   2.858   3.261   1.479 -1.6416  0.0877  1.6461
  672MPD2    H1 9946   2.884   2.849   1.518  1.4295  0.3009 -1.7823
  672MPD2    H2 9947   2.746   3.009   1.145 -0.9998  1.0954  0.0281
  672MPD2    H3 9948   2.786   2.820   1.283 -1.7580  1.7569 -0.4115
  672MPD2     N 9949   2.892   3.066   1.655 -0.3771  0.2000  0.0319
  672MPD2    H5 9950   2.918   2.979   1.700  3.1940  2.3535  2.1444
  672MPD2    N1 9951   2.796   3.272   1.212 -0.3542  0.3291 -0.2286
  672MPD2    H7 9952   2.797   3.360   1.262 -3.0113  0.3896 -0.2868
  673TMC3    C1 9953   2.806   3.412   1.026  0.1453 -0.0191  0.2310
  673TMC3    C2 9954   2.914   3.428   0.945  0.0379 -0.1310  0.4210
  673TMC3    C3 9955   2.977   3.548   0.939 -0.1334 -0.0059  0.8782
  673TMC3    C4 9956   2.756   3.512   1.101 -0.4574  0.2664 -0.6557
  673TMC3    C5 9957   2.817   3.638   1.082 -0.1605  0.5066 -0.1152
  673TMC3    C6 9958   2.919   3.663   0.992 -0.4474  0.2771 -0.3688
  673TMC3     C 9959   2.807   3.273   1.076  0.0287 -1.0658  0.0276
  673TMC3     O 9960   2.837   3.181   0.998  0.0985 -0.5131 -0.2685
  673TMC3     H 9961   2.940   3.348   0.875 -0.2527  1.7115 -1.8061
  673TMC3    H1 9962   2.686   3.499   1.183 -1.1841 -0.2655 -1.3494
  673TMC3    H2 9963   2.976   3.752   0.967 -2.9599  0.9697 -3.5381
  673TMC3    C7 9964   2.767   3.756   1.154  0.5555  0.3979 -0.1492
  673TMC3    C8 9965   3.104   3.559   0.865  0.3335  0.2907 -0.4806
  673TMC3    O1 9966   2.716   3.742   1.266  0.4775  0.1489  0.3179
  673TMC3    O2 9967   3.146   3.664   0.820  0.4814 -0.2726 -0.0780
  674MPD2     C 9968   2.974   3.522   0.507  0.2761 -0.0600  0.1248
  674MPD2    C1 9969   2.930   3.433   0.405 -0.1291  0.4082 -0.0361
  674MPD2    C2 9970   2.795   3.386   0.413  0.4112  0.0172  1.0710
  674MPD2    C3 9971   2.717   3.437   0.514  0.0507  0.1692 -0.0736
  674MPD2    C4 9972   2.764   3.515   0.615 -0.2637  0.4110 -0.3016
  674MPD2    C5 9973   2.892   3.564   0.605  0.0726 -0.6480  0.1495
  674MPD2     H 9974   2.748   3.321   0.339  3.2525 -1.6379  0.7308
  674MPD2    H1 9975   2.695   3.559   0.686  0.5718  1.1343  0.0547
  674MPD2    H2 9976   3.074   3.564   0.512  0.3177 -0.0380 -0.9712
  674MPD2    H3 9977   2.922   3.638   0.679 -0.4261  0.1527 -0.4468
  674MPD2     N 9978   2.580   3.404   0.502  0.3896  0.0132  0.4000
  674MPD2    H5 9979   2.559   3.343   0.423  0.7877  1.1685 -0.5893
  674MPD2    N1 9980   3.025   3.395   0.306 -0.5829 -0.1298  0.2022
  674MPD2    H7 9981   3.117   3.437   0.320 -0.0194 -1.3244  0.0660
  675TMC3    C1 9982   3.122   3.296   0.120  0.0287 -0.5275  1.1030
  675TMC3    C2 9983   3.133   3.170   0.071  0.3717 -0.1219 -0.0817
  675TMC3    C3 9984   3.203   3.169  17.641 -0.1218  0.4127 -0.3789
  675TMC3    C4 9985   3.179   3.408   0.066 -0.2935 -0.2393  0.7425
  675TMC3    C5 9986   3.244   3.391  17.641  0.2632 -0.2393 -0.1355
  675TMC3    C6 9987   3.252   3.277  17.570 -0.5625  0.1201 -0.2139
  675TMC3     C 9988   3.008   3.301   0.210  0.4724 -0.2029  0.6557
  675TMC3     O 9989   2.921   3.216   0.185  0.3038 -0.7352 -0.3760
  675TMC3     H 9990   3.105   3.081   0.127  0.6832  0.5022  1.0683
  675TMC3    H1 9991   3.181   3.499   0.125  2.3446 -0.5586  1.1197
  675TMC3    H2 9992   3.315   3.271  17.482  0.6696 -2.9710  0.8977
  675TMC3    C7 9993   3.306   3.515  17.602 -0.2120 -0.1234 -0.2406
  675TMC3    C8 9994   3.170   3.057  17.558  0.5632  0.2463  0.5613
  675TMC3    O1 9995   3.317   3.603  17.689  0.2339 -0.2721 -0.1803
  675TMC3    O2 9996   3.223   3.052  17.443  0.0329  0.4410  0.1196
  676MPD2     C 9997   1.400   1.895  11.134  0.1539 -0.5099  0.0157
  676MPD2    C1 9998   1.261   1.892  11.110  0.7208  0.5918 -0.0853
  676MPD2    C2 9999   1.211   1.803  11.017  0.6392  1.6173  0.4326
  676MPD2    C310000   1.289   1.706  10.960 -0.1822  0.5203 -0.0796
  676MPD2    C410001   1.418   1.702  10.990 -0.1996 -0.1547  0.0452
  676MPD2    C510002   1.477   1.799  11.077 -0.1606  0.3519  0.6676
  676MPD2     H10003   1.104   1.805  11.000  0.6911  0.9378  0.0037
  676MPD2    H110004   1.473   1.616  10.953  0.3172 -0.3597  1.3234
  676MPD2    H210005   1.458   1.961  11.198  1.4539  0.2358 -1.9176
  676MPD2    H310006   1.584   1.788  11.095 -0.6037 -1.5206  2.1413
  676MPD2     N10007   1.236   1.612  10.870  0.6769  0.1169 -0.3394
  676MPD2    H510008   1.306   1.550  10.831 -0.5837 -0.5099 -1.6317
  676MPD2    N110009   1.177   1.983  11.166  0.4303  0.5051 -0.6377
  676MPD2    H710010   1.081   1.975  11.134 -0.5684  0.1535  2.5347
  677TMC3    C110011   1.086   2.145  11.298  0.1202  0.0443  0.1244
  677TMC3    C210012   0.965   2.080  11.286  0.2349  0.2752  0.0379
  677TMC3    C310013   0.854   2.135  11.343  0.4603  0.7219 -0.6175
  677TMC3    C410014   1.096   2.270  11.363 -0.1427  0.0164  0.0083
  677TMC3    C510015   0.971   2.318  11.407  0.4811  0.3968 -0.3936
  677TMC3    C610016   0.853   2.259  11.401  0.4437 -0.0346  0.1074
  677TMC3     C10017   1.212   2.085  11.248 -0.2119 -1.0449  0.2575
  677TMC3     O10018   1.312   2.116  11.313 -0.4610  0.1569  1.0025
  677TMC3     H10019   0.951   1.978  11.253  1.4203 -0.3747  1.5692
  677TMC3    H110020   1.192   2.312  11.390  0.1759  0.1724 -1.3607
  677TMC3    H210021   0.762   2.305  11.439 -1.2095 -0.4337 -3.3869
  677TMC3    C710022   0.960   2.431  11.497 -0.5336  0.3074  0.2180
  677TMC3    C810023   0.736   2.061  11.336 -0.1482 -0.4464 -0.0467
  677TMC3    O110024   0.854   2.469  11.543  0.5615  0.1970 -0.3116
  677TMC3    O210025   0.691   2.027  11.228  0.4713 -0.1226 -0.8081
  678MPD2     C10026   1.165   1.852   1.791 -0.4751 -0.3642  0.2376
  678MPD2    C110027   1.116   1.819   1.659  0.8117  0.0787 -0.1729
  678MPD2    C210028   0.984   1.816   1.647  0.3152  1.0138 -0.2277
  678MPD2    C310029   0.897   1.851   1.740 -0.3746 -0.3806 -0.5171
  678MPD2    C410030   0.940   1.890   1.866 -0.0849  0.3520 -0.2712
  678MPD2    C510031   1.072   1.894   1.889 -0.6963  0.0379  0.5195
  678MPD2     H10032   0.936   1.783   1.556  3.0306 -0.3998 -1.1377
  678MPD2    H110033   0.877   1.934   1.942 -1.4806 -0.1126 -1.1661
  678MPD2    H210034   1.266   1.829   1.820  0.5245  1.5367 -1.7155
  678MPD2    H310035   1.110   1.895   1.990  0.2350  1.6376  0.1553
  678MPD2     N10036   0.768   1.873   1.697 -0.0382  0.1711 -0.0388
  678MPD2    H510037   0.751   1.871   1.597  1.8750 -0.7781 -0.3490
  678MPD2    N110038   1.194   1.756   1.554  0.5828  0.3990 -0.2763
  678MPD2    H710039   1.158   1.730   1.463 -0.8518 -0.4347  0.5369
  679TMC3    C110040   1.554   1.551   1.349  0.5825 -0.4288  0.4213
  679TMC3    C210041   1.495   1.605   1.455  0.4181 -1.2069  0.0020
  679TMC3    C310042   1.381   1.671   1.439  0.1845 -0.1472  0.2811
  679TMC3    C410043   1.503   1.587   1.222 -0.2425 -0.0632  0.4674
  679TMC3    C510044   1.397   1.669   1.209  0.3512  0.0849  0.4950
  679TMC3    C610045   1.331   1.716   1.324 -0.4766  0.0129  0.3728
  679TMC3     C10046   1.690   1.516   1.363  0.2190  0.5953  0.2049
  679TMC3     O10047   1.718   1.437   1.456 -0.6427  0.0101 -0.2657
  679TMC3     H10048   1.512   1.573   1.557 -0.7859 -1.0627  0.2462
  679TMC3    H110049   1.552   1.535   1.140 -0.0610  0.1196  0.4594
  679TMC3    H210050   1.264   1.801   1.317  1.7980  1.9769  2.8267
  679TMC3    C710051   1.395   1.743   1.084 -0.0726  0.1645 -0.7694
  679TMC3    C810052   1.331   1.741   1.560  0.5312  0.0392 -0.4267
  679TMC3    O110053   1.363   1.862   1.077  0.2080 -0.2631  0.2243
  679TMC3    O210054   1.407   1.777   1.647  0.3083 -0.5977 -0.3182
  680MPD2     C10055   3.306   0.450  13.856  0.3122  0.2832  0.7668
  680MPD2    C110056   3.190   0.447  13.780  0.9382  0.1288 -0.5070
  680MPD2    C210057   3.111   0.562  13.776 -0.6254 -0.2991  0.4150
  680MPD2    C310058   3.148   0.674  13.843  0.5601  0.3457  0.3136
  680MPD2    C410059   3.262   0.679  13.919  0.3814  0.3055 -0.5051
  680MPD2    C510060   3.340   0.569  13.913  0.1734 -0.0811 -0.2804
  680MPD2     H10061   3.016   0.563  13.724 -0.5865 -0.2671  0.3426
  680MPD2    H110062   3.289   0.771  13.971  0.3609  0.0444 -0.0382
  680MPD2    H210063   3.370   0.363  13.857 -0.4912 -0.3307 -2.0080
  680MPD2    H310064   3.436   0.578  13.962  0.4296 -2.0334 -0.4297
  680MPD2     N10065   3.058   0.786  13.854 -0.3199 -0.5220 -0.0528
  680MPD2    H510066   3.085   0.844  13.933 -0.4836 -3.1057  1.8934
  680MPD2    N110067   3.149   0.320  13.723  0.3776  0.6973 -0.1338
  680MPD2    H710068   3.055   0.333  13.686  0.0693 -0.1609  0.3472
  681TMC3    C110069   3.141   0.090  13.674 -0.1566 -0.2455  0.8210
  681TMC3    C210070   3.006   0.076  13.714  0.2832 -0.3199 -0.3013
  681TMC3    C310071   2.948   4.682  13.684 -0.5116 -0.1736  0.3926
  681TMC3    C410072   3.202   4.719  13.603  0.3890 -0.8686 -0.0243
  681TMC3    C510073   3.140   4.599  13.579 -0.5295 -0.3222 -0.1185
  681TMC3    C610074   3.014   4.580  13.616 -0.0175 -0.2756  0.4819
  681TMC3     C10075   3.222   0.202  13.706  0.2300  0.2505 -0.1329
  681TMC3     O10076   3.346   0.187  13.711 -0.1480 -0.1493  0.3907
  681TMC3     H10077   2.962   0.167  13.754 -1.3850 -0.7444 -1.1755
  681TMC3    H110078   3.297   0.010  13.553  1.2819  1.6335  2.4772
  681TMC3    H210079   2.964   4.486  13.594  1.4741 -1.0365  0.3717
  681TMC3    C710080   3.163   4.533  13.457  0.1365  0.2862  0.5634
  681TMC3    C810081   2.811   4.653  13.734  0.4768  0.7754  1.0051
  681TMC3    O110082   3.140   4.416  13.452  0.2794  0.3887 -0.0583
  681TMC3    O210083   2.763   4.552  13.694 -0.1775  0.3367  0.3207
  682MPD2     C10084   0.169   1.883  10.711  0.9815  0.3257  0.3071
  682MPD2    C110085   0.167   1.751  10.723  0.1038 -0.2062  0.0989
  682MPD2    C210086   0.117   1.707  10.841 -0.0418 -0.3861 -0.4588
  682MPD2    C310087   0.082   1.791  10.942 -0.1257  1.2540  0.2461
  682MPD2    C410088   0.069   1.924  10.920  0.0566 -0.8754 -0.0835
  682MPD2    C510089   0.123   1.968  10.801 -0.3334  0.0499  0.2753
  682MPD2     H10090   0.110   1.600  10.855  1.7327 -0.2374  1.4664
  682MPD2    H110091   0.031   1.995  10.992 -0.9950 -1.9259  0.3875
  682MPD2    H210092   0.222   1.933  10.630 -0.3168  0.2270 -0.6062
  682MPD2    H310093   0.126   2.075  10.784 -1.4571 -0.0852 -0.8382
  682MPD2     N10094   0.053   1.747  11.077  0.4469  0.2809  0.4937
  682MPD2    H510095   0.007   1.816  11.135  0.0982  0.7344 -0.3059
  682MPD2    N110096   0.194   1.655  10.622 -0.7608  0.4619 -0.2806
  682MPD2    H710097   0.159   1.560  10.631 -1.0938  0.7329  1.2896
  683TMC3    C110098   0.094   1.742  11.479 -0.7971  0.6361  0.1985
  683TMC3    C210099   0.142   1.629  11.546  0.0333  0.5758  0.4159
  683TMC3    C310100   0.155   1.515  11.470 -0.5929  0.7715 -0.4562
  683TMC3    C410101   0.065   1.749  11.347 -1.0744  0.3019 -0.0522
  683TMC3    C510102   0.082   1.629  11.275  0.3715 -0.2995 -0.1686
  683TMC3    C610103   0.130   1.516  11.335  0.2454 -0.0478 -0.6106
  683TMC3     C10104   0.139   1.863  11.538 -0.7498  0.0735 -0.3359
  683TMC3     O10105   0.102   1.876  11.657 -0.6392 -0.3977  0.1655
  683TMC3     H10106   0.163   1.628  11.652 -1.4072 -1.8314  0.6968
  683TMC3    H110107   0.039   1.845  11.304 -0.3908 -0.4443 -2.1413
  683TMC3    H210108   0.126   1.430  11.270 -0.1359 -0.8291  0.4524
  683TMC3    C710109   0.079   1.622  11.128 -0.7360 -0.0379  0.2913
  683TMC3    C810110   0.203   1.395  11.536  0.2610  0.5957 -0.3615
  683TMC3    O110111   0.112   1.522  11.065 -0.8225  0.0077  0.0446
  683TMC3    O210112   0.238   1.402  11.653  0.8003  0.5429 -0.3090
  684MPD2     C10113   2.925   1.721  16.405 -0.0921  0.3078 -0.8623
  684MPD2    C110114   2.896   1.653  16.291 -0.5919  0.3450 -0.2621
  684MPD2    C210115   2.963   1.703  16.181 -0.1632  0.9841  0.0942
  684MPD2    C310116   3.047   1.814  16.190 -0.5814  0.2255 -0.9150
  684MPD2    C410117   3.061   1.885  16.310  0.1776  0.4680 -0.8437
  684MPD2    C510118   3.002   1.828  16.419  1.0877 -0.1642  0.3521
  684MPD2     H10119   2.932   1.672  16.082 -1.7452  1.6246  0.3885
  684MPD2    H110120   3.133   1.966  16.319  0.7105  0.2128 -2.8695
  684MPD2    H210121   2.890   1.682  16.500  1.4309 -1.4997 -1.0360
  684MPD2    H310122   3.016   1.860  16.522 -0.9000  2.5924 -0.2441
  684MPD2     N10123   3.118   1.865  16.077 -0.7953  0.1373 -0.5001
  684MPD2    H510124   3.191   1.934  16.090 -0.3048 -0.3551 -0.6588
  684MPD2    N110125   2.813   1.529  16.277 -0.3526  0.3210 -0.3603
  684MPD2    H710126   2.830   1.482  16.189 -4.0228 -1.1623 -0.2565
  685TMC3    C110127   2.722   1.327  16.351 -0.6190 -0.9479  0.5607
  685TMC3    C210128   2.651   1.325  16.234  0.1653  0.7204 -0.1562
  685TMC3    C310129   2.634   1.201  16.179 -0.3010 -0.1083  0.2889
  685TMC3    C410130   2.794   1.225  16.390  0.9074 -0.3908 -0.1282
  685TMC3    C510131   2.777   1.101  16.329  0.1102 -0.3474 -0.2402
  685TMC3    C610132   2.700   1.085  16.222 -0.5656  0.2966  0.4096
  685TMC3     C10133   2.764   1.458  16.382 -0.0825 -1.0205  0.1902
  685TMC3     O10134   2.780   1.482  16.503  0.6657  0.2449  0.0554
  685TMC3     H10135   2.597   1.415  16.208  0.3492  0.9329  0.2001
  685TMC3    H110136   2.857   1.233  16.478 -0.2380 -2.1354  0.8474
  685TMC3    H210137   2.689   0.986  16.180 -1.4613  0.2089  0.8488
  685TMC3    C710138   2.895   1.015  16.353  0.5370 -0.6680 -0.3135
  685TMC3    C810139   2.521   1.183  16.096 -0.4802 -0.5408  0.1638
  685TMC3    O110140   2.941   1.009  16.467 -0.0969 -0.3726  0.1710
  685TMC3    O210141   2.449   1.278  16.085  0.3985 -0.5804  0.1137
  686MPD2     C10142   4.090   0.970  15.438  0.2944 -0.0863  0.2214
  686MPD2    C110143   4.125   0.874  15.525  0.3812  0.3642 -0.2890
  686MPD2    C210144   4.252   0.836  15.532 -0.0730  0.5302  0.7717
  686MPD2    C310145   4.357   0.889  15.450  0.4456 -0.6696 -0.2493
  686MPD2    C410146   4.314   0.989  15.361  0.3909  0.4807 -0.5259
  686MPD2    C510147   4.185   1.031  15.365 -0.3259 -0.3539  0.1113
  686MPD2     H10148   4.270   0.748  15.592  2.1576 -1.5890 -2.9609
  686MPD2    H110149   4.387   1.021  15.287  0.1287  1.6634 -0.2869
  686MPD2    H210150   3.986   1.002  15.438  1.0189  2.2041 -1.9180
  686MPD2    H310151   4.151   1.104  15.293  2.0258  1.9277  1.2985
  686MPD2     N10152   4.483   0.838  15.441  0.0002  0.0434  0.2394
  686MPD2    H510153   4.539   0.867  15.362 -0.3100 -0.0205 -0.0019
  686MPD2    N110154   4.024   0.823  15.614 -0.1708 -0.5704 -0.4667
  686MPD2    H710155   3.931   0.862  15.599 -0.3196 -0.4586  0.7062
  687TMC3    C110156   4.602   0.626  15.438 -0.9250 -0.8757  0.1638
  687TMC3    C210157   4.532   0.597  15.326 -0.1581 -0.2855 -0.1109
  687TMC3    C310158   4.468   0.473  15.321  0.3211 -0.0930  0.1549
  687TMC3    C410159   4.627   0.518  15.528 -0.8105  0.6689 -0.2537
  687TMC3    C510160   4.577   0.391  15.503  0.7020 -0.2320 -0.0920
  687TMC3    C610161   4.484   0.368  15.404 -0.2042 -0.7126  0.4894
  687TMC3     C10162   4.523   0.725  15.509 -0.0033  0.6377 -0.0203
  687TMC3     O10163   4.499   0.695  15.623 -0.2187  0.1320 -0.1740
  687TMC3     H10164   4.504   0.680  15.263  1.8811  1.1309  0.8537
  687TMC3    H110165   4.692   0.544  15.611  0.9993  1.1912 -1.8302
  687TMC3    H210166   4.422   0.279  15.399  1.3427 -1.7418 -0.2208
  687TMC3    C710167   4.543   0.330  15.624  0.1592 -0.6066 -0.4665
  687TMC3    C810168   4.327   0.493  15.293  0.2630  0.3502  0.6652
  687TMC3    O110169   4.510   0.211  15.635 -1.2012  0.0963 -0.2763
  687TMC3    O210170   4.317   0.560  15.191  0.2750 -1.1045 -0.1278
  688MPD2     C10171   3.371   4.489  17.639  0.4394 -0.4258 -0.1191
  688MPD2    C110172   3.365   4.366  17.579  0.8406 -0.0621 -0.4037
  688MPD2    C210173   3.372   4.360  17.443 -0.2663  0.6529 -0.1720
  688MPD2    C310174   3.405   4.470  17.369  1.2086  0.0581 -0.2615
  688MPD2    C410175   3.418   4.592  17.433 -0.3420 -1.0989  0.5408
  688MPD2    C510176   3.400   4.603  17.566  0.4655 -0.1674 -0.4960
  688MPD2     H10177   3.347   4.270  17.388 -0.8460 -0.2841  1.6305
  688MPD2    H110178   3.422   4.682  17.371  1.0323 -0.3101  1.7653
  688MPD2    H210179   3.354   4.501   0.048  0.9026 -0.9184  0.0125
  688MPD2    H310180   3.424   4.695  17.619  1.1617  0.5231 -2.0067
  688MPD2     N10181   3.425   4.472  17.223  0.2073 -0.3744 -0.0391
  688MPD2    H510182   3.437   4.563  17.180 -1.3343 -0.4005 -0.5418
  688MPD2    N110183   3.342   4.240  17.654 -0.1001 -0.0246 -0.3709
  688MPD2    H710184   3.312   4.160  17.599  2.3124 -1.0209 -0.2512
  689TMC3    C110185   3.339   4.091   0.147 -0.4398  0.1265  0.0410
  689TMC3    C210186   3.411   4.047   0.256 -0.3442 -0.5631 -0.0537
  689TMC3    C310187   3.419   3.911   0.277 -0.9666  0.9009 -0.8179
  689TMC3    C410188   3.256   4.006   0.078 -0.2414 -0.0388 -0.0069
  689TMC3    C510189   3.269   3.872   0.108 -0.0284 -0.4223  0.0823
  689TMC3    C610190   3.357   3.818   0.201 -0.9835 -0.5025  0.7218
  689TMC3     C10191   3.368   4.222   0.095 -1.0177  0.4308  0.8896
  689TMC3     O10192   3.439   4.299   0.162 -0.2816  0.6462  0.4738
  689TMC3     H10193   3.477   4.115   0.309 -0.5251 -0.2509 -0.2226
  689TMC3    H110194   3.202   4.040  17.687  0.8102  2.1664  0.1878
  689TMC3    H210195   3.353   3.712   0.225 -0.6369 -0.3982  1.2215
  689TMC3    C710196   3.144   3.801   0.113  0.0938  0.2822  0.1612
  689TMC3    C810197   3.426   3.861   0.417  0.6653 -0.3200 -0.3222
  689TMC3    O110198   3.110   3.761   0.225  0.0282 -0.2311  0.7586
  689TMC3    O210199   3.344   3.783   0.462 -0.3749 -0.1663 -0.4505
  690MPD2     C10200   0.269   2.253  15.706 -0.1445 -0.0490 -0.0157
  690MPD2    C110201   0.345   2.165  15.774  0.6305  0.6243 -0.1741
  690MPD2    C210202   0.486   2.180  15.758 -0.2180 -0.3078 -0.1411
  690MPD2    C310203   0.547   2.276  15.675 -0.1133  0.3376  0.3023
  690MPD2    C410204   0.462   2.355  15.601 -0.3230  0.0506  0.5284
  690MPD2    C510205   0.322   2.337  15.613 -0.4834 -0.3281  0.0162
  690MPD2     H10206   0.548   2.116  15.820  0.0296  0.6112  0.5733
  690MPD2    H110207   0.503   2.421  15.526  2.2904 -0.6322  1.3543
  690MPD2    H210208   0.161   2.259  15.703  0.0265  2.7996 -0.5696
  690MPD2    H310209   0.246   2.401  15.569 -1.0422  0.0444  1.5556
  690MPD2     N10210   0.691   2.283  15.674  0.3118 -0.3246  0.1009
  690MPD2    H510211   0.737   2.209  15.727  1.9119  0.7905  0.2645
  690MPD2    N110212   0.293   2.057  15.857 -0.8133 -0.5185 -0.1705
  690MPD2    H710213   0.362   2.002  15.908 -1.8002 -2.0589 -0.4995
  691TMC3    C110214   0.145   1.921  15.972  0.1399 -0.3307 -0.0018
  691TMC3    C210215   0.012   1.884  15.988  0.3656  0.1189  0.1063
  691TMC3    C310216   4.712   1.769  16.057  0.5742  0.3065 -0.2570
  691TMC3    C410217   0.252   1.861  16.042 -0.3524  0.1475 -0.8906
  691TMC3    C510218   0.220   1.752  16.121  0.0962 -0.4595 -0.1530
  691TMC3    C610219   0.089   1.704  16.124  0.3616 -0.4477  0.0581
  691TMC3     C10220   0.162   2.032  15.881 -0.3257 -0.5608 -1.0237
  691TMC3     O10221   0.068   2.105  15.856  0.3659  0.1626 -0.1243
  691TMC3     H10222   4.661   1.946  15.940  2.3166  2.4026  0.0258
  691TMC3    H110223   0.351   1.904  16.042  0.9447 -2.8500 -1.1990
  691TMC3    H210224   0.056   1.621  16.185 -1.4169  0.7549  0.7099
  691TMC3    C710225   0.332   1.664  16.150 -0.1817 -0.3629  0.4180
  691TMC3    C810226   4.572   1.723  16.086 -0.2023 -0.4042 -0.1463
  691TMC3    O110227   0.444   1.709  16.172  0.1446  0.0810  0.2034
  691TMC3    O210228   4.561   1.635  16.169  0.1044 -0.1316 -0.3987
  692TMC3    C110229   2.644   3.018  16.006  0.6047  0.1935 -0.2608
  692TMC3    C210230   2.766   3.032  16.054  0.4863 -0.4525  0.0792
  692TMC3    C310231   2.860   2.943  16.006  0.4633 -0.4348  0.1191
  692TMC3    C410232   2.597   2.915  15.928  0.3307 -0.3021 -0.0914
  692TMC3    C510233   2.696   2.841  15.870  0.2338 -0.4218  0.8126
  692TMC3    C610234   2.825   2.845  15.913 -0.1538  0.0732  0.6417
  692TMC3     C10235   2.550   3.119  16.052 -0.1932 -0.3137 -0.1838
  692TMC3     O10236   2.435   3.088  16.033  0.0721 -0.4080 -0.2420
  692TMC3     H10237   2.807   3.124  16.095  0.4816 -0.1383 -0.6103
  692TMC3    H110238   2.494   2.899  15.898  0.1531  0.5586  0.0581
  692TMC3    H210239   2.914   2.800  15.870  1.3809  0.6189  3.1991
  692TMC3    C710240   2.668   2.738  15.765  0.3658 -0.4979  0.3485
  692TMC3    C810241   2.944   2.884  16.114  0.7799 -0.0240 -0.4723
  692TMC3    O110242   2.562   2.752  15.704  0.1305 -0.4039 -0.2691
  692TMC3    O210243   2.990   2.772  16.089  0.0471 -0.2084 -0.1023
  693MPD2     C10244   2.140   0.949  10.247  0.5439 -0.4527  0.2955
  693MPD2    C110245   2.175   0.931  10.380  0.1982 -0.0901 -0.1830
  693MPD2    C210246   2.308   0.911  10.412  0.5626 -0.1691 -0.6760
  693MPD2    C310247   2.405   0.896  10.309  0.1449  0.1961 -0.3092
  693MPD2    C410248   2.370   0.910  10.178 -0.9105 -0.2228 -0.7823
  693MPD2    C510249   2.240   0.942  10.152 -0.2390  0.0390  0.5068
  693MPD2     H10250   2.334   0.905  10.517 -0.3374  0.5262 -0.4129
  693MPD2    H110251   2.447   0.911  10.102 -0.6512  0.2688 -0.5101
  693MPD2    H210252   2.040   0.964  10.208  0.8025  1.4822  0.3731
  693MPD2    H310253   2.213   0.945  10.047 -1.2258 -0.1652  0.7485
  693MPD2     N10254   2.538   0.863  10.350  0.0027  0.3096 -0.2425
  693MPD2    H510255   2.560   0.847  10.448  3.6262  0.7902 -0.9700
  693MPD2    N110256   2.069   0.912  10.469  0.0515  0.0688  0.3929
  693MPD2    H710257   1.974   0.911  10.432 -0.3204  0.6702  1.3422
  694TMC3    C110258   1.967   0.848  10.680 -0.1355 -0.7843  0.4186
  694TMC3    C210259   1.894   0.749  10.606  0.0559  0.3407  0.0693
  694TMC3    C310260   1.803   0.683  10.682  0.3585  0.1024 -0.3973
  694TMC3    C410261   1.952   0.869  10.810 -0.5948 -0.3883  1.3034
  694TMC3    C510262   1.856   0.807  10.877  0.1342  0.2818 -0.8112
  694TMC3    C610263   1.787   0.705  10.815 -0.2457 -0.3217 -0.7948
  694TMC3     C10264   2.086   0.896  10.605  0.3672 -0.3453  0.2251
  694TMC3     O10265   2.183   0.910  10.681  0.5571 -0.1243 -0.1959
  694TMC3     H10266   1.909   0.727  10.501  1.7477  1.9821 -0.0441
  694TMC3    H110267   2.027   0.937  10.849  0.0418  0.5699 -1.6131
  694TMC3    H210268   1.706   0.654  10.866  1.7713 -1.3829  1.3901
  694TMC3    C710269   1.851   0.835  11.017  0.2993  0.9632 -0.1500
  694TMC3    C810270   1.722   0.582  10.617 -0.0926  0.2366  0.1476
  694TMC3    O110271   1.903   0.936  11.061  0.6368 -0.1145 -0.2113
  694TMC3    O210272   1.674   0.497  10.693 -0.6887  0.1947 -0.5235
  695MPD2     C10273   2.905   2.363  13.446 -1.0660  0.3906 -0.2274
  695MPD2    C110274   2.867   2.428  13.568  0.2089 -0.1859  0.3973
  695MPD2    C210275   2.745   2.484  13.575  0.3946 -0.2916 -0.5493
  695MPD2    C310276   2.664   2.499  13.465  0.0899 -0.8503 -0.2868
  695MPD2    C410277   2.707   2.447  13.347 -0.2239  1.0259  0.0479
  695MPD2    C510278   2.820   2.370  13.337 -0.0370 -0.9560  0.6727
  695MPD2     H10279   2.705   2.511  13.671  1.5110 -0.2811 -0.0804
  695MPD2    H110280   2.659   2.470  13.252  0.5242  1.1263 -0.3012
  695MPD2    H210281   3.002   2.317  13.431 -1.7959 -1.8227  1.8192
  695MPD2    H310282   2.853   2.333  13.241  1.4266 -0.4829  0.9964
  695MPD2     N10283   2.532   2.542  13.487 -0.0580  0.2287  0.5201
  695MPD2    H510284   2.503   2.579  13.577 -1.0196 -0.1553  0.3670
  695MPD2    N110285   2.953   2.435  13.680 -0.2849  0.5122  0.4351
  695MPD2    H710286   2.900   2.475  13.756  1.1443  2.2780  0.4800
  696TMC3    C110287   2.308   2.617  13.439  0.3611 -0.1534  0.1767
  696TMC3    C210288   2.254   2.569  13.558  0.0131  0.4263 -0.2677
  696TMC3    C310289   2.118   2.590  13.579  0.4657  0.5685 -0.2836
  696TMC3    C410290   2.223   2.679  13.346 -0.6598 -0.3401  0.5131
  696TMC3    C510291   2.091   2.701  13.380  0.1818 -0.4500  1.1017
  696TMC3    C610292   2.038   2.673  13.501  0.2464 -0.2910  0.2780
  696TMC3     C10293   2.434   2.558  13.389 -0.4850  0.3431  0.3431
  696TMC3     O10294   2.453   2.579  13.268 -0.2587 -0.7666  0.2213
  696TMC3     H10295   2.305   2.499  13.623 -0.2853  0.1460 -0.3380
  696TMC3    H110296   2.268   2.704  13.250 -3.0094  1.3924 -0.1400
  696TMC3    H210297   1.933   2.686  13.523  0.8632  3.2249  1.1706
  696TMC3    C710298   2.045   2.835  13.339 -0.7365  0.1250  0.0059
  696TMC3    C810299   2.086   2.579  13.715 -0.2405 -0.4195 -0.5864
  696TMC3    O110300   2.043   2.860  13.220  0.4012  0.3380  0.1076
  696TMC3    O210301   2.015   2.491  13.756  0.4147 -0.4911  0.6514
  697MPD2     C10302   2.049   4.514  15.926  0.1007 -0.1675 -0.0776
  697MPD2    C110303   2.113   4.452  15.819  0.2182 -0.1313 -0.1512
  697MPD2    C210304   2.146   4.520  15.704 -0.1768  0.6689 -0.4837
  697MPD2    C310305   2.116   4.646  15.687  0.4777  0.2019  0.6889
  697MPD2    C410306   2.045   4.718  15.787 -0.2301  0.5925  0.1263
  697MPD2    C510307   2.016   4.648  15.904 -0.1015  0.9272 -0.0560
  697MPD2     H10308   2.215   4.467  15.639  0.0956  0.7553 -0.2651
  697MPD2    H110309   2.015   0.099  15.781 -0.9515  0.3775 -0.0372
  697MPD2    H210310   2.025   4.461  16.018  1.3497 -1.8571 -0.7146
  697MPD2    H310311   1.957   4.688  15.986 -0.1357  0.9778 -0.1059
  697MPD2     N10312   2.164   4.707  15.568 -0.9558  0.0841 -0.2420
  697MPD2    H510313   2.226   4.651  15.510 -0.1064 -0.1710  0.9013
  697MPD2    N110314   2.151   4.312  15.818 -0.8043 -0.2889 -0.3657
  697MPD2    H710315   2.209   4.292  15.737 -1.5163 -0.4189 -0.8403
  698TMC3    C110316   2.241   0.152  15.431  0.1301  0.1571 -0.2389
  698TMC3    C210317   2.305   0.266  15.439  0.1388 -0.2230 -0.7538
  698TMC3    C310318   2.393   0.302  15.340  0.2436  0.0967  0.1998
  698TMC3    C410319   2.237   0.072  15.317  0.4669 -0.2054  0.3510
  698TMC3    C510320   2.328   0.104  15.222 -0.3513  0.2687  0.0987
  698TMC3    C610321   2.404   0.224  15.229 -0.3019  0.1483  0.0474
  698TMC3     C10322   2.147   0.119  15.532  0.3324 -1.4033  0.0427
  698TMC3     O10323   2.074   0.205  15.570 -0.8248 -0.1238 -0.1721
  698TMC3     H10324   2.315   0.306  15.539  1.5657  0.8131 -1.3097
  698TMC3    H110325   2.183   4.704  15.296 -1.0951  0.4159  1.7544
  698TMC3    H210326   2.460   0.275  15.151  0.5012 -1.7034 -0.5993
  698TMC3    C710327   2.313   0.036  15.095 -0.2435  0.1609  0.1841
  698TMC3    C810328   2.514   0.360  15.391 -0.2681 -0.2446 -0.9633
  698TMC3    O110329   2.222   4.677  15.084 -0.2565 -0.3101  0.7096
  698TMC3    O210330   2.531   0.349  15.512 -0.0291 -0.3471  0.1231
  699TMC3    C110331   2.330   2.445  12.678  0.1760  0.5684  0.0033
  699TMC3    C210332   2.349   2.343  12.763  0.1502 -0.4843 -0.2289
  699TMC3    C310333   2.249   2.259  12.797  0.2723  0.3441 -0.2245
  699TMC3    C410334   2.201   2.467  12.632  0.4057  0.9012 -0.4033
  699TMC3    C510335   2.102   2.374  12.649 -0.1970 -0.0734 -0.7011
  699TMC3    C610336   2.128   2.272  12.740  1.0074  0.0340 -0.1578
  699TMC3     C10337   2.437   2.517  12.627 -0.8404 -0.3054 -0.5457
  699TMC3     O10338   2.406   2.579  12.525 -0.2040 -0.2553  0.2100
  699TMC3     H10339   2.451   2.321  12.793  0.2563  0.7151  0.2882
  699TMC3    H110340   2.183   2.555  12.572 -0.8504 -0.6173 -2.2818
  699TMC3    H210341   2.048   2.209  12.776  0.8095  0.4733  0.1770
  699TMC3    C710342   1.965   2.431  12.664 -0.3570  0.1006 -0.2989
  699TMC3    C810343   2.248   2.221  12.933  0.5475  0.2820  0.6198
  699TMC3    O110344   1.957   2.554  12.673 -0.1842  0.6831  0.6041
  699TMC3    O210345   2.139   2.165  12.959  0.3943 -0.8594 -0.7936
  700TMC3    C110346   0.890   0.242  17.146 -0.0631 -0.2173 -0.5929
  700TMC3    C210347   0.892   0.104  17.141  0.5736 -0.0522  0.6445
  700TMC3    C310348   0.989   0.040  17.217  0.0323 -0.8680  0.0887
  700TMC3    C410349   0.943   0.307  17.247 -1.0038 -0.3503  0.4448
  700TMC3    C510350   1.016   0.231  17.339  0.1767 -0.9017 -0.3336
  700TMC3    C610351   1.054   0.102  17.319 -0.3059  0.0885 -0.4068
  700TMC3     C10352   0.883   0.307  17.022  0.4835 -0.5986  0.5028
  700TMC3     O10353   0.817   0.254  16.934 -0.7221  0.2355 -0.3522
  700TMC3     H10354   0.845   0.051  17.059  0.2605  0.0215  0.7757
  700TMC3    H110355   0.908   0.408  17.266  1.2091  0.2029  1.5880
  700TMC3    H210356   1.129   0.050  17.378  0.9498 -0.8451 -2.8632
  700TMC3    C710357   1.081   0.299  17.451 -0.7186 -0.0857 -0.0798
  700TMC3    C810358   1.067   4.661  17.152 -0.1653  0.9910  0.2020
  700TMC3    O110359   1.192   0.252  17.488 -0.0236 -0.3651 -0.5684
  700TMC3    O210360   1.186   4.677  17.161 -0.0401 -0.2929 -0.6992
  701TMC3    C110361   1.596   3.760  15.569 -0.7489  0.0626 -0.4587
  701TMC3    C210362   1.599   3.795  15.433  0.2861  0.0052  0.3661
  701TMC3    C310363   1.720   3.824  15.379 -0.2855  0.4303  0.0523
  701TMC3    C410364   1.710   3.779  15.646  0.3356  0.0123 -0.1045
  701TMC3    C510365   1.824   3.819  15.588  0.6969  0.0610 -0.0070
  701TMC3    C610366   1.831   3.825  15.449 -0.5189  0.3692 -0.0216
  701TMC3     C10367   1.468   3.725  15.637 -0.3331 -0.1211  0.2829
  701TMC3     O10368   1.472   3.662  15.739 -0.1532  0.7328  0.6048
  701TMC3     H10369   1.510   3.777  15.374 -0.1696  1.4809  0.6297
  701TMC3    H110370   1.693   3.774  15.753 -0.0854 -0.6091 -0.1973
  701TMC3    H210371   1.931   3.836  15.407  0.2794  2.0965  2.3368
  701TMC3    C710372   1.916   3.907  15.659 -0.1213 -0.2642 -0.1761
  701TMC3    C810373   1.740   3.841  15.235  0.9161 -0.1881  0.0643
  701TMC3    O110374   1.988   3.979  15.593  0.2262 -0.0657 -0.1059
  701TMC3    O210375   1.855   3.856  15.193 -0.1072  0.5777  0.0774
  702MPD2     C10376   1.482   1.255  10.308 -0.0310  0.0546  0.9240
  702MPD2    C110377   1.345   1.219  10.303 -0.4728  1.0691 -0.3835
  702MPD2    C210378   1.287   1.200  10.177 -0.1244 -0.0997  0.8508
  702MPD2    C310379   1.357   1.225  10.060 -0.1718 -0.0853 -0.2014
  702MPD2    C410380   1.487   1.266  10.066  0.6638 -0.0067  0.0352
  702MPD2    C510381   1.542   1.284  10.192 -0.3261  0.3085 -0.3302
  702MPD2     H10382   1.186   1.162  10.170 -0.0155 -0.3344  0.5527
  702MPD2    H110383   1.542   1.303   9.980 -2.7856  2.2301 -1.2164
  702MPD2    H210384   1.537   1.276  10.399 -2.2442  4.4097  1.2785
  702MPD2    H310385   1.641   1.327  10.186 -0.2214  0.0159 -0.6612
  702MPD2     N10386   1.296   1.216   9.932 -0.1004  0.0374  0.6844
  702MPD2    H510387   1.361   1.223   9.854 -1.3377 -0.4637 -0.4116
  702MPD2    N110388   1.258   1.217  10.414  0.1237 -0.7265  0.1623
  702MPD2    H710389   1.160   1.200  10.396 -0.2933  1.9634 -0.0211
  703TMC3    C110390   1.090   1.322   9.995  0.4394  0.0082 -0.2669
  703TMC3    C210391   0.978   1.279  10.066 -0.4201 -0.3160  0.2490
  703TMC3    C310392   0.938   1.357  10.180 -0.5731 -0.2022 -0.2211
  703TMC3    C410393   1.157   1.442  10.034  0.0583 -0.1858 -0.5251
  703TMC3    C510394   1.123   1.495  10.160 -0.0656 -0.2517 -0.8090
  703TMC3    C610395   1.017   1.447  10.231 -0.7936  0.5180  0.2152
  703TMC3     C10396   1.164   1.238   9.904  0.4596  0.4261 -0.4276
  703TMC3     O10397   1.116   1.208   9.793 -0.2491 -0.4635  0.1883
  703TMC3     H10398   0.930   1.185  10.040 -1.3200  0.0045  0.7762
  703TMC3    H110399   1.241   1.482   9.979 -0.1778 -0.6588 -1.2287
  703TMC3    H210400   0.997   1.493  10.328  0.7987 -0.5847  1.0594
  703TMC3    C710401   1.210   1.604  10.202 -0.2709  0.5843  0.0112
  703TMC3    C810402   0.830   1.293  10.261 -0.0978  0.2349  0.2373
  703TMC3    O110403   1.272   1.659  10.111 -0.2301  0.0384 -0.0099
  703TMC3    O210404   0.793   1.175  10.242 -0.1205  0.0614 -0.4411
  704TMC3    C110405   3.637   4.176  12.174 -0.7433  0.6724 -0.0070
  704TMC3    C210406   3.759   4.215  12.132 -0.3454 -0.0058 -0.4787
  704TMC3    C310407   3.838   4.284  12.218 -0.1562  0.9153  0.7794
  704TMC3    C410408   3.593   4.207  12.302 -0.2637 -0.2291 -0.3136
  704TMC3    C510409   3.686   4.257  12.387 -0.2548 -0.1270 -0.2481
  704TMC3    C610410   3.804   4.309  12.347 -0.1627  0.0713 -0.1893
  704TMC3     C10411   3.592   4.046  12.114  0.5637 -0.9278 -0.6670
  704TMC3     O10412   3.481   4.005  12.135  0.5067  0.1362 -0.7265
  704TMC3     H10413   3.795   4.207  12.030  1.3003 -1.6844  0.2211
  704TMC3    H110414   3.502   4.154  12.328  0.0079  0.7223  2.5297
  704TMC3    H210415   3.878   4.338  12.420  0.9071 -2.5840 -0.2167
  704TMC3    C710416   3.713   4.167  12.496 -0.5352 -0.6662 -0.1350
  704TMC3    C810417   3.987   4.274  12.191 -0.3337 -0.0176  0.0704
  704TMC3    O110418   3.832   4.163  12.524  0.6122 -0.2640  0.2408
  704TMC3    O210419   4.015   4.206  12.090 -0.5989 -0.0651 -0.6078
  705MPD2     C10420   3.038   2.277  16.101 -0.1125  0.2003  0.4273
  705MPD2    C110421   3.033   2.402  16.154  0.1967 -0.7813 -0.9258
  705MPD2    C210422   2.937   2.426  16.256 -0.0859  0.3035 -0.2321
  705MPD2    C310423   2.843   2.329  16.294  0.3273 -0.8278  0.2050
  705MPD2    C410424   2.845   2.206  16.227 -0.3768 -0.5219  0.1691
  705MPD2    C510425   2.942   2.186  16.132 -0.2914 -0.0319  1.1485
  705MPD2     H10426   2.939   2.521  16.308  2.1551 -0.0898  0.3680
  705MPD2    H110427   2.764   2.137  16.250 -3.1401  2.2695 -1.1129
  705MPD2    H210428   3.108   2.250  16.023  0.9576 -0.1338  1.5232
  705MPD2    H310429   2.943   2.093  16.076 -1.3891  0.3259  0.5400
  705MPD2     N10430   2.747   2.347  16.392  0.2909 -0.1621 -1.0451
  705MPD2    H510431   2.674   2.277  16.390 -2.2828  2.4756  0.3201
  705MPD2    N110432   3.111   2.508  16.109  0.7884  0.1120 -0.3597
  705MPD2    H710433   3.080   2.601  16.132 -1.3606 -0.6789 -0.0434
  706TMC3    C110434   3.381   2.687  15.777  0.3330 -0.2446 -0.4238
  706TMC3    C210435   3.376   2.816  15.823  0.0892  0.2089  0.0390
  706TMC3    C310436   3.334   2.829  15.954  0.7380  0.6112  0.2896
  706TMC3    C410437   3.331   2.584  15.846 -0.1178 -0.9641  0.1709
  706TMC3    C510438   3.270   2.608  15.966 -0.6097 -0.1023  0.1156
  706TMC3    C610439   3.273   2.727  16.027 -0.4664  0.5322 -0.7915
  706TMC3     C10440   3.480   2.653  15.671  0.3493 -0.4931 -0.8856
  706TMC3     O10441   3.583   2.723  15.668 -0.0081 -0.5635 -0.1542
  706TMC3     H10442   3.426   2.900  15.776 -0.3752  2.0550  2.8513
  706TMC3    H110443   3.332   2.483  15.807  0.2171 -0.9981  0.2689
  706TMC3    H210444   3.253   2.740  16.133 -2.8986  0.4900 -1.2314
  706TMC3    C710445   3.217   2.493  16.027 -0.6711 -0.3571 -0.1672
  706TMC3    C810446   3.298   2.967  15.979  0.2262 -0.2217  0.6715
  706TMC3    O110447   3.285   2.395  16.008 -0.6900  0.2187  0.3918
  706TMC3    O210448   3.281   3.039  15.882 -0.5590  0.6509 -0.1063
  707TMC3    C110449   4.331   1.885   1.355 -0.6237  0.2086 -0.0794
  707TMC3    C210450   4.303   1.826   1.230 -0.2135 -0.2928 -0.4615
  707TMC3    C310451   4.184   1.845   1.175 -0.3687  0.2512 -0.3756
  707TMC3    C410452   4.250   1.981   1.413 -0.3328  0.1809 -0.2014
  707TMC3    C510453   4.144   2.014   1.333  0.1355  0.4312  0.3351
  707TMC3    C610454   4.106   1.953   1.217  0.1043 -0.2594 -0.4749
  707TMC3     C10455   4.439   1.829   1.433 -0.1413 -0.0307  0.7521
  707TMC3     O10456   4.542   1.786   1.380  0.3229  0.4790  0.4901
  707TMC3     H10457   4.367   1.745   1.195  1.7019  2.0692 -2.4181
  707TMC3    H110458   4.265   2.025   1.512 -0.5644 -0.2188  0.0114
  707TMC3    H210459   4.027   1.986   1.152 -1.2884  1.0739  1.8933
  707TMC3    C710460   4.085   2.144   1.359 -0.8084 -0.2534 -0.3033
  707TMC3    C810461   4.132   1.745   1.078 -0.8063 -0.6733 -0.0313
  707TMC3    O110462   4.142   2.203   1.450 -0.4038 -0.2876  0.5312
  707TMC3    O210463   4.019   1.770   1.043 -0.0175  0.2550 -0.1649
  708MPD2     C10464   1.757   0.653  13.853 -0.3314 -0.2231 -0.7364
  708MPD2    C110465   1.725   0.788  13.830  0.6633 -0.0957 -0.0418
  708MPD2    C210466   1.597   0.834  13.838  0.1145 -0.3820 -0.5269
  708MPD2    C310467   1.498   0.751  13.886 -0.5151  0.6696 -0.1974
  708MPD2    C410468   1.527   0.625  13.926  0.4366 -0.1946 -0.1292
  708MPD2    C510469   1.653   0.577  13.903  0.2188  0.0123 -0.5124
  708MPD2     H10470   1.580   0.940  13.822 -1.6083 -0.2410  2.3074
  708MPD2    H110471   1.453   0.552  13.957  1.6142 -2.5070 -2.7571
  708MPD2    H210472   1.859   0.618  13.844 -0.6573 -1.9689  2.6818
  708MPD2    H310473   1.674   0.476  13.935 -0.2894 -0.1184 -0.5964
  708MPD2     N10474   1.366   0.813  13.908  0.2538  0.2094  0.3667
  708MPD2    H510475   1.354   0.901  13.860  0.8170 -0.4095 -0.9305
  708MPD2    N110476   1.813   0.892  13.795  0.2281 -0.2172 -0.0952
  708MPD2    H710477   1.776   0.987  13.799  2.1730  0.6058 -1.6217
  709TMC3    C110478   2.006   1.006  13.724  0.0878  0.0037 -0.3494
  709TMC3    C210479   2.046   0.987  13.598  0.8102 -0.6937  0.1585
  709TMC3    C310480   1.986   1.076  13.502 -0.2669 -0.4814 -0.2687
  709TMC3    C410481   1.926   1.108  13.769 -0.3109 -0.2210  0.0368
  709TMC3    C510482   1.869   1.193  13.673  0.1493  0.0463 -0.0918
  709TMC3    C610483   1.898   1.178  13.540  0.0363  0.1496 -0.4171
  709TMC3     C10484   1.950   0.878  13.766 -0.5512  0.2874  0.5795
  709TMC3     O10485   2.006   0.777  13.735  0.2752 -0.3509  0.0945
  709TMC3     H10486   2.091   0.897  13.558 -4.6155 -2.3415 -2.2205
  709TMC3    H110487   1.901   1.112  13.874 -1.8884  0.0999 -0.3476
  709TMC3    H210488   1.832   1.220  13.465  0.4845  0.9055 -0.3880
  709TMC3    C710489   1.735   1.223  13.710  0.1900 -0.1163  0.3157
  709TMC3    C810490   1.995   1.042  13.362  0.3091  0.3340  0.4850
  709TMC3    O110491   1.693   1.150  13.801 -0.4382  0.5006 -0.3901
  709TMC3    O210492   2.041   0.933  13.334 -0.3691  0.4556  0.3198
  710TMC3    C110493   1.809   2.348   0.642  0.7877  0.1340 -0.3995
  710TMC3    C210494   1.868   2.309   0.520  0.0101 -1.0991 -0.3659
  710TMC3    C310495   1.839   2.191   0.458  0.0272 -0.0586 -0.2824
  710TMC3    C410496   1.708   2.276   0.694 -0.4243 -0.1477 -0.0157
  710TMC3    C510497   1.670   2.159   0.633  0.2737 -0.4563  0.7780
  710TMC3    C610498   1.742   2.112   0.523 -0.2277  0.3383 -0.7516
  710TMC3     C10499   1.812   2.490   0.654  0.7524  0.2007 -0.3021
  710TMC3     O10500   1.894   2.553   0.589 -0.3283 -0.2850 -0.0767
  710TMC3     H10501   1.954   2.368   0.490  0.1639 -1.4099 -0.5444
  710TMC3    H110502   1.658   2.310   0.784 -1.1357 -0.8755 -0.1379
  710TMC3    H210503   1.726   2.010   0.489 -2.6951 -0.3097  2.3033
  710TMC3    C710504   1.605   2.057   0.708  0.1066  0.1280 -0.1275
  710TMC3    C810505   1.925   2.137   0.353  0.2757 -0.2491 -0.0167
  710TMC3    O110506   1.623   2.054   0.831 -0.3847  0.0873 -0.2436
  710TMC3    O210507   1.943   2.017   0.359  0.1628 -0.1739  0.3153
  711TMC3    C110508   1.816   3.409  14.963  0.5115  0.2243  0.4948
  711TMC3    C210509   1.849   3.507  15.051 -0.2637 -0.2047 -0.4864
  711TMC3    C310510   1.978   3.530  15.089 -0.1166  0.1281 -0.1360
  711TMC3    C410511   1.918   3.355  14.887  0.3738  0.2006  0.1124
  711TMC3    C510512   2.047   3.384  14.924 -0.1291 -0.1801  0.1321
  711TMC3    C610513   2.082   3.468  15.024 -0.9386  0.3119  0.1246
  711TMC3     C10514   1.678   3.389  14.914  0.1928  0.0653 -0.5440
  711TMC3     O10515   1.663   3.339  14.803 -0.1725 -0.0164  0.2390
  711TMC3     H10516   1.775   3.565  15.105 -0.3733 -0.8539  0.0736
  711TMC3    H110517   1.890   3.282  14.812  0.2444 -1.0860  1.4063
  711TMC3    H210518   2.188   3.484  15.034 -0.3692 -2.7870 -1.0275
  711TMC3    C710519   2.144   3.276  14.912 -0.6717 -1.1253 -0.6129
  711TMC3    C810520   1.982   3.549  15.234  0.1432 -0.3437 -0.1674
  711TMC3    O110521   2.232   3.268  15.000 -0.0134  0.6951  0.0772
  711TMC3    O210522   1.882   3.537  15.299  0.3477 -0.3324  0.8752
  712MPD2     C10523   3.849   4.020  13.592 -0.4654  0.9050  0.0061
  712MPD2    C110524   3.767   4.099  13.674 -0.1608  0.2258 -0.4180
  712MPD2    C210525   3.814   4.218  13.710 -0.1419  0.0621  0.5846
  712MPD2    C310526   3.941   4.261  13.676 -0.5128 -0.6158  0.2824
  712MPD2    C410527   4.019   4.182  13.595  0.3324 -0.0311 -0.1134
  712MPD2    C510528   3.970   4.067  13.547 -0.7182  0.4083 -0.1136
  712MPD2     H10529   3.747   4.281  13.767  1.9262 -0.6410  3.8060
  712MPD2    H110530   4.120   4.203  13.563  0.1049  0.9720 -0.1709
  712MPD2    H210531   3.798   3.933  13.553 -0.1269  0.9421 -0.5191
  712MPD2    H310532   4.025   3.997  13.485 -0.6778  2.7483 -2.6856
  712MPD2     N10533   3.990   4.393  13.709  0.1564 -0.8324 -0.4037
  712MPD2    H510534   4.089   4.405  13.692 -0.0940  1.2595 -0.3990
  712MPD2    N110535   3.632   4.070  13.700  0.0171 -0.4433 -0.0623
  712MPD2    H710536   3.577   4.136  13.753 -0.3655 -1.1319  0.3982
  713TMC3    C110537   4.000   4.605  13.806 -0.1678 -0.0367 -0.9637
  713TMC3    C210538   4.127   4.578  13.846 -0.7090  0.3118  0.0204
  713TMC3    C310539   4.207   4.685  13.890 -0.4170 -0.1763 -1.0316
  713TMC3    C410540   3.946   0.005  13.808 -0.1913 -0.0541 -0.0819
  713TMC3    C510541   4.014   0.102  13.877 -0.3268  0.5063  0.2709
  713TMC3    C610542   4.144   0.084  13.907 -0.3856 -0.1034 -0.3722
  713TMC3     C10543   3.916   4.493  13.773  0.1747  0.2855  0.2231
  713TMC3     O10544   3.795   4.507  13.784  0.1998  0.2985 -0.1102
  713TMC3     H10545   4.175   4.482  13.828  0.3709  0.5087  1.8933
  713TMC3    H110546   3.842   0.009  13.776 -0.0347  0.7270 -0.4833
  713TMC3    H210547   4.205   0.164  13.946 -1.8560  0.5985  0.5104
  713TMC3    C710548   3.955   0.235  13.902 -0.2248 -0.4695  0.0757
  713TMC3    C810549   4.347   4.681  13.858  0.3121 -0.2325 -0.1740
  713TMC3    O110550   4.024   0.310  13.972  0.1824  0.3706  0.0020
  713TMC3    O210551   4.383   4.592  13.781  0.0252  0.2809  0.0819
  714MPD2     C10552   0.699   4.131   1.352  0.6645  0.1290  0.4164
  714MPD2    C110553   0.653   4.049   1.249 -0.8717 -0.0802  0.8024
  714MPD2    C210554   0.561   4.105   1.154  0.3917  0.2133  0.0040
  714MPD2    C310555   0.516   4.234   1.179  0.2151 -0.2777 -0.4133
  714MPD2    C410556   0.556   4.312   1.290  0.4103 -0.0718  0.1703
  714MPD2    C510557   0.649   4.258   1.375 -1.1406 -0.2099 -0.5856
  714MPD2     H10558   0.526   4.057   1.063  1.3201  2.3482 -1.4907
  714MPD2    H110559   0.527   4.415   1.305  3.1434  0.4743  1.7718
  714MPD2    H210560   0.769   4.096   1.426  2.5362  0.3060 -1.2812
  714MPD2    H310561   0.685   4.318   1.458  1.2201 -1.9146 -0.3842
  714MPD2     N10562   0.424   4.296   1.082 -0.3471  1.1474  0.0943
  714MPD2    H510563   0.401   4.238   1.003  0.3530 -1.5456  1.8793
  714MPD2    N110564   0.692   3.914   1.245 -0.3786  0.1333  0.1145
  714MPD2    H710565   0.741   3.876   1.325  2.2823  0.9632 -1.0976
  715TMC3    C110566   0.712   3.696   1.173 -0.4448 -0.0499  0.0826
  715TMC3    C210567   0.794   3.636   1.080  0.0416  0.1627 -0.5970
  715TMC3    C310568   0.834   3.507   1.115 -0.2235  0.0630 -0.4256
  715TMC3    C410569   0.694   3.647   1.298  0.3121  0.4815 -0.0583
  715TMC3    C510570   0.759   3.531   1.339 -0.3559  0.9186  0.2859
  715TMC3    C610571   0.826   3.458   1.245  0.6835  0.3144  0.3685
  715TMC3     C10572   0.659   3.827   1.143  0.3738  0.3265  0.6055
  715TMC3     O10573   0.613   3.848   1.030  0.1217  0.9366  0.3418
  715TMC3     H10574   0.820   3.685   0.987  0.7401  2.9545  1.0565
  715TMC3    H110575   0.620   3.700   1.357 -0.6981  0.3032 -1.1500
  715TMC3    H210576   0.885   3.373   1.277  2.0951  0.6553 -1.3489
  715TMC3    C710577   0.739   3.472   1.471  0.2618 -0.6378  0.0324
  715TMC3    C810578   0.942   3.443   1.039 -0.2438 -0.0182  0.9665
  715TMC3    O110579   0.744   3.351   1.475 -0.7272  0.6116  0.3590
  715TMC3    O210580   1.017   3.518   0.977 -0.3988  0.2374  0.7060
  716MPD2     C10581   1.267   0.897   9.760  0.8001  0.2383 -0.3304
  716MPD2    C110582   1.198   0.857   9.641 -0.2600  0.8194 -0.2936
  716MPD2    C210583   1.226   0.727   9.604  0.7069 -0.1764 -0.1060
  716MPD2    C310584   1.304   0.638   9.675  0.0036 -0.8176 -0.2513
  716MPD2    C410585   1.371   0.687   9.789 -0.4003  0.0486  0.1902
  716MPD2    C510586   1.359   0.818   9.819 -0.6783  0.5360 -0.3736
  716MPD2     H10587   1.169   0.686   9.520 -2.7422  1.7582  1.2844
  716MPD2    H110588   1.432   0.619   9.847  1.6392  1.9932  0.3340
  716MPD2    H210589   1.249   0.992   9.809  0.5418 -0.8128  1.5688
  716MPD2    H310590   1.403   0.844   9.914 -1.6129  0.7277 -0.0015
  716MPD2     N10591   1.309   0.506   9.635  0.4436  0.0255  0.0542
  716MPD2    H510592   1.265   0.479   9.548  0.0474 -1.9290  0.8523
  716MPD2    N110593   1.107   0.944   9.581  0.2864 -0.3821  0.7768
  716MPD2    H710594   1.099   1.036   9.622  1.3281  0.1556 -0.2096
  717TMC3    C110595   1.353   0.274   9.626  0.0731  0.7894 -0.0810
  717TMC3    C210596   1.235   0.255   9.567 -0.2698  0.1283  0.6989
  717TMC3    C310597   1.211   0.134   9.503  1.0866  0.2345  0.3588
  717TMC3    C410598   1.451   0.183   9.630  0.1311  0.1705  0.2928
  717TMC3    C510599   1.422   0.058   9.580  1.1169 -0.4721  0.4327
  717TMC3    C610600   1.303   0.031   9.503 -0.1738 -0.2047  0.2516
  717TMC3     C10601   1.385   0.402   9.687 -0.5391  0.5064 -0.1838
  717TMC3     O10602   1.454   0.393   9.790  0.0986 -0.6180  0.4797
  717TMC3     H10603   1.156   0.328   9.578 -0.5291 -0.2044  1.0519
  717TMC3    H110604   1.545   0.200   9.681  0.4382  0.0984 -0.2475
  717TMC3    H210605   1.288   4.663   9.448 -1.2688  0.4340 -0.5143
  717TMC3    C710606   1.527   4.686   9.600  0.0316 -0.6298  0.3199
  717TMC3    C810607   1.102   0.139   9.408 -0.4575  0.0652  0.8482
  717TMC3    O110608   1.642   0.012   9.615 -0.8216 -0.3949  0.2238
  717TMC3    O210609   1.018   0.226   9.429  0.1954  0.0584 -0.3522
  718MPD2     C10610   0.495   0.199  13.186 -0.5000 -0.1409  0.4012
  718MPD2    C110611   0.539   0.120  13.292 -0.5955  0.3878 -1.2435
  718MPD2    C210612   0.467   4.720  13.310 -0.2633  0.3156 -0.1164
  718MPD2    C310613   0.370   4.685  13.228 -0.2659  0.0679  0.1250
  718MPD2    C410614   0.322   0.047  13.135 -0.1268 -0.0444  0.2644
  718MPD2    C510615   0.390   0.162  13.116 -0.0710 -0.2376  0.4038
  718MPD2     H10616   0.491   4.652  13.390 -1.3969 -2.0965 -1.8190
  718MPD2    H110617   0.234   0.025  13.076  0.2971  0.7146 -0.6522
  718MPD2    H210618   0.549   0.291  13.168  1.8010 -1.6163 -0.2438
  718MPD2    H310619   0.347   0.225  13.039  1.1554 -0.6636 -0.6172
  718MPD2     N10620   0.322   4.551  13.250 -0.1226 -0.4766 -0.0910
  718MPD2    H510621   0.366   4.497  13.324 -0.0060 -0.0491  0.1516
  718MPD2    N110622   0.659   0.150  13.358  0.4865  0.3945  0.2079
  718MPD2    H710623   0.711   0.225  13.314  0.5646 -0.9878 -2.0320
  719TMC3    C110624   0.867   0.063  13.400  0.3680  0.5376 -0.6802
  719TMC3    C210625   0.923   4.665  13.444  0.2882  0.1339  0.4603
  719TMC3    C310626   0.987   4.582  13.350 -0.3805 -0.7861  0.2438
  719TMC3    C410627   0.893   0.110  13.271  0.0007  0.1065 -0.1955
  719TMC3    C510628   0.963   0.029  13.182  0.2540  0.1205 -0.8608
  719TMC3    C610629   1.020   4.633  13.228 -0.4599  0.1437  0.1436
  719TMC3     C10630   0.727   0.063  13.433  0.3169 -0.0826 -0.0942
  719TMC3     O10631   0.686   4.685  13.488  0.3366 -0.1316 -0.0150
  719TMC3     H10632   0.907   4.620  13.541 -0.3232  1.3266  0.9191
  719TMC3    H110633   0.860   0.203  13.226 -3.2482 -0.4556  1.0044
  719TMC3    H210634   1.058   4.569  13.149  0.8979  0.2028  0.7541
  719TMC3    C710635   0.925   0.043  13.040  0.1388 -0.3259 -0.8141
  719TMC3    C810636   0.934   4.455  13.326 -0.2508  0.4324 -0.1158
  719TMC3    O110637   0.823   0.111  13.024  0.3043  0.4094 -0.0834
  719TMC3    O210638   0.883   4.431  13.216  0.0410 -0.1804  0.4838
  720MPD2     C10639   3.129   1.657  13.909  0.3286 -0.5567  1.2245
  720MPD2    C110640   3.199   1.608  13.809  0.2720  0.5147  0.3587
  720MPD2    C210641   3.319   1.544  13.842  0.2465  0.1692  0.4557
  720MPD2    C310642   3.377   1.542  13.968  0.1713 -0.7136  1.2431
  720MPD2    C410643   3.292   1.580  14.070  0.1375  0.4579  0.4879
  720MPD2    C510644   3.170   1.636  14.041 -0.0904 -0.1263  0.2963
  720MPD2     H10645   3.368   1.497  13.757  0.0805  2.4750 -0.9160
  720MPD2    H110646   3.322   1.594  14.173  0.1167 -0.4457  0.6165
  720MPD2    H210647   3.042   1.719  13.890  0.0331 -1.5449 -0.7122
  720MPD2    H310648   3.123   1.686  14.124  0.2759 -0.2925  0.6007
  720MPD2     N10649   3.514   1.506  13.983  0.4031  0.5422  0.1313
  720MPD2    H510650   3.575   1.512  13.902  0.1764 -0.1307 -0.0934
  720MPD2    N110651   3.165   1.620  13.674 -0.6722 -0.3597  0.4506
  720MPD2    H710652   3.233   1.586  13.608 -0.4552  0.8548  0.0432
  721TMC3    C110653   3.728   1.483  14.081  0.3556  0.8551  0.2262
  721TMC3    C210654   3.799   1.469  14.195 -0.1924  0.3263  0.0665
  721TMC3    C310655   3.928   1.517  14.200  0.3371 -0.3144 -0.4885
  721TMC3    C410656   3.781   1.538  13.967 -0.2568  0.0272 -0.2862
  721TMC3    C510657   3.913   1.579  13.979 -0.5169  0.3660 -0.1549
  721TMC3    C610658   3.988   1.584  14.095  0.6240 -0.1756 -0.3860
  721TMC3     C10659   3.581   1.471  14.096  0.0477  0.2646  0.5817
  721TMC3     O10660   3.533   1.422  14.193  0.1488  0.1030  0.4808
  721TMC3     H10661   3.741   1.457  14.286 -2.5605  1.6364 -1.2963
  721TMC3    H110662   3.737   1.539  13.868  0.8282 -1.7451 -0.8051
  721TMC3    H210663   4.094   1.605  14.088  0.4449  0.5123 -1.0468
  721TMC3    C710664   3.982   1.609  13.862 -0.5711  0.3166 -0.5083
  721TMC3    C810665   4.012   1.523  14.323 -0.2942  0.3537 -0.4136
  721TMC3    O110666   4.102   1.580  13.868 -0.2218  0.0123  0.6116
  721TMC3    O210667   4.120   1.570  14.307  0.4867  0.1674  0.2871
  722MPD2     C10668   2.917   0.039  13.350  0.1144  0.2648 -0.4914
  722MPD2    C110669   2.876   0.174  13.386  0.1740 -0.4052 -0.5307
  722MPD2    C210670   2.745   0.199  13.415 -0.3323  0.3948 -0.1953
  722MPD2    C310671   2.654   0.093  13.415 -0.0013  0.2883 -0.1643
  722MPD2    C410672   2.698   4.686  13.388 -0.0944 -0.2220 -0.7716
  722MPD2    C510673   2.825   4.667  13.358 -0.1361  0.1574 -0.3091
  722MPD2     H10674   2.709   0.299  13.436 -0.5844  0.7091 -2.1295
  722MPD2    H110675   2.628   4.604  13.402 -1.2323  1.1640  1.6763
  722MPD2    H210676   3.014   0.018  13.306 -0.2369 -1.3651 -0.4809
  722MPD2    H310677   2.848   4.565  13.329 -0.4106  0.2028 -0.6908
  722MPD2     N10678   2.510   0.129  13.426 -0.6510 -0.2715  0.6097
  722MPD2    H510679   2.485   0.226  13.438 -3.0955 -0.4215 -3.3224
  722MPD2    N110680   2.965   0.282  13.384 -0.0597  0.5303 -0.5244
  722MPD2    H710681   2.927   0.372  13.412 -0.8983 -0.0182  0.1011
  723TMC3    C110682   2.284   0.146  13.392  0.7574  0.2193  0.5127
  723TMC3    C210683   2.229   0.136  13.274  0.7665 -0.6721 -0.0228
  723TMC3    C310684   2.211   0.253  13.212  0.5963  0.0426 -0.6931
  723TMC3    C410685   2.318   0.266  13.451 -0.6070 -0.0630  0.2782
  723TMC3    C510686   2.294   0.382  13.390 -1.4530  0.0483 -0.7045
  723TMC3    C610687   2.252   0.378  13.258 -0.6106 -0.1012 -0.1194
  723TMC3     C10688   2.394   0.053  13.397  0.0600  0.3389 -0.5771
  723TMC3     O10689   2.392   4.670  13.342 -0.5094  0.1770 -0.7114
  723TMC3     H10690   2.215   0.038  13.231 -3.4100 -0.1636  0.1873
  723TMC3    H110691   2.348   0.269  13.555 -2.4095 -0.9575  0.8276
  723TMC3    H210692   2.230   0.468  13.202 -2.7712  0.8440  2.2200
  723TMC3    C710693   2.392   0.484  13.424 -1.0200  0.2030 -0.0866
  723TMC3    C810694   2.152   0.254  13.074 -0.5037 -0.2006 -1.0054
  723TMC3    O110695   2.495   0.438  13.469 -0.1101  0.2791  0.4606
  723TMC3    O210696   2.128   0.364  13.022 -1.1636 -0.5700 -0.0708
  724TMC3    C110697   2.870   2.431  10.082  0.1775  0.6517  0.2397
  724TMC3    C210698   2.799   2.540  10.046  0.1453 -0.0244  0.0381
  724TMC3    C310699   2.696   2.514   9.956 -1.3196 -0.3236 -0.1750
  724TMC3    C410700   2.879   2.311  10.013 -0.2412 -0.2784  0.1896
  724TMC3    C510701   2.788   2.298   9.916 -0.2471  0.3065 -0.1112
  724TMC3    C610702   2.695   2.394   9.884  0.2532  0.3067  0.4539
  724TMC3     C10703   2.972   2.457  10.177 -0.1638  0.3980  0.2665
  724TMC3     O10704   3.016   2.571  10.184 -0.3753  0.0490 -0.0583
  724TMC3     H10705   2.794   2.618  10.121 -2.6123 -0.2540  0.0856
  724TMC3    H110706   2.942   2.231  10.051 -0.0697 -0.3931 -0.3409
  724TMC3    H210707   2.630   2.385   9.798  0.2198 -0.5400  0.5700
  724TMC3    C710708   2.752   2.169   9.865  0.5991  0.0195 -0.1138
  724TMC3    C810709   2.576   2.590   9.948 -0.3647  0.5614  0.4958
  724TMC3    O110710   2.660   2.148   9.788 -0.2724 -0.3844 -0.0620
  724TMC3    O210711   2.467   2.545   9.910 -0.3280  0.1139 -0.3271
  725TMC3    C110712   4.013   2.012  12.933  0.4314  0.6508  0.0306
  725TMC3    C210713   3.936   2.079  12.844 -0.5665 -0.5080  0.5882
  725TMC3    C310714   3.839   2.010  12.777  0.1437 -0.2235 -0.7960
  725TMC3    C410715   3.997   1.883  12.971  0.0587  0.4527  0.6127
  725TMC3    C510716   3.903   1.820  12.906  0.6141  0.3342  0.1005
  725TMC3    C610717   3.815   1.884  12.822  0.5293 -0.1800  0.6111
  725TMC3     C10718   4.138   2.075  12.954 -0.4997  0.1231  0.1111
  725TMC3     O10719   4.148   2.195  12.936  0.0759  0.5937  0.0483
  725TMC3     H10720   3.967   2.180  12.821  2.0196 -1.5694 -0.5608
  725TMC3    H110721   4.071   1.819  13.019  1.3957  2.8313  1.6856
  725TMC3    H210722   3.748   1.824  12.761  0.3036 -1.0068  1.6760
  725TMC3    C710723   3.952   1.704  12.846 -0.3533  0.2659  0.1587
  725TMC3    C810724   3.825   2.034  12.633  0.7000  0.0031  0.0980
  725TMC3    O110725   4.070   1.676  12.857  0.1862  0.0922 -0.8734
  725TMC3    O210726   3.771   1.947  12.569 -0.1526  0.2767 -0.7576
  726MPD2     C10727   2.829   3.549  10.842 -0.1702  0.1939 -0.9924
  726MPD2    C110728   2.719   3.610  10.782  0.5918 -0.0079 -0.1964
  726MPD2    C210729   2.603   3.528  10.787  0.2848  0.0831 -0.3904
  726MPD2    C310730   2.595   3.405  10.843  0.1909 -0.5259 -0.2566
  726MPD2    C410731   2.706   3.343  10.894 -0.3444  0.4912  0.3880
  726MPD2    C510732   2.824   3.418  10.892 -0.5543 -0.4036  0.0299
  726MPD2     H10733   2.514   3.569  10.741  0.2818 -0.0016 -0.4598
  726MPD2    H110734   2.710   3.241  10.930  0.9648  0.5848  0.5066
  726MPD2    H210735   2.926   3.597  10.845 -1.2116  2.3919 -2.6189
  726MPD2    H310736   2.912   3.367  10.929 -1.0451 -0.3084  1.3344
  726MPD2     N10737   2.475   3.338  10.845  0.0586  0.1730 -0.2426
  726MPD2    H510738   2.474   3.259  10.909  2.3714 -0.3928 -0.9327
  726MPD2    N110739   2.722   3.735  10.721  0.7189 -0.1588  0.2945
  726MPD2    H710740   2.637   3.757  10.669  0.7884  0.3953  0.4122
  727TMC3    C110741   2.803   3.941  10.624 -0.1120  0.1320  0.1067
  727TMC3    C210742   2.886   4.051  10.626 -0.7789  0.9301  0.1854
  727TMC3    C310743   2.858   4.149  10.532 -0.0881 -0.1605  0.2080
  727TMC3    C410744   2.695   3.929  10.537  0.1965 -0.4362 -0.9722
  727TMC3    C510745   2.691   4.015  10.429 -0.0155 -0.7603  0.4229
  727TMC3    C610746   2.766   4.135  10.433 -0.6925 -0.1266 -0.1115
  727TMC3     C10747   2.825   3.827  10.715  0.4850 -0.7763 -0.3363
  727TMC3     O10748   2.936   3.821  10.768  0.2214  0.1670 -0.3503
  727TMC3     H10749   2.967   4.060  10.698  0.9523  1.7424 -1.8705
  727TMC3    H110750   2.637   3.837  10.527 -0.0960 -0.0653 -2.7696
  727TMC3    H210751   2.752   4.211  10.356  0.7750  1.3514  1.0621
  727TMC3    C710752   2.584   3.991  10.342 -0.5098  0.0551  0.1843
  727TMC3    C810753   2.890   4.288  10.555  0.5709  0.0556 -0.2800
  727TMC3    O110754   2.510   3.894  10.360  0.6506 -0.0233 -0.7746
  727TMC3    O210755   2.823   4.378  10.504 -0.3469 -0.2949 -0.0611
  728TMC3    C110756   0.910   2.355  15.631  0.0503 -0.7109 -0.0889
  728TMC3    C210757   0.949   2.307  15.753 -0.9512  0.6217  0.4586
  728TMC3    C310758   1.081   2.308  15.780 -0.3369  0.5594 -0.5663
  728TMC3    C410759   1.006   2.423  15.556  0.2453 -0.4618 -0.3442
  728TMC3    C510760   1.141   2.423  15.589  0.0694 -0.4330 -0.2233
  728TMC3    C610761   1.176   2.361  15.703  0.1295  0.1003  0.5654
  728TMC3     C10762   0.770   2.371  15.595  0.0017 -0.3705  0.0712
  728TMC3     O10763   0.738   2.451  15.508 -0.2042 -0.4131  0.3866
  728TMC3     H10764   0.885   2.246  15.816 -0.3257  2.0318  2.4229
  728TMC3    H110765   0.968   2.480  15.472 -0.1137  0.1526  0.2364
  728TMC3    H210766   1.281   2.341  15.721 -0.4381 -3.0585  0.5120
  728TMC3    C710767   1.224   2.522  15.529  0.3078 -0.4032  0.0696
  728TMC3    C810768   1.113   2.291  15.919  0.0005 -0.4391 -0.2260
  728TMC3    O110769   1.305   2.578  15.602 -0.6216 -0.1902 -0.4694
  728TMC3    O210770   1.049   2.225  16.002 -0.1393  0.0550  0.0337
  729MPD2     C10771   3.855   3.096  16.454  0.0841  0.3619  0.6761
  729MPD2    C110772   3.873   3.209  16.530  0.1649 -0.2049 -1.0752
  729MPD2    C210773   3.851   3.208  16.668  0.8719  0.4729  0.2437
  729MPD2    C310774   3.809   3.088  16.731  0.0195  0.2858 -0.0538
  729MPD2    C410775   3.785   2.978  16.654 -0.0836  0.3621 -0.3456
  729MPD2    C510776   3.815   2.980  16.518  0.5836  0.0170 -0.5794
  729MPD2     H10777   3.851   3.301  16.722 -0.8350  1.0454 -0.7463
  729MPD2    H110778   3.746   2.885  16.694  3.1078 -1.5259 -1.5780
  729MPD2    H210779   3.878   3.088  16.349  2.6512 -0.3268  1.2838
  729MPD2    H310780   3.795   2.889  16.463  0.2886 -0.4929  0.3774
  729MPD2     N10781   3.756   3.091  16.863  0.1952 -0.3070 -0.0061
  729MPD2    H510782   3.735   3.000  16.902  3.1654 -0.4547  1.2357
  729MPD2    N110783   3.896   3.322  16.455  0.1392  0.3307 -0.4246
  729MPD2    H710784   3.904   3.307  16.355  0.5663 -1.6079 -0.1115
  730TMC3    C110785   3.664   3.186  17.066  0.6005 -0.0477  0.7661
  730TMC3    C210786   3.690   3.262  17.178 -0.5647  0.4796 -0.4715
  730TMC3    C310787   3.602   3.241  17.280  0.9790 -0.1221 -0.1676
  730TMC3    C410788   3.558   3.105  17.040  0.4476  0.3520  0.3308
  730TMC3    C510789   3.462   3.104  17.145  0.3786 -0.4970  0.3240
  730TMC3    C610790   3.497   3.154  17.264 -0.0976 -0.2851 -0.4725
  730TMC3     C10791   3.751   3.195  16.950 -0.5383  0.1217 -0.2807
  730TMC3     O10792   3.804   3.307  16.940  0.2114  0.1056 -0.1650
  730TMC3     H10793   3.779   3.323  17.186 -1.4748  1.9286 -1.2737
  730TMC3    H110794   3.528   3.073  16.941 -2.3809 -0.1568  1.3681
  730TMC3    H210795   3.427   3.136  17.345  0.8788 -1.6810  0.0625
  730TMC3    C710796   3.339   3.159  17.086  0.1364  0.3446 -0.3317
  730TMC3    C810797   3.626   3.296  17.409  0.3348  0.1005 -0.4687
  730TMC3    O110798   3.353   3.209  16.978  0.5400  0.0631  0.0146
  730TMC3    O210799   3.573   3.241  17.507 -0.4227 -0.3431 -0.1503
  731MPD2     C10800   4.460   0.576  11.490  0.1379 -0.2889  0.1460
  731MPD2    C110801   4.432   0.705  11.538 -0.1141 -0.0595  0.9919
  731MPD2    C210802   4.480   0.744  11.661  0.2140 -0.7440  0.4565
  731MPD2    C310803   4.561   0.652  11.726  0.5539 -0.2661 -0.7241
  731MPD2    C410804   4.596   0.531  11.677  0.7074  0.6753  0.1880
  731MPD2    C510805   4.544   0.496  11.555 -0.1171  0.0628  0.2119
  731MPD2     H10806   4.467   0.846  11.698 -0.2066 -1.5298  2.5086
  731MPD2    H110807   4.666   0.459  11.718  2.1183  0.5231 -2.5253
  731MPD2    H210808   4.418   0.543  11.396 -0.2281  0.9950 -0.1361
  731MPD2    H310809   4.560   0.401  11.506  0.2934  0.8583 -1.2093
  731MPD2     N10810   4.595   0.691  11.860  0.5737  0.3442  0.0321
  731MPD2    H510811   4.552   0.780  11.885 -1.0220 -0.2551 -0.5619
  731MPD2    N110812   4.353   0.786  11.448  0.1204  0.0398  0.1504
  731MPD2    H710813   4.326   0.737  11.363  0.8752 -0.1035 -0.0075
  732TMC3    C110814   4.240   0.988  11.362  0.3472 -0.1453  0.2950
  732TMC3    C210815   4.142   0.930  11.287  0.0451 -0.4034  0.0655
  732TMC3    C310816   4.030   1.001  11.267  0.8185  0.0775  0.7715
  732TMC3    C410817   4.227   1.119  11.399  0.7898 -0.3101 -0.5126
  732TMC3    C510818   4.110   1.186  11.387 -0.0075 -0.6051 -0.5574
  732TMC3    C610819   4.013   1.127  11.319  0.0284  0.2275 -0.3704
  732TMC3     C10820   4.295   0.909  11.477 -0.7467 -0.7140  0.1004
  732TMC3     O10821   4.316   0.970  11.577  0.0162  0.5449  0.0387
  732TMC3     H10822   4.149   0.828  11.253 -1.0358 -1.0240  1.7456
  732TMC3    H110823   4.320   1.155  11.442 -0.2886  1.0465  0.7003
  732TMC3    H210824   3.917   1.175  11.299 -0.6860 -0.9916  0.1653
  732TMC3    C710825   4.082   1.297  11.474  0.2524 -0.6220  0.1231
  732TMC3    C810826   3.915   0.913  11.245  0.7315  0.4933 -0.2697
  732TMC3    O110827   3.988   1.369  11.456 -0.1295 -0.4403  0.1733
  732TMC3    O210828   3.934   0.819  11.168 -0.9001 -0.7717  0.2258
  733TMC3    C110829   0.111   4.131  13.177  0.6860  0.3603  0.6116
  733TMC3    C210830   0.121   4.270  13.148  0.3885 -0.1308  0.2293
  733TMC3    C310831   0.227   4.338  13.196  0.1885 -0.5326 -0.2858
  733TMC3    C410832   0.191   4.072  13.267  0.1431  0.2435 -0.1618
  733TMC3    C510833   0.303   4.143  13.312  0.3148 -0.3021  0.4133
  733TMC3    C610834   0.314   4.276  13.282  0.6764  0.3547  0.2685
  733TMC3     C10835   4.704   4.078  13.140  0.2079  0.2373  0.2084
  733TMC3     O10836   4.652   4.126  13.041  0.1280  0.6240  0.5095
  733TMC3     H10837   0.050   4.319  13.083 -2.3569 -0.3383  3.1081
  733TMC3    H110838   0.188   3.964  13.278 -2.0737  0.4731  1.3961
  733TMC3    H210839   0.384   4.337  13.339  0.5597  3.3088 -2.7690
  733TMC3    C710840   0.410   4.081  13.396  0.5166  0.2346 -0.5294
  733TMC3    C810841   0.221   4.483  13.181  0.0961 -0.2536  0.6774
  733TMC3    O110842   0.394   3.991  13.472 -1.0135 -0.2861 -0.2113
  733TMC3    O210843   0.145   4.527  13.097  0.0396 -0.2915 -0.1024
  734MPD2     C10844   1.750   2.139  12.057  0.0246 -0.8572  0.7312
  734MPD2    C110845   1.836   2.062  11.987  0.8629 -0.5353 -0.4259
  734MPD2    C210846   1.953   2.126  11.947  0.2350  0.8130 -0.0096
  734MPD2    C310847   1.972   2.261  11.960  0.5899 -0.2009  0.2533
  734MPD2    C410848   1.879   2.336  12.037  0.4879  0.4563  0.1426
  734MPD2    C510849   1.769   2.273  12.087 -0.7672  0.2495  0.6987
  734MPD2     H10850   2.020   2.066  11.887 -0.7831 -1.2309  0.9077
  734MPD2    H110851   1.879   2.444  12.048 -1.2918  0.4392  0.3484
  734MPD2    H210852   1.657   2.103  12.099 -0.7635  1.5053  1.0334
  734MPD2    H310853   1.693   2.329  12.140  0.7460  3.0773 -0.1293
  734MPD2     N10854   2.068   2.319  11.872  0.5133 -0.0565 -0.5141
  734MPD2    H510855   2.117   2.251  11.815 -0.1687  0.4802 -1.7391
  734MPD2    N110856   1.801   1.938  11.940 -0.3781 -0.1828  0.4202
  734MPD2    H710857   1.702   1.914  11.935 -0.1553 -0.7557 -1.0796
  735TMC3    C110858   1.841   1.712  11.854  0.0683 -0.7745 -0.3441
  735TMC3    C210859   1.774   1.722  11.734 -0.5450 -0.2021 -0.1393
  735TMC3    C310860   1.804   1.638  11.630 -0.1710 -0.5634 -0.0251
  735TMC3    C410861   1.922   1.604  11.870 -0.1992  0.0444 -0.0261
  735TMC3    C510862   1.938   1.510  11.769  0.9566 -0.2786  0.8958
  735TMC3    C610863   1.888   1.530  11.650 -0.0559 -0.2793  0.6909
  735TMC3     C10864   1.893   1.838  11.902  0.4495  1.1169 -0.6951
  735TMC3     O10865   2.015   1.844  11.885 -0.3509 -0.2742 -0.0775
  735TMC3     H10866   1.725   1.816  11.713  1.2605 -0.0033 -3.5138
  735TMC3    H110867   1.991   1.592  11.953 -0.7285  0.7852  0.5267
  735TMC3    H210868   1.932   1.473  11.569  1.6592  0.2498  1.2585
  735TMC3    C710869   2.066   1.447  11.768 -0.0945  0.5158  0.2056
  735TMC3    C810870   1.838   1.713  11.518 -0.1099 -0.3440  0.7567
  735TMC3    O110871   2.144   1.484  11.679  0.5052 -0.2367  0.6306
  735TMC3    O210872   1.814   1.655  11.409 -0.0817 -0.3896  0.0511
  736MPD2     C10873   2.216   1.216  12.020 -0.4707 -0.3460  0.2342
  736MPD2    C110874   2.213   1.310  11.915 -0.2417  0.9545  0.3057
  736MPD2    C210875   2.327   1.327  11.833 -0.4324 -0.3748  0.8483
  736MPD2    C310876   2.446   1.256  11.864 -0.3664  0.3624  0.7709
  736MPD2    C410877   2.450   1.175  11.975  0.5046  0.3125 -0.4039
  736MPD2    C510878   2.331   1.153  12.051  0.7173  0.2419 -0.5840
  736MPD2     H10879   2.336   1.382  11.740  1.5252 -3.2516 -0.6533
  736MPD2    H110880   2.544   1.126  11.996  1.1749  2.1220  0.8010
  736MPD2    H210881   2.130   1.175  12.071 -1.2444  1.3351  0.2507
  736MPD2    H310882   2.336   1.076  12.127  0.8658  0.4108 -0.4223
  736MPD2     N10883   2.561   1.260  11.785  1.0012 -0.5654 -0.4788
  736MPD2    H510884   2.632   1.190  11.805  0.4020 -0.6686  1.2819
  736MPD2    N110885   2.087   1.376  11.883 -0.2680  0.5195 -0.0507
  736MPD2    H710886   2.010   1.378  11.950 -0.7697 -1.1306 -0.5851
  737TMC3    C110887   2.728   1.337  11.643 -0.5827 -0.5067 -0.4522
  737TMC3    C210888   2.796   1.451  11.612  0.1958 -0.4617  0.5575
  737TMC3    C310889   2.912   1.434  11.538 -0.2245  0.2681  0.3210
  737TMC3    C410890   2.764   1.213  11.600  0.5738  0.4611 -0.4914
  737TMC3    C510891   2.886   1.198  11.532 -0.1987 -0.1395  0.1577
  737TMC3    C610892   2.955   1.309  11.498  0.8698  0.6859  0.0805
  737TMC3     C10893   2.596   1.363  11.695  0.1876 -0.1875  0.3877
  737TMC3     O10894   2.553   1.473  11.681 -0.1908  0.2941  0.6282
  737TMC3     H10895   2.758   1.552  11.623  5.3847  1.4885  0.6845
  737TMC3    H110896   2.710   1.121  11.618  0.9208 -0.0855 -2.1755
  737TMC3    H210897   3.040   1.320  11.431  0.5397 -0.5119 -0.5204
  737TMC3    C710898   2.937   1.067  11.498 -1.2361 -0.0238 -0.5912
  737TMC3    C810899   2.966   1.552  11.479 -0.3665  0.2341  0.2048
  737TMC3    O110900   2.886   0.979  11.570 -0.4510 -0.2864 -0.1346
  737TMC3    O210901   2.946   1.651  11.549 -0.0522 -0.4021  0.2264
  738MPD2     C10902   2.791   0.417  15.428  0.4089 -0.1629 -0.2553
  738MPD2    C110903   2.723   0.456  15.316  0.6662  0.2420  1.0118
  738MPD2    C210904   2.795   0.541  15.232 -0.5008 -0.0244  1.0909
  738MPD2    C310905   2.927   0.577  15.257  0.2125 -0.5173 -0.2483
  738MPD2    C410906   2.991   0.529  15.369 -0.3348 -0.2741  0.1151
  738MPD2    C510907   2.923   0.449  15.459  0.4391  0.3826  0.0028
  738MPD2     H10908   2.739   0.583  15.149 -0.5581 -0.7554  0.7559
  738MPD2    H110909   3.096   0.546  15.391 -0.2919  0.4492 -0.6739
  738MPD2    H210910   2.749   0.344  15.497 -2.7970  0.7508 -1.2394
  738MPD2    H310911   2.969   0.416  15.551 -1.1158 -0.7904  0.3599
  738MPD2     N10912   3.000   0.660  15.164  0.2874 -0.2124 -0.3173
  738MPD2    H510913   3.094   0.686  15.191 -0.3394  2.0559 -0.3375
  738MPD2    N110914   2.587   0.424  15.292  0.2292  0.1914 -0.1403
  738MPD2    H710915   2.556   0.443  15.197 -0.7306  2.2765  0.5929
  739TMC3    C110916   3.041   0.797  14.977  0.0760  0.9542  0.3010
  739TMC3    C210917   2.983   0.884  14.891 -0.7973  0.2005  0.0908
  739TMC3    C310918   3.062   0.957  14.806 -0.3113  0.1592  0.3276
  739TMC3    C410919   3.175   0.786  14.989  0.7604  0.2991 -1.1626
  739TMC3    C510920   3.251   0.856  14.905  0.5531 -0.3298 -0.0885
  739TMC3    C610921   3.199   0.940  14.812 -0.7768 -0.3748  0.2503
  739TMC3     C10922   2.954   0.706  15.044  0.0762  0.0729 -0.1760
  739TMC3     O10923   2.848   0.685  14.984 -0.2632  0.2155 -0.1930
  739TMC3     H10924   2.875   0.895  14.893 -0.8139 -0.2674  1.6806
  739TMC3    H110925   3.222   0.719  15.061 -0.1931  0.8767  0.0009
  739TMC3    H210926   3.267   0.991  14.744 -0.8260 -0.6070  0.0272
  739TMC3    C710927   3.391   0.830  14.888  0.5253 -0.2806  0.3853
  739TMC3    C810928   3.012   1.010  14.679 -0.1985  0.8719  0.5919
  739TMC3    O110929   3.452   0.934  14.856 -0.1114  0.5192  0.4675
  739TMC3    O210930   2.915   0.956  14.636  0.1956  0.1845  0.0223
  740TMC3    C110931   3.326   1.976  14.070 -0.1705  0.1953  0.6252
  740TMC3    C210932   3.402   1.953  14.182  0.0883  0.2372 -0.0430
  740TMC3    C310933   3.520   1.898  14.159 -0.4600 -0.6206  0.4339
  740TMC3    C410934   3.355   1.926  13.944 -0.4046  0.4620  0.1060
  740TMC3    C510935   3.473   1.859  13.928 -0.3684  0.4681 -0.0825
  740TMC3    C610936   3.553   1.836  14.037 -0.1611 -0.3619  0.0046
  740TMC3     C10937   3.206   2.060  14.077  0.2811  0.8710 -0.4474
  740TMC3     O10938   3.164   2.124  13.982 -0.0590 -0.1276  0.6659
  740TMC3     H10939   3.379   1.998  14.277 -0.8926 -2.4638  1.0056
  740TMC3    H110940   3.292   1.946  13.858  1.2128  0.0706 -1.1695
  740TMC3    H210941   3.644   1.779  14.024  0.4541  0.6781 -0.3259
  740TMC3    C710942   3.524   1.802  13.799  0.0816  0.3552 -0.8868
  740TMC3    C810943   3.606   1.855  14.269  0.1497  0.3352  0.2409
  740TMC3    O110944   3.622   1.732  13.804 -0.1479 -0.0225 -0.4426
  740TMC3    O210945   3.666   1.748  14.260  0.1701  0.0224 -0.2317
  741TMC3    C110946   2.696   1.406  14.495  0.5716  0.0766 -0.1526
  741TMC3    C210947   2.646   1.309  14.409 -0.0109 -0.3584 -0.6176
  741TMC3    C310948   2.633   1.184  14.459 -0.7567 -0.0586  0.9471
  741TMC3    C410949   2.732   1.376  14.624 -0.4832  0.7918 -0.1137
  741TMC3    C510950   2.698   1.254  14.674  0.7071 -0.0741  0.2866
  741TMC3    C610951   2.665   1.152  14.588  0.7666 -0.0096 -0.2007
  741TMC3     C10952   2.738   1.531  14.441  0.3081  0.0597  1.4487
  741TMC3     O10953   2.817   1.594  14.514  0.3644  0.7712 -0.4540
  741TMC3     H10954   2.645   1.314  14.301 -2.5096  1.4434 -0.5085
  741TMC3    H110955   2.779   1.451  14.686  0.4991  1.0740 -1.2244
  741TMC3    H210956   2.629   1.056  14.623 -1.8072  0.8048 -0.6227
  741TMC3    C710957   2.722   1.222  14.813  0.4290 -0.2805  0.4355
  741TMC3    C810958   2.518   1.121  14.400 -0.0596  0.1205  0.1790
  741TMC3    O110959   2.794   1.295  14.879  0.4412 -0.0094  0.4743
  741TMC3    O210960   2.447   1.195  14.334  0.3251 -0.1929  0.0550
  742TMC3    C110961   2.542   4.515  15.267  0.4260 -0.6623  0.4165
  742TMC3    C210962   2.438   4.474  15.188 -0.4138 -0.3134 -0.4139
  742TMC3    C310963   2.472   4.372  15.098 -0.1864  0.6029  0.6138
  742TMC3    C410964   2.677   4.472  15.255  0.5237 -0.2837 -0.1467
  742TMC3    C510965   2.699   4.373  15.162 -0.5501 -0.8610  0.4488
  742TMC3    C610966   2.601   4.324  15.081  0.1989  0.5568 -0.1418
  742TMC3     C10967   2.501   4.548  15.401  0.2193 -0.7146  0.0726
  742TMC3     O10968   2.380   4.545  15.421 -0.0090  0.3919 -0.1709
  742TMC3     H10969   2.343   4.467  15.240 -0.3295 -1.0802 -0.3565
  742TMC3    H110970   2.760   4.523  15.303 -0.9954  1.1909  0.8910
  742TMC3    H210971   2.625   4.249  15.006 -0.0214 -0.9741  1.3378
  742TMC3    C710972   2.828   4.302  15.162 -0.4917 -0.8451  0.5258
  742TMC3    C810973   2.385   4.335  14.989 -0.2354  0.3478  0.1543
  742TMC3    O110974   2.925   4.358  15.201 -0.0273 -0.5959  0.1027
  742TMC3    O210975   2.411   4.228  14.935  0.4175  0.4411  0.2204
  743MPD2     C10976   4.638   0.952   1.738  0.5329 -0.2897 -0.3610
  743MPD2    C110977   4.679   0.882   1.628 -0.2360  0.3068 -0.1880
  743MPD2    C210978   0.080   0.821   1.626 -0.1433  0.3065  0.5959
  743MPD2    C310979   0.164   0.832   1.738  0.2193  0.0524 -0.5443
  743MPD2    C410980   0.115   0.898   1.854 -0.6623  0.3392 -0.2412
  743MPD2    C510981   4.720   0.964   1.848  0.3352  1.0936 -1.0062
  743MPD2     H10982   0.107   0.766   1.537  0.9079  0.9714  0.4986
  743MPD2    H110983   0.181   0.907   1.939 -1.6845  0.3397  0.5575
  743MPD2    H210984   4.547   1.010   1.742 -1.4162 -3.3936  0.6535
  743MPD2    H310985   4.696   1.021   1.937 -1.1092 -0.3433 -0.4774
  743MPD2     N10986   0.301   0.782   1.728 -0.0609  0.1745  0.2285
  743MPD2    H510987   0.306   0.735   1.638  1.8818  2.9654 -1.1247
  743MPD2    N110988   4.603   0.905   1.506 -0.1387 -0.3438 -0.4915
  743MPD2    H710989   4.531   0.976   1.496 -0.3375 -0.0394  3.0481
  744TMC3    C110990   4.544   0.878   1.282  0.5346  0.5767 -0.2703
  744TMC3    C210991   4.533   1.010   1.253  0.1302 -0.0577  0.0254
  744TMC3    C310992   4.512   1.051   1.124 -0.0390  0.1933 -0.0992
  744TMC3    C410993   4.532   0.794   1.181 -0.3297  0.0394  0.0366
  744TMC3    C510994   4.509   0.832   1.051 -0.0410 -0.2477  0.1735
  744TMC3    C610995   4.496   0.967   1.021 -0.3359 -0.2864 -0.2916
  744TMC3     C10996   4.621   0.826   1.397 -0.1948  0.0725  0.0393
  744TMC3     O10997   4.682   0.721   1.385  0.0219 -0.1542 -0.1246
  744TMC3     H10998   4.559   1.088   1.323  1.6385 -1.1984  0.7338
  744TMC3    H110999   4.544   0.687   1.196 -2.5841 -0.1361  0.5267
  744TMC3    H211000   4.503   1.004   0.919  0.6115 -0.8449 -0.4306
  744TMC3    C711001   4.536   0.735   0.944  0.7427  0.0734 -0.0930
  744TMC3    C811002   4.455   1.183   1.100  0.3740  0.2613 -0.0417
  744TMC3    O111003   4.615   0.648   0.968 -0.5614 -0.5617  0.5625
  744TMC3    O211004   4.484   1.272   1.177 -0.3238  0.0607  0.0179
  745TMC3    C111005   3.419   3.981  13.647 -0.4107  0.1675 -0.6144
  745TMC3    C211006   3.348   4.069  13.716  0.3435 -0.2240 -0.1189
  745TMC3    C311007   3.216   4.091  13.673  0.1682 -0.1299  0.4219
  745TMC3    C411008   3.367   3.922  13.539 -0.0959 -0.3129  0.6509
  745TMC3    C511009   3.242   3.967  13.487  0.2455  0.1414  0.6060
  745TMC3    C611010   3.161   4.049  13.558  0.5472  0.2081  0.9085
  745TMC3     C11011   3.559   3.957  13.674  0.2343  0.3128 -0.4674
  745TMC3     O11012   3.611   3.853  13.639  0.0194 -0.4779 -0.5316
  745TMC3     H11013   3.379   4.094  13.816  0.4127  3.7055 -1.1027
  745TMC3    H111014   3.441   3.876  13.475  0.1721  2.0297 -0.7530
  745TMC3    H211015   3.063   4.081  13.525  1.5970  0.4896 -1.9268
  745TMC3    C711016   3.220   3.969  13.342  0.2475  0.6625 -0.5162
  745TMC3    C811017   3.135   4.193  13.743  0.5320  0.8391  0.1880
  745TMC3    O111018   3.116   4.015  13.302  0.7004 -0.2482 -0.1372
  745TMC3    O211019   3.010   4.183  13.739 -0.1709  0.4495 -0.1015
  746TMC3    C111020   1.097   1.474  10.755 -0.5290  0.4141  0.5800
  746TMC3    C211021   1.206   1.423  10.690 -0.1340 -0.3409 -0.3103
  746TMC3    C311022   1.184   1.311  10.620 -0.2842  0.3666  0.4703
  746TMC3    C411023   0.976   1.417  10.766 -0.0890  0.2248 -0.3734
  746TMC3    C511024   0.968   1.301  10.702 -0.2971 -0.1912  0.1548
  746TMC3    C611025   1.065   1.248  10.629  0.8829 -0.4019  0.3422
  746TMC3     C11026   1.110   1.596  10.835 -0.7015 -0.1978 -0.6336
  746TMC3     O11027   1.007   1.649  10.874  0.2513 -0.4831 -0.3221
  746TMC3     H11028   1.302   1.472  10.675  0.2908 -0.7019  1.2269
  746TMC3    H111029   0.893   1.464  10.818  0.7982 -0.8128  1.9848
  746TMC3    H211030   1.050   1.156  10.573  1.0301 -0.0447 -0.2897
  746TMC3    C711031   0.852   1.211  10.723 -0.1349  0.2843  0.5224
  746TMC3    C811032   1.295   1.269  10.540 -0.3193  0.2701  0.3310
  746TMC3    O111033   0.862   1.101  10.674 -0.1739 -0.1626 -1.2969
  746TMC3    O211034   1.404   1.309  10.577 -0.0888 -0.1817  0.0747
  747TMC3    C111035   3.715   0.937  10.775 -0.6389 -0.0533  0.0933
  747TMC3    C211036   3.616   0.870  10.836  0.2705  0.6849 -0.2629
  747TMC3    C311037   3.574   0.918  10.956 -0.4195  0.0907  0.7963
  747TMC3    C411038   3.780   1.046  10.831 -0.0316  0.1374  0.0643
  747TMC3    C511039   3.739   1.091  10.956  0.0476 -0.2292  0.7949
  747TMC3    C611040   3.632   1.027  11.017  0.1248  0.3888 -0.1834
  747TMC3     C11041   3.742   0.923  10.634 -0.4112 -0.1026  0.8550
  747TMC3     O11042   3.737   1.029  10.569  0.0311 -0.2787  0.2160
  747TMC3     H11043   3.566   0.786  10.788 -1.0804  0.6249  1.2604
  747TMC3    H111044   3.859   1.085  10.767  0.7639 -0.5504  0.6284
  747TMC3    H211045   3.585   1.058  11.109  2.1006  0.7501  0.7086
  747TMC3    C711046   3.816   1.189  11.033 -0.5110 -0.5184  0.1093
  747TMC3    C811047   3.460   0.850  11.016  0.1361 -0.8661 -0.1145
  747TMC3    O111048   3.749   1.239  11.124  0.0526 -0.2510 -0.2070
  747TMC3    O211049   3.445   0.728  10.998 -0.0431  0.5004  0.1900
  748MPD2     C11050   3.867   2.547   1.872  0.0406 -0.2862 -0.1877
  748MPD2    C111051   3.865   2.421   1.823 -0.1158 -0.0219  0.4275
  748MPD2    C211052   3.985   2.374   1.764  0.3137 -0.4392 -0.6220
  748MPD2    C311053   4.101   2.446   1.764  0.7764  0.5629  0.5826
  748MPD2    C411054   4.102   2.568   1.826  0.0010  0.3824  0.9988
  748MPD2    C511055   3.981   2.621   1.872  0.1707  0.4500 -0.1834
  748MPD2     H11056   3.982   2.280   1.711 -4.2027 -0.8260  0.2504
  748MPD2    H111057   4.194   2.621   1.846 -0.2739  0.4137  2.1787
  748MPD2    H211058   3.781   2.600   1.913  0.7037  1.0027 -0.4673
  748MPD2    H311059   3.982   2.722   1.913  1.3932 -0.2386  1.4754
  748MPD2     N11060   4.215   2.384   1.704  0.1157 -0.2162  0.2852
  748MPD2    H511061   4.200   2.302   1.645  1.1885  1.5855 -2.4646
  748MPD2    N111062   3.740   2.355   1.815  0.0563  0.2790 -0.5741
  748MPD2    H711063   3.655   2.400   1.849 -0.7134 -1.5093 -0.1481
  749TMC3    C111064   4.441   2.361   1.620 -0.6311 -0.5433  0.3961
  749TMC3    C211065   4.472   2.235   1.663 -0.4141 -0.5175  0.2907
  749TMC3    C311066   4.588   2.180   1.619  0.0582  0.0021 -0.2932
  749TMC3    C411067   4.518   2.429   1.531 -0.3259  0.1052 -0.6659
  749TMC3    C511068   4.623   2.361   1.473  0.1094 -0.5907  0.1902
  749TMC3    C611069   4.665   2.237   1.517 -0.5456  0.4122  0.1507
  749TMC3     C11070   4.338   2.442   1.687 -0.1899 -0.0105 -0.3269
  749TMC3     O11071   4.372   2.556   1.702 -0.6211 -0.6272 -0.3275
  749TMC3     H11072   4.420   2.187   1.744 -0.6232 -1.8954 -0.6571
  749TMC3    H111073   4.487   2.522   1.483 -0.8355  0.6298  0.7000
  749TMC3    H211074   0.019   2.174   1.474  0.3691  1.1553  0.7125
  749TMC3    C711075   4.713   2.443   1.390  0.4546  0.0536  0.2421
  749TMC3    C811076   4.622   2.057   1.683  0.4182 -0.8158  0.0826
  749TMC3    O111077   4.669   2.556   1.363  0.4674 -0.5684 -0.0182
  749TMC3    O211078   4.565   2.038   1.791  0.4955  0.2220 -0.0446
  750MPD2     C11079   1.541   3.234  11.239 -0.3918  0.2123  0.3455
  750MPD2    C111080   1.419   3.217  11.165 -0.6042  0.0490  0.5081
  750MPD2    C211081   1.383   3.090  11.126  0.5571  0.4696  0.2649
  750MPD2    C311082   1.472   2.985  11.138 -0.3659  0.0403  0.3859
  750MPD2    C411083   1.589   3.005  11.208 -0.4617 -0.1167  0.6411
  750MPD2    C511084   1.631   3.125  11.249  0.0074  0.2222 -0.2127
  750MPD2     H11085   1.287   3.076  11.077  0.7705  0.8812 -0.2705
  750MPD2    H111086   1.662   2.927  11.226 -0.7500 -0.5563 -0.0625
  750MPD2    H211087   1.583   3.331  11.263  1.3964 -0.4853  0.0485
  750MPD2    H311088   1.730   3.142  11.291  0.5859 -2.3208 -0.5894
  750MPD2     N11089   1.438   2.854  11.104  0.0985 -0.2271  0.3967
  750MPD2    H511090   1.509   2.783  11.122 -0.0872 -0.9441 -1.6677
  750MPD2    N111091   1.343   3.334  11.135 -0.5082  0.3520  0.3634
  750MPD2    H711092   1.371   3.419  11.181  0.9057  0.3070 -0.4012
  751TMC3    C111093   1.322   2.666  11.028 -0.1555  0.3468 -0.0330
  751TMC3    C211094   1.198   2.602  11.007  0.0467  0.2334 -0.2953
  751TMC3    C311095   1.205   2.464  10.982  0.4291 -0.2594 -0.4302
  751TMC3    C411096   1.441   2.597  11.016 -0.6393 -0.8691 -0.6936
  751TMC3    C511097   1.443   2.458  11.011  0.4524 -0.0815 -0.9701
  751TMC3    C611098   1.319   2.390  11.001 -0.4738  0.5149 -0.4632
  751TMC3     C11099   1.315   2.807  11.062 -0.8476  0.0757  0.2587
  751TMC3     O11100   1.206   2.867  11.042 -0.6606  0.2339 -0.0576
  751TMC3     H11101   1.110   2.665  11.010 -0.9226 -1.1776  0.9824
  751TMC3    H111102   1.534   2.652  11.024 -0.2614 -1.3464 -1.7645
  751TMC3    H211103   1.308   2.282  11.009 -0.7301  0.6662  1.0804
  751TMC3    C711104   1.574   2.395  11.015 -1.0871 -0.3767  0.1527
  751TMC3    C811105   1.078   2.386  10.983  0.0680  0.6459  0.4359
  751TMC3    O111106   1.674   2.466  11.042  0.1594 -0.2755  0.1324
  751TMC3    O211107   1.068   2.263  10.968  0.0706 -0.2013 -0.2397
  752TMC3    C111108   4.401   4.123  16.964 -0.0965  0.2921  0.6384
  752TMC3    C211109   4.289   4.103  17.041 -0.7797  0.5948  0.1818
  752TMC3    C311110   4.309   4.105  17.174 -0.5312 -0.2275  0.6768
  752TMC3    C411111   4.527   4.153  17.006 -0.8644 -0.6093  0.1740
  752TMC3    C511112   4.535   4.148  17.142  0.3249  0.3574  0.6903
  752TMC3    C611113   4.433   4.122  17.227  0.2510 -0.1727  0.1459
  752TMC3     C11114   4.374   4.175  16.839 -0.2787 -0.3744  0.4931
  752TMC3     O11115   4.425   4.282  16.807 -0.1068  0.2203  0.9407
  752TMC3     H11116   4.188   4.088  17.006 -1.5487  2.6202  1.4980
  752TMC3    H111117   4.605   4.177  16.935 -0.5790 -0.3055  0.5915
  752TMC3    H211118   4.449   4.105  17.332 -1.3082 -1.5058  0.1486
  752TMC3    C711119   4.674   4.143  17.192 -0.1636 -0.2939 -0.5078
  752TMC3    C811120   4.186   4.094  17.258 -0.2506 -0.5264 -1.5452
  752TMC3    O111121   0.034   4.104  17.115  0.4359 -0.4563 -0.6108
  752TMC3    O211122   4.097   4.013  17.224 -0.6914  0.0070 -0.1528
  753TMC3    C111123   1.698   4.115  13.374 -0.1997  0.9933  0.0039
  753TMC3    C211124   1.776   4.077  13.482  0.0769  0.1706  0.3041
  753TMC3    C311125   1.739   3.969  13.553  0.0006  0.3420 -0.7727
  753TMC3    C411126   1.591   4.039  13.325  0.3051  0.4963  0.8714
  753TMC3    C511127   1.563   3.920  13.391 -0.0140  0.0210 -0.3711
  753TMC3    C611128   1.632   3.891  13.507 -0.1609 -0.3592  0.6054
  753TMC3     C11129   1.713   4.256  13.331  0.5229 -0.1447 -0.2093
  753TMC3     O11130   1.744   4.336  13.418  0.4960 -0.6731 -0.4373
  753TMC3     H11131   1.868   4.128  13.508 -0.4393  0.6778  1.1455
  753TMC3    H111132   1.540   4.081  13.239  1.5080  1.6886  0.7418
  753TMC3    H211133   1.594   3.808  13.565 -0.9041 -1.2774 -1.2261
  753TMC3    C711134   1.431   3.874  13.374 -0.2201  0.5428 -0.1089
  753TMC3    C811135   1.779   3.942  13.694 -0.2926 -0.2924  0.4138
  753TMC3    O111136   1.386   3.809  13.466 -0.4578 -0.0930  0.0200
  753TMC3    O211137   1.749   3.832  13.739  0.3930  0.4827  0.1357
  754MPD2     C11138   0.718   2.354  12.738 -0.1721 -0.2492  0.2424
  754MPD2    C111139   0.688   2.357  12.875 -0.2699  0.0629 -0.1635
  754MPD2    C211140   0.568   2.427  12.909 -0.2327 -0.2553 -0.0238
  754MPD2    C311141   0.479   2.470  12.816  0.5769  0.9622 -0.7155
  754MPD2    C411142   0.510   2.455  12.683 -0.2968  0.5855 -0.3905
  754MPD2    C511143   0.630   2.409  12.649  0.0459 -0.3030 -1.0265
  754MPD2     H11144   0.533   2.434  13.011  1.1410  0.0540  0.4311
  754MPD2    H111145   0.456   2.510  12.607  0.0181  2.3608  0.6799
  754MPD2    H211146   0.806   2.307  12.695  0.2314  1.9345 -1.3330
  754MPD2    H311147   0.658   2.397  12.544  2.9855  0.2239 -0.3133
  754MPD2     N11148   0.356   2.535  12.849  0.0565 -0.4852  0.2606
  754MPD2    H511149   0.289   2.556  12.775 -2.0323 -1.7752  1.7922
  754MPD2    N111150   0.779   2.292  12.962  0.6173  0.3697  1.2445
  754MPD2    H711151   0.875   2.280  12.930 -0.1885  0.6853 -1.2335
  755MPD2     C11152   4.613   3.271  13.387  0.2992 -0.5310 -0.3991
  755MPD2    C111153   4.516   3.178  13.369  0.3291  0.4088 -0.1066
  755MPD2    C211154   4.551   3.058  13.308  0.1862  0.0464 -0.5020
  755MPD2    C311155   4.684   3.031  13.261 -0.5595 -0.2256 -0.4683
  755MPD2    C411156   0.056   3.125  13.295  0.1098 -0.1168  0.3489
  755MPD2    C511157   0.022   3.246  13.357 -0.1112 -0.3240  0.1560
  755MPD2     H11158   4.473   2.984  13.297 -1.3465  1.6249 -0.1922
  755MPD2    H111159   0.158   3.114  13.258  1.2398  0.2548  3.3676
  755MPD2    H211160   4.595   3.356  13.451  2.6762 -0.9905  0.9082
  755MPD2    H311161   0.093   3.320  13.391  0.2465 -1.0015  0.9098
  755MPD2     N11162   4.720   2.914  13.181  0.3269 -0.7942  0.2759
  755MPD2    H511163   0.085   2.918  13.132 -0.8355 -0.3013 -1.7626
  755MPD2    N111164   4.381   3.212  13.384 -0.3554  0.6832  0.1804
  755MPD2    H711165   4.309   3.141  13.374  0.5692  0.0853 -2.2871
  756MPD2     C11166   1.135   3.676   9.269 -0.0409  0.0332 -0.3004
  756MPD2    C111167   1.071   3.642   9.389  0.0446  0.8854 -1.3172
  756MPD2    C211168   0.939   3.596   9.382  0.2688  0.7758  0.1506
  756MPD2    C311169   0.867   3.584   9.265 -0.3902  0.3882 -0.0475
  756MPD2    C411170   0.934   3.616   9.149  0.5457  0.1537  0.3037
  756MPD2    C511171   1.063   3.661   9.150 -0.4131  0.1463 -0.3557
  756MPD2     H11172   0.895   3.581   9.480  1.4677  1.3910  0.7805
  756MPD2    H111173   0.879   3.610   9.055  0.4082  0.1673  0.3832
  756MPD2    H211174   1.239   3.708   9.265  0.1164 -0.4640 -0.0759
  756MPD2    H311175   1.117   3.680   9.058 -0.0919 -1.6181 -0.5282
  756MPD2     N11176   0.727   3.552   9.267 -0.3446  0.7071  0.7298
  756MPD2    H511177   0.692   3.538   9.361  0.7351 -1.1527  0.8563
  756MPD2    N111178   1.124   3.664   9.517  0.7447  0.7625  0.0815
  756MPD2    H711179   1.063   3.646   9.596  0.0463 -1.4599 -0.9549
  757MPD2     C11180   0.308   2.791   9.408  0.0020 -0.1116  0.4454
  757MPD2    C111181   0.412   2.869   9.461  0.3554  0.5020  0.6152
  757MPD2    C211182   0.427   3.002   9.432  0.2944  0.3648  0.5503
  757MPD2    C311183   0.326   3.073   9.370 -0.3197 -0.1550  0.1378
  757MPD2    C411184   0.216   3.002   9.329 -0.0911  0.3027 -0.1736
  757MPD2    C511185   0.211   2.864   9.346 -0.0684 -0.4424  1.1374
  757MPD2     H11186   0.510   3.059   9.471  0.6425 -0.0678  0.4407
  757MPD2    H111187   0.138   3.046   9.268 -1.7863  0.4785  2.1107
  757MPD2    H211188   0.299   2.685   9.430  0.8260 -0.1784  0.4510
  757MPD2    H311189   0.122   2.811   9.315  0.6581 -0.5847 -0.7025
  757MPD2     N11190   0.349   3.208   9.348 -0.3615  0.3967  0.4701
  757MPD2    H511191   0.443   3.241   9.371  0.0538 -0.7566  0.4032
  757MPD2    N111192   0.513   2.796   9.537  0.3603  0.2126 -0.5285
  757MPD2    H711193   0.506   2.695   9.528  1.0331  0.2813 -1.8058
  758MPD2     C11194   4.495   3.029  16.081  0.8463 -0.5397  0.4549
  758MPD2    C111195   4.541   2.923  16.154 -0.4784 -0.3765  0.1610
  758MPD2    C211196   4.573   2.936  16.286 -0.0924 -0.2674 -0.3366
  758MPD2    C311197   4.555   3.051  16.357  0.6567  0.1197 -0.1697
  758MPD2    C411198   4.515   3.159  16.284  0.2315  0.0923  0.3437
  758MPD2    C511199   4.492   3.146  16.151  0.6662  0.1757  0.3311
  758MPD2     H11200   4.613   2.852  16.341  0.3820 -0.1644 -0.5229
  758MPD2    H111201   4.504   3.255  16.334  0.2731 -0.2052  0.9174
  758MPD2    H211202   4.472   3.024  15.975  0.0834  0.1190  0.5896
  758MPD2    H311203   4.463   3.233  16.093 -0.1771 -0.1505  0.2600
  758MPD2     N11204   4.581   3.073  16.494 -0.4368 -0.0028  0.1434
  758MPD2    H511205   4.589   3.169  16.527 -1.7081  0.2946 -0.4207
  758MPD2    N111206   4.572   2.811  16.081 -0.3944  0.1994 -0.6905
  758MPD2    H711207   4.575   2.819  15.980 -1.0255 -1.8023 -0.8568
  759MPD2     C11208   4.368   0.735  10.294  0.3682  0.1319  0.4666
  759MPD2    C111209   4.344   0.675  10.178  0.3450 -0.0964 -0.1424
  759MPD2    C211210   4.371   0.734  10.055 -0.6385  0.3636 -0.0914
  759MPD2    C311211   4.416   0.862  10.055  1.0133 -0.0939  0.2691
  759MPD2    C411212   4.460   0.918  10.174  0.1978 -0.2754  0.8218
  759MPD2    C511213   4.426   0.856  10.291  0.4127  0.0575 -0.4804
  759MPD2     H11214   4.345   0.685   9.962  0.7192 -2.5094  1.0211
  759MPD2    H111215   4.502   1.018  10.182  2.8256 -1.2432 -0.9486
  759MPD2    H211216   4.362   0.683  10.389 -0.2366  0.3710  0.5626
  759MPD2    H311217   4.464   0.899  10.383  1.1460  1.0275 -1.2293
  759MPD2     N11218   4.420   0.929   9.929  0.3508  0.0650 -0.7784
  759MPD2    H511219   4.404   0.881   9.841 -0.9138 -0.4462 -0.2709
  759MPD2    N111220   4.276   0.551  10.176 -0.0443  0.0822 -0.3493
  759MPD2    H711221   4.265   0.502  10.088 -1.2961  1.0657 -0.7470
  760MPD2     C11222   4.138   2.958  11.406 -0.4741 -0.6658 -0.0749
  760MPD2    C111223   4.265   2.946  11.461  0.4697  0.0066 -0.2477
  760MPD2    C211224   4.273   2.914  11.597  0.5582 -0.2852 -0.3341
  760MPD2    C311225   4.155   2.892  11.670 -0.1800  0.2805 -0.2222
  760MPD2    C411226   4.036   2.894  11.605 -0.0349 -0.9386  0.3383
  760MPD2    C511227   4.022   2.933  11.477 -0.0132  0.3972 -1.1307
  760MPD2     H11228   4.371   2.921  11.645 -0.4382  1.0328  1.5396
  760MPD2    H111229   3.948   2.867  11.662 -1.6658  0.5616 -1.4694
  760MPD2    H211230   4.107   2.988  11.307  1.1207 -1.0297 -0.6754
  760MPD2    H311231   3.924   2.942  11.431 -0.3156 -2.9789 -1.1561
  760MPD2     N11232   4.150   2.849  11.806  0.7129 -0.1056 -0.2596
  760MPD2    H511233   4.058   2.833  11.844  0.0635 -0.0726 -1.8217
  760MPD2    N111234   4.381   2.985  11.388 -0.1338 -1.0149 -0.4335
  760MPD2    H711235   4.471   2.982  11.435  0.0474  1.3335 -0.6259
  761MPD2     C11236   0.559   2.421  11.093 -0.3388 -0.4451  0.1040
  761MPD2    C111237   0.629   2.326  11.017  0.3770  0.3046 -0.3061
  761MPD2    C211238   0.766   2.340  10.996  0.4589 -0.7052 -0.3762
  761MPD2    C311239   0.836   2.454  11.045 -0.1111 -0.5392 -0.4073
  761MPD2    C411240   0.760   2.546  11.115 -0.7562  0.3969 -0.0811
  761MPD2    C511241   0.627   2.532  11.138 -0.8290 -0.1742  0.5459
  761MPD2     H11242   0.822   2.264  10.942  0.4779 -0.1323 -1.1741
  761MPD2    H111243   0.799   2.643  11.144  0.4010  0.3880 -1.6315
  761MPD2    H211244   0.453   2.427  11.116  0.0616  1.6076  1.3623
  761MPD2    H311245   0.577   2.613  11.189 -0.9668 -0.5091  0.9468
  761MPD2     N11246   0.977   2.473  11.027  0.4017 -0.1747  0.0030
  761MPD2    H511247   1.019   2.557  11.067  1.6908 -1.9905  2.4763
  761MPD2    N111248   0.552   2.217  10.966  0.2156 -0.1475  0.0802
  761MPD2    H711249   0.453   2.220  10.991  0.0598 -1.8731 -0.3380
  762MPD2     C11250   0.481   1.339  10.629 -0.1846 -0.4154  0.0157
  762MPD2    C111251   0.547   1.464  10.619 -0.1104 -0.9362 -0.7620
  762MPD2    C211252   0.634   1.478  10.516  0.9616  0.6051 -0.4790
  762MPD2    C311253   0.664   1.369  10.441  0.1838  0.4933  0.0625
  762MPD2    C411254   0.601   1.248  10.456 -0.1147 -0.1930  0.3479
  762MPD2    C511255   0.508   1.237  10.549 -0.2368 -0.2542 -0.2972
  762MPD2     H11256   0.677   1.574  10.489  3.6038 -0.4567 -0.0182
  762MPD2    H111257   0.622   1.156  10.402 -1.4834 -0.9141  1.0211
  762MPD2    H211258   0.412   1.311  10.707 -0.4958  0.8350  0.1845
  762MPD2    H311259   0.447   1.148  10.557 -0.2175 -0.2213  0.1818
  762MPD2     N11260   0.764   1.390  10.340  0.1576  0.1661  0.2295
  762MPD2    H511261   0.791   1.484  10.314 -2.6713  0.3802 -2.0400
  762MPD2    N111262   0.522   1.570  10.715  0.3009 -0.3854  0.8569
  762MPD2    H711263   0.454   1.549  10.787 -1.9955 -1.4912 -1.6481
  763MPD2     C11264   2.578   2.520  16.023 -0.5782 -0.4173  0.9988
  763MPD2    C111265   2.459   2.586  16.059 -0.3474 -0.0734  0.3086
  763MPD2    C211266   2.458   2.674  16.161 -0.3636  0.0323  1.0024
  763MPD2    C311267   2.584   2.700  16.226  0.1014  0.2616 -0.3733
  763MPD2    C411268   2.698   2.638  16.193  0.1539 -0.0726 -0.3066
  763MPD2    C511269   2.693   2.542  16.095 -0.0778 -0.2958  0.2157
  763MPD2     H11270   2.369   2.726  16.193 -0.3205  0.5228  0.3133
  763MPD2    H111271   2.795   2.660  16.236 -0.9021 -1.2659  2.6879
  763MPD2    H211272   2.589   2.455  15.937  0.5466  0.2177  0.6622
  763MPD2    H311273   2.782   2.496  16.054 -1.1725 -0.7712 -1.6277
  763MPD2     N11274   2.587   2.798  16.331 -0.1500 -0.0136 -0.0882
  763MPD2    H511275   2.678   2.799  16.377  0.7728  1.1896 -1.9702
  763MPD2    N111276   2.348   2.584  15.973 -0.6247 -1.2316 -0.0628
  763MPD2    H711277   2.270   2.649  15.979 -1.6241 -2.3213 -1.0906
  764MPD2     C11278   0.226   4.616  17.478  0.0567 -0.4429 -0.2338
  764MPD2    C111279   0.110   4.634  17.395 -0.0308 -0.4473 -0.2106
  764MPD2    C211280   0.001   4.699  17.448  0.2806 -0.7940  0.5644
  764MPD2    C311281   0.002   0.007  17.584 -0.0213 -0.1060  0.0680
  764MPD2    C411282   0.114   4.712  17.662 -0.0868  0.2265 -0.7334
  764MPD2    C511283   0.224   4.649  17.610  0.6005  0.3686 -0.9498
  764MPD2     H11284   4.638   4.711  17.384  0.8245 -0.9263 -0.2018
  764MPD2    H111285   0.123   0.018   0.069 -1.1614  2.4282 -1.2750
  764MPD2    H211286   0.306   4.553  17.439 -0.6333 -1.2184 -0.3922
  764MPD2    H311287   0.304   4.635  17.683 -0.6741 -0.4501  0.2913
  764MPD2     N11288   4.615   0.083  17.635  0.1048 -0.4545 -0.0123
  764MPD2    H511289   4.539   0.102  17.570 -0.0478 -1.2624 -0.0683
  764MPD2    N111290   0.097   4.584  17.262 -0.5235 -0.0233 -0.1694
  764MPD2    H711291   0.003   4.587  17.223 -0.6859 -1.4130  0.1174
  765MPD2     C11292   4.072   1.764  16.022 -0.7712 -0.2901  0.1457
  765MPD2    C111293   4.127   1.887  15.984  0.0369 -0.5125  0.7059
  765MPD2    C211294   4.263   1.899  15.987 -0.2992 -0.5614 -0.3856
  765MPD2    C311295   4.340   1.796  16.038 -0.8013  0.4392 -0.5752
  765MPD2    C411296   4.283   1.684  16.101  0.4968 -0.0267  0.1501
  765MPD2    C511297   4.148   1.669  16.084 -0.1414 -0.2857 -0.1964
  765MPD2     H11298   4.310   1.983  15.938 -1.3569 -0.7705 -1.7510
  765MPD2    H111299   4.329   1.608  16.164 -0.6206 -0.7196  0.1222
  765MPD2    H211300   3.967   1.740  16.032 -0.5292 -1.3855  0.0797
  765MPD2    H311301   4.094   1.587  16.131  0.1028 -0.6992 -0.6276
  765MPD2     N11302   4.479   1.809  16.034 -0.9248  0.4795 -0.3610
  765MPD2    H511303   4.505   1.890  15.979 -0.4775  1.0707  0.7008
  765MPD2    N111304   4.039   1.991  15.943  0.5981  0.0961 -0.1818
  765MPD2    H711305   3.940   1.974  15.930  0.1145  1.5518  1.5992
  766MPD2     C11306   3.923   1.925  15.306  0.5441  0.4520 -0.0759
  766MPD2    C111307   3.999   2.036  15.343  0.7221 -0.7155 -0.2754
  766MPD2    C211308   4.119   2.060  15.276  0.0456 -0.5290  0.2651
  766MPD2    C311309   4.157   1.990  15.172  0.0452  0.1083 -0.6028
  766MPD2    C411310   4.080   1.888  15.131  0.2703  0.1336  0.0164
  766MPD2    C511311   3.965   1.845  15.205 -0.3585  0.3379 -0.4069
  766MPD2     H11312   4.175   2.147  15.309 -2.7306  0.7084  1.7353
  766MPD2    H111313   4.109   1.833  15.042  1.9976  0.6606  0.2507
  766MPD2    H211314   3.828   1.899  15.352  1.4536 -1.2860  0.8419
  766MPD2    H311315   3.899   1.771  15.161  1.1041 -0.7835 -0.7135
  766MPD2     N11316   4.278   2.020  15.108 -0.2090  0.4715 -0.1619
  766MPD2    H511317   4.328   2.102  15.141  1.2825  0.2398 -1.8162
  766MPD2    N111318   3.953   2.123  15.449  0.9658  0.1192 -0.0053
  766MPD2    H711319   4.026   2.185  15.483  0.1048  1.0628  0.1260
  767MPD2     C11320   3.955   2.438  15.099 -0.1758 -0.1182  1.0148
  767MPD2    C111321   4.075   2.380  15.091  0.6388 -0.4955 -0.4285
  767MPD2    C211322   4.095   2.283  14.995  0.1284 -0.4653  0.0097
  767MPD2    C311323   3.990   2.264  14.901 -0.6575  0.4726 -0.2335
  767MPD2    C411324   3.865   2.329  14.915  0.2720  0.1307 -0.4045
  767MPD2    C511325   3.853   2.420  15.017 -0.6629 -0.9401  0.2981
  767MPD2     H11326   4.191   2.232  14.991  1.0422  1.1852  0.9299
  767MPD2    H111327   3.778   2.326  14.850  1.2672  3.2740 -1.8440
  767MPD2    H211328   3.935   2.501  15.185  0.0065 -0.2126  1.1267
  767MPD2    H311329   3.754   2.463  15.030 -0.0300  0.2846  1.0709
  767MPD2     N11330   4.015   2.169  14.789  0.9258 -0.0285  0.5147
  767MPD2    H511331   4.096   2.109  14.802  1.4331  0.8875  1.5800
  767MPD2    N111332   4.177   2.432  15.169  0.2088  0.0874 -0.1038
  767MPD2    H711333   4.147   2.511  15.226 -0.2452  0.2791 -0.6108
  768MPD2     C11334   0.688   0.203  10.881 -0.3100 -0.2099 -0.1799
  768MPD2    C111335   0.717   0.334  10.857 -0.0775  0.2634  0.4721
  768MPD2    C211336   0.837   0.386  10.906  0.1660  0.3198 -0.1401
  768MPD2    C311337   0.922   0.318  10.987  0.1209  0.0883  0.0027
  768MPD2    C411338   0.884   0.190  11.018  0.1000 -0.0773 -0.0676
  768MPD2    C511339   0.770   0.134  10.963  0.4597 -0.4478  0.5372
  768MPD2     H11340   0.874   0.481  10.867 -1.3527  0.9650  0.0087
  768MPD2    H111341   0.955   0.133  11.075  1.1397  1.6026  0.3329
  768MPD2    H211342   0.591   0.156  10.868  0.1838 -1.0725 -0.7423
  768MPD2    H311343   0.741   0.033  10.986  0.5852 -0.4159  0.8375
  768MPD2     N11344   1.047   0.361  11.034  0.4237  0.0048 -0.4748
  768MPD2    H511345   1.107   0.304  11.092 -0.1489 -0.4765 -0.3557
  768MPD2    N111346   0.627   0.416  10.792  0.1904 -0.0023  0.3417
  768MPD2    H711347   0.662   0.510  10.781 -0.6045  0.1941 -0.5312
  769MPD2     C11348   1.582   3.723  14.755  0.2001  0.5897  0.1250
  769MPD2    C111349   1.468   3.774  14.821 -0.4036  0.3021  0.6172
  769MPD2    C211350   1.493   3.802  14.960  0.0505  0.7440  0.9616
  769MPD2    C311351   1.621   3.809  15.019 -0.4127 -0.1682 -0.2711
  769MPD2    C411352   1.728   3.766  14.939 -0.4828  0.5382 -0.6184
  769MPD2    C511353   1.704   3.724  14.813 -0.4495 -0.2526 -0.2491
  769MPD2     H11354   1.406   3.833  15.016 -1.2672  0.2930 -0.8347
  769MPD2    H111355   1.827   3.756  14.980 -1.6621 -0.5734  1.9187
  769MPD2    H211356   1.581   3.682  14.655 -0.6220 -1.4929  1.0044
  769MPD2    H311357   1.791   3.691  14.758 -0.9422 -2.8782  0.5205
  769MPD2     N11358   1.625   3.834  15.157 -0.1428 -0.2227 -0.3946
  769MPD2    H511359   1.538   3.850  15.207 -0.5942 -4.3811  0.2075
  769MPD2    N111360   1.335   3.779  14.765 -0.0269  0.0790  0.3405
  769MPD2    H711361   1.322   3.754  14.668  1.2637 -0.6572  0.3564
  770MPD2     C11362   0.827   3.392  15.416 -0.6474  0.0333 -0.2578
  770MPD2    C111363   0.867   3.308  15.318  0.2868  0.7741 -0.8012
  770MPD2    C211364   0.869   3.357  15.193  0.9695  0.5865  0.5027
  770MPD2    C311365   0.834   3.488  15.168 -0.1490 -0.1842  0.3734
  770MPD2    C411366   0.802   3.575  15.272  0.0448  0.5358  0.0758
  770MPD2    C511367   0.796   3.524  15.398  0.3257  0.0531 -0.4592
  770MPD2     H11368   0.893   3.295  15.107 -3.6393 -1.0355  0.3605
  770MPD2    H111369   0.786   3.682  15.267  1.1797  0.7293  0.8478
  770MPD2    H211370   0.834   3.372  15.522 -2.2405  0.4147 -0.0724
  770MPD2    H311371   0.778   3.578  15.489  0.9348 -0.3969 -0.0696
  770MPD2     N11372   0.841   3.530  15.033  0.1243 -0.0715  0.2127
  770MPD2    H511373   0.882   3.465  14.967  0.9073 -0.3602  0.9760
  770MPD2    N111374   0.902   3.177  15.352  0.0614 -0.2757  0.0697
  770MPD2    H711375   0.877   3.140  15.443  0.5962  1.0510  0.7524
  771MPD2     C11376   1.800   1.784  13.747  0.8223 -0.6933  0.2268
  771MPD2    C111377   1.853   1.855  13.647  0.2808 -0.3302 -0.0777
  771MPD2    C211378   1.935   1.790  13.555 -0.0758  0.3405 -0.2964
  771MPD2    C311379   1.962   1.654  13.563  0.7766 -0.2449  0.9182
  771MPD2    C411380   1.906   1.589  13.664  0.5149  0.0566  0.2507
  771MPD2    C511381   1.826   1.653  13.757 -0.3548  0.8390  0.1667
  771MPD2     H11382   1.995   1.853  13.490  0.8242 -3.7904 -3.5209
  771MPD2    H111383   1.924   1.485  13.687 -2.1404 -0.5268 -0.2586
  771MPD2    H211384   1.754   1.837  13.830  0.8538  2.2744 -1.6573
  771MPD2    H311385   1.804   1.605  13.852  0.9338 -1.0734 -0.4877
  771MPD2     N11386   2.058   1.598  13.479  0.0960  0.1698 -0.2392
  771MPD2    H511387   2.098   1.659  13.407 -0.6610 -1.4304 -2.0165
  771MPD2    N111388   1.833   1.996  13.626  0.4235  0.0094  0.2837
  771MPD2    H711389   1.860   2.026  13.532 -1.2653 -3.9449 -1.4942
  772MPD2     C11390   1.342   2.351  13.210 -0.5484  0.0975  0.0687
  772MPD2    C111391   1.353   2.295  13.334 -0.8833  0.2146 -0.3187
  772MPD2    C211392   1.253   2.210  13.384 -0.1129 -0.1835  0.4925
  772MPD2    C311393   1.141   2.183  13.297  0.4735 -0.0274  0.4767
  772MPD2    C411394   1.129   2.240  13.173  0.2591 -0.4438 -0.4230
  772MPD2    C511395   1.238   2.315  13.131 -0.1789  0.0920  0.1598
  772MPD2     H11396   1.266   2.166  13.482  0.3160  0.5973  0.7870
  772MPD2    H111397   1.042   2.229  13.110 -1.0757 -0.6980  1.4623
  772MPD2    H211398   1.418   2.421  13.175  0.1489  0.6139  2.6080
  772MPD2    H311399   1.221   2.367  13.037 -2.4085 -3.0525 -1.2051
  772MPD2     N11400   1.036   2.098  13.331  0.1221 -0.4370 -0.0173
  772MPD2    H511401   0.958   2.113  13.269 -0.7968  2.6514  1.8745
  772MPD2    N111402   1.460   2.333  13.417 -0.3049  0.6913  0.2138
  772MPD2    H711403   1.461   2.296  13.511  0.9386  3.0013  1.0916
  773MPD2     C11404   0.463   2.980   0.498 -0.6792 -0.1373 -0.0703
  773MPD2    C111405   0.477   2.880   0.407  1.1819 -0.1699 -0.3657
  773MPD2    C211406   0.565   2.777   0.426 -0.1734  0.6434 -0.0561
  773MPD2    C311407   0.649   2.778   0.537 -0.1927  0.1279 -0.5263
  773MPD2    C411408   0.633   2.874   0.633  0.7414 -0.2416  0.4503
  773MPD2    C511409   0.544   2.978   0.608 -0.3500 -0.1742 -0.0268
  773MPD2     H11410   0.579   2.688   0.367 -2.8582  0.2657 -0.1278
  773MPD2    H111411   0.679   2.871   0.731  1.4518  0.2617  0.1295
  773MPD2    H211412   0.397   3.066   0.499 -1.3167 -0.6426  0.9093
  773MPD2    H311413   0.530   3.058   0.680  0.2304  0.0166 -0.1255
  773MPD2     N11414   0.745   2.677   0.548  0.3493 -1.3149 -0.4067
  773MPD2    H511415   0.758   2.606   0.476  0.7257  1.0184 -2.6425
  773MPD2    N111416   0.404   2.881   0.287 -0.5397  0.3698 -0.8619
  773MPD2    H711417   0.408   2.798   0.228  0.1066  0.2601 -0.6665
  774MPD2     C11418   0.260   1.414  12.936 -0.9512 -0.3402  0.3160
  774MPD2    C111419   0.157   1.507  12.963 -0.4462 -0.0268 -0.6874
  774MPD2    C211420   0.190   1.644  12.970 -0.0429  0.0480 -0.2047
  774MPD2    C311421   0.319   1.686  12.949  0.4535 -0.1892  0.3444
  774MPD2    C411422   0.420   1.592  12.925 -0.1444  0.9561 -0.3038
  774MPD2    C511423   0.387   1.464  12.909 -0.0864  0.3334 -0.3965
  774MPD2     H11424   0.116   1.715  13.008  0.0618  0.4133 -0.6905
  774MPD2    H111425   0.518   1.619  12.886 -0.1073 -0.8235 -1.4685
  774MPD2    H211426   0.249   1.308  12.922 -2.2873 -0.1657  0.0806
  774MPD2    H311427   0.466   1.395  12.882  1.2621  1.6276  0.2309
  774MPD2     N11428   0.347   1.826  12.969  0.2343  0.0761  0.3761
  774MPD2    H511429   0.271   1.892  12.980 -0.6663 -0.8203 -0.4224
  774MPD2    N111430   0.025   1.460  12.997 -0.0759 -0.2909  0.0110
  774MPD2    H711431   0.018   1.360  13.016 -2.7623 -0.3512 -1.3116
  775MPD2     C11432   1.897   3.345  16.007 -0.4657 -0.2664 -0.2596
  775MPD2    C111433   1.853   3.473  16.025  1.1232  0.0059  0.1589
  775MPD2    C211434   1.948   3.571  16.035 -0.1274  0.3511 -0.3410
  775MPD2    C311435   2.082   3.547  16.011  0.1707  0.7840 -0.2271
  775MPD2    C411436   2.123   3.420  15.986 -0.1416  0.2860 -0.1975
  775MPD2    C511437   2.032   3.316  15.982  0.7151 -0.6815 -0.2100
  775MPD2     H11438   1.907   3.668  16.061 -1.1894  0.2711 -1.7121
  775MPD2    H111439   2.229   3.403  15.966  0.4111  1.3502  1.8092
  775MPD2    H211440   1.836   3.256  15.999 -3.2545  1.3973  2.6577
  775MPD2    H311441   2.053   3.213  15.955  0.1010 -1.1949  1.2398
  775MPD2     N11442   2.175   3.657  16.004  0.0304  0.1373 -0.7728
  775MPD2    H511443   2.265   3.648  15.958  0.2560 -2.6293  0.2159
  775MPD2    N111444   1.716   3.490  16.027  0.4295  0.5082 -0.2077
  775MPD2    H711445   1.657   3.407  16.023 -1.3546  1.7983 -0.5238
  776MPD2     C11446   1.524   3.851  11.301 -0.4695 -0.7227 -0.9508
  776MPD2    C111447   1.434   3.896  11.204  0.5225  0.3091 -0.1259
  776MPD2    C211448   1.424   4.031  11.179  0.8886  0.0716  0.2871
  776MPD2    C311449   1.494   4.126  11.249 -0.0280 -0.2228  0.4684
  776MPD2    C411450   1.592   4.075  11.338 -0.0967  0.3513  0.1721
  776MPD2    C511451   1.603   3.945  11.372  0.6465 -0.1919 -0.0474
  776MPD2     H11452   1.362   4.064  11.096  1.9158  0.0827 -0.4825
  776MPD2    H111453   1.642   4.153  11.394 -1.7232  1.4157  0.1511
  776MPD2    H211454   1.551   3.747  11.316  3.2301  0.3565 -0.1330
  776MPD2    H311455   1.673   3.914  11.449 -1.0023 -1.1302  1.0512
  776MPD2     N11456   1.492   4.267  11.236  0.0478 -0.0147  0.4331
  776MPD2    H511457   1.553   4.321  11.297  1.7627  0.6086 -1.8276
  776MPD2    N111458   1.359   3.792  11.139  0.0231  0.3531  0.4335
  776MPD2    H711459   1.365   3.694  11.164  2.2655  0.2549 -0.5001
  777MPD2     C11460   0.328   1.385   0.814  0.4977  0.9225 -0.8728
  777MPD2    C111461   0.365   1.283   0.901 -0.3436  0.3801  0.5278
  777MPD2    C211462   0.402   1.165   0.845  0.2348  0.1006  0.5697
  777MPD2    C311463   0.393   1.141   0.709  0.8999 -0.2926  0.7678
  777MPD2    C411464   0.359   1.242   0.624 -0.1006  0.1472 -0.0809
  777MPD2    C511465   0.323   1.364   0.679  0.8098  1.1141  0.0516
  777MPD2     H11466   0.437   1.091   0.915 -0.6555 -0.3162  0.5812
  777MPD2    H111467   0.364   1.240   0.516  0.3418 -1.1146 -0.0497
  777MPD2    H211468   0.320   1.487   0.848 -1.0556 -0.2525  2.2818
  777MPD2    H311469   0.296   1.450   0.618  3.1144  0.7435 -1.4883
  777MPD2     N11470   0.422   1.017   0.663  0.6727  0.6056  0.5223
  777MPD2    H511471   0.435   0.948   0.737 -0.9631  0.5210  0.7238
  777MPD2    N111472   0.377   1.309   1.047 -0.0473 -0.0095  0.1281
  777MPD2    H711473   0.333   1.397   1.072 -0.2516  0.4130 -1.7265
  778MPD2     C11474   2.043   1.332  15.203 -0.7787 -1.0997  0.9170
  778MPD2    C111475   1.964   1.289  15.095 -0.2762 -0.1357 -0.5124
  778MPD2    C211476   1.964   1.366  14.980 -0.4233 -0.5891  0.4816
  778MPD2    C311477   2.044   1.479  14.966  0.1193  0.0952 -0.2383
  778MPD2    C411478   2.130   1.513  15.073 -0.0484 -0.2246  0.7792
  778MPD2    C511479   2.130   1.431  15.184 -0.3003  0.0123  0.2969
  778MPD2     H11480   1.903   1.340  14.894 -0.1135 -0.6325  0.2751
  778MPD2    H111481   2.205   1.591  15.072 -1.3824  1.0617  0.8620
  778MPD2    H211482   2.049   1.283  15.299  2.0609 -1.1611  0.6944
  778MPD2    H311483   2.187   1.467  15.269 -0.8393 -0.0186  0.6751
  778MPD2     N11484   2.028   1.547  14.847  0.1583  0.7308 -0.4285
  778MPD2    H511485   1.972   1.508  14.771  0.0447 -1.8735  0.9769
  778MPD2    N111486   1.873   1.180  15.104  0.2858  0.6803 -0.8844
  778MPD2    H711487   1.807   1.167  15.028 -1.3265  1.2305  0.4100
  779MPD2     C11488   1.530   0.253  14.235 -0.2293  0.3589 -0.1862
  779MPD2    C111489   1.660   0.288  14.244  0.2042 -0.0751 -0.4412
  779MPD2    C211490   1.701   0.415  14.244  0.0862 -0.5700 -0.7222
  779MPD2    C311491   1.606   0.515  14.235  0.5502  0.9990  0.0602
  779MPD2    C411492   1.471   0.483  14.232  0.1982  0.1529 -0.0684
  779MPD2    C511493   1.436   0.350  14.221 -0.9252 -0.2796  0.1482
  779MPD2     H11494   1.807   0.431  14.252  0.2624 -1.5769 -1.0822
  779MPD2    H111495   1.399   0.562  14.214  1.8906  1.2324 -2.0465
  779MPD2    H211496   1.498   0.149  14.237  0.0652  0.3030  1.5637
  779MPD2    H311497   1.334   0.318  14.204 -0.7606 -1.1078  0.6905
  779MPD2     N11498   1.657   0.651  14.232  0.5519  0.3137 -0.4782
  779MPD2    H511499   1.751   0.662  14.196  1.2881 -1.5928  0.8709
  779MPD2    N111500   1.749   0.185  14.253  0.1926  0.0880  0.5797
  779MPD2    H711501   1.718   0.088  14.253  1.5853 -0.3525  0.4209
  780MPD2     C11502   0.517   0.402   0.667 -0.2144 -0.5233 -0.5177
  780MPD2    C111503   0.459   0.354   0.550 -0.1600 -0.1656 -0.1059
  780MPD2    C211504   0.523   0.354   0.429  0.6300  0.2043 -0.0732
  780MPD2    C311505   0.651   0.404   0.426  0.1957 -0.6278 -0.3978
  780MPD2    C411506   0.700   0.475   0.539  0.0660  0.3420  0.2625
  780MPD2    C511507   0.627   0.473   0.653  0.0971  0.3454  0.2449
  780MPD2     H11508   0.488   0.317   0.333  1.7869  0.4153 -0.5726
  780MPD2    H111509   0.795   0.527   0.545  1.4463 -2.1490 -0.2858
  780MPD2    H211510   0.467   0.393   0.763 -0.9854 -0.0791 -0.8756
  780MPD2    H311511   0.683   0.516   0.735  1.4740 -1.7595  0.4015
  780MPD2     N11512   0.737   0.403   0.311  0.2988 -0.0087  0.2255
  780MPD2    H511513   0.833   0.433   0.324  0.5389 -0.5311 -0.3511
  780MPD2    N111514   0.344   0.281   0.564  0.3121  0.2175 -0.4566
  780MPD2    H711515   0.296   0.281   0.654 -1.5553  2.3218 -1.4447
  781MPD2     C11516   3.381   1.951  11.464 -0.9357 -0.7206 -0.5486
  781MPD2    C111517   3.446   1.940  11.582  0.2357  0.2826  0.2696
  781MPD2    C211518   3.585   1.921  11.581 -0.1599  0.7888  0.4477
  781MPD2    C311519   3.651   1.909  11.459 -0.0601  0.4773 -0.5901
  781MPD2    C411520   3.577   1.917  11.341  0.0231  0.4241  0.0618
  781MPD2    C511521   3.442   1.942  11.347 -0.2979 -0.2449 -0.1913
  781MPD2     H11522   3.634   1.916  11.677  1.8920 -0.2315 -0.6493
  781MPD2    H111523   3.631   1.903  11.248 -0.5320  0.9900 -0.3480
  781MPD2    H211524   3.275   1.972  11.462 -0.7018  0.5901  0.9904
  781MPD2    H311525   3.385   1.968  11.259 -0.0889  1.7700  0.2756
  781MPD2     N11526   3.790   1.887  11.443  0.0327 -0.4286 -0.0142
  781MPD2    H511527   3.820   1.892  11.346  0.6678  1.3889  0.2679
  781MPD2    N111528   3.358   1.955  11.697 -0.4384 -0.6067  0.0393
  781MPD2    H711529   3.257   1.967  11.686 -0.2653  1.0140  0.2406
  782MPD2     C11530   1.926   2.631  10.475  0.7914 -0.3364  0.3387
  782MPD2    C111531   2.060   2.653  10.522  0.5849  0.5442 -0.5892
  782MPD2    C211532   2.100   2.785  10.550  0.1382  0.3770 -0.4917
  782MPD2    C311533   2.010   2.888  10.553  0.1309  0.5548  0.0499
  782MPD2    C411534   1.882   2.873  10.501 -0.7531 -1.1572  0.2782
  782MPD2    C511535   1.846   2.738  10.459  0.1004 -0.4036  0.3453
  782MPD2     H11536   2.193   2.792  10.605 -0.0691 -1.9900  0.1835
  782MPD2    H111537   1.817   2.960  10.498  1.8958  0.8264 -0.1506
  782MPD2    H211538   1.894   2.530  10.452 -0.2854 -0.6490  3.2614
  782MPD2    H311539   1.742   2.724  10.433 -0.2378  0.5573  1.1681
  782MPD2     N11540   2.054   2.999  10.626  0.0159 -0.6362 -0.2691
  782MPD2    H511541   2.148   2.997  10.665 -0.2784  0.5811  0.4979
  782MPD2    N111542   2.132   2.540  10.560 -0.5076  0.1510  0.4989
  782MPD2    H711543   2.095   2.446  10.548  1.5488 -0.4173 -1.3213
  783MPD2     C11544   1.640   2.039  10.935 -0.0316  0.7930 -0.2027
  783MPD2    C111545   1.668   2.170  10.965  0.1445 -0.0677 -0.4077
  783MPD2    C211546   1.799   2.216  10.967 -0.1854  1.1284 -0.2327
  783MPD2    C311547   1.900   2.132  10.923  0.3578 -0.4446  0.1734
  783MPD2    C411548   1.872   2.004  10.873 -0.7658 -0.2107 -0.1172
  783MPD2    C511549   1.740   1.956  10.885 -0.0334 -0.9400 -0.7310
  783MPD2     H11550   1.818   2.315  11.007 -2.7978  1.2641  0.6582
  783MPD2    H111551   1.948   1.929  10.852 -3.1536 -2.3642 -1.1489
  783MPD2    H211552   1.538   2.003  10.933  0.2242  0.0795 -0.4447
  783MPD2    H311553   1.714   1.854  10.861  0.8082 -1.5876  1.1016
  783MPD2     N11554   2.024   2.194  10.897  0.4062  0.0500 -0.0618
  783MPD2    H511555   2.029   2.295  10.910 -1.8436  0.1298  0.1302
  783MPD2    N111556   1.560   2.257  10.996  0.5480 -0.1700  0.1648
  783MPD2    H711557   1.467   2.220  10.982  0.5713 -0.0237 -0.3499
  784MPD2     C11558   3.562   3.357   0.771  0.4001  0.2237 -0.1005
  784MPD2    C111559   3.516   3.310   0.893  0.2154  0.2698  0.0345
  784MPD2    C211560   3.386   3.333   0.923 -0.0865  0.7104 -0.1633
  784MPD2    C311561   3.314   3.421   0.846  0.5433  0.5007 -0.1932
  784MPD2    C411562   3.364   3.481   0.740  0.5678 -0.1045 -0.5665
  784MPD2    C511563   3.488   3.444   0.691 -0.2752 -0.2396  0.1395
  784MPD2     H11564   3.340   3.281   1.006 -1.2636  0.9300 -0.6798
  784MPD2    H111565   3.293   3.532   0.676 -0.5697 -1.0336 -0.0277
  784MPD2    H211566   3.657   3.319   0.734  0.4811 -0.2139  0.5627
  784MPD2    H311567   3.516   3.476   0.591  0.2297  0.5543  0.5273
  784MPD2     N11568   3.176   3.443   0.884 -0.4043 -0.1310  0.5679
  784MPD2    H511569   3.143   3.377   0.954  2.1470 -0.3981  1.4987
  784MPD2    N111570   3.589   3.227   0.982 -0.4327  0.0682 -0.0519
  784MPD2    H711571   3.536   3.200   1.064 -1.2396 -0.5595 -0.7664
  785MPD2     C11572   4.485   1.551  10.737 -0.5276  0.5435 -0.1508
  785MPD2    C111573   4.348   1.554  10.729 -0.0440 -0.5352 -0.0954
  785MPD2    C211574   4.284   1.457  10.655 -0.5475 -0.4355 -0.4405
  785MPD2    C311575   4.355   1.361  10.586 -1.1199 -0.2051 -0.9600
  785MPD2    C411576   4.489   1.366  10.589  0.7292  0.1666  0.0728
  785MPD2    C511577   4.553   1.460  10.662 -0.1813  0.5200  0.1436
  785MPD2     H11578   4.176   1.459  10.650 -0.6400 -0.6947  1.4240
  785MPD2    H111579   4.549   1.295  10.533  0.7323  0.0873  0.1776
  785MPD2    H211580   4.552   1.620  10.787 -0.7848  1.2677 -0.7989
  785MPD2    H311581   4.660   1.448  10.676 -0.2057  1.1339  0.8363
  785MPD2     N11582   4.275   1.271  10.511  0.0235  0.8171  0.3387
  785MPD2    H511583   4.174   1.280  10.519 -0.3190 -0.2912 -2.6540
  785MPD2    N111584   4.282   1.664  10.789 -0.0705 -0.7444  0.1013
  785MPD2    H711585   4.336   1.726  10.850  0.5374 -0.8861 -0.2928
  786MPD2     C11586   1.985   4.370  14.667  0.2856  0.1845 -0.6309
  786MPD2    C111587   2.106   4.296  14.669  0.1540 -0.9862 -0.2525
  786MPD2    C211588   2.192   4.308  14.775 -0.1906 -0.1900 -0.0340
  786MPD2    C311589   2.169   4.398  14.877  0.4007  0.8660  0.1062
  786MPD2    C411590   2.050   4.470  14.875 -0.4071 -0.4169 -0.6252
  786MPD2    C511591   1.963   4.457  14.773 -0.1978  0.0443  0.4031
  786MPD2     H11592   2.275   4.240  14.763 -0.0594 -0.1432  0.6360
  786MPD2    H111593   2.018   4.530  14.959  2.2364  0.1657 -0.0330
  786MPD2    H211594   1.901   4.351  14.601  0.0134 -2.1268  0.3945
  786MPD2    H311595   1.862   4.496  14.784 -0.6830 -1.4320  1.1438
  786MPD2     N11596   2.268   4.415  14.977 -0.2574 -0.4126 -0.1502
  786MPD2    H511597   2.256   4.498  15.034  1.3057  0.0630 -0.5220
  786MPD2    N111598   2.146   4.197  14.571  0.0987 -0.4042  0.3034
  786MPD2    H711599   2.236   4.156  14.593  0.7807  0.6390 -0.5475
  787MPD2     C11600   2.519   3.780  14.746  0.8683  0.4636  0.0536
  787MPD2    C111601   2.510   3.739  14.614  0.1264 -0.0286 -0.4024
  787MPD2    C211602   2.603   3.647  14.564 -0.6322  0.4528  0.2476
  787MPD2    C311603   2.701   3.609  14.655 -0.5722 -0.1690 -0.1470
  787MPD2    C411604   2.706   3.645  14.787 -0.1535 -0.0184 -0.7709
  787MPD2    C511605   2.615   3.740  14.831  0.5119 -0.2767 -0.1739
  787MPD2     H11606   2.617   3.621  14.460  1.1191  0.5888  0.4503
  787MPD2    H111607   2.782   3.612  14.857 -1.7504 -2.7184 -0.3081
  787MPD2    H211608   2.450   3.851  14.791  0.6666 -0.6459  1.4974
  787MPD2    H311609   2.620   3.774  14.934 -1.4217 -1.3089  0.2626
  787MPD2     N11610   2.803   3.524  14.595  0.5472 -0.0725  0.5561
  787MPD2    H511611   2.808   3.527  14.494  0.7176 -2.2037  0.5098
  787MPD2    N111612   2.408   3.802  14.540 -0.3393  0.2553  0.1478
  787MPD2    H711613   2.375   3.886  14.586 -0.1916  0.9003 -0.9262
  788MPD2     C11614   4.339   3.382   0.734  0.1985 -0.1731 -1.0952
  788MPD2    C111615   4.367   3.262   0.667  0.1864 -0.5289 -0.6190
  788MPD2    C211616   4.343   3.252   0.530 -0.4052 -0.5595  0.4135
  788MPD2    C311617   4.293   3.362   0.455  0.5972 -0.7687 -0.2466
  788MPD2    C411618   4.283   3.480   0.523  0.0413  0.5869  0.1581
  788MPD2    C511619   4.306   3.488   0.657 -0.4017 -0.5108 -0.8847
  788MPD2     H11620   4.358   3.153   0.489 -0.4257 -0.5786  0.4522
  788MPD2    H111621   4.254   3.565   0.462  1.2428 -0.5587 -1.9985
  788MPD2    H211622   4.352   3.393   0.841  0.0193 -3.3365 -0.7502
  788MPD2    H311623   4.292   3.587   0.699  1.5067 -0.9193  0.7116
  788MPD2     N11624   4.266   3.364   0.312  0.6694 -0.1044  0.4875
  788MPD2    H511625   4.258   3.455   0.268  0.4480 -0.6990 -0.6922
  788MPD2    N111626   4.404   3.141   0.741  0.1126 -0.0287  0.3334
  788MPD2    H711627   4.412   3.055   0.688  2.3780  0.3236  0.1023
  789MPD2     C11628   4.254   2.143  16.391  0.0835  0.1327 -0.3658
  789MPD2    C111629   4.334   2.207  16.492  0.1198  0.4060 -0.1684
  789MPD2    C211630   4.348   2.343  16.489 -0.3138 -1.2749  0.7389
  789MPD2    C311631   4.280   2.425  16.404 -0.0589 -0.4059  0.1818
  789MPD2    C411632   4.201   2.361  16.312 -0.4947  0.0507  0.0357
  789MPD2    C511633   4.184   2.224  16.304  0.3684 -0.3442  0.2709
  789MPD2     H11634   4.412   2.380  16.568  0.6413  0.6959 -0.9642
  789MPD2    H111635   4.151   2.426  16.240 -1.6675 -2.5288 -1.4651
  789MPD2    H211636   4.244   2.036  16.387  0.7875  0.0044  1.1481
  789MPD2    H311637   4.122   2.182  16.225 -1.2413  0.4070  1.1444
  789MPD2     N11638   4.268   2.571  16.415  0.4904  0.3423  0.3538
  789MPD2    H511639   4.222   2.610  16.333 -1.8438 -2.3786  0.3642
  789MPD2    N111640   4.386   2.136  16.602  0.2868 -0.6568 -0.3539
  789MPD2    H711641   4.442   2.195  16.663 -0.1827  1.3152 -1.8254
  790MPD2     C11642   1.360   4.044  13.822  0.2854 -0.1279 -0.4760
  790MPD2    C111643   1.237   3.987  13.804  0.9200  0.0132 -0.6004
  790MPD2    C211644   1.168   3.999  13.686  0.4215  0.7877  0.0662
  790MPD2    C311645   1.227   4.068  13.580  0.3070  0.9427 -0.1792
  790MPD2    C411646   1.353   4.113  13.595  0.0725 -0.2032  0.1401
  790MPD2    C511647   1.413   4.111  13.715  0.2005  0.0804 -0.6037
  790MPD2     H11648   1.070   3.957  13.669  0.8107  0.2037 -0.7417
  790MPD2    H111649   1.404   4.174  13.521 -0.1313 -0.9608 -0.6296
  790MPD2    H211650   1.404   4.046  13.920 -1.6772 -4.0868  0.4504
  790MPD2    H311651   1.512   4.155  13.724  0.3028 -0.4999  1.2926
  790MPD2     N11652   1.151   4.076  13.456 -0.2288 -0.2817  0.0613
  790MPD2    H511653   1.068   4.017  13.448 -0.3356  0.1159 -1.8891
  790MPD2    N111654   1.197   3.913  13.915 -0.7050 -0.6008  0.0734
  790MPD2    H711655   1.265   3.893  13.988  0.1590 -0.8798 -0.8007
  791MPD2     C11656   0.472   4.191  12.973 -0.8757 -0.1130 -0.1331
  791MPD2    C111657   0.566   4.099  13.005 -0.4591 -0.5287  0.6485
  791MPD2    C211658   0.544   3.965  12.983 -0.9517  0.1310  0.4662
  791MPD2    C311659   0.423   3.916  12.932 -0.1412 -0.4972  0.3365
  791MPD2    C411660   0.319   4.010  12.918 -0.0686  0.1796  0.0243
  791MPD2    C511661   0.350   4.145  12.928 -0.5405 -0.6287 -1.0035
  791MPD2     H11662   0.617   3.886  12.993 -1.2606 -0.0466  1.3128
  791MPD2    H111663   0.215   3.984  12.902  0.2400 -2.2861  1.9783
  791MPD2    H211664   0.497   4.296  12.990 -1.0548 -0.7252  3.9312
  791MPD2    H311665   0.269   4.217  12.919  0.4826  0.6097 -0.4149
  791MPD2     N11666   0.408   3.784  12.905 -0.1429  0.2465 -0.4025
  791MPD2    H511667   0.496   3.735  12.918  0.0233  0.3377 -1.1573
  791MPD2    N111668   0.690   4.140  13.051 -0.7242  0.2446 -0.0984
  791MPD2    H711669   0.724   4.235  13.036 -1.3975  0.6266  0.8118
  792MPD2     C11670   1.831   3.742  11.153  0.0608  0.7412 -0.3666
  792MPD2    C111671   1.749   3.790  11.054 -0.6533  1.0548  0.9108
  792MPD2    C211672   1.664   3.696  10.995 -0.3939  0.3219 -0.2831
  792MPD2    C311673   1.677   3.554  11.029  0.1751  0.4445 -0.0591
  792MPD2    C411674   1.761   3.517  11.132 -0.5215  0.1574  0.0559
  792MPD2    C511675   1.835   3.614  11.190 -0.1743  0.3493  0.2389
  792MPD2     H11676   1.598   3.732  10.916 -1.0066  0.2448  0.1918
  792MPD2    H111677   1.773   3.414  11.162  1.2268  0.6820  1.1695
  792MPD2    H211678   1.893   3.809  11.211 -0.6724  2.0186 -1.0542
  792MPD2    H311679   1.883   3.591  11.284 -1.1868  1.2015  0.9631
  792MPD2     N11680   1.616   3.444  10.963 -0.0723 -0.5983  0.4153
  792MPD2    H511681   1.644   3.351  10.992  0.5751 -0.0740  1.4307
  792MPD2    N111682   1.762   3.929  11.027  0.1197  0.8958  0.0766
  792MPD2    H711683   1.826   3.983  11.084  0.5594  2.0678 -1.5000
  793MPD2     C11684   1.053   3.297  10.159  0.9373 -0.7134 -1.4612
  793MPD2    C111685   1.174   3.349  10.176 -0.4814 -0.3715  0.1343
  793MPD2    C211686   1.242   3.331  10.293 -0.1046 -0.2245  0.5492
  793MPD2    C311687   1.182   3.261  10.397 -0.3123 -0.5454 -0.1984
  793MPD2    C411688   1.060   3.202  10.376 -0.3087 -0.6813 -0.4319
  793MPD2    C511689   0.990   3.222  10.259  0.1097  0.1790 -0.2677
  793MPD2     H11690   1.340   3.375  10.306  0.1926 -0.3548 -1.2322
  793MPD2    H111691   1.014   3.138  10.450  2.2621 -0.4282  1.3831
  793MPD2    H211692   0.998   3.289  10.066 -1.3534  1.3589 -0.3098
  793MPD2    H311693   0.892   3.174  10.255  0.8332 -1.3201 -0.2219
  793MPD2     N11694   1.259   3.251  10.517  0.3522 -0.2891  0.2561
  793MPD2    H511695   1.343   3.307  10.522 -0.4358  0.7015  2.9125
  793MPD2    N111696   1.237   3.435  10.078  0.0547  0.9150  0.3840
  793MPD2    H711697   1.333   3.461  10.098 -0.0822  0.8885  1.0783
  794MPD2     C11698   4.679   3.366  17.418  0.7186  0.3693 -0.4434
  794MPD2    C111699   0.036   3.262  17.374  0.0920 -0.1315 -0.4485
  794MPD2    C211700   0.084   3.260  17.243 -0.2048 -0.6299 -0.6454
  794MPD2    C311701   0.062   3.374  17.169  0.2063  0.4038  0.6261
  794MPD2    C411702   4.705   3.479  17.214 -0.1314 -0.0253 -0.1842
  794MPD2    C511703   4.645   3.475  17.341  0.4223 -0.2220 -0.3611
  794MPD2     H11704   0.141   3.177  17.202 -0.3136 -0.1278 -1.8096
  794MPD2    H111705   4.674   3.564  17.154  0.7268  0.8558  0.6327
  794MPD2    H211706   4.646   3.369  17.521 -1.4474  0.0711 -1.1194
  794MPD2    H311707   4.583   3.551  17.386 -1.2377 -1.6067 -0.3300
  794MPD2     N11708   0.117   3.400  17.043 -0.3910 -0.0032  0.1889
  794MPD2    H511709   0.079   3.478  16.991  1.2700  0.8972  0.3476
  794MPD2    N111710   0.060   3.146  17.446  0.1342  0.1772 -0.7487
  794MPD2    H711711   0.117   3.084  17.389 -0.4001 -0.5497 -0.4899
  795MPD2     C11712   3.634   0.606  13.755 -0.3660  0.4580  0.5976
  795MPD2    C111713   3.596   0.489  13.694  0.0795  0.4479  0.1430
  795MPD2    C211714   3.664   0.371  13.725 -0.3315 -0.5258 -0.1443
  795MPD2    C311715   3.764   0.367  13.824  0.7402 -0.2949 -0.3082
  795MPD2    C411716   3.794   0.488  13.890 -0.1037  0.4467  0.7386
  795MPD2    C511717   3.723   0.597  13.860 -0.6509 -0.5190  0.7358
  795MPD2     H11718   3.644   0.277  13.676 -0.6947 -0.5318  0.0168
  795MPD2    H111719   3.870   0.498  13.966  1.1981 -1.4775 -0.2937
  795MPD2    H211720   3.584   0.701  13.735 -0.9822  0.0058 -0.0190
  795MPD2    H311721   3.747   0.695  13.899  0.3544  0.4213 -2.3076
  795MPD2     N11722   3.833   0.247  13.846 -0.7772  0.2289 -0.7157
  795MPD2    H511723   3.803   0.171  13.786 -3.2129 -0.1107  0.9321
  795MPD2    N111724   3.495   0.479  13.595 -0.5074 -0.6454  0.4197
  795MPD2    H711725   3.469   0.388  13.558  1.5663 -0.4557 -1.5161
  796MPD2     C11726   2.717   2.254  15.603 -0.6402 -0.4419 -0.2828
  796MPD2    C111727   2.833   2.292  15.651  0.4261 -1.5207  0.3373
  796MPD2    C211728   2.845   2.419  15.700 -0.4961  0.1286 -0.2659
  796MPD2    C311729   2.749   2.518  15.693  0.1594  0.3033  0.3497
  796MPD2    C411730   2.628   2.471  15.635  0.4959  0.4166 -0.0627
  796MPD2    C511731   2.614   2.335  15.597 -0.1696 -0.0117  0.2761
  796MPD2     H11732   2.937   2.450  15.750 -0.8593 -2.2869  1.9164
  796MPD2    H111733   2.545   2.538  15.621  0.6912  0.2856 -1.8850
  796MPD2    H211734   2.689   2.153  15.576  0.0282 -0.8155  0.4036
  796MPD2    H311735   2.529   2.298  15.542  1.5818 -3.3192 -0.2078
  796MPD2     N11736   2.767   2.640  15.761 -0.1798  0.0191  0.0160
  796MPD2    H511737   2.854   2.653  15.812 -0.2963 -1.2641  0.5294
  796MPD2    N111738   2.940   2.199  15.649 -0.8204 -0.3537 -0.6734
  796MPD2    H711739   2.920   2.108  15.610 -1.7179  0.6296 -2.5069
  797MPD2     C11740   3.846   1.703  16.888 -0.5899  0.2053 -0.2414
  797MPD2    C111741   3.802   1.827  16.920 -1.0584 -0.3516  0.3495
  797MPD2    C211742   3.803   1.926  16.823  0.0378  0.7612 -0.1628
  797MPD2    C311743   3.854   1.905  16.696 -0.0849  0.1682 -0.3584
  797MPD2    C411744   3.899   1.783  16.662  0.4183 -0.4109 -0.2030
  797MPD2    C511745   3.889   1.682  16.760 -0.0216  1.1941 -0.5678
  797MPD2     H11746   3.771   2.023  16.859 -1.1869  0.5874 -0.8039
  797MPD2    H111747   3.935   1.758  16.563  2.4251 -0.2540  0.4894
  797MPD2    H211748   3.826   1.618  16.954  2.6275 -0.9460 -0.7534
  797MPD2    H311749   3.920   1.581  16.735  0.4724  0.8416  1.4328
  797MPD2     N11750   3.881   2.018  16.614  0.1724 -0.0266 -0.1056
  797MPD2    H511751   3.912   1.997  16.520  0.3600  0.2418 -0.1003
  797MPD2    N111752   3.761   1.871  17.049 -0.7992 -0.0846 -0.0092
  797MPD2    H711753   3.745   1.970  17.065 -0.7928 -0.5427  2.9331
  798MPD2     C11754   4.004   2.558  17.042  0.1026 -0.0212  0.1290
  798MPD2    C111755   3.916   2.470  16.986 -0.0712 -0.1634  0.1560
  798MPD2    C211756   3.851   2.378  17.059  0.4121  0.2368 -0.3892
  798MPD2    C311757   3.872   2.384  17.194  0.4153  0.5656 -0.3624
  798MPD2    C411758   3.953   2.474  17.260 -0.5752 -0.1514 -0.6361
  798MPD2    C511759   4.019   2.567  17.177  0.1511  0.0961 -0.3281
  798MPD2     H11760   3.799   2.306  16.996  0.1609  1.6341 -1.7511
  798MPD2    H111761   3.971   2.469  17.367 -0.8199  0.6234 -0.5543
  798MPD2    H211762   4.068   2.620  16.979  1.2238 -1.8904 -0.5722
  798MPD2    H311763   4.087   2.636  17.225  1.8038 -0.1303 -2.3520
  798MPD2     N11764   3.808   2.274  17.259  0.2731  0.0278 -0.2816
  798MPD2    H511765   3.754   2.217  17.196  0.2510  2.5022 -2.4873
  798MPD2    N111766   3.921   2.449  16.850 -0.2562 -0.6067 -0.2238
  798MPD2    H711767   3.885   2.361  16.816 -3.3056  0.3368  0.5458
  799MPD2     C11768   2.379   3.357  14.679 -0.2520  1.0484 -0.0007
  799MPD2    C111769   2.349   3.257  14.590 -0.1943  0.1000 -0.6149
  799MPD2    C211770   2.255   3.290  14.493  0.2989  0.9049 -0.0287
  799MPD2    C311771   2.183   3.409  14.488  0.3495  0.6177 -0.0055
  799MPD2    C411772   2.208   3.499  14.587 -0.9278 -0.0279  0.2788
  799MPD2    C511773   2.309   3.477  14.682 -0.7160 -0.0619 -0.6887
  799MPD2     H11774   2.234   3.210  14.423  1.2610  0.7523 -0.1404
  799MPD2    H111775   2.158   3.595  14.598 -1.4755 -0.1630 -0.9546
  799MPD2    H211776   2.452   3.346  14.759  1.2577 -0.6243 -1.6035
  799MPD2    H311777   2.320   3.550  14.761  2.8808 -0.0794 -1.1465
  799MPD2     N11778   2.112   3.447  14.375  0.4716 -0.4283 -0.4650
  799MPD2    H511779   2.089   3.546  14.372 -0.0054 -0.5803 -1.6077
  799MPD2    N111780   2.410   3.131  14.583 -0.5710  0.1965 -0.2698
  799MPD2    H711781   2.368   3.067  14.516 -0.3692 -0.5248  0.2998
  800MPD2     C11782   3.066   4.597  14.028 -0.5007  0.0782  0.2972
  800MPD2    C111783   3.205   4.588  14.002 -0.4896 -0.2688  0.1656
  800MPD2    C211784   3.248   4.493  13.912 -0.1597 -0.2864 -0.2193
  800MPD2    C311785   3.158   4.394  13.871  0.0143 -0.0986  0.7114
  800MPD2    C411786   3.028   4.397  13.920 -0.1649 -0.2161 -0.9318
  800MPD2    C511787   2.975   4.494  13.997  0.1596  0.0940 -0.6160
  800MPD2     H11788   3.353   4.478  13.888 -0.5155 -0.7088 -1.5538
  800MPD2    H111789   2.955   4.318  13.908 -0.0757 -0.6303  1.1483
  800MPD2    H211790   3.030   4.680  14.088 -1.0628  0.2723 -0.3181
  800MPD2    H311791   2.870   4.492  14.022  0.5412  0.3570  1.0110
  800MPD2     N11792   3.209   4.295  13.787 -0.3273  0.8606  0.7212
  800MPD2    H511793   3.310   4.301  13.774 -0.0565 -3.6832  0.7666
  800MPD2    N111794   3.288   4.696  14.048  0.0789  0.2289  0.0782
  800MPD2    H711795   3.248   0.025  14.125  0.1321  1.8987 -1.0389
  801MPD2     C11796   3.225   0.651  14.264 -0.3516 -0.2358  0.0795
  801MPD2    C111797   3.203   0.521  14.288 -0.6092 -0.0707 -0.1196
  801MPD2    C211798   3.081   0.489  14.355 -0.0777 -0.2276 -0.3999
  801MPD2    C311799   2.987   0.587  14.384 -0.3896  0.0755 -0.5527
  801MPD2    C411800   3.021   0.720  14.361  0.3184  0.6025  0.1367
  801MPD2    C511801   3.138   0.745  14.303  0.2700  0.3566  0.2515
  801MPD2     H11802   3.061   0.391  14.396  2.2674 -1.3324 -1.9075
  801MPD2    H111803   2.963   0.804  14.400 -0.1414 -0.2654  1.3256
  801MPD2    H211804   3.302   0.691  14.199  2.0661 -0.6666  2.6813
  801MPD2    H311805   3.157   0.852  14.303 -0.0227  0.4075  0.0326
  801MPD2     N11806   2.866   0.555  14.453 -0.2574 -0.2636 -0.3881
  801MPD2    H511807   2.793   0.626  14.456 -0.6299 -0.6935  0.7078
  801MPD2    N111808   3.285   0.419  14.250 -0.1475  0.2425  0.2724
  801MPD2    H711809   3.249   0.324  14.256 -1.5798  0.8689  1.4371
  802MPD2     C11810   2.192   4.512  17.454 -0.3224 -0.2089  0.0865
  802MPD2    C111811   2.227   4.553  17.579  0.3597 -0.0870 -0.1667
  802MPD2    C211812   2.336   4.639  17.595 -0.4598  0.1910 -0.5455
  802MPD2    C311813   2.413   4.683  17.485  0.4087 -0.9860  0.3251
  802MPD2    C411814   2.372   4.638  17.358 -0.8176  0.5601  0.4320
  802MPD2    C511815   2.277   4.547  17.348  1.0860 -0.0641 -0.4611
  802MPD2     H11816   2.377   4.672  17.690  1.5341 -0.2975 -1.2360
  802MPD2    H111817   2.427   4.654  17.265 -2.0094 -0.9823 -0.5293
  802MPD2    H211818   2.114   4.439  17.436 -2.2632  1.8388  0.1510
  802MPD2    H311819   2.264   4.500  17.251  0.4034  1.0665 -0.9136
  802MPD2     N11820   2.517   0.054  17.508  0.2396 -1.0916 -0.0011
  802MPD2    H511821   2.546   0.080  17.602 -1.3901 -0.6028  0.3741
  802MPD2    N111822   2.160   4.509  17.696 -0.2159 -0.2331  0.4135
  802MPD2    H711823   2.191   4.554   0.085 -0.5612 -0.5320  0.6973
  803MPD2     C11824   4.621   3.523  11.900  0.0681  0.0727 -0.0841
  803MPD2    C111825   4.572   3.628  11.976 -0.2961 -0.1696  0.2231
  803MPD2    C211826   4.478   3.602  12.071  0.2258 -0.5003  0.3894
  803MPD2    C311827   4.424   3.475  12.081 -0.6064  0.4400  0.3793
  803MPD2    C411828   4.483   3.366  12.022  0.2734 -0.1132  0.2533
  803MPD2    C511829   4.583   3.394  11.929 -0.3855  0.1954 -0.5263
  803MPD2     H11830   4.433   3.681  12.131  1.2225 -1.2584  2.1123
  803MPD2    H111831   4.463   3.262  12.042  0.6566  0.0337  1.4129
  803MPD2    H211832   4.692   3.529  11.819  0.7974 -2.6340  0.3719
  803MPD2    H311833   4.633   3.314  11.875 -1.7800 -0.1103 -1.3740
  803MPD2     N11834   4.319   3.448  12.169 -0.3742 -0.0229 -1.2142
  803MPD2    H511835   4.302   3.350  12.187  5.1252 -0.4959  1.4391
  803MPD2    N111836   4.609   3.763  11.952 -0.5125 -0.5052 -0.0516
  803MPD2    H711837   4.566   3.828  12.018 -2.1537  0.1226 -1.7403
  804MPD2     C11838   2.966   0.274  17.142 -0.0583 -0.6276  0.3106
  804MPD2    C111839   3.023   0.182  17.229 -0.3698 -0.0932 -0.8362
  804MPD2    C211840   3.138   0.219  17.294  0.3205  0.1246  0.6242
  804MPD2    C311841   3.196   0.344  17.274  0.3626 -0.2135 -0.6074
  804MPD2    C411842   3.132   0.425  17.185  0.0922 -0.1248  0.1158
  804MPD2    C511843   3.023   0.390  17.117 -0.0390 -0.4099 -0.0148
  804MPD2     H11844   3.188   0.154  17.364 -0.2490  1.4843  2.2909
  804MPD2    H111845   3.165   0.528  17.173 -2.2132  0.8156  1.7416
  804MPD2    H211846   2.888   0.234  17.077 -1.8171  0.0281  2.0212
  804MPD2    H311847   2.979   0.454  17.041  1.5716  0.3263 -0.3200
  804MPD2     N11848   3.306   0.377  17.361 -0.0772  0.2369 -0.6825
  804MPD2    H511849   3.323   0.322  17.445 -2.1451  0.1466 -0.3074
  804MPD2    N111850   2.972   0.057  17.258 -0.2541  0.1780  0.4109
  804MPD2    H711851   3.011   4.716  17.325  0.6450  2.6624  2.2921
  805MPD2     C11852   2.041   3.522  15.523 -0.7045  0.8653  0.6850
  805MPD2    C111853   2.139   3.512  15.418  0.0917 -0.5917  0.0314
  805MPD2    C211854   2.274   3.507  15.449 -0.2507  0.8325 -0.6563
  805MPD2    C311855   2.316   3.493  15.579 -0.3217  0.0920 -0.1129
  805MPD2    C411856   2.226   3.501  15.681 -0.9515 -0.0033  0.2630
  805MPD2    C511857   2.096   3.507  15.651  0.4991  0.1359  0.6012
  805MPD2     H11858   2.338   3.506  15.362  0.1252  0.8233 -0.3835
  805MPD2    H111859   2.252   3.490  15.786  1.3829 -0.0682 -0.3260
  805MPD2    H211860   1.934   3.521  15.507 -0.5850 -1.1758 -0.0149
  805MPD2    H311861   2.023   3.510  15.732 -0.0970  1.2580  0.0134
  805MPD2     N11862   2.455   3.492  15.603  0.4312 -0.0797 -0.6319
  805MPD2    H511863   2.514   3.526  15.528 -1.8218  0.0734 -2.3288
  805MPD2    N111864   2.103   3.526  15.284 -0.5868  0.0926  0.5739
  805MPD2    H711865   2.175   3.520  15.212 -2.0011 -1.0301 -0.7325
  806MPD2     C11866   2.810   2.701  17.461 -0.0727  0.6832  0.5747
  806MPD2    C111867   2.794   2.755  17.584 -0.1364 -0.2177 -0.2983
  806MPD2    C211868   2.889   2.839  17.631  0.2703  0.7910 -0.0600
  806MPD2    C311869   2.990   2.893  17.554 -0.0816 -0.7677  0.2954
  806MPD2    C411870   2.991   2.852  17.423 -0.1840  0.9872  0.5767
  806MPD2    C511871   2.907   2.748  17.385  0.1479 -0.1634 -0.0174
  806MPD2     H11872   2.874   2.881   0.033 -0.9140 -0.1645  0.1542
  806MPD2    H111873   3.065   2.889  17.353  1.4990 -1.6519  0.9422
  806MPD2    H211874   2.732   2.638  17.419 -0.6389  1.7760 -0.0187
  806MPD2    H311875   2.911   2.706  17.286  0.5593  1.8960 -0.8813
  806MPD2     N11876   3.061   2.997  17.605 -0.6353 -0.5591  0.1567
  806MPD2    H511877   3.028   3.035  17.693 -1.1446 -0.0073 -0.2611
  806MPD2    N111878   2.698   2.718  17.675  0.3610  0.6323  0.3486
  806MPD2    H711879   2.705   2.759   0.071 -1.0543 -0.9469  1.1496
  807MPD2     C11880   2.314   2.132   0.457 -0.3068  0.5803 -0.4902
  807MPD2    C111881   2.265   2.258   0.497  1.5595  0.5828 -0.0665
  807MPD2    C211882   2.194   2.265   0.616 -0.9210  0.2542  0.1003
  807MPD2    C311883   2.176   2.155   0.692 -0.7642  0.4841 -0.0565
  807MPD2    C411884   2.215   2.029   0.644  0.1595 -0.3385  0.2358
  807MPD2    C511885   2.288   2.018   0.524  0.3609 -0.5075  0.0229
  807MPD2     H11886   2.158   2.361   0.649 -0.6112  1.2661 -2.4554
  807MPD2    H111887   2.185   1.939   0.697 -1.0891  0.0075  0.1228
  807MPD2    H211888   2.380   2.115   0.373 -0.9956  1.5682 -1.2368
  807MPD2    H311889   2.319   1.923   0.481  0.1341 -1.5344  2.1146
  807MPD2     N11890   2.108   2.161   0.817  0.1298 -0.2026 -0.2478
  807MPD2    H511891   2.066   2.250   0.843 -0.7586 -0.9433  0.8178
  807MPD2    N111892   2.289   2.374   0.417 -0.8572  0.0103 -0.1901
  807MPD2    H711893   2.251   2.466   0.439  1.1327  0.1853  2.5452
  808MPD2     C11894   3.344   3.358  10.340 -0.3919  0.3844  0.7605
  808MPD2    C111895   3.297   3.478  10.283 -0.1134  0.2917  0.4394
  808MPD2    C211896   3.375   3.592  10.291  0.1978 -0.2983 -0.5682
  808MPD2    C311897   3.505   3.580  10.340  0.4041 -0.0634  0.1583
  808MPD2    C411898   3.556   3.460  10.381  0.1711 -0.3088 -0.3351
  808MPD2    C511899   3.469   3.351  10.395 -0.5175 -0.6096 -0.3964
  808MPD2     H11900   3.338   3.687  10.255  0.0350 -0.7909 -1.6868
  808MPD2    H111901   3.656   3.447  10.421  0.2118 -1.2798 -0.7346
  808MPD2    H211902   3.285   3.267  10.332 -1.7572  1.3739 -0.4382
  808MPD2    H311903   3.498   3.256  10.437 -0.4843 -1.7724 -3.0557
  808MPD2     N11904   3.607   3.674  10.321 -0.1895  0.1852 -0.0837
  808MPD2    H511905   3.704   3.645  10.311 -0.1484 -0.5414  2.3795
  808MPD2    N111906   3.169   3.486  10.221 -0.0210  0.0839  0.3114
  808MPD2    H711907   3.150   3.569  10.165 -1.0270  0.8416  1.7691
  809MPD2     C11908   4.153   3.449   9.755 -0.1074  0.4824 -0.2398
  809MPD2    C111909   4.219   3.509   9.870  0.0682 -0.4041  0.1973
  809MPD2    C211910   4.161   3.619   9.928 -0.2887  0.5797 -0.7868
  809MPD2    C311911   4.026   3.649   9.907 -0.0198  0.0148 -0.7105
  809MPD2    C411912   3.948   3.570   9.821  0.2529  0.1239 -0.5861
  809MPD2    C511913   4.017   3.471   9.751  0.1310 -0.0589 -0.0704
  809MPD2     H11914   4.226   3.677   9.992  0.1453 -1.6935  0.8075
  809MPD2    H111915   3.843   3.583   9.801  0.5049  0.2134 -1.8827
  809MPD2    H211916   4.206   3.379   9.690 -0.6191 -0.3940  0.2940
  809MPD2    H311917   3.973   3.406   9.677 -0.0250 -0.0092 -0.0204
  809MPD2     N11918   3.956   3.752   9.981 -0.4475 -0.3700  0.2290
  809MPD2    H511919   3.855   3.747   9.972 -0.5971  2.0008  0.7639
  809MPD2    N111920   4.347   3.470   9.906 -1.1194 -0.3361 -0.0594
  809MPD2    H711921   4.396   3.526   9.975 -0.2384  0.2365 -1.1507
  810MPD2     C11922   3.769   3.770  10.627 -0.4086 -0.5273  0.6746
  810MPD2    C111923   3.650   3.834  10.649 -0.4437  0.1383 -0.8610
  810MPD2    C211924   3.655   3.973  10.676 -1.2735  0.5705 -0.9188
  810MPD2    C311925   3.780   4.041  10.676 -0.5586  0.5660  0.4109
  810MPD2    C411926   3.892   3.976  10.657 -0.0948 -1.0196 -0.4100
  810MPD2    C511927   3.885   3.843  10.641  0.1201  0.1685  0.1702
  810MPD2     H11928   3.566   4.024  10.710 -1.6101 -2.6907  3.1750
  810MPD2    H111929   3.986   4.030  10.670  0.8224 -2.3083 -1.6415
  810MPD2    H211930   3.780   3.666  10.597  2.1161 -0.0660 -0.0348
  810MPD2    H311931   3.974   3.783  10.628  1.2671  1.4569  2.1582
  810MPD2     N11932   3.792   4.173  10.711 -0.3454  0.6605 -0.2829
  810MPD2    H511933   3.884   4.212  10.729 -0.0480  0.0091 -0.3647
  810MPD2    N111934   3.525   3.760  10.646  0.0580 -0.0247 -0.2895
  810MPD2    H711935   3.530   3.662  10.623  0.3531  0.0859 -0.6959
  811MPD2     C11936   2.675   3.612  10.259 -0.1982  0.5366 -0.1972
  811MPD2    C111937   2.782   3.704  10.260 -0.2403  0.5535 -0.4037
  811MPD2    C211938   2.794   3.790  10.149  0.3923  0.3142 -0.2814
  811MPD2    C311939   2.706   3.792  10.046 -0.7497  0.5035 -0.0725
  811MPD2    C411940   2.604   3.699  10.049 -0.7516 -0.6326 -0.5888
  811MPD2    C511941   2.591   3.610  10.155  0.6268 -0.4909 -0.2230
  811MPD2     H11942   2.874   3.862  10.138  2.0761 -1.5786 -0.4859
  811MPD2    H111943   2.527   3.710   9.973 -1.3905  0.7173  0.2536
  811MPD2    H211944   2.643   3.545  10.338  2.7009 -0.4834  0.1127
  811MPD2    H311945   2.509   3.539  10.165  0.4169 -0.0345  1.3363
  811MPD2     N11946   2.728   3.886   9.949  0.2421 -0.5518  0.2010
  811MPD2    H511947   2.806   3.948   9.969  0.6401 -1.3756  1.1968
  811MPD2    N111948   2.882   3.681  10.361 -0.4555 -0.1260 -0.1323
  811MPD2    H711949   2.862   3.603  10.423 -0.4882  1.0812  1.3757
  812MPD2     C11950   2.127   3.906  12.067  0.0953 -0.1665  0.8423
  812MPD2    C111951   2.036   3.967  12.143 -0.0839 -0.0767 -0.0094
  812MPD2    C211952   1.972   3.877  12.226 -0.4424 -0.2938 -0.4659
  812MPD2    C311953   1.988   3.742  12.230 -0.2184 -0.4589 -0.3039
  812MPD2    C411954   2.085   3.687  12.153 -0.0338 -0.4189  0.1139
  812MPD2    C511955   2.146   3.767  12.071  1.5248 -0.5463 -0.0733
  812MPD2     H11956   1.902   3.928  12.292 -0.7550 -0.3008 -0.7901
  812MPD2    H111957   2.122   3.586  12.152  3.6223  0.9075  2.2114
  812MPD2    H211958   2.190   3.959  11.996 -1.6309  0.0014 -0.5664
  812MPD2    H311959   2.221   3.726  12.004  1.7354  0.9960 -0.7785
  812MPD2     N11960   1.914   3.674  12.323  0.1615 -0.1589 -0.0571
  812MPD2    H511961   1.860   3.726  12.391 -0.8141 -0.3052 -0.7267
  812MPD2    N111962   2.019   4.105  12.139  0.1750 -0.0910 -0.2230
  812MPD2    H711963   2.078   4.151  12.071  0.1001 -0.5296 -0.5795
  813MPD2     C11964   1.762   1.012  12.475  1.0330 -0.1262  0.2047
  813MPD2    C111965   1.673   1.112  12.477 -0.2340  0.6349  0.2562
  813MPD2    C211966   1.563   1.101  12.562 -0.4277  0.1427  0.1916
  813MPD2    C311967   1.555   1.000  12.656 -0.6486 -0.3834 -0.0169
  813MPD2    C411968   1.649   0.897  12.664 -1.1948  0.0284 -0.1723
  813MPD2    C511969   1.754   0.908  12.567  0.1162 -0.3128 -0.4690
  813MPD2     H11970   1.487   1.177  12.551 -0.0485  0.3744 -0.8018
  813MPD2    H111971   1.649   0.815  12.735 -3.9358  0.7466  0.6813
  813MPD2    H211972   1.845   1.032  12.409  0.9992 -1.3502 -0.2104
  813MPD2    H311973   1.836   0.837  12.566  1.8272  1.6406  0.2498
  813MPD2     N11974   1.436   1.001  12.732 -0.0093  0.5874 -0.0340
  813MPD2    H511975   1.373   1.075  12.703 -0.5297  0.3627  0.5213
  813MPD2    N111976   1.690   1.214  12.386  0.6007 -0.3700  0.1325
  813MPD2    H711977   1.731   1.182  12.299 -1.4657  0.1717 -1.0532
  814MPD2     C11978   1.297   2.664  12.226 -0.0796 -0.1558  0.3269
  814MPD2    C111979   1.375   2.650  12.111 -0.0906 -0.0613  0.2019
  814MPD2    C211980   1.474   2.743  12.083 -0.2944  0.5684  0.1444
  814MPD2    C311981   1.487   2.855  12.155  0.7068  0.0255  0.1395
  814MPD2    C411982   1.402   2.875  12.258 -0.1266 -0.5206  0.0548
  814MPD2    C511983   1.314   2.778  12.300 -0.1217  0.3571 -0.9165
  814MPD2     H11984   1.539   2.728  11.998  1.5481  1.1001  1.4691
  814MPD2    H111985   1.426   2.958  12.324  0.1491 -0.1144 -0.5510
  814MPD2    H211986   1.218   2.593  12.248  2.3626 -2.3672  1.9913
  814MPD2    H311987   1.263   2.801  12.392  2.4749  0.5156  0.4861
  814MPD2     N11988   1.594   2.949  12.145 -0.1605  0.4389  0.1077
  814MPD2    H511989   1.581   3.037  12.194  1.9751  0.6990  0.2064
  814MPD2    N111990   1.374   2.538  12.024  0.6621  0.3945 -0.1711
  814MPD2    H711991   1.437   2.535  11.945  2.0795 -0.9481  1.0255
  815MPD2     C11992   2.069   0.294  12.199  0.0297  0.0493  0.0378
  815MPD2    C111993   2.003   0.371  12.102 -0.3436 -0.2702 -0.5016
  815MPD2    C211994   1.863   0.383  12.111  0.2524 -0.5458  0.1746
  815MPD2    C311995   1.794   0.323  12.213  0.5430 -0.4785 -0.3571
  815MPD2    C411996   1.861   0.253  12.307  0.6980 -0.3172  0.2204
  815MPD2    C511997   1.996   0.238  12.299  0.4762  0.2232  0.0050
  815MPD2     H11998   1.810   0.444  12.038  1.2200  2.7939  2.2583
  815MPD2    H111999   1.814   0.209  12.394  0.0434  0.1790  0.1180
  815MPD2    H212000   2.173   0.264  12.187  0.0773 -0.0173  0.6129
  815MPD2    H312001   2.039   0.173  12.375  0.1247 -0.0206 -0.0052
  815MPD2     N12002   1.654   0.330  12.214 -0.4654 -0.0680 -0.5918
  815MPD2    H512003   1.605   0.360  12.130  0.0399 -0.9154 -1.1896
  815MPD2    N112004   2.086   0.421  11.994  0.5391 -0.0677  0.7018
  815MPD2    H712005   2.187   0.414  11.995  0.4654 -1.2748 -0.0583
  816MPD2     C12006   0.943   4.373  16.961 -0.2263  0.1935 -0.0541
  816MPD2    C112007   1.039   4.458  17.004  0.3373  0.3641 -0.5826
  816MPD2    C212008   1.172   4.433  16.971 -0.5143  0.1210 -0.3649
  816MPD2    C312009   1.211   4.319  16.897 -0.1353  0.7836 -0.3963
  816MPD2    C412010   1.112   4.235  16.867  0.0178 -0.3417 -0.2284
  816MPD2    C512011   0.978   4.261  16.892  0.1955  0.0405 -0.1499
  816MPD2     H12012   1.248   4.502  17.004 -1.2259  0.9519 -0.4712
  816MPD2    H112013   1.136   4.140  16.822  2.1697  0.2040 -0.2113
  816MPD2    H212014   0.841   4.378  16.995 -0.6266  0.4480 -1.2734
  816MPD2    H312015   0.900   4.188  16.874 -0.8732  1.6131 -1.8974
  816MPD2     N12016   1.347   4.296  16.864 -0.3127 -0.3180  0.5194
  816MPD2    H512017   1.403   4.370  16.907 -4.2859  2.9632  0.0860
  816MPD2    N112018   0.998   4.565  17.080  0.4982 -0.6390  0.0196
  816MPD2    H712019   0.899   4.568  17.103  0.2329  0.4653 -1.3087
  817MPD2     C12020   1.541   1.447   9.755 -0.3271  0.3958  0.2166
  817MPD2    C112021   1.489   1.385   9.641  0.5751  0.2822 -0.0338
  817MPD2    C212022   1.391   1.444   9.570  0.6711  0.1945  1.3464
  817MPD2    C312023   1.348   1.568   9.604  0.3371  0.3042 -0.0656
  817MPD2    C412024   1.402   1.634   9.709 -0.2704  0.0894  0.2650
  817MPD2    C512025   1.493   1.570   9.785  0.1852  0.5976 -0.7015
  817MPD2     H12026   1.358   1.400   9.476 -3.4292  2.8937  1.5285
  817MPD2    H112027   1.364   1.732   9.734 -2.3230 -0.0132 -2.3804
  817MPD2    H212028   1.622   1.407   9.815 -1.4653  0.7819  2.0209
  817MPD2    H312029   1.535   1.622   9.870 -3.0288  1.1974  0.5525
  817MPD2     N12030   1.251   1.631   9.521  0.3199  0.0623  0.5711
  817MPD2    H512031   1.217   1.587   9.437  1.1358  0.2164  0.1553
  817MPD2    N112032   1.534   1.254   9.595  0.1639  0.4043 -0.1071
  817MPD2    H712033   1.490   1.220   9.509 -0.7131 -1.2461  1.0012
  818MPD2     C12034   0.600   1.233   9.998  0.1403 -0.6782 -0.3835
  818MPD2    C112035   0.500   1.200  10.092 -0.1796 -0.0280  0.2983
  818MPD2    C212036   0.468   1.068  10.114 -0.1215  0.9191  0.6065
  818MPD2    C312037   0.532   0.967  10.041  0.9366 -0.7325  0.0444
  818MPD2    C412038   0.613   1.002   9.935  0.5587  0.1361 -0.5957
  818MPD2    C512039   0.653   1.132   9.919 -0.4642  0.5055  0.3473
  818MPD2     H12040   0.400   1.043  10.195 -0.1110 -0.2268  0.2630
  818MPD2    H112041   0.656   0.919   9.879  1.8481 -1.5673  2.8832
  818MPD2    H212042   0.618   1.338   9.978 -1.1400 -0.4413 -0.2482
  818MPD2    H312043   0.718   1.163   9.838  0.0416  2.1898  1.3940
  818MPD2     N12044   0.504   0.829  10.062 -0.0984  0.3407  0.1974
  818MPD2    H512045   0.543   0.765   9.994  2.3160  2.0523 -0.0497
  818MPD2    N112046   0.424   1.298  10.166 -0.9014  0.0067  0.2111
  818MPD2    H712047   0.339   1.266  10.211 -2.2602  2.1521 -0.8121
  819MPD2     C12048   2.855   3.231  15.442 -0.8007 -0.1526 -0.1482
  819MPD2    C112049   2.894   3.101  15.427 -0.1843  0.5267  0.6796
  819MPD2    C212050   3.027   3.082  15.448  0.1658 -0.1736  0.7375
  819MPD2    C312051   3.110   3.186  15.490  0.1800  0.3935  1.0405
  819MPD2    C412052   3.062   3.310  15.498 -0.1501  0.3816  0.8076
  819MPD2    C512053   2.928   3.336  15.487 -0.0378  0.3441  0.0713
  819MPD2     H12054   3.064   2.980  15.438 -2.5978 -0.9570 -1.6631
  819MPD2    H112055   3.122   3.393  15.533 -2.1851  1.9557  0.5448
  819MPD2    H212056   2.750   3.257  15.429 -1.6592 -1.6393  3.7230
  819MPD2    H312057   2.879   3.432  15.492 -1.0261 -0.1482 -0.0680
  819MPD2     N12058   3.244   3.147  15.517 -0.7171 -0.0055  0.1984
  819MPD2    H512059   3.261   3.048  15.504 -0.1010  0.1508 -0.1518
  819MPD2    N112060   2.802   3.005  15.382  0.1462 -0.1306 -1.2428
  819MPD2    H712061   2.717   3.046  15.344 -0.1288  1.8213  1.5125
  820MPD2     C12062   2.099   2.946  14.740  0.3643 -0.8005  0.8804
  820MPD2    C112063   2.157   3.040  14.826  0.2945  0.2715  0.4241
  820MPD2    C212064   2.253   2.991  14.910 -0.5147  0.6122  0.9588
  820MPD2    C312065   2.297   2.862  14.917  0.6427  0.5694 -0.1714
  820MPD2    C412066   2.234   2.769  14.846  0.0159 -0.6028 -0.4915
  820MPD2    C512067   2.143   2.815  14.749  0.3524 -0.6686 -0.2954
  820MPD2     H12068   2.304   3.062  14.974 -0.3193 -0.4378  1.9688
  820MPD2    H112069   2.264   2.666  14.854  0.2396 -0.6437 -1.8128
  820MPD2    H212070   2.020   2.978  14.672  0.3483 -2.9800 -0.1370
  820MPD2    H312071   2.097   2.743  14.683  3.3764 -2.0887 -0.8358
  820MPD2     N12072   2.389   2.813  15.016  0.0725  0.0856  0.1525
  820MPD2    H512073   2.399   2.712  15.024  0.0606 -0.2192 -3.7498
  820MPD2    N112074   2.106   3.174  14.826 -0.0689  0.1222 -0.4220
  820MPD2    H712075   2.022   3.186  14.771 -1.0604  0.7765  1.2317
  821MPD2     C12076   3.225   4.005  13.045 -0.2952 -0.3159 -0.4894
  821MPD2    C112077   3.339   3.981  13.123 -0.1695  0.4131  0.3604
  821MPD2    C212078   3.465   3.998  13.071  1.5041  0.2405  0.4350
  821MPD2    C312079   3.484   4.059  12.949 -0.6498  0.2830  0.0541
  821MPD2    C412080   3.369   4.083  12.867 -0.3749  0.4549  0.6512
  821MPD2    C512081   3.245   4.050  12.917 -0.5704  0.5906  0.1204
  821MPD2     H12082   3.549   3.965  13.131  0.4377  0.0068  1.7991
  821MPD2    H112083   3.375   4.128  12.769 -0.1350 -0.9164  0.0362
  821MPD2    H212084   3.122   3.992  13.074 -0.3213  1.8130  0.3723
  821MPD2    H312085   3.157   4.054  12.853 -0.5712  1.7131  0.1860
  821MPD2     N12086   3.611   4.084  12.897 -0.6515  0.5197 -0.2345
  821MPD2    H512087   3.632   4.144  12.819  1.9320  0.9418  0.7669
  821MPD2    N112088   3.328   3.940  13.259  0.4076  0.6922 -0.0022
  821MPD2    H712089   3.410   3.924  13.317  0.0405  1.3386  0.6894
  822MPD2     C12090   3.351   4.399  15.725 -0.2376 -0.0957  0.8148
  822MPD2    C112091   3.432   4.428  15.834 -1.3668  0.3414 -0.1313
  822MPD2    C212092   3.387   4.500  15.943 -0.1373  0.3857 -0.0789
  822MPD2    C312093   3.254   4.533  15.960 -0.3796  0.2988 -0.1308
  822MPD2    C412094   3.166   4.500  15.859 -0.2850  0.0525  0.2669
  822MPD2    C512095   3.221   4.444  15.744 -0.5505 -0.5007  0.0583
  822MPD2     H12096   3.447   4.509  16.033 -1.2114  2.4167  0.4148
  822MPD2    H112097   3.059   4.520  15.857  0.0402  1.7273 -0.3933
  822MPD2    H212098   3.390   4.337  15.645  1.2743 -0.0830  1.5610
  822MPD2    H312099   3.148   4.429  15.665  0.2874  1.4886 -1.0923
  822MPD2     N12100   3.228   4.604  16.074  0.1157 -0.9321 -0.3805
  822MPD2    H512101   3.310   4.638  16.123 -0.6229 -0.5497  0.6002
  822MPD2    N112102   3.567   4.390  15.849  0.4684  0.0961  0.6864
  822MPD2    H712103   3.594   4.395  15.947  0.2005  0.6842  0.7313
  823MPD2     C12104   3.088   4.546  16.940  0.5533  0.4779 -0.5904
  823MPD2    C112105   3.068   4.510  16.812  0.5391 -0.4657 -0.0125
  823MPD2    C212106   3.060   4.373  16.787  0.3808  0.5059  0.0775
  823MPD2    C312107   3.093   4.283  16.887  0.3533 -0.0076 -0.2176
  823MPD2    C412108   3.118   4.323  17.014  0.2930 -0.0444  0.0075
  823MPD2    C512109   3.112   4.454  17.037 -0.2480  0.0371 -0.1377
  823MPD2     H12110   3.056   4.332  16.687 -0.0041  1.0278 -0.1198
  823MPD2    H112111   3.134   4.262  17.103  0.0983 -2.8868 -1.9179
  823MPD2    H212112   3.077   4.647  16.978 -0.6489  0.6011 -1.2766
  823MPD2    H312113   3.131   4.488  17.138  3.2098  1.1762 -1.1698
  823MPD2     N12114   3.087   4.146  16.859 -0.3574  0.7049  0.2372
  823MPD2    H512115   3.096   4.090  16.943  1.6449  0.1616 -0.3450
  823MPD2    N112116   3.037   4.603  16.707  1.0989 -0.6098  0.4525
  823MPD2    H712117   3.044   4.702  16.729  0.1688 -1.0775  2.8281
  824MPD2     C12118   3.835   3.606  15.668  0.2643  0.0917 -0.6831
  824MPD2    C112119   3.951   3.664  15.708  0.1701 -0.2004  0.3958
  824MPD2    C212120   4.070   3.601  15.719 -0.0815  0.0889 -0.3367
  824MPD2    C312121   4.081   3.472  15.669  0.1569 -0.8561 -0.7613
  824MPD2    C412122   3.964   3.411  15.638 -0.3698 -0.7480  0.2739
  824MPD2    C512123   3.843   3.476  15.635  0.0186  0.5373 -0.1297
  824MPD2     H12124   4.157   3.650  15.760 -0.1518 -0.1335  0.0755
  824MPD2    H112125   3.955   3.307  15.609  1.3530 -0.7029 -0.4415
  824MPD2    H212126   3.745   3.666  15.671  0.6632  0.7230 -1.5234
  824MPD2    H312127   3.754   3.418  15.612  0.6340  0.3487 -2.0694
  824MPD2     N12128   4.208   3.409  15.673  0.5310  0.0365 -0.5493
  824MPD2    H512129   4.285   3.474  15.684  0.8672 -0.6258  1.0340
  824MPD2    N112130   3.948   3.800  15.750  0.1455 -0.2554 -0.2809
  824MPD2    H712131   4.028   3.839  15.799 -0.3866  0.9492 -0.3748
  825MPD2     C12132   0.174   3.364  15.202 -0.9002 -0.8058  0.7616
  825MPD2    C112133   0.113   3.425  15.308  0.0951 -0.0235  0.1647
  825MPD2    C212134   0.125   3.559  15.320  0.5858 -0.3991 -0.3448
  825MPD2    C312135   0.191   3.633  15.221 -0.6788  0.6749 -0.7234
  825MPD2    C412136   0.226   3.576  15.100 -0.9588 -0.3064 -0.6633
  825MPD2    C512137   0.226   3.437  15.098  0.2488 -0.4888 -0.7916
  825MPD2     H12138   0.079   3.610  15.405 -0.3211  1.1499 -1.7786
  825MPD2    H112139   0.280   3.630  15.022  0.6550 -2.2468 -0.8781
  825MPD2    H212140   0.177   3.258  15.179  1.0272 -0.5932  0.0127
  825MPD2    H312141   0.265   3.382  15.014  0.7948  0.3331 -1.0760
  825MPD2     N12142   0.211   3.774  15.233  0.2654 -0.3908  0.2960
  825MPD2    H512143   0.222   3.821  15.144  0.9765 -1.0283  0.0528
  825MPD2    N112144   0.025   3.341  15.388  0.2699  0.1678  0.6485
  825MPD2    H712145   0.030   3.243  15.362 -2.4361 -0.3584  2.0972
  826MPD2     C12146   4.458   3.079  13.773  1.8346  0.7203  0.5296
  826MPD2    C112147   4.558   3.173  13.754  0.1491 -0.0272 -0.1489
  826MPD2    C212148   4.529   3.304  13.741  0.2258 -0.8638  0.3161
  826MPD2    C312149   4.396   3.343  13.739  0.1306  0.3086 -0.0957
  826MPD2    C412150   4.292   3.253  13.763 -0.0212  0.0458 -0.1039
  826MPD2    C512151   4.321   3.117  13.783  0.7752 -1.5171  0.2541
  826MPD2     H12152   4.613   3.374  13.743 -0.6325  0.1816  0.0481
  826MPD2    H112153   4.190   3.288  13.769  0.2609  0.9266 -0.3398
  826MPD2    H212154   4.479   2.973  13.786 -1.1415  0.3038  1.9076
  826MPD2    H312155   4.240   3.048  13.807 -0.3178 -0.0563  0.7692
  826MPD2     N12156   4.355   3.475  13.724 -0.0597 -0.2427 -0.6854
  826MPD2    H512157   4.256   3.494  13.730  0.5168  2.2037  0.8384
  826MPD2    N112158   4.686   3.120  13.739 -0.3999 -0.2382  0.8156
  826MPD2    H712159   4.691   3.020  13.721  0.7403 -0.3404  1.6873
  827MPD2     C12160   0.736   0.173  10.080  0.2522  0.3161 -0.5398
  827MPD2    C112161   0.803   0.055  10.097 -0.2891  0.4290  0.6717
  827MPD2    C212162   0.763   4.672  10.010 -0.0742 -0.0781  0.7920
  827MPD2    C312163   0.661   4.682   9.915  0.5159 -0.0802  0.4281
  827MPD2    C412164   0.604   0.083   9.902  0.1985  0.5557 -1.0025
  827MPD2    C512165   0.646   0.189   9.979  1.0703 -0.0399 -0.0143
  827MPD2     H12166   0.792   4.570  10.033 -3.7812 -1.1222  0.9412
  827MPD2    H112167   0.524   0.116   9.837  0.9590  1.0481 -1.6888
  827MPD2    H212168   0.765   0.259  10.139  0.8289 -0.0623 -0.2615
  827MPD2    H312169   0.598   0.282   9.948  1.1515 -0.2632 -0.8007
  827MPD2     N12170   0.628   4.571   9.838 -0.4554 -0.0261  0.2198
  827MPD2    H512171   0.678   4.483   9.841 -1.0114 -0.2789  1.9539
  827MPD2    N112172   0.913   0.049  10.186  0.1295 -0.2922 -0.5094
  827MPD2    H712173   0.919   0.133  10.244 -0.5578 -0.0053 -0.8602
  828MPD2     C12174   4.083   4.692  12.307 -0.2035 -0.6777 -0.2749
  828MPD2    C112175   4.051   4.657  12.172  0.3409 -0.6139 -0.1273
  828MPD2    C212176   4.153   4.625  12.082  0.4125  0.1169  0.9000
  828MPD2    C312177   4.289   4.632  12.118 -0.0554 -0.2211  0.4933
  828MPD2    C412178   4.313   4.674  12.243 -0.8264 -0.4341  0.3186
  828MPD2    C512179   4.216   4.693  12.338 -1.0583 -0.6609  0.1573
  828MPD2     H12180   4.125   4.603  11.980  1.7317 -2.4410  1.0648
  828MPD2    H112181   4.415   4.672  12.279 -1.0123  0.0445  0.8743
  828MPD2    H212182   4.016   4.706  12.391 -0.4370  1.9238 -0.8768
  828MPD2    H312183   4.249   4.718  12.438  0.3918 -0.6012 -0.3305
  828MPD2     N12184   4.405   4.602  12.035  0.2100 -0.1038 -0.3624
  828MPD2    H512185   4.496   4.632  12.067  1.3120 -0.7210 -2.9285
  828MPD2    N112186   3.918   4.644  12.126 -0.3664  0.4516  1.1575
  828MPD2    H712187   3.905   4.631  12.026 -0.0208  1.3989  0.9911
  829MPD2     C12188   3.347   0.292  11.413 -0.3082 -0.2214 -0.5075
  829MPD2    C112189   3.259   0.272  11.510 -0.4355 -0.2690  0.3801
  829MPD2    C212190   3.300   0.203  11.626  0.0230  0.1269  0.2901
  829MPD2    C312191   3.426   0.158  11.642 -0.1245 -0.0994 -0.5098
  829MPD2    C412192   3.517   0.168  11.532  0.2739 -0.4323 -0.1401
  829MPD2    C512193   3.471   0.252  11.432 -0.3043 -0.5424  0.6811
  829MPD2     H12194   3.224   0.170  11.696  0.0068 -2.6269 -1.0012
  829MPD2    H112195   3.621   0.139  11.544  1.1561  2.0921 -1.6433
  829MPD2    H212196   3.324   0.356  11.329 -0.1782 -0.7384 -0.9357
  829MPD2    H312197   3.548   0.270  11.358 -1.1306  0.2659  0.0170
  829MPD2     N12198   3.460   0.112  11.770 -0.1712 -0.1737 -0.4721
  829MPD2    H512199   3.390   0.121  11.843  0.4027 -2.0318  0.3269
  829MPD2    N112200   3.126   0.311  11.480 -0.3068  0.2047  0.4341
  829MPD2    H712201   3.112   0.356  11.390 -0.8075 -0.8483 -0.0108
  830MPD2     C12202   3.582   2.770  15.164  0.4633  0.0030 -0.9013
  830MPD2    C112203   3.671   2.837  15.240  0.0234 -0.4277  1.0077
  830MPD2    C212204   3.798   2.846  15.189 -0.4919  1.1599 -0.2952
  830MPD2    C312205   3.839   2.787  15.070  0.0210  0.4267  0.2904
  830MPD2    C412206   3.740   2.723  14.993 -0.0421 -0.2776  1.0680
  830MPD2    C512207   3.610   2.720  15.041 -0.0221  0.1213 -0.5311
  830MPD2     H12208   3.877   2.896  15.245 -0.1226 -0.0498  0.2789
  830MPD2    H112209   3.764   2.689  14.893 -3.2732 -2.0300  0.8944
  830MPD2    H212210   3.479   2.750  15.192  0.8371  0.6710  0.9575
  830MPD2    H312211   3.531   2.669  14.986 -0.5328  1.8237 -1.3659
  830MPD2     N12212   3.967   2.801  15.014  0.1825 -0.2556  0.4066
  830MPD2    H512213   3.963   2.799  14.913  0.5184 -0.3832  0.3959
  830MPD2    N112214   3.632   2.890  15.365 -0.5023  0.2873  0.0077
  830MPD2    H712215   3.537   2.869  15.395  0.8889 -2.8034  2.2358
  831MPD2     C12216   3.497   4.679  16.586  0.0167 -0.9252 -0.4574
  831MPD2    C112217   3.511   4.642  16.456  0.5896  0.6718 -0.0872
  831MPD2    C212218   3.450   4.531  16.404  0.4816  0.2011 -0.4878
  831MPD2    C312219   3.371   4.454  16.490  0.4526 -0.3677  0.3787
  831MPD2    C412220   3.360   4.490  16.622  0.6285 -0.2704  0.5889
  831MPD2    C512221   3.426   4.604  16.668  0.0932  0.0233  0.3689
  831MPD2     H12222   3.453   4.507  16.298 -1.6101  1.2902 -0.8135
  831MPD2    H112223   3.307   4.421  16.687  1.2195  0.1717  1.5389
  831MPD2    H212224   3.536   0.039  16.643 -0.2555 -2.2471  1.6770
  831MPD2    H312225   3.436   4.632  16.772 -1.3431  2.3973 -0.1482
  831MPD2     N12226   3.298   4.339  16.458  0.3232 -0.1631  0.4555
  831MPD2    H512227   3.238   4.298  16.529  0.9642 -2.1287 -0.1621
  831MPD2    N112228   3.592   4.722  16.376  0.1965 -0.5328 -0.3899
  831MPD2    H712229   3.664   0.055  16.420 -1.1893  1.2517 -0.4033
  832MPD2     C12230   2.150   0.504  17.045 -0.3811  0.3150  0.2693
  832MPD2    C112231   2.153   0.639  17.087 -0.4414  0.5483  0.0915
  832MPD2    C212232   2.040   0.716  17.062 -0.4907 -0.0338 -0.2638
  832MPD2    C312233   1.938   0.673  16.981 -0.2576  0.0290 -0.9736
  832MPD2    C412234   1.930   0.539  16.949  0.6382 -0.0793  0.2196
  832MPD2    C512235   2.037   0.463  16.985 -0.2308 -0.3477 -0.7426
  832MPD2     H12236   2.031   0.822  17.085  1.6073  0.0953  0.0037
  832MPD2    H112237   1.849   0.488  16.898 -0.5061  1.6434  0.3015
  832MPD2    H212238   2.229   0.431  17.055 -0.5052 -0.1027 -1.7817
  832MPD2    H312239   2.039   0.356  16.969 -1.2658 -0.7395  1.8089
  832MPD2     N12240   1.827   0.755  16.944  0.3998  0.3605  0.1638
  832MPD2    H512241   1.830   0.853  16.970  1.9298  0.4966 -0.4937
  832MPD2    N112242   2.261   0.686  17.167  0.1469 -0.1969  0.4952
  832MPD2    H712243   2.339   0.621  17.168 -1.4761 -2.1359 -0.5843
  833MPD2     C12244   4.541   2.223  12.593 -0.6407  0.0900 -0.9401
  833MPD2    C112245   4.572   2.351  12.552  0.4133 -1.1691 -0.5386
  833MPD2    C212246   4.683   2.371  12.473 -0.3450 -0.3498 -1.2546
  833MPD2    C312247   0.036   2.262  12.439  0.3152 -0.4803 -0.1413
  833MPD2    C412248   0.003   2.135  12.478  0.4720 -0.1383  1.0587
  833MPD2    C512249   4.618   2.118  12.568 -0.6802  0.4546  0.2744
  833MPD2     H12250   4.692   2.469  12.427 -1.4451 -0.5826 -1.9743
  833MPD2    H112251   0.072   2.056  12.451 -0.5003 -0.7535  0.4140
  833MPD2    H212252   4.452   2.212  12.654 -2.7370  0.5528 -3.9112
  833MPD2    H312253   4.594   2.021  12.609 -1.0763 -0.7064 -2.7533
  833MPD2     N12254   0.148   2.268  12.356 -0.1878 -0.1745 -0.4700
  833MPD2    H512255   0.189   2.179  12.332 -0.4263 -0.5796  0.6545
  833MPD2    N112256   4.499   2.455  12.605 -0.2901 -0.3604 -0.1247
  833MPD2    H712257   4.419   2.424  12.659 -0.4164  0.6902  0.2876
  834MPD2     C12258   0.331   2.129  11.388  0.2988 -0.0386  0.3226
  834MPD2    C112259   0.267   2.064  11.492  0.0885 -0.0573  0.2370
  834MPD2    C212260   0.271   2.121  11.621 -0.2351  0.1791  0.1961
  834MPD2    C312261   0.350   2.238  11.638  0.2180  1.0253 -0.6357
  834MPD2    C412262   0.424   2.291  11.535  0.2184  0.8496  0.3767
  834MPD2    C512263   0.410   2.234  11.408 -0.2682  0.2199  0.1979
  834MPD2     H12264   0.226   2.067  11.703  1.6674 -2.9198 -0.8047
  834MPD2    H112265   0.479   2.384  11.544 -0.7783  1.3130  1.9114
  834MPD2    H212266   0.322   2.080  11.292  0.5786  1.3548 -0.4260
  834MPD2    H312267   0.467   2.264  11.321 -2.2566 -0.9939 -1.5424
  834MPD2     N12268   0.356   2.303  11.765  0.0969  0.0524 -0.1414
  834MPD2    H512269   0.399   2.395  11.765  1.9542 -0.8155  0.2473
  834MPD2    N112270   0.203   1.945  11.460  0.3506 -0.2972  0.4646
  834MPD2    H712271   0.222   1.915  11.364 -0.1671  2.1688 -0.4097
  835MPD2     C12272   0.628   4.631  11.711 -0.1724  0.3060  0.2495
  835MPD2    C112273   0.542   0.009  11.680 -0.3840  0.0807 -0.3706
  835MPD2    C212274   0.466   0.064  11.780 -0.3376  0.1530 -0.4914
  835MPD2    C312275   0.468   0.008  11.908 -0.1650 -0.2344 -0.0458
  835MPD2    C412276   0.538   4.617  11.934  0.4676  0.2962 -0.1929
  835MPD2    C512277   0.618   4.569  11.834  0.1692 -0.2748  0.1025
  835MPD2     H12278   0.394   0.141  11.755  0.5044  0.4228 -2.1120
  835MPD2    H112279   0.532   4.560  12.026 -0.1443  0.9188  0.1513
  835MPD2    H212280   0.705   4.599  11.641 -0.1315  0.1467  0.3670
  835MPD2    H312281   0.700   4.504  11.864  0.2056 -0.1739  0.2215
  835MPD2     N12282   0.390   0.060  12.014  0.7035 -0.5526 -0.1199
  835MPD2    H512283   0.388   0.004  12.098 -0.3375 -0.0833  0.1597
  835MPD2    N112284   0.523   0.054  11.545  0.2370  0.4565 -0.3046
  835MPD2    H712285   0.479   0.145  11.535 -0.8543  0.2358  2.4899
  836MPD2     C12286   4.445   0.305  11.895  0.1682 -0.0607  0.0820
  836MPD2    C112287   4.461   0.279  12.033 -0.0491  0.2464 -0.0143
  836MPD2    C212288   4.346   0.289  12.110 -0.0448  0.4269  0.7611
  836MPD2    C312289   4.224   0.320  12.054 -0.1443 -0.1917  0.1764
  836MPD2    C412290   4.213   0.345  11.916 -0.3358 -0.5310 -0.5230
  836MPD2    C512291   4.325   0.331  11.840 -0.3827 -0.3643  0.5470
  836MPD2     H12292   4.337   0.259  12.214 -2.2430 -0.6249  0.2736
  836MPD2    H112293   4.117   0.364  11.870 -0.9153 -1.1534  0.4352
  836MPD2    H212294   4.533   0.306  11.832  0.8044  0.6838  0.9994
  836MPD2    H312295   4.320   0.337  11.732  0.7179 -2.0215  0.4082
  836MPD2     N12296   4.119   0.328  12.145  0.1411 -0.1095  0.4509
  836MPD2    H512297   4.144   0.331  12.244 -1.9322 -0.3333  0.9798
  836MPD2    N112298   4.584   0.254  12.094 -0.0755  0.8048 -0.5390
  836MPD2    H712299   4.664   0.230  12.036 -0.3560 -1.7443  0.1011
  837MPD2     C12300   3.084   4.532   9.936  0.7079  0.2017 -0.6465
  837MPD2    C112301   2.991   4.529   9.836  0.7052  0.0098  0.2868
  837MPD2    C212302   2.934   4.652   9.798 -0.8291 -0.3881  0.5229
  837MPD2    C312303   2.962   0.045   9.869 -0.4497 -0.3021 -0.0737
  837MPD2    C412304   3.064   0.041   9.963 -0.0538  0.2145 -0.2553
  837MPD2    C512305   3.117   4.649  10.004 -0.4065 -0.7141  0.3210
  837MPD2     H12306   2.846   4.660   9.736 -1.3549 -0.1175  1.3162
  837MPD2    H112307   3.071   0.125  10.031 -0.2774 -0.9652  1.2338
  837MPD2    H212308   3.131   4.441   9.970  1.4803  1.1727  0.8652
  837MPD2    H312309   3.180   4.641  10.091  0.3171 -0.0090 -0.1439
  837MPD2     N12310   2.888   0.168   9.857 -0.0498 -0.0607  0.2056
  837MPD2    H512311   2.917   0.248   9.911 -0.2273  0.5459 -0.6011
  837MPD2    N112312   2.945   4.418   9.760 -0.4421  0.4042  0.3409
  837MPD2    H712313   2.893   4.441   9.676 -1.1064 -0.2940  0.5660
  838MPD2     C12314   1.145   3.433  11.970 -0.3913 -0.1713  0.4377
  838MPD2    C112315   1.141   3.332  11.887  0.2575  0.1901  0.1289
  838MPD2    C212316   1.022   3.280  11.848  0.9515 -0.1012 -0.2150
  838MPD2    C312317   0.906   3.314  11.901  0.3657  0.7363  0.3833
  838MPD2    C412318   0.907   3.419  11.990  0.7464  0.1077 -0.5356
  838MPD2    C512319   1.027   3.486  12.011  0.4639 -0.2104 -0.4959
  838MPD2     H12320   1.031   3.188  11.792  1.4647 -0.9896  1.3119
  838MPD2    H112321   0.813   3.462  12.024  1.6642  1.2826  0.4980
  838MPD2    H212322   1.236   3.486  11.994  1.4076 -2.6241 -1.0491
  838MPD2    H312323   1.037   3.581  12.061 -1.4215 -0.7139  0.8288
  838MPD2     N12324   0.791   3.247  11.857  0.0678 -1.1323 -0.0275
  838MPD2    H512325   0.806   3.189  11.776 -1.2509 -0.9106 -0.4287
  838MPD2    N112326   1.259   3.267  11.833 -0.0738  0.3195  0.1557
  838MPD2    H712327   1.254   3.179  11.782 -2.2921  0.0592  0.8249
  839MPD2     C12328   1.016   2.543  11.757  0.0298  0.3580  0.5437
  839MPD2    C112329   1.104   2.558  11.652  0.3718 -0.4308 -0.4831
  839MPD2    C212330   1.216   2.643  11.667 -0.4318  0.0482  0.1197
  839MPD2    C312331   1.223   2.734  11.769 -0.0497 -0.6258  0.2789
  839MPD2    C412332   1.135   2.722  11.872  0.5503  0.0250  0.5100
  839MPD2    C512333   1.032   2.629  11.868  0.3813 -0.5244  0.6075
  839MPD2     H12334   1.281   2.654  11.582 -2.1398  1.4766 -0.9951
  839MPD2    H112335   1.151   2.777  11.964  0.9672  0.3126  0.2715
  839MPD2    H212336   0.934   2.471  11.754  0.5109 -0.1208 -0.8156
  839MPD2    H312337   0.973   2.620  11.958 -0.4907 -0.9155 -0.0011
  839MPD2     N12338   1.310   2.847  11.772  0.1270 -0.1997  0.0633
  839MPD2    H512339   1.293   2.912  11.848  0.2911 -1.0924  0.8612
  839MPD2    N112340   1.083   2.479  11.532 -0.4558  0.1649  0.0147
  839MPD2    H712341   1.156   2.474  11.461 -1.1882 -0.1299 -0.7087
  840MPD2     C12342   1.405   0.452  10.239 -0.2327  0.7755  0.2536
  840MPD2    C112343   1.433   0.382  10.356  0.4056  0.5782  0.5707
  840MPD2    C212344   1.516   0.439  10.445  0.0735  0.1562 -0.1076
  840MPD2    C312345   1.586   0.556  10.411 -0.4587 -0.7157  1.2155
  840MPD2    C412346   1.574   0.607  10.284  0.1103 -0.2275 -0.0886
  840MPD2    C512347   1.475   0.567  10.203 -1.0458  0.4603 -0.1727
  840MPD2     H12348   1.528   0.397  10.544  1.5518 -0.0348 -0.3759
  840MPD2    H112349   1.646   0.682  10.251 -1.1845  1.2179  0.3778
  840MPD2    H212350   1.324   0.410  10.181  1.6754 -1.1567 -0.9842
  840MPD2    H312351   1.463   0.618  10.108  1.0389  0.1564 -0.5983
  840MPD2     N12352   1.685   0.614  10.489  0.4003 -0.1199 -0.2844
  840MPD2    H512353   1.728   0.697  10.449  0.3900 -0.6256 -1.3539
  840MPD2    N112354   1.348   0.272  10.371  0.1879 -0.4123  0.2170
  840MPD2    H712355   1.284   0.247  10.297 -0.2296  1.0381  0.0892
  841MPD2     C12356   0.602   0.954  15.048 -0.2789  0.0540 -0.1639
  841MPD2    C112357   0.625   0.830  14.990  0.3536 -0.5937 -0.2456
  841MPD2    C212358   0.669   0.807  14.863  0.1777  0.4271  0.1053
  841MPD2    C312359   0.715   0.912  14.789 -0.0415 -0.6251 -0.6943
  841MPD2    C412360   0.691   1.037  14.842 -0.0260  0.0036 -0.3675
  841MPD2    C512361   0.634   1.058  14.965 -0.3344  0.3547  0.8312
  841MPD2     H12362   0.668   0.706  14.825  1.2027  1.4018 -2.5128
  841MPD2    H112363   0.691   1.131  14.788 -0.1573  0.3087  0.1614
  841MPD2    H212364   0.563   0.976  15.146  1.2125  1.5353  0.0967
  841MPD2    H312365   0.618   1.159  15.001  0.7764  0.7318  0.2803
  841MPD2     N12366   0.780   0.880  14.667  0.1858 -0.0848  0.0534
  841MPD2    H512367   0.784   0.780  14.650 -2.1518 -0.5647  2.2089
  841MPD2    N112368   0.588   0.706  15.061 -0.0595  0.9016  0.2148
  841MPD2    H712369   0.595   0.627  14.998 -1.7732 -0.6761  2.0216
  842MPD2     C12370   0.700   0.726  16.662  0.1100 -0.5208  0.7368
  842MPD2    C112371   0.770   0.845  16.642 -1.5865 -0.1368  0.2237
  842MPD2    C212372   0.863   0.897  16.735 -0.4584  0.0005 -0.2776
  842MPD2    C312373   0.859   0.833  16.865  0.0689 -0.5050  0.2659
  842MPD2    C412374   0.786   0.715  16.886  0.0159  0.4711 -0.3282
  842MPD2    C512375   0.715   0.658  16.784 -0.2875 -0.5782 -0.3884
  842MPD2     H12376   0.915   0.990  16.719  0.0708 -0.3723 -0.7122
  842MPD2    H112377   0.795   0.660  16.979  0.5819 -0.3775 -0.8865
  842MPD2    H212378   0.644   0.689  16.577  3.3219 -1.1887 -1.0923
  842MPD2    H312379   0.679   0.557  16.802  0.8532 -0.6856  1.3474
  842MPD2     N12380   0.942   0.880  16.968 -0.5726 -0.0485 -0.5691
  842MPD2    H512381   0.920   0.831  17.055 -1.1128 -0.8828 -1.1723
  842MPD2    N112382   0.729   0.919  16.532 -1.1975 -0.4604 -0.1860
  842MPD2    H712383   0.648   0.883  16.482 -0.3205 -1.4686 -0.8737
  843MPD2     C12384   3.631   1.523   1.033  0.4028 -0.0693  0.5998
  843MPD2    C112385   3.551   1.638   1.007 -0.0285 -0.7056 -0.1272
  843MPD2    C212386   3.570   1.710   0.888  0.2287  1.3286  0.0986
  843MPD2    C312387   3.688   1.682   0.815 -0.5186 -0.3653 -0.1147
  843MPD2    C412388   3.762   1.570   0.843 -0.2687 -0.1059 -0.4554
  843MPD2    C512389   3.731   1.486   0.943 -0.3261 -0.5205 -0.1319
  843MPD2     H12390   3.494   1.782   0.864 -2.0986 -1.5338 -1.0492
  843MPD2    H112391   3.845   1.540   0.780  0.9959 -1.1461  1.7057
  843MPD2    H212392   3.614   1.460   1.119 -1.6081  0.7067  0.7777
  843MPD2    H312393   3.784   1.393   0.960 -0.3993 -0.5644 -0.1429
  843MPD2     N12394   3.716   1.769   0.714  0.7579  0.3410 -0.0088
  843MPD2    H512395   3.658   1.853   0.712 -3.5003 -2.5748  0.5198
  843MPD2    N112396   3.447   1.668   1.094  0.4861  0.5679 -0.4056
  843MPD2    H712397   3.436   1.601   1.170 -0.4455 -0.2832 -1.2985
  844MPD2     C12398   2.068   0.963  16.617  0.2370  0.0357 -0.1645
  844MPD2    C112399   2.133   0.862  16.684 -0.8020 -0.3544  0.3371
  844MPD2    C212400   2.235   0.898  16.768  0.5645 -0.0672 -0.0999
  844MPD2    C312401   2.265   1.030  16.800  0.0106  0.5881 -0.4783
  844MPD2    C412402   2.195   1.128  16.736 -0.9940  0.3762 -0.7052
  844MPD2    C512403   2.106   1.089  16.640  0.2116  0.0049  1.3305
  844MPD2     H12404   2.283   0.818  16.822 -2.7906 -1.7437  0.3976
  844MPD2    H112405   2.228   1.231  16.739 -0.5154  0.1068  3.1330
  844MPD2    H212406   2.004   0.939  16.533  1.6677  1.4677 -1.6750
  844MPD2    H312407   2.072   1.156  16.562 -0.5303  1.5752  2.9948
  844MPD2     N12408   2.361   1.059  16.895  0.2412  0.6772 -0.1261
  844MPD2    H512409   2.404   0.975  16.933  0.6166  0.4587 -1.0327
  844MPD2    N112410   2.107   0.718  16.677  0.5911 -0.6605 -0.5278
  844MPD2    H712411   2.167   0.655  16.730 -3.1309  0.4465  5.0228
  845MPD2     C12412   2.459   1.917  17.321  0.3027  0.1711 -0.7599
  845MPD2    C112413   2.370   1.816  17.369 -0.2745  0.6583  0.0912
  845MPD2    C212414   2.402   1.678  17.358  0.2324 -0.0553  0.4630
  845MPD2    C312415   2.525   1.648  17.295 -0.1202  0.3000  0.1071
  845MPD2    C412416   2.609   1.747  17.253 -0.7976 -0.2710 -0.8080
  845MPD2    C512417   2.576   1.885  17.256  0.0122 -0.5985  0.2673
  845MPD2     H12418   2.329   1.602  17.380 -0.0319 -0.1293 -0.6637
  845MPD2    H112419   2.713   1.731  17.225 -1.2035 -2.4689 -1.0124
  845MPD2    H212420   2.426   2.020  17.325 -0.7414 -0.1686 -0.6261
  845MPD2    H312421   2.642   1.965  17.224  0.1436 -1.2510 -1.1002
  845MPD2     N12422   2.546   1.512  17.273 -0.3696 -0.2846 -0.4001
  845MPD2    H512423   2.472   1.447  17.300 -1.4919  0.7642 -0.9191
  845MPD2    N112424   2.247   1.856  17.421  0.6653  0.3914 -0.3345
  845MPD2    H712425   2.229   1.955  17.424  0.2035  0.3339 -1.1132
  846MPD2     C12426   3.512   1.745  13.286 -0.0109 -0.1893 -0.1551
  846MPD2    C112427   3.512   1.875  13.320 -0.3080  0.3593 -0.3140
  846MPD2    C212428   3.499   1.912  13.457 -0.9336 -0.1760 -0.0698
  846MPD2    C312429   3.491   1.819  13.557 -0.1015 -0.1801 -0.0463
  846MPD2    C412430   3.501   1.685  13.526  0.0428  0.2587  1.3130
  846MPD2    C512431   3.504   1.656  13.392 -0.0206 -0.1263  0.1341
  846MPD2     H12432   3.496   2.016  13.489 -0.4784 -1.2071  3.3959
  846MPD2    H112433   3.500   1.607  13.601  1.1032  0.5716  1.6561
  846MPD2    H212434   3.515   1.717  13.181 -1.2381 -2.8090  0.5025
  846MPD2    H312435   3.509   1.549  13.374  0.5622 -0.3350  1.4989
  846MPD2     N12436   3.475   1.868  13.689  0.0737  0.0619  0.0655
  846MPD2    H512437   3.442   1.964  13.693  3.0676  1.1117  0.1874
  846MPD2    N112438   3.527   1.982  13.234 -0.2442  0.5159 -0.3062
  846MPD2    H712439   3.550   2.073  13.271  0.5521  0.5669 -0.9180
  847MPD2     C12440   3.923   3.252  13.947  0.3254 -0.1436 -0.0247
  847MPD2    C112441   3.995   3.349  14.013 -0.0638 -0.1198 -0.5661
  847MPD2    C212442   4.105   3.306  14.076 -0.0786 -0.3604 -0.4680
  847MPD2    C312443   4.126   3.172  14.113  0.9816  0.1059  0.6309
  847MPD2    C412444   4.042   3.080  14.061 -0.0187 -0.2108 -0.1156
  847MPD2    C512445   3.942   3.120  13.976 -0.1005 -0.2193  0.2392
  847MPD2     H12446   4.163   3.382  14.127  1.2651 -0.3028 -2.0933
  847MPD2    H112447   4.056   2.976  14.087 -0.9322  0.3295  2.6047
  847MPD2    H212448   3.835   3.277  13.890  0.3991  0.7623  0.2524
  847MPD2    H312449   3.872   3.049  13.933  1.9363 -2.2041  0.2208
  847MPD2     N12450   4.232   3.133  14.204 -0.2222  0.1525  0.1482
  847MPD2    H512451   4.238   3.033  14.223  0.6835  0.5061  1.7196
  847MPD2    N112452   3.965   3.488  14.023 -0.4189 -0.1592 -0.0529
  847MPD2    H712453   4.022   3.540  14.089 -0.8894  1.0051 -0.5643
  848MPD2     C12454   1.455   1.315  17.286 -0.3332 -0.0506  0.1696
  848MPD2    C112455   1.427   1.328  17.153 -0.6745  0.1231  0.0167
  848MPD2    C212456   1.373   1.448  17.105  0.1540  0.2615 -0.4547
  848MPD2    C312457   1.338   1.552  17.190 -0.0921 -0.4664 -1.1731
  848MPD2    C412458   1.379   1.543  17.323 -0.6199 -0.1868  0.2711
  848MPD2    C512459   1.429   1.422  17.368  0.7381 -0.2013 -0.5044
  848MPD2     H12460   1.373   1.461  16.998 -0.2062  1.1660 -0.3489
  848MPD2    H112461   1.375   1.619  17.400 -2.5660  0.7084 -0.6983
  848MPD2    H212462   1.497   1.225  17.331 -1.4871 -0.6234  0.0892
  848MPD2    H312463   1.444   1.402  17.474 -0.8558 -1.1465 -0.4653
  848MPD2     N12464   1.277   1.669  17.137 -0.1729 -0.6292 -0.6639
  848MPD2    H512465   1.258   1.746  17.200  0.1780 -2.1576  1.3123
  848MPD2    N112466   1.466   1.238  17.052  0.2366  0.3082 -0.2942
  848MPD2    H712467   1.454   1.253  16.952  0.1823 -0.9565 -0.4883
  849MPD2     C12468   1.507   1.490  13.600 -1.3300 -0.5129 -1.1085
  849MPD2    C112469   1.548   1.364  13.641 -0.1170  0.0595 -0.0975
  849MPD2    C212470   1.452   1.294  13.703  0.0083  0.3540 -0.5877
  849MPD2    C312471   1.321   1.342  13.719 -0.3566  0.4150 -0.3710
  849MPD2    C412472   1.285   1.467  13.679 -0.0820  0.3322  0.0302
  849MPD2    C512473   1.378   1.538  13.609 -0.4998  0.2844  0.2063
  849MPD2     H12474   1.483   1.195  13.737 -1.4719 -0.1893 -0.8148
  849MPD2    H112475   1.188   1.513  13.691 -0.4182  0.2414 -2.2780
  849MPD2    H212476   1.586   1.557  13.568  0.3436 -1.8776  0.1796
  849MPD2    H312477   1.359   1.638  13.572 -1.7783  1.3099  3.7097
  849MPD2     N12478   1.220   1.268  13.779  0.3031  0.1263 -0.5403
  849MPD2    H512479   1.135   1.320  13.797  1.3334  1.2107  1.2495
  849MPD2    N112480   1.680   1.320  13.633  0.2071  0.2086  0.0672
  849MPD2    H712481   1.734   1.359  13.556 -1.6654  1.7653 -0.4487
  850MPD2     C12482   3.842   4.192  14.627  0.8630 -0.3589  0.2840
  850MPD2    C112483   3.752   4.201  14.732 -0.4555 -0.5647  0.3356
  850MPD2    C212484   3.803   4.203  14.859 -0.2514 -0.9328  0.0800
  850MPD2    C312485   3.935   4.173  14.881  0.5720  0.1638  0.0890
  850MPD2    C412486   4.028   4.155  14.782 -0.3425  0.0071  0.4622
  850MPD2    C512487   3.974   4.168  14.651  0.1915  0.6275  0.1448
  850MPD2     H12488   3.735   4.217  14.942  0.5652 -1.7035  0.8675
  850MPD2    H112489   4.132   4.126  14.793 -0.4408  0.0656  1.5337
  850MPD2    H212490   3.803   4.187  14.526  1.3835 -0.0135  0.0680
  850MPD2    H312491   4.038   4.142  14.568 -1.5083 -0.3516 -0.8569
  850MPD2     N12492   3.992   4.147  15.010  0.3657 -0.2667 -0.4151
  850MPD2    H512493   4.089   4.119  15.012 -0.1651 -1.8945  2.1335
  850MPD2    N112494   3.615   4.210  14.703  0.3626  0.1465 -0.4075
  850MPD2    H712495   3.595   4.247  14.611  1.2691  2.3001  0.2547
  851MPD2     C12496   3.934   3.704  15.313 -0.0348 -0.2242  0.7131
  851MPD2    C112497   3.892   3.686  15.181  0.3677 -0.0792 -0.2212
  851MPD2    C212498   3.947   3.578  15.112 -0.2848 -0.1472  0.4413
  851MPD2    C312499   4.045   3.504  15.169 -0.0663 -0.3325  0.6154
  851MPD2    C412500   4.094   3.532  15.296 -0.0148 -0.5745  0.1188
  851MPD2    C512501   4.029   3.623  15.366 -0.0582 -0.2941  0.3568
  851MPD2     H12502   3.908   3.551  15.014  0.1504 -0.1311  0.2640
  851MPD2    H112503   4.173   3.473  15.341 -0.0596  0.0438  1.0102
  851MPD2    H212504   3.898   3.783  15.377 -0.1457  1.4820 -1.4736
  851MPD2    H312505   4.064   3.645  15.466  1.5665  0.7758 -0.4406
  851MPD2     N12506   4.102   3.401  15.084  0.5783 -0.6568 -0.0235
  851MPD2    H512507   4.054   3.385  14.997  0.6334 -0.1229 -0.1472
  851MPD2    N112508   3.790   3.774  15.127 -0.4517 -0.1634  0.0183
  851MPD2    H712509   3.741   3.832  15.195 -0.3532  1.4014 -1.2554
  852MPD2     C12510   4.209   1.315   9.741 -0.2078  0.3488  0.6660
  852MPD2    C112511   4.245   1.354   9.866 -1.1208  0.4120 -0.1817
  852MPD2    C212512   4.325   1.463   9.882 -0.2122 -0.2771 -0.1646
  852MPD2    C312513   4.357   1.543   9.773 -0.2702 -0.4033 -0.2500
  852MPD2    C412514   4.337   1.489   9.643 -0.2192 -0.2062  0.3415
  852MPD2    C512515   4.250   1.385   9.629  0.2524  0.0269  0.3634
  852MPD2     H12516   4.364   1.475   9.983  2.5065  0.2631 -1.3037
  852MPD2    H112517   4.353   1.547   9.554  1.7925  1.4538  1.7884
  852MPD2    H212518   4.152   1.227   9.714  0.1600  0.6988 -1.2462
  852MPD2    H312519   4.222   1.341   9.534  1.1579  0.4433 -0.1036
  852MPD2     N12520   4.425   1.662   9.789 -1.1627 -0.0776 -0.3341
  852MPD2    H512521   4.436   1.692   9.886  1.1009  0.6207 -0.8143
  852MPD2    N112522   4.217   1.285   9.983  0.0041  0.1018 -0.5226
  852MPD2    H712523   4.275   1.309  10.063 -1.0894 -1.7863  0.8491
  853MPD2     C12524   1.177   1.504  12.365 -0.4089 -0.0528  0.1719
  853MPD2    C112525   1.119   1.607  12.301  0.4498  0.0816  0.1333
  853MPD2    C212526   1.127   1.620  12.163  0.1290 -0.3146  0.2680
  853MPD2    C312527   1.196   1.522  12.096 -0.8201 -0.1431 -0.0740
  853MPD2    C412528   1.245   1.406  12.156 -0.3913  0.3653 -0.0121
  853MPD2    C512529   1.241   1.403  12.295 -0.0141 -0.4664 -0.1385
  853MPD2     H12530   1.075   1.698  12.108 -2.4964 -1.0236  1.7276
  853MPD2    H112531   1.290   1.324  12.102 -0.0047  0.1775  0.5968
  853MPD2    H212532   1.174   1.491  12.473  2.4983  0.7222  0.3468
  853MPD2    H312533   1.279   1.322  12.357  1.9677 -1.3960 -2.5377
  853MPD2     N12534   1.218   1.526  11.951  0.4250  0.3106 -0.3263
  853MPD2    H512535   1.271   1.450  11.910  1.6057  0.4462  0.9544
  853MPD2    N112536   1.057   1.696  12.392  0.8846  0.1562  0.1322
  853MPD2    H712537   1.064   1.677  12.492  1.2813  3.1111  0.6584
  854MPD2     C12538   2.896   1.997  12.503 -0.2822  0.4574  0.7171
  854MPD2    C112539   2.834   1.889  12.453 -0.0696 -0.6872  0.7389
  854MPD2    C212540   2.846   1.768  12.517  0.2040  0.3091 -0.7202
  854MPD2    C312541   2.916   1.756  12.639 -0.6299  0.7066  0.5021
  854MPD2    C412542   2.954   1.873  12.699 -0.1060 -0.1673  0.2400
  854MPD2    C512543   2.950   1.989  12.625  0.3065  0.2021 -0.2692
  854MPD2     H12544   2.799   1.678  12.479  2.3868 -2.1128  2.3167
  854MPD2    H112545   3.012   1.864  12.791 -2.8059 -1.9604  1.7675
  854MPD2    H212546   2.889   2.096  12.458 -0.9141  1.1531  2.3457
  854MPD2    H312547   2.994   2.079  12.667 -2.1529  1.1169  0.3500
  854MPD2     N12548   2.944   1.635  12.698  0.7523 -0.8578 -0.0549
  854MPD2    H512549   2.969   1.641  12.796 -1.2847  2.2982  0.2861
  854MPD2    N112550   2.751   1.909  12.339  0.1222 -0.2078  0.0310
  854MPD2    H712551   2.733   2.000  12.299 -3.0914 -0.7619  0.1536
  855MPD2     C12552   2.779   1.503  13.530 -0.4869  0.4950  0.5907
  855MPD2    C112553   2.825   1.375  13.495 -0.8005 -0.0273 -0.3207
  855MPD2    C212554   2.873   1.348  13.372  0.0114  0.1735 -1.5530
  855MPD2    C312555   2.850   1.444  13.267  0.5139  0.0868  0.0085
  855MPD2    C412556   2.794   1.565  13.298  0.2370 -1.1573  0.5939
  855MPD2    C512557   2.766   1.597  13.430 -0.0432  0.1166  0.3958
  855MPD2     H12558   2.913   1.249  13.354 -0.2867 -0.2386  0.1132
  855MPD2    H112559   2.801   1.645  13.225  2.2423 -1.5666  0.3196
  855MPD2    H212560   2.749   1.528  13.631 -1.0206  0.0469  0.5459
  855MPD2    H312561   2.724   1.694  13.451 -1.3283 -0.2564 -0.4755
  855MPD2     N12562   2.898   1.422  13.136 -0.3999 -0.8993 -0.5633
  855MPD2    H512563   2.858   1.480  13.062 -1.1474  1.0342  1.3245
  855MPD2    N112564   2.825   1.270  13.593  0.0061 -0.3492 -0.2636
  855MPD2    H712565   2.874   1.185  13.566 -1.0418 -1.4036  1.1705
  856MPD2     C12566   4.462   1.849  13.748  0.0925 -0.0580  0.6189
  856MPD2    C112567   4.563   1.947  13.747  0.0910 -0.8824 -0.0456
  856MPD2    C212568   4.531   2.086  13.747 -0.1896 -0.4585  0.6649
  856MPD2    C312569   4.403   2.127  13.745 -0.3746 -0.2203  0.4250
  856MPD2    C412570   4.305   2.030  13.744  0.2747  0.2011 -0.3870
  856MPD2    C512571   4.333   1.896  13.743  0.4872 -0.3211  0.1823
  856MPD2     H12572   4.614   2.155  13.756 -0.5872  0.1375 -0.1757
  856MPD2    H112573   4.200   2.055  13.738  0.5540  1.5154  0.0526
  856MPD2    H212574   4.483   1.744  13.763  1.1091  0.3604  2.1284
  856MPD2    H312575   4.246   1.833  13.759  2.1813 -2.9399 -1.1286
  856MPD2     N12576   4.355   2.258  13.739 -0.2125  0.4867 -0.6746
  856MPD2    H512577   4.257   2.271  13.762 -0.1069 -0.5947  0.3818
  856MPD2    N112578   4.710   1.927  13.745 -0.4422 -0.4528 -0.1879
  856MPD2    H712579   0.041   2.012  13.753 -1.7106  0.2213  1.3363
  857MPD2     C12580   1.934   0.014  12.664  1.1179  0.2429 -0.1503
  857MPD2    C112581   1.996   4.643  12.738 -0.2210 -0.0459  0.5322
  857MPD2    C212582   2.065   4.682  12.851 -0.6723 -0.2569 -0.6243
  857MPD2    C312583   2.061   0.093  12.899  0.2497  0.0486 -0.1713
  857MPD2    C412584   1.998   0.187  12.822  0.3287  0.2487 -0.3446
  857MPD2    C512585   1.936   0.145  12.704  0.2064 -0.4728 -0.5218
  857MPD2     H12586   2.111   4.601  12.907 -0.3147  0.8667  0.7081
  857MPD2    H112587   1.978   0.287  12.860 -1.2811  1.3214 -4.0573
  857MPD2    H212588   1.875   4.717  12.575 -2.1167  1.0626  1.7668
  857MPD2    H312589   1.883   0.218  12.644  0.5506 -0.8355 -1.2670
  857MPD2     N12590   2.124   0.125  13.024  0.1573  0.0195 -0.3792
  857MPD2    H512591   2.161   0.047  13.077 -0.7684 -0.2625 -0.1434
  857MPD2    N112592   1.986   4.509  12.692 -0.0941  0.3855  0.3139
  857MPD2    H712593   1.910   4.485  12.628 -1.0939 -1.2521  2.1077
  858MPD2     C12594   2.059   3.209  16.722 -0.1652  0.2238  0.0334
  858MPD2    C112595   2.184   3.234  16.772 -0.1899 -1.1007  0.0031
  858MPD2    C212596   2.203   3.317  16.881 -0.1738  0.2715 -0.7344
  858MPD2    C312597   2.093   3.370  16.943 -0.1657  0.1530 -0.7093
  858MPD2    C412598   1.967   3.347  16.897  0.1275 -0.5143  0.0100
  858MPD2    C512599   1.957   3.278  16.783 -0.4936  0.2132  1.4791
  858MPD2     H12600   2.298   3.355  16.918 -0.6545  0.1249  0.6556
  858MPD2    H112601   1.883   3.393  16.948  0.7763 -1.7908  2.2269
  858MPD2    H212602   2.036   3.141  16.641  2.9673 -1.7589  0.7839
  858MPD2    H312603   1.860   3.253  16.743 -0.4016  1.6416  0.3736
  858MPD2     N12604   2.097   3.449  17.062  0.3554 -0.6483 -0.7007
  858MPD2    H512605   2.004   3.479  17.090  1.5068  2.7327 -0.5253
  858MPD2    N112606   2.289   3.179  16.694  0.1911 -0.5068 -0.6987
  858MPD2    H712607   2.255   3.119  16.620  0.8778 -3.0902  1.0616
  859MPD2     C12608   1.001   0.773  15.596 -0.2163 -0.5265  0.1420
  859MPD2    C112609   0.992   0.796  15.465 -0.4578  0.7515 -0.4795
  859MPD2    C212610   0.934   0.693  15.389  0.1503  0.6411 -0.2241
  859MPD2    C312611   0.927   0.570  15.441 -0.3557 -0.9407 -0.0978
  859MPD2    C412612   0.950   0.549  15.576  0.0072  0.6003  0.2551
  859MPD2    C512613   0.977   0.654  15.658 -0.4767  0.4616 -0.0523
  859MPD2     H12614   0.939   0.697  15.281  2.7776 -1.7353 -0.1923
  859MPD2    H112615   0.920   0.453  15.617  0.1895  2.0475  3.8495
  859MPD2    H212616   1.052   0.840  15.664  1.9280 -2.5283  0.5342
  859MPD2    H312617   0.981   0.633  15.764  0.5814  0.8180 -0.0265
  859MPD2     N12618   0.896   0.456  15.366  0.4068 -0.0215  0.0420
  859MPD2    H512619   0.883   0.367  15.414  0.8469 -0.4888 -0.7153
  859MPD2    N112620   1.031   0.923  15.411 -0.0512  0.2284  0.2467
  859MPD2    H712621   1.070   0.994  15.472  0.1958  0.8068 -0.5900
  860MPD2     C12622   3.679   0.725  11.275  0.3942 -0.6744 -0.0881
  860MPD2    C112623   3.680   0.852  11.323  0.0751  0.6049  0.8510
  860MPD2    C212624   3.572   0.895  11.400 -0.0077 -0.3904 -0.0608
  860MPD2    C312625   3.471   0.810  11.433 -0.5145 -1.0331 -0.3041
  860MPD2    C412626   3.466   0.683  11.377  0.4222  0.4733 -0.1317
  860MPD2    C512627   3.571   0.647  11.306 -0.6291  0.5470  0.1454
  860MPD2     H12628   3.566   0.995  11.440  2.0465 -0.4201  0.2866
  860MPD2    H112629   3.388   0.610  11.393 -1.3147  2.4840  0.5379
  860MPD2    H212630   3.759   0.668  11.230 -0.2097 -1.0778 -0.6698
  860MPD2    H312631   3.571   0.548  11.261  0.7633  0.9166 -0.6753
  860MPD2     N12632   3.376   0.854  11.527 -0.4893  0.2250  0.0339
  860MPD2    H512633   3.380   0.949  11.563 -3.1009  0.4703 -0.3273
  860MPD2    N112634   3.797   0.940  11.313 -0.6105  0.2355  0.5803
  860MPD2    H712635   3.798   1.015  11.381  0.2456  1.8124 -1.1659
  861MPD2     C12636   2.091   4.215  10.870  0.2253  0.9876  0.4584
  861MPD2    C112637   2.194   4.304  10.892  0.3827 -0.2864 -0.6617
  861MPD2    C212638   2.200   4.421  10.811 -0.2424  0.3560 -0.3509
  861MPD2    C312639   2.104   4.446  10.715 -0.5196  0.5812  0.6764
  861MPD2    C412640   2.014   4.347  10.684  0.4256  0.2506  0.4078
  861MPD2    C512641   2.002   4.238  10.765 -0.3957 -0.2049  0.6826
  861MPD2     H12642   2.274   4.497  10.832 -1.7570  2.1786 -1.6465
  861MPD2    H112643   1.944   4.366  10.603  0.4775 -0.5254  0.1822
  861MPD2    H212644   2.085   4.115  10.910 -1.9196  1.3323  0.9851
  861MPD2    H312645   1.925   4.166  10.739  0.2764  0.6956 -3.9001
  861MPD2     N12646   2.094   4.572  10.642 -0.0314  0.5494 -0.7839
  861MPD2    H512647   2.033   4.579  10.561  0.8211  1.9363 -1.3126
  861MPD2    N112648   2.294   4.280  10.988  0.3548  0.6133 -0.0499
  861MPD2    H712649   2.373   4.343  10.983 -0.3698  1.5932  0.8775
  862MPD2     C12650   1.850   0.057  10.049 -0.5584 -0.9137 -0.5133
  862MPD2    C112651   1.959   0.066  10.135 -0.0783  0.7749 -0.1785
  862MPD2    C212652   2.032   4.671  10.159  0.9544 -0.2279  0.3576
  862MPD2    C312653   2.000   4.555  10.089 -0.0582 -0.2710 -0.7282
  862MPD2    C412654   1.897   4.554  10.002  0.5617  0.6783 -0.0351
  862MPD2    C512655   1.821   4.665   9.982  0.1403  0.0152  0.4489
  862MPD2     H12656   2.128   4.684  10.207  0.5487  0.1116  1.0667
  862MPD2    H112657   1.860   4.461   9.960  0.5189  0.4399  0.5221
  862MPD2    H212658   1.791   0.147  10.034 -0.6437 -0.9043 -0.1123
  862MPD2    H312659   1.735   4.666   9.916  2.7197 -2.0526 -2.9223
  862MPD2     N12660   2.053   4.432  10.118 -0.4818  0.9219  0.7239
  862MPD2    H512661   2.032   4.348  10.064 -0.5070 -0.3900  2.7461
  862MPD2    N112662   1.982   0.183  10.214  0.0947 -0.0396  0.0097
  862MPD2    H712663   1.897   0.225  10.251 -0.1349 -0.8141  0.3711
  863MPD2     C12664   4.693   2.517  17.072 -0.2073  0.1293  0.2564
  863MPD2    C112665   0.039   2.633  17.058 -0.5114 -0.2349  0.0640
  863MPD2    C212666   0.164   2.635  17.113  0.4679  0.3890 -0.0281
  863MPD2    C312667   0.219   2.525  17.180 -0.2483 -0.0018  0.3732
  863MPD2    C412668   0.138   2.411  17.184 -0.8701  0.0432 -0.1484
  863MPD2    C512669   0.017   2.402  17.127 -0.0127 -0.1413 -0.4201
  863MPD2     H12670   0.220   2.723  17.085  1.8005 -0.5435 -0.2935
  863MPD2    H112671   0.156   2.319  17.238 -1.4618 -0.3099 -0.5496
  863MPD2    H212672   4.591   2.517  17.035 -0.2640 -1.6408  0.4269
  863MPD2    H312673   4.691   2.307  17.137 -0.3268  0.3341  2.5603
  863MPD2     N12674   0.353   2.516  17.231  0.4390 -0.2658 -0.2387
  863MPD2    H512675   0.372   2.428  17.276  0.6479 -0.4612 -0.7111
  863MPD2    N112676   4.715   2.742  16.997 -0.7046 -0.1292  0.1606
  863MPD2    H712677   4.633   2.736  16.937 -0.1048  0.2169 -0.6985
  864MPD2     C12678   0.520   4.096  16.770 -0.6407 -0.1044 -0.5830
  864MPD2    C112679   0.609   3.992  16.738  0.2806 -0.1876 -0.6854
  864MPD2    C212680   0.724   4.013  16.672 -1.0495 -0.4044  0.4386
  864MPD2    C312681   0.758   4.138  16.626  0.8293 -0.3140  0.1675
  864MPD2    C412682   0.671   4.250  16.663 -0.1496  0.3450  0.4018
  864MPD2    C512683   0.564   4.224  16.741 -1.1502 -0.6941 -0.2306
  864MPD2     H12684   0.793   3.932  16.654 -0.3693 -0.0249  1.3230
  864MPD2    H112685   0.691   4.354  16.640  0.1362 -0.1051 -1.3508
  864MPD2    H212686   0.431   4.068  16.825 -0.7090  2.2994  0.5235
  864MPD2    H312687   0.504   4.303  16.786  3.3840  2.7549 -0.2391
  864MPD2     N12688   0.872   4.166  16.550  1.2201  0.0143  0.2861
  864MPD2    H512689   0.878   4.259  16.512  0.6837  0.4556  1.2705
  864MPD2    N112690   0.572   3.862  16.781 -0.4611  0.6222 -0.5556
  864MPD2    H712691   0.483   3.851  16.828 -0.8200  1.4633 -1.0284
  865MPD2     C12692   1.216   4.044  15.796 -0.2823  0.2484  0.2062
  865MPD2    C112693   1.194   4.014  15.929 -0.5002 -0.4732 -0.3647
  865MPD2    C212694   1.133   4.112  16.000 -0.2389 -0.3550  0.3384
  865MPD2    C312695   1.118   4.242  15.946  0.0552 -0.0522  0.1802
  865MPD2    C412696   1.138   4.265  15.814 -0.4588 -0.5196 -0.4060
  865MPD2    C512697   1.189   4.168  15.746  0.4619 -0.1261  0.7863
  865MPD2     H12698   1.100   4.090  16.101 -2.3437 -1.8073 -0.6623
  865MPD2    H112699   1.122   4.362  15.769  1.1734  0.0132  0.1547
  865MPD2    H212700   1.269   3.978  15.728  0.5257 -0.4220  1.4918
  865MPD2    H312701   1.205   4.188  15.640  1.8759 -0.4755  0.9373
  865MPD2     N12702   1.062   4.355  16.011 -0.1302  0.2283  0.1341
  865MPD2    H512703   1.046   4.435  15.950  0.9233  1.7591  1.8752
  865MPD2    N112704   1.246   3.892  15.977  0.3263 -0.6882 -0.1415
  865MPD2    H712705   1.301   3.837  15.912  1.6063  1.4053 -0.8255
  866MPD2     C12706   3.031   4.626  11.469  0.4911 -0.5595  0.3312
  866MPD2    C112707   3.074   4.683  11.354 -0.3180  0.2040  0.2960
  866MPD2    C212708   2.981   0.026  11.267  0.4450  0.9427 -0.2127
  866MPD2    C312709   2.850   0.033  11.298 -0.7094 -0.0245 -0.1546
  866MPD2    C412710   2.814   4.710  11.423 -0.2124 -0.1343  0.0541
  866MPD2    C512711   2.904   4.649  11.507 -0.4061 -0.1651 -0.5252
  866MPD2     H12712   3.017   0.047  11.167  0.7223 -0.1516 -0.3484
  866MPD2    H112713   2.719   0.021  11.462 -0.3031  1.0250 -1.1958
  866MPD2    H212714   3.100   4.600  11.549  0.4925  0.4209  0.6621
  866MPD2    H312715   2.883   4.642  11.613 -0.0536 -1.4399 -0.5366
  866MPD2     N12716   2.750   0.083  11.206 -0.7690 -0.3745 -0.0923
  866MPD2    H512717   2.655   0.095  11.241 -0.1772 -0.0016  1.3768
  866MPD2    N112718   3.212   4.671  11.325  0.2168  0.0850 -0.2080
  866MPD2    H712719   3.274   4.623  11.389  0.3035  1.1882  0.5406
  867MPD2     C12720   0.262   3.929  16.401 -0.3259 -0.1048  0.3802
  867MPD2    C112721   0.251   3.906  16.539 -0.2332  0.5040 -0.9068
  867MPD2    C212722   0.225   4.009  16.625 -0.6718  0.7028 -0.5121
  867MPD2    C312723   0.218   4.137  16.581  0.3078  0.0683  0.5882
  867MPD2    C412724   0.247   4.165  16.447 -0.2297  0.8185  0.5880
  867MPD2    C512725   0.258   4.063  16.358 -0.0659 -0.3003 -0.1168
  867MPD2     H12726   0.200   3.981  16.727 -0.3651 -1.4046 -1.0233
  867MPD2    H112727   0.246   4.265  16.405  1.2387 -0.7448 -3.2038
  867MPD2    H212728   0.279   3.854  16.323  1.1162  0.4923  0.1217
  867MPD2    H312729   0.270   4.082  16.252  0.7498  0.8901  0.1915
  867MPD2     N12730   0.192   4.246  16.666 -0.2617 -0.2431  0.0069
  867MPD2    H512731   0.192   4.338  16.624 -0.5226 -1.0640 -1.7756
  867MPD2    N112732   0.255   3.771  16.578 -0.1467  0.1507  0.3104
  867MPD2    H712733   0.263   3.707  16.500 -2.4462 -0.6936  0.7792
  868MPD2     C12734   1.643   2.230  12.697 -0.2575  0.4644  0.9938
  868MPD2    C112735   1.728   2.341  12.722 -0.4835 -0.5676 -0.4598
  868MPD2    C212736   1.682   2.453  12.778 -0.2095  0.3651 -0.0349
  868MPD2    C312737   1.547   2.456  12.820 -0.0059 -0.5835 -0.1306
  868MPD2    C412738   1.465   2.348  12.800  0.0203  0.1816  0.0173
  868MPD2    C512739   1.509   2.235  12.735  0.1531 -0.1893  0.2959
  868MPD2     H12740   1.735   2.547  12.786  1.8908 -0.7081 -1.5273
  868MPD2    H112741   1.366   2.332  12.842 -0.3605 -0.0417 -0.9631
  868MPD2    H212742   1.675   2.140  12.646  0.8581  2.0249 -1.0739
  868MPD2    H312743   1.444   2.151  12.713 -0.8568  0.8663 -0.7120
  868MPD2     N12744   1.497   2.572  12.881 -0.0197 -0.3618 -0.4262
  868MPD2    H512745   1.549   2.658  12.892 -0.2738 -0.3135  0.4176
  868MPD2    N112746   1.862   2.336  12.673 -0.0609 -0.1561  0.6183
  868MPD2    H712747   1.887   2.243  12.641 -0.2552 -0.1547  0.4667
  869MPD2     C12748   2.098   0.648   2.102 -0.1698  0.6826 -0.7466
  869MPD2    C112749   2.204   0.621   2.026  0.7335 -0.0893 -0.4861
  869MPD2    C212750   2.242   0.715   1.930 -0.9277  0.7327  0.3366
  869MPD2    C312751   2.178   0.832   1.912  0.2112  0.4886  0.2987
  869MPD2    C412752   2.072   0.860   2.000  0.1271 -0.1223 -0.6532
  869MPD2    C512753   2.036   0.765   2.088  0.9563 -0.1458  0.3710
  869MPD2     H12754   2.298   0.673   1.848 -1.4582 -0.0794  0.3854
  869MPD2    H112755   2.020   0.954   2.002  2.3907  1.1454 -1.1406
  869MPD2    H212756   2.055   0.585   2.178  0.5798  0.6989 -0.3044
  869MPD2    H312757   1.948   0.784   2.148  0.4392 -0.9796 -0.1160
  869MPD2     N12758   2.217   0.935   1.815  0.6119 -0.7218 -0.0804
  869MPD2    H512759   2.165   1.023   1.812 -1.2847 -1.7594  2.4229
  869MPD2    N112760   2.264   0.492   2.029 -0.4148  0.6978 -0.2823
  869MPD2    H712761   2.211   0.422   2.079 -2.3832  1.5951 -1.1142
  870MPD2     C12762   2.108   0.130   1.838 -0.3195  0.0867  0.2121
  870MPD2    C112763   2.214   0.084   1.760 -0.3830 -0.3197 -0.8672
  870MPD2    C212764   2.275   0.168   1.663 -0.4043 -0.3607 -0.2836
  870MPD2    C312765   2.230   0.298   1.645 -0.4134 -1.4513  0.6189
  870MPD2    C412766   2.135   0.342   1.737  0.4144 -0.1669 -0.5468
  870MPD2    C512767   2.069   0.259   1.821 -0.6032  0.3891 -0.5097
  870MPD2     H12768   2.344   0.121   1.594 -0.1982 -0.1521 -0.2177
  870MPD2    H112769   2.100   0.444   1.727 -0.9286 -0.4400  1.3457
  870MPD2    H212770   2.050   0.060   1.897 -1.0690 -0.0479 -0.6877
  870MPD2    H312771   1.982   0.293   1.876  0.2875  1.4259  0.2574
  870MPD2     N12772   2.289   0.370   1.549 -0.0351 -0.0229  0.3768
  870MPD2    H512773   2.359   0.318   1.498  1.9014  1.1456  1.8480
  870MPD2    N112774   2.258   4.673   1.788 -0.1607 -0.6213  0.7417
  870MPD2    H712775   2.205   4.628   1.862 -2.1654  0.2280 -0.1876
  871MPD2     C12776   3.155   3.726  16.160  0.2487 -0.4586  1.4931
  871MPD2    C112777   3.209   3.681  16.280 -0.3977  0.3528 -0.8069
  871MPD2    C212778   3.338   3.631  16.297 -0.0273  0.5930  0.1529
  871MPD2    C312779   3.419   3.632  16.183 -0.3665 -0.4476 -0.8657
  871MPD2    C412780   3.368   3.681  16.064  0.3502  0.4097  0.7127
  871MPD2    C512781   3.237   3.712  16.054 -0.1216 -0.4035 -0.5471
  871MPD2     H12782   3.379   3.596  16.391  0.7769  1.3712  0.0853
  871MPD2    H112783   3.428   3.701  15.976  0.9690 -2.5833  0.4433
  871MPD2    H212784   3.052   3.756  16.146  0.0481 -0.6716  2.5095
  871MPD2    H312785   3.195   3.742  15.959  0.1068 -0.1146 -0.5560
  871MPD2     N12786   3.554   3.590  16.202  0.0748 -0.2335 -0.0594
  871MPD2    H512787   3.577   3.562  16.297  1.1031 -0.2055 -0.3042
  871MPD2    N112788   3.119   3.708  16.390 -0.2989 -0.2964 -0.0309
  871MPD2    H712789   3.033   3.762  16.380  0.9863  1.7654  0.2654
  872MPD2     C12790   4.011   1.782  13.375  0.2401 -0.6495  0.4012
  872MPD2    C112791   4.102   1.707  13.455 -0.4445 -0.0235 -0.2763
  872MPD2    C212792   4.067   1.676  13.585  0.0953 -0.5287  0.5858
  872MPD2    C312793   3.950   1.716  13.637 -0.3879  0.0301  0.0574
  872MPD2    C412794   3.861   1.795  13.564  0.1656 -0.0184  0.0745
  872MPD2    C512795   3.897   1.822  13.437 -0.0141  0.6662 -0.5526
  872MPD2     H12796   4.136   1.616  13.643  0.2958  1.0811  2.0349
  872MPD2    H112797   3.767   1.836  13.598 -1.0730 -2.6755 -0.1848
  872MPD2    H212798   4.037   1.827  13.279  0.5968  0.5304  1.0507
  872MPD2    H312799   3.833   1.881  13.373 -2.7155 -1.6473  0.0074
  872MPD2     N12800   3.905   1.671  13.761  0.0766  0.4222  0.0739
  872MPD2    H512801   3.809   1.692  13.784 -0.2861 -0.6588 -0.4211
  872MPD2    N112802   4.228   1.677  13.406 -0.4239  0.2193  0.3625
  872MPD2    H712803   4.299   1.657  13.475  1.5690 -1.1993 -2.0911
  873MPD2     C12804   0.279   1.925   1.008  0.0599 -0.2518 -0.1610
  873MPD2    C112805   0.373   1.860   1.086 -0.5179 -0.3117  0.3781
  873MPD2    C212806   0.461   1.770   1.028  0.1739  0.4332 -0.1021
  873MPD2    C312807   0.440   1.728   0.889  0.3053  0.4743 -0.1683
  873MPD2    C412808   0.336   1.786   0.820 -0.8736  0.2595  0.0275
  873MPD2    C512809   0.259   1.881   0.880  0.4137 -0.0335 -0.0412
  873MPD2     H12810   0.548   1.730   1.079  0.5000  0.5928 -0.5353
  873MPD2    H112811   0.321   1.771   0.713  0.6121 -0.0093 -0.1454
  873MPD2    H212812   0.218   2.007   1.044 -1.8678 -1.3235 -0.9923
  873MPD2    H312813   0.188   1.926   0.812  0.6451  0.9117  0.3405
  873MPD2     N12814   0.527   1.631   0.823  0.6886  0.2027 -0.3973
  873MPD2    H512815   0.506   1.617   0.725  0.7347  1.0777 -0.5336
  873MPD2    N112816   0.379   1.887   1.231  0.0037  0.4802 -0.5646
  873MPD2    H712817   0.307   1.945   1.272 -0.7473  0.5537 -1.9796
  874MPD2     C12818   0.596   1.839  16.433  0.0250 -0.4436  0.5562
  874MPD2    C112819   0.633   1.732  16.505 -0.7487 -0.5063  0.0298
  874MPD2    C212820   0.722   1.750  16.608  0.0653 -0.0268 -0.1932
  874MPD2    C312821   0.780   1.869  16.642  0.0323 -0.2738 -0.0403
  874MPD2    C412822   0.749   1.976  16.559 -0.2936 -0.5809  0.0125
  874MPD2    C512823   0.656   1.963  16.459  0.1174 -0.0916  0.5641
  874MPD2     H12824   0.752   1.666  16.670 -1.7468  0.7634  1.7161
  874MPD2    H112825   0.795   2.074  16.569  0.2784 -0.9116  0.6363
  874MPD2    H212826   0.520   1.831  16.356 -1.7803 -0.5798  2.3544
  874MPD2    H312827   0.626   2.050  16.402  0.1356 -2.6027 -3.2630
  874MPD2     N12828   0.877   1.875  16.746 -0.0836 -0.0132  1.0061
  874MPD2    H512829   0.889   1.788  16.796 -0.8470 -0.1713  0.9129
  874MPD2    N112830   0.588   1.603  16.468 -0.1207  0.7326 -0.4765
  874MPD2    H712831   0.518   1.587  16.397  0.4389  2.2215 -1.3762
  875MPD2     C12832   2.475   4.661  14.613 -0.2340 -0.2974  0.1323
  875MPD2    C112833   2.343   4.683  14.663 -0.3038  0.0062  0.1219
  875MPD2    C212834   2.333   4.713  14.795 -0.4879 -0.3142  0.5901
  875MPD2    C312835   2.441   0.009  14.881 -0.4564 -0.3387  0.5935
  875MPD2    C412836   2.569   4.723  14.825  0.6922  0.8757 -0.0178
  875MPD2    C512837   2.585   4.683  14.692 -0.5825  0.3031  0.0564
  875MPD2     H12838   2.232   0.021  14.822 -0.0866  0.1974  1.4987
  875MPD2    H112839   2.663   0.014  14.878  1.0496 -0.5223 -0.2539
  875MPD2    H212840   2.492   4.619  14.515  0.4985  2.2133 -0.8178
  875MPD2    H312841   2.685   4.652  14.665 -1.0435  0.2909 -1.6463
  875MPD2     N12842   2.426   0.050  15.018  0.5236 -0.1828 -0.3932
  875MPD2    H512843   2.514   0.068  15.065  1.2340 -1.2789 -1.3035
  875MPD2    N112844   2.223   4.679  14.592 -0.1065 -0.0468 -0.1668
  875MPD2    H712845   2.144   0.004  14.635 -0.2383  0.2426 -0.7437
  876MPD2     C12846   1.224   1.227  16.145 -0.5940 -0.0767  0.0480
  876MPD2    C112847   1.331   1.169  16.077  0.0550 -0.4859 -1.0251
  876MPD2    C212848   1.377   1.053  16.121  0.3306 -1.1348  0.5278
  876MPD2    C312849   1.341   0.993  16.240  0.4451 -0.8498 -0.3951
  876MPD2    C412850   1.242   1.052  16.315  0.3721 -0.6053 -0.0275
  876MPD2    C512851   1.185   1.171  16.264  0.3202 -0.0643 -0.0368
  876MPD2     H12852   1.470   1.019  16.077 -0.9064 -2.2784 -1.2258
  876MPD2    H112853   1.206   1.009  16.408  1.5632 -0.4134  0.5209
  876MPD2    H212854   1.187   1.318  16.099 -0.9959 -0.6840 -0.8322
  876MPD2    H312855   1.107   1.223  16.317  1.1776  0.2618  0.9019
  876MPD2     N12856   1.399   0.868  16.275  0.5690 -0.3002  0.2137
  876MPD2    H512857   1.463   0.823  16.210 -1.7346 -1.3370 -1.3694
  876MPD2    N112858   1.387   1.239  15.963 -0.6242  0.2570 -0.5590
  876MPD2    H712859   1.340   1.328  15.953 -1.0621 -0.0594 -1.3522
  877MPD2     C12860   1.167   1.582  15.324  0.0595 -0.3090  0.0138
  877MPD2    C112861   1.295   1.611  15.333  0.0327  0.1429  0.1649
  877MPD2    C212862   1.365   1.650  15.219  0.4345 -0.1353  0.0291
  877MPD2    C312863   1.304   1.666  15.094  0.3242  0.3013 -0.7036
  877MPD2    C412864   1.171   1.636  15.079  0.2043  0.3853 -0.6793
  877MPD2    C512865   1.104   1.594  15.197  0.7390 -0.2367  0.2793
  877MPD2     H12866   1.473   1.659  15.233  0.6107 -2.1694  0.0216
  877MPD2    H112867   1.125   1.637  14.981 -2.0392  3.6548  0.4084
  877MPD2    H212868   1.104   1.551  15.407  0.3289 -2.4464 -0.5759
  877MPD2    H312869   0.998   1.578  15.178  0.1402  1.9418  1.7546
  877MPD2     N12870   1.372   1.713  14.977 -0.5722  0.4608  0.0826
  877MPD2    H512871   1.325   1.712  14.887 -3.4078  0.4740  1.5513
  877MPD2    N112872   1.371   1.587  15.451 -0.0123  0.2208 -0.1042
  877MPD2    H712873   1.469   1.613  15.445 -0.0235 -0.6490 -4.0817
  878MPD2     C12874   1.898   1.068  12.862 -1.0743  0.6458 -0.4351
  878MPD2    C112875   1.814   1.165  12.917  0.3096  0.3466 -0.0917
  878MPD2    C212876   1.822   1.185  13.058  0.3918  0.2837 -0.6192
  878MPD2    C312877   1.917   1.112  13.136 -0.3737 -0.4781 -0.0495
  878MPD2    C412878   1.990   1.013  13.075 -0.0852  0.2872 -0.4604
  878MPD2    C512879   1.985   0.994  12.939 -0.1629  0.0285  0.1618
  878MPD2     H12880   1.754   1.252  13.109  1.5065  0.5731  0.4948
  878MPD2    H112881   2.068   0.958  13.126  1.3205  1.3300 -1.4898
  878MPD2    H212882   1.904   1.039  12.758  0.6963 -2.3635  0.4837
  878MPD2    H312883   2.038   0.914  12.888 -0.8375  0.1765 -0.7763
  878MPD2     N12884   1.923   1.131  13.277 -0.1892 -0.0578  0.1282
  878MPD2    H512885   1.864   1.206  13.311 -1.9784 -0.7321 -1.4559
  878MPD2    N112886   1.750   1.252  12.828 -0.4566 -0.5126 -0.3662
  878MPD2    H712887   1.757   1.223  12.731  0.2771  1.5867 -0.9503
  879MPD2     C12888   0.794   2.497  16.793  0.0439 -0.6105  0.6821
  879MPD2    C112889   0.822   2.394  16.885  0.4839 -0.6282 -0.7865
  879MPD2    C212890   0.757   2.275  16.875 -0.4591  0.0534 -0.4277
  879MPD2    C312891   0.657   2.255  16.784 -0.1266 -0.8062 -0.1125
  879MPD2    C412892   0.634   2.351  16.689 -0.0671  0.6562  0.7829
  879MPD2    C512893   0.703   2.470  16.699  0.0413 -0.5165 -0.7847
  879MPD2     H12894   0.787   2.188  16.932  2.2142  1.8332  0.8187
  879MPD2    H112895   0.564   2.332  16.609  0.2446 -0.7004  0.8360
  879MPD2    H212896   0.831   2.598  16.800  1.3605 -1.1228  1.1572
  879MPD2    H312897   0.678   2.548  16.628  3.0545  1.5251  0.4032
  879MPD2     N12898   0.597   2.129  16.765  0.1244  0.0646  0.5017
  879MPD2    H512899   0.553   2.114  16.674 -0.1575  0.2386  0.6066
  879MPD2    N112900   0.903   2.431  16.988 -0.0716  0.6254 -0.1977
  879MPD2    H712901   0.955   2.518  16.982 -1.8506  1.6219 -1.1833
  880MPD2     C12902   2.704   4.251   1.175  0.0686  0.3945 -0.5930
  880MPD2    C112903   2.709   4.226   1.040 -0.1057  0.0433  0.3951
  880MPD2    C212904   2.719   4.088   1.006  0.6054  0.4312  0.9758
  880MPD2    C312905   2.742   3.993   1.110  0.3248  0.2272  0.2811
  880MPD2    C412906   2.742   4.032   1.243  0.5447  0.5729  0.8808
  880MPD2    C512907   2.715   4.157   1.272 -0.4109  0.4611 -0.1679
  880MPD2     H12908   2.754   4.060   0.908  0.0472  2.0613  0.2997
  880MPD2    H112909   2.770   3.964   1.323  0.5999  0.2357  0.5733
  880MPD2    H212910   2.669   4.346   1.215 -0.5023 -0.8865  1.9741
  880MPD2    H312911   2.683   4.175   1.374 -0.1047 -3.3055  0.5640
  880MPD2     N12912   2.775   3.865   1.073  0.1290 -0.7389  0.2276
  880MPD2    H512913   2.784   3.857   0.972  2.9447  0.6070  0.3651
  880MPD2    N112914   2.690   4.324   0.940 -0.3953 -0.4831  0.3997
  880MPD2    H712915   2.665   4.418   0.970 -0.6963  0.2788 -2.2634
  881MPD2     C12916   2.430   4.221  17.682 -0.0649 -0.5624  1.0575
  881MPD2    C112917   2.521   4.322  17.682 -0.4214  0.1391  0.8802
  881MPD2    C212918   2.532   4.396   0.102  0.5207 -0.6049 -1.2541
  881MPD2    C312919   2.479   4.348   0.224  0.5195  0.4431 -0.7712
  881MPD2    C412920   2.396   4.242   0.219 -0.1962 -0.1993  0.0453
  881MPD2    C512921   2.362   4.182   0.099  0.0327  0.2074 -0.2679
  881MPD2     H12922   2.595   4.483   0.104 -1.3522  0.7259  0.0057
  881MPD2    H112923   2.344   4.201   0.305 -0.5570 -1.4402 -0.7690
  881MPD2    H212924   2.397   4.200  17.581  2.2068  1.0069 -0.0143
  881MPD2    H312925   2.280   4.112   0.091  0.0029  0.1309  0.6957
  881MPD2     N12926   2.513   4.398   0.359  0.5908  1.2459  0.0795
  881MPD2    H512927   2.485   4.349   0.444  0.3382  1.6866  0.2507
  881MPD2    N112928   2.563   4.367  17.560  0.3635  0.0788  0.2185
  881MPD2    H712929   2.532   4.317  17.477 -1.4086  1.0600  0.2785
  882MPD2     C12930   1.340   1.976  14.205 -0.8595  0.3710  0.0322
  882MPD2    C112931   1.304   1.926  14.326  0.4984  0.3821 -0.5395
  882MPD2    C212932   1.169   1.882  14.344  1.0375 -0.6414  0.7642
  882MPD2    C312933   1.073   1.896  14.245  0.1116  1.1824  0.0325
  882MPD2    C412934   1.114   1.953  14.126  0.0828 -1.0275  0.5602
  882MPD2    C512935   1.246   1.980  14.106 -0.4969 -0.6485 -0.0561
  882MPD2     H12936   1.141   1.822  14.430  2.8846 -2.9515 -0.2516
  882MPD2    H112937   1.044   1.965  14.044  0.5638 -2.0066  0.0029
  882MPD2    H212938   1.447   1.994  14.198 -1.7436  4.7861 -1.6189
  882MPD2    H312939   1.277   2.024  14.012  3.1270 -0.2580  1.3293
  882MPD2     N12940   0.937   1.863  14.266  0.4193 -0.1118 -0.0908
  882MPD2    H512941   0.881   1.854  14.182 -0.8707 -0.2147  0.7642
  882MPD2    N112942   1.402   1.907  14.424  0.1370  0.4850  0.3769
  882MPD2    H712943   1.498   1.932  14.404 -0.5885  1.9082 -1.3164
  883MPD2     C12944   3.083   1.297  16.246  0.7195 -0.6791  0.5319
  883MPD2    C112945   3.163   1.299  16.133  0.3344  1.3148 -0.3111
  883MPD2    C212946   3.289   1.246  16.146  0.5644 -0.7350 -0.6375
  883MPD2    C312947   3.349   1.232  16.277 -0.6271  0.1427  0.1361
  883MPD2    C412948   3.266   1.242  16.381 -0.5404 -0.1477 -0.5643
  883MPD2    C512949   3.136   1.273  16.367  0.9361 -0.2494  0.2496
  883MPD2     H12950   3.361   1.231  16.066  1.1621  0.9472 -0.4073
  883MPD2    H112951   3.300   1.240  16.484  1.2344  1.3957 -1.1337
  883MPD2    H212952   2.983   1.339  16.251  1.3123  0.6722  0.8945
  883MPD2    H312953   3.074   1.295  16.452  1.8832  0.5082  0.7521
  883MPD2     N12954   3.485   1.196  16.285 -0.9163 -0.6091 -0.0192
  883MPD2    H512955   3.544   1.198  16.202  0.6376 -1.0660  1.0789
  883MPD2    N112956   3.118   1.341  16.009  0.1628  0.1227  0.4387
  883MPD2    H712957   3.189   1.340  15.937 -1.3963 -0.0696 -1.0891
  884MPD2     C12958   0.535   2.467  15.127  0.6281 -0.1681  0.2925
  884MPD2    C112959   0.504   2.570  15.213  0.3049 -0.6926  0.2619
  884MPD2    C212960   0.381   2.580  15.272  0.5583  0.7636  0.5892
  884MPD2    C312961   0.285   2.483  15.243 -0.0983  0.0783  0.3523
  884MPD2    C412962   0.310   2.382  15.155 -0.0153  0.1413 -0.4219
  884MPD2    C512963   0.439   2.370  15.103 -0.4578 -0.4648 -0.2365
  884MPD2     H12964   0.356   2.652  15.349 -0.6751  1.1646 -0.1984
  884MPD2    H112965   0.232   2.310  15.132 -0.6127  0.1830  1.5406
  884MPD2    H212966   0.637   2.459  15.090 -0.3055 -2.0555 -1.8764
  884MPD2    H312967   0.460   2.305  15.019 -1.6520 -0.9113 -0.1938
  884MPD2     N12968   0.150   2.507  15.287  0.6176 -0.3378 -0.1385
  884MPD2    H512969   0.131   2.587  15.346 -1.3578 -2.2222  1.7668
  884MPD2    N112970   0.595   2.668  15.252 -0.8958 -0.0831 -0.1508
  884MPD2    H712971   0.582   2.745  15.317  2.0202 -2.1195  2.8262
  885MPD2     C12972   3.266   2.665   0.174  0.0462  1.0123 -0.6132
  885MPD2    C112973   3.347   2.773   0.152 -0.0652  0.2118  0.4516
  885MPD2    C212974   3.367   2.802   0.020 -0.1537  0.1929  0.2134
  885MPD2    C312975   3.317   2.728  17.612 -1.2449  0.8156  0.4367
  885MPD2    C412976   3.232   2.629  17.640 -0.1117 -0.0156 -0.0375
  885MPD2    C512977   3.204   2.593   0.072 -0.7847 -0.0070 -0.8084
  885MPD2     H12978   3.439   2.881   0.001 -0.0848  0.4929  1.7551
  885MPD2    H112979   3.194   2.561  17.565  0.0480 -2.2068  1.8512
  885MPD2    H212980   3.240   2.653   0.279  2.8257 -0.1034 -0.0404
  885MPD2    H312981   3.135   2.513   0.094  0.2664 -0.6116  0.2933
  885MPD2     N12982   3.361   2.769  17.478  0.1180 -0.1576  0.4731
  885MPD2    H512983   3.424   2.848  17.470 -0.2463 -0.2320 -3.1721
  885MPD2    N112984   3.385   2.855   0.262 -0.7218 -0.1389  0.1297
  885MPD2    H712985   3.368   2.825   0.358  0.0523 -2.7915 -0.5698
  886MPD2     C12986   4.491   1.125  15.700  0.1338  0.2127  0.6793
  886MPD2    C112987   4.622   1.105  15.669 -0.7941 -0.0871 -0.3376
  886MPD2    C212988   4.679   1.201  15.590  0.0188 -0.1215  0.3567
  886MPD2    C312989   4.598   1.299  15.533  0.0333  0.4569 -0.2129
  886MPD2    C412990   4.468   1.306  15.564  0.7212 -0.1630 -0.0673
  886MPD2    C512991   4.412   1.217  15.650  0.9462 -0.2967 -0.3894
  886MPD2     H12992   0.063   1.194  15.580 -0.0372  1.3907 -1.3323
  886MPD2    H112993   4.406   1.384  15.521  0.3439 -0.3633  0.1124
  886MPD2    H212994   4.442   1.048  15.758  1.4140 -1.4676 -0.4722
  886MPD2    H312995   4.306   1.216  15.672  1.0329 -1.8002 -0.0781
  886MPD2     N12996   4.662   1.402  15.458 -0.2951  0.3464 -0.3648
  886MPD2    H512997   4.607   1.483  15.430 -2.8547 -1.1080  0.4506
  886MPD2    N112998   4.703   1.004  15.726  0.7619 -0.7614 -0.0262
  886MPD2    H712999   0.077   1.022  15.704  0.2168  0.9172 -1.0500
  887MPD2     C13000   0.501   1.177  16.100  0.4060  0.9331  0.1752
  887MPD2    C113001   0.362   1.171  16.114  0.6991 -0.5706  0.0068
  887MPD2    C213002   0.298   1.293  16.124  0.1772 -0.0892 -0.5140
  887MPD2    C313003   0.369   1.414  16.136 -0.2144  0.9849 -0.4856
  887MPD2    C413004   0.509   1.416  16.127 -0.3504  0.7689 -0.5634
  887MPD2    C513005   0.565   1.293  16.106  0.1829  0.0061 -0.3153
  887MPD2     H13006   0.190   1.295  16.126  0.1798 -1.3489  0.6993
  887MPD2    H113007   0.576   1.500  16.140  0.9675 -0.0283 -2.1652
  887MPD2    H213008   0.553   1.084  16.080  0.0644  1.3299 -2.5695
  887MPD2    H313009   0.672   1.282  16.099  0.0478 -1.3547 -0.3519
  887MPD2     N13010   0.290   1.532  16.161  0.6517 -0.6740  0.0573
  887MPD2    H513011   0.191   1.514  16.164  0.3579  0.7454 -1.0692
  887MPD2    N113012   0.280   1.059  16.099 -0.4619  0.5395 -0.1483
  887MPD2    H713013   0.179   1.068  16.101 -0.4618  0.0450  2.5262
  888MPD2     C13014   2.286   1.214  14.717  0.8456 -0.2601  0.0556
  888MPD2    C113015   2.336   1.262  14.836 -0.3277  0.1272 -0.4038
  888MPD2    C213016   2.408   1.376  14.841  0.0709  0.4332 -0.0129
  888MPD2    C313017   2.421   1.460  14.734  0.4589 -0.2362 -0.8163
  888MPD2    C413018   2.372   1.420  14.610 -0.4806  0.5230 -0.1981
  888MPD2    C513019   2.304   1.295  14.606  0.0981  0.0875 -0.3191
  888MPD2     H13020   2.450   1.405  14.937  2.1313  0.2819 -0.8679
  888MPD2    H113021   2.368   1.481  14.520 -1.0582 -0.8646 -1.1147
  888MPD2    H213022   2.220   1.130  14.702 -1.8530  1.9021 -0.1820
  888MPD2    H313023   2.246   1.265  14.520  0.8552  0.1401 -0.8417
  888MPD2     N13024   2.482   1.586  14.744 -0.4442  0.1861  0.6093
  888MPD2    H513025   2.521   1.613  14.834  3.6214 -0.5646 -0.9443
  888MPD2    N113026   2.314   1.201  14.960 -0.2564  0.6092 -0.1598
  888MPD2    H713027   2.369   1.238  15.036  1.0737  0.9821 -1.3083
  889MPD2     C13028   2.523   0.715  13.506 -0.0151 -0.2069 -0.9542
  889MPD2    C113029   2.429   0.721  13.398  0.2463  0.5397 -0.4698
  889MPD2    C213030   2.385   0.845  13.364 -0.5514  0.4079 -0.1133
  889MPD2    C313031   2.422   0.964  13.427 -0.6632  0.0830 -0.1294
  889MPD2    C413032   2.514   0.958  13.527 -0.1283  0.3704  0.6224
  889MPD2    C513033   2.554   0.833  13.575  0.7160  0.2506 -0.0458
  889MPD2     H13034   2.299   0.850  13.299  1.3429 -1.0993 -2.7307
  889MPD2    H113035   2.549   1.051  13.572  0.7712  1.0311 -1.4216
  889MPD2    H213036   2.547   0.624  13.560  0.5510  0.4367 -0.1213
  889MPD2    H313037   2.615   0.828  13.665 -0.5306 -0.7668  0.7292
  889MPD2     N13038   2.378   1.088  13.389  0.5946 -0.3855 -0.3894
  889MPD2    H513039   2.395   1.167  13.450 -1.6840 -0.2495  0.0659
  889MPD2    N113040   2.365   0.604  13.361 -0.4980  0.5870 -0.0103
  889MPD2    H713041   2.277   0.616  13.313 -0.7092 -1.5349 -0.1531
  890MPD2     C13042   1.299   2.895  15.185  0.1239  0.2732  0.4722
  890MPD2    C113043   1.209   2.811  15.136 -0.1461 -1.0947  0.4357
  890MPD2    C213044   1.165   2.703  15.214 -0.2187  0.0053 -0.0944
  890MPD2    C313045   1.223   2.669  15.332  0.8903  0.5962  0.4559
  890MPD2    C413046   1.323   2.754  15.378 -0.3846 -0.5785  0.2693
  890MPD2    C513047   1.365   2.868  15.303  0.1003 -0.0135  1.0401
  890MPD2     H13048   1.084   2.637  15.184 -1.3012  0.2906  2.2556
  890MPD2    H113049   1.374   2.743  15.473 -2.1723 -0.8500  1.2033
  890MPD2    H213050   1.332   2.981  15.128 -1.0372  0.7710  0.5481
  890MPD2    H313051   1.455   2.920  15.332 -0.2312  0.2422  1.6168
  890MPD2     N13052   1.180   2.550  15.403  0.5515 -0.6201 -0.0627
  890MPD2    H513053   1.107   2.493  15.363  0.7070 -0.9131  0.0726
  890MPD2    N113054   1.143   2.848  15.016 -0.2699 -0.0109 -0.9523
  890MPD2    H713055   1.165   2.934  14.968 -1.7775  0.0876 -1.4551
  891MPD2     C13056   4.113   0.583  16.464 -0.2183  0.3616  0.1285
  891MPD2    C113057   4.068   0.674  16.558  0.0028 -0.2068  0.0095
  891MPD2    C213058   4.136   0.698  16.675 -0.0934 -0.1410  0.2783
  891MPD2    C313059   4.262   0.638  16.700 -0.6084  0.5435 -0.0139
  891MPD2    C413060   4.308   0.553  16.599  1.1428 -0.2967  0.3186
  891MPD2    C513061   4.233   0.527  16.491  0.4385  0.3263  0.4021
  891MPD2     H13062   4.109   0.778  16.742  0.3836  1.0063 -0.8915
  891MPD2    H113063   4.396   0.491  16.609  1.1497  0.3917  4.6710
  891MPD2    H213064   4.056   0.553  16.377 -0.3396  0.0869  0.3057
  891MPD2    H313065   4.281   0.462  16.419 -0.2087 -0.3491  0.5830
  891MPD2     N13066   4.328   0.667  16.824  0.3934  0.0644  0.1321
  891MPD2    H513067   4.288   0.735  16.887  2.0766  0.8447  0.3660
  891MPD2    N113068   3.939   0.731  16.534  0.6597  0.0336  0.1802
  891MPD2    H713069   3.887   0.706  16.450  0.3899  0.9483  0.0736
  892MPD2     C13070   0.328   1.951  15.093  0.5038  0.4083  0.4475
  892MPD2    C113071   0.277   1.973  14.968 -0.2463 -0.2397 -0.1103
  892MPD2    C213072   0.347   1.946  14.853 -0.3729  0.2963 -0.4217
  892MPD2    C313073   0.474   1.891  14.864  0.2416  0.2760 -0.2980
  892MPD2    C413074   0.524   1.861  14.987  0.1295  0.4842 -0.1297
  892MPD2    C513075   0.456   1.893  15.103 -0.3495  0.2553 -0.0227
  892MPD2     H13076   0.298   1.976  14.761 -0.1853  2.4324  0.1747
  892MPD2    H113077   0.626   1.825  14.995 -0.0214 -0.3231 -1.9291
  892MPD2    H213078   0.274   1.978  15.183 -0.0567  0.0901  0.2120
  892MPD2    H313079   0.507   1.875  15.196 -2.5655  1.4310  1.4228
  892MPD2     N13080   0.549   1.844  14.754 -0.1056 -0.3953 -0.1785
  892MPD2    H513081   0.639   1.798  14.767  0.5812  0.8414 -0.5243
  892MPD2    N113082   0.148   2.031  14.945 -0.4258 -0.3968  0.0958
  892MPD2    H713083   0.126   2.048  14.847  0.1494  2.0678  0.3891
  893MPD2     C13084   3.019   0.671   0.716  0.4659 -0.1164 -0.3248
  893MPD2    C113085   2.941   0.657   0.822  0.4622  0.4950 -0.6328
  893MPD2    C213086   2.890   0.763   0.890  0.0056 -0.8221  0.6888
  893MPD2    C313087   2.895   0.886   0.828  1.2459  0.1613 -0.1207
  893MPD2    C413088   2.982   0.908   0.725 -0.1449 -0.0221  0.1237
  893MPD2    C513089   3.043   0.801   0.669  0.4869 -0.0366 -0.4870
  893MPD2     H13090   2.815   0.746   0.967  0.3663  0.0473  1.2261
  893MPD2    H113091   3.005   1.009   0.691  0.4638 -0.7579 -1.6511
  893MPD2    H213092   3.064   0.587   0.665 -1.2839 -0.3171 -1.5154
  893MPD2    H313093   3.115   0.824   0.591  1.4228  0.0404  0.4037
  893MPD2     N13094   2.836   1.001   0.886 -0.4795  0.3290 -0.7534
  893MPD2    H513095   2.834   1.083   0.826  4.2442 -0.6108 -2.1459
  893MPD2    N113096   2.928   0.525   0.864  0.0798 -0.1636 -0.1608
  893MPD2    H713097   2.935   0.452   0.793  1.8939 -0.9175  0.7971
  894MPD2     C13098   4.625   3.755   0.816 -0.5718  0.1014 -0.1308
  894MPD2    C113099   4.712   3.775   0.919  0.3845 -0.1101  0.1602
  894MPD2    C213100   0.019   3.901   0.971 -0.0159 -0.4842 -0.2425
  894MPD2    C313101   4.674   4.005   0.923 -0.4416 -0.0147 -0.2565
  894MPD2    C413102   4.588   3.991   0.819  0.2792 -0.2054  0.1700
  894MPD2    C513103   4.563   3.868   0.766  0.3566  0.0941  0.3053
  894MPD2     H13104   0.092   3.907   1.051  0.8323 -0.3190 -1.0142
  894MPD2    H113105   4.533   4.073   0.775  0.8009 -0.2102 -0.4846
  894MPD2    H213106   4.607   3.660   0.768  0.8568  0.0660 -0.5934
  894MPD2    H313107   4.496   3.854   0.681  0.4533  1.2500  0.0438
  894MPD2     N13108   4.713   4.134   0.979 -0.8661  1.1021  0.1417
  894MPD2    H513109   0.066   4.121   1.043  0.5241 -1.2265 -1.9651
  894MPD2    N113110   0.048   3.656   0.987  0.2520 -0.0417 -0.2425
  894MPD2    H713111   0.097   3.686   1.071 -1.4704 -0.9753  1.1084
  895MPD2     C13112   0.159   1.014  13.069  0.7377  0.0164  0.6301
  895MPD2    C113113   0.048   0.928  13.067  0.0933 -0.0952  0.3651
  895MPD2    C213114   0.069   0.797  13.109  0.6446 -0.6384 -0.9987
  895MPD2    C313115   0.183   0.763  13.173 -0.4598  0.0099  0.0326
  895MPD2    C413116   0.286   0.853  13.182  0.4138  0.9450  0.1722
  895MPD2    C513117   0.277   0.974  13.124  0.5193  0.4018  0.3988
  895MPD2     H13118   4.716   0.721  13.108  1.6759 -1.7373  3.3591
  895MPD2    H113119   0.383   0.833  13.227  0.3414  1.3898  0.5215
  895MPD2    H213120   0.144   1.119  13.047  1.9432  0.4815  1.9749
  895MPD2    H313121   0.362   1.041  13.133  0.5776  0.0208  2.8336
  895MPD2     N13122   0.182   0.632  13.219 -0.1322 -0.5250 -0.4558
  895MPD2    H513123   0.097   0.577  13.216  2.2465 -4.0706 -2.4423
  895MPD2    N113124   4.644   0.972  13.035 -0.1832  0.4081  0.3198
  895MPD2    H713125   4.575   0.898  13.033 -1.7809  1.9831 -3.2621
  896MPD2     C13126   1.202   4.315   1.267 -0.0213 -0.3069  0.3292
  896MPD2    C113127   1.241   4.213   1.182  0.3066 -0.2845  0.3376
  896MPD2    C213128   1.158   4.163   1.083 -0.5166  0.1302 -0.0928
  896MPD2    C313129   1.032   4.216   1.069  0.0297  0.0819  0.2158
  896MPD2    C413130   0.992   4.318   1.157 -0.0617  0.2787 -0.3872
  896MPD2    C513131   1.073   4.365   1.256 -0.3853  0.3371 -0.8609
  896MPD2     H13132   1.190   4.092   1.008 -1.0192 -0.6250  0.4007
  896MPD2    H113133   0.889   4.352   1.157 -0.1989 -0.1408 -0.4067
  896MPD2    H213134   1.265   4.339   1.352 -2.1195  3.7429  0.7616
  896MPD2    H313135   1.035   4.440   1.324  1.0071 -0.7378  1.1345
  896MPD2     N13136   0.948   4.154   0.972 -0.1343 -0.1868  0.1183
  896MPD2    H513137   0.988   4.076   0.922  2.7000  0.2490  1.7026
  896MPD2    N113138   1.365   4.151   1.198 -0.5272 -0.8953  0.1493
  896MPD2    H713139   1.433   4.198   1.256  0.7045 -1.0242 -1.1980
  897MPD2     C13140   3.199   0.114  10.319  0.2755  0.4943 -0.0376
  897MPD2    C113141   3.245   0.218  10.247 -0.3759 -0.1575 -0.1469
  897MPD2    C213142   3.185   0.341  10.260 -0.2903 -0.7326 -1.1174
  897MPD2    C313143   3.082   0.362  10.343  0.0342  0.8086 -0.3699
  897MPD2    C413144   3.016   0.253  10.397 -0.5368 -0.6287  0.2584
  897MPD2    C513145   3.084   0.129  10.394 -0.0715  0.3857  0.0177
  897MPD2     H13146   3.234   0.419  10.202  2.7724 -0.3102  2.0223
  897MPD2    H113147   2.916   0.258  10.439  0.0189  2.6404  1.1584
  897MPD2    H213148   3.248   0.017  10.319  2.0519  1.3901  0.1926
  897MPD2    H313149   3.041   0.040  10.439 -0.7440  0.0886 -1.2005
  897MPD2     N13150   3.023   0.491  10.354  0.4531 -0.0160 -0.0824
  897MPD2    H513151   3.056   0.566  10.295 -0.1642 -1.1874 -1.9021
  897MPD2    N113152   3.368   0.203  10.179 -0.1200 -0.0505 -0.1448
  897MPD2    H713153   3.406   0.289  10.140  1.3143 -1.1124 -1.1012
  898MPD2     C13154   4.246   1.797   0.626 -0.9157  0.2381 -0.7710
  898MPD2    C113155   4.310   1.750   0.508 -0.3734 -0.7613  0.4381
  898MPD2    C213156   4.291   1.820   0.391  0.2364  0.3542  0.0328
  898MPD2    C313157   4.234   1.947   0.389  0.1172 -0.9678  0.5992
  898MPD2    C413158   4.184   1.993   0.507  0.1899 -0.1445 -0.0438
  898MPD2    C513159   4.177   1.916   0.620  0.2583 -0.1153 -0.1656
  898MPD2     H13160   4.333   1.785   0.297 -0.8922  0.7888 -0.6335
  898MPD2    H113161   4.152   2.096   0.517 -0.1810 -0.2657  0.0194
  898MPD2    H213162   4.245   1.744   0.720 -4.4777 -1.0341 -1.5240
  898MPD2    H313163   4.141   1.962   0.712 -1.6645 -0.2082 -0.8765
  898MPD2     N13164   4.229   2.023   0.265  0.2797  0.3254 -0.1186
  898MPD2    H513165   4.263   1.980   0.179 -1.5837  1.0128 -1.2063
  898MPD2    N113166   4.390   1.631   0.510  0.2674 -0.2537  0.1570
  898MPD2    H713167   4.423   1.589   0.424  1.6636  1.4427 -0.1501
  899MPD2     C13168   0.926   2.229   0.108  0.0362  0.1412  0.2428
  899MPD2    C113169   0.802   2.243   0.056  0.0495  0.3181  0.3487
  899MPD2    C213170   0.702   2.174   0.122 -0.5078  0.1834 -0.3152
  899MPD2    C313171   0.720   2.089   0.229 -0.2277  0.4153 -0.0676
  899MPD2    C413172   0.844   2.078   0.275 -0.4159 -0.4273 -0.3329
  899MPD2    C513173   0.949   2.148   0.216  0.2165 -0.0964 -0.4885
  899MPD2     H13174   0.600   2.198   0.093 -0.3066  2.2229  0.6754
  899MPD2    H113175   0.866   2.021   0.365 -1.8849 -0.0234  0.2756
  899MPD2    H213176   1.015   2.264   0.057  0.7782 -0.5593  1.0521
  899MPD2    H313177   1.050   2.130   0.250 -0.0417  0.3328  0.5323
  899MPD2     N13178   0.608   2.026   0.281  0.0816  0.6742 -0.2983
  899MPD2    H513179   0.529   2.056   0.225 -0.1406  0.7651  0.0693
  899MPD2    N113180   0.778   2.336  17.655  0.3116  0.1510 -0.3891
  899MPD2    H713181   0.865   2.367  17.612 -0.6334 -1.7947 -3.7021
  900MPD2     C13182   0.605   3.915  12.629 -0.5416  0.2145  0.7841
  900MPD2    C113183   0.686   3.878  12.525 -0.2520  0.1298  0.2612
  900MPD2    C213184   0.637   3.873  12.402  0.0580 -0.0872  0.1194
  900MPD2    C313185   0.510   3.915  12.371  0.0777 -0.9416  0.5305
  900MPD2    C413186   0.431   3.967  12.468 -0.0603 -0.3252 -0.4561
  900MPD2    C513187   0.477   3.964  12.597 -0.8590  0.3925  0.2304
  900MPD2     H13188   0.694   3.827  12.323 -0.2007  0.9695 -0.6898
  900MPD2    H113189   0.343   4.024  12.438 -1.4207 -1.7538  0.8069
  900MPD2    H213190   0.638   3.908  12.732  0.6340 -3.6551  0.1714
  900MPD2    H313191   0.423   4.009  12.680  1.3815  1.2937  1.1909
  900MPD2     N13192   0.466   3.899  12.236 -0.1771  0.2229  0.3980
  900MPD2    H513193   0.525   3.864  12.161  1.3536  1.8789  0.8393
  900MPD2    N113194   0.816   3.834  12.554  0.1841  0.8944  0.1975
  900MPD2    H713195   0.839   3.838  12.653 -1.2124 -2.8491  0.6383
  901MPD2     C13196   1.083   2.874  12.869 -0.3788 -0.4087  0.7913
  901MPD2    C113197   1.072   2.875  12.732 -0.3814  0.5876 -0.2746
  901MPD2    C213198   1.074   2.993  12.661  0.2542 -0.5643  0.5413
  901MPD2    C313199   1.082   3.117  12.726  0.4391  0.0434  0.6310
  901MPD2    C413200   1.091   3.120  12.863  0.0239 -0.2951 -0.0807
  901MPD2    C513201   1.096   2.997  12.928 -0.0833  0.2193  0.3183
  901MPD2     H13202   1.077   3.002  12.553 -2.0933  1.3319  0.6312
  901MPD2    H113203   1.114   3.214  12.912 -1.9006 -0.2915  0.8276
  901MPD2    H213204   1.094   2.782  12.925 -0.5175 -2.0139 -1.8409
  901MPD2    H313205   1.129   2.992  13.031 -0.4226 -1.4916  0.3431
  901MPD2     N13206   1.076   3.236  12.644  0.2702 -0.1000 -0.2606
  901MPD2    H513207   1.058   3.209  12.548  1.8427 -3.0310  0.2649
  901MPD2    N113208   1.053   2.746  12.671  0.0648  0.3695 -0.1856
  901MPD2    H713209   1.051   2.672  12.740  1.2420  0.2273 -0.3004
  902MPD2     C13210   3.776   1.415  12.716  0.2925  0.0836 -0.1274
  902MPD2    C113211   3.877   1.509  12.729 -0.3780  0.3253  0.2830
  902MPD2    C213212   3.994   1.489  12.653 -0.3097 -0.2737  0.1944
  902MPD2    C313213   4.008   1.378  12.566  0.4920 -0.9420  0.2280
  902MPD2    C413214   3.900   1.291  12.553  0.3422  0.1647  0.2442
  902MPD2    C513215   3.788   1.311  12.628 -0.0041  0.0842 -0.9393
  902MPD2     H13216   4.077   1.557  12.664 -1.0690  1.0702 -2.3768
  902MPD2    H113217   3.896   1.203  12.490  1.3748  0.4888 -0.2743
  902MPD2    H213218   3.686   1.437  12.772  0.5383  1.7327 -0.3758
  902MPD2    H313219   3.701   1.246  12.628 -0.3575  0.5497  0.4671
  902MPD2     N13220   4.116   1.357  12.482 -0.2213  0.0687 -0.1273
  902MPD2    H513221   4.104   1.300  12.399 -4.1269  1.6582 -0.6721
  902MPD2    N113222   3.851   1.627  12.804  0.4115 -0.3044  0.0445
  902MPD2    H713223   3.756   1.643  12.836  0.1953 -2.0403  0.2759
  903MPD2     C13224   4.152   1.562  11.905 -0.0657  0.0347 -0.6379
  903MPD2    C113225   4.220   1.444  11.916  0.3339  0.0527  0.4776
  903MPD2    C213226   4.226   1.357  11.806  0.3530  0.1801  0.0383
  903MPD2    C313227   4.152   1.385  11.693 -0.1427  0.0224 -0.4049
  903MPD2    C413228   4.080   1.502  11.688 -0.0747 -0.8696  0.5493
  903MPD2    C513229   4.088   1.590  11.787  0.6501 -0.5732  0.1622
  903MPD2     H13230   4.270   1.258  11.802  1.5405  0.7243 -0.1319
  903MPD2    H113231   4.025   1.533  11.600 -0.0865  0.5558  1.0730
  903MPD2    H213232   4.145   1.626  11.992  0.6144 -0.5952 -0.1260
  903MPD2    H313233   4.033   1.684  11.784  0.4985 -0.6910 -0.7539
  903MPD2     N13234   4.168   1.297  11.584  0.3593  0.1517 -0.5305
  903MPD2    H513235   4.243   1.229  11.589 -0.3762 -0.6075  0.2332
  903MPD2    N113236   4.283   1.413  12.043  0.0696  0.4949 -0.2490
  903MPD2    H713237   4.283   1.486  12.113  1.0109 -1.2511  1.5583
  904MPD2     C13238   4.618   1.130  13.390  0.6052 -0.2987 -0.4130
  904MPD2    C113239   4.579   1.001  13.426 -0.2375  0.1852 -0.0350
  904MPD2    C213240   4.682   0.916  13.467 -0.0193 -0.6523  0.1406
  904MPD2    C313241   0.093   0.951  13.473 -0.1018  0.2088 -0.2294
  904MPD2    C413242   0.128   1.077  13.433  0.3580 -0.3249 -0.2352
  904MPD2    C513243   0.029   1.160  13.398 -0.0286 -0.2559 -0.3938
  904MPD2     H13244   4.666   0.812  13.491 -2.3171 -0.4686 -0.6459
  904MPD2    H113245   0.230   1.113  13.428 -0.3895  1.8932  0.2951
  904MPD2    H213246   4.550   1.209  13.360  0.4415 -0.3336 -0.1292
  904MPD2    H313247   0.059   1.261  13.373 -0.0245 -0.5459 -1.5689
  904MPD2     N13248   0.189   0.858  13.525  0.7142  0.0562  0.4830
  904MPD2    H513249   0.160   0.764  13.548  1.3555 -0.1660  0.4016
  904MPD2    N113250   4.446   0.955  13.432  0.1800 -0.3905 -0.6128
  904MPD2    H713251   4.429   0.857  13.452 -1.6190 -0.2211 -1.3528
  905MPD2     C13252   4.179   0.336  13.188  0.3592  0.1199 -0.3948
  905MPD2    C113253   4.272   0.436  13.216 -0.1439  0.4607  0.3240
  905MPD2    C213254   4.405   0.422  13.200 -0.1178 -0.5215 -0.2445
  905MPD2    C313255   4.459   0.299  13.158 -0.0645  1.0319 -0.1473
  905MPD2    C413256   4.360   0.200  13.138  0.9138 -0.3822  0.1592
  905MPD2    C513257   4.225   0.220  13.143  0.1981  0.2923  0.0530
  905MPD2     H13258   4.467   0.503  13.236 -2.0525  1.9095 -2.3861
  905MPD2    H113259   4.397   0.101  13.117 -2.3826 -1.4822 -0.4593
  905MPD2    H213260   4.072   0.348  13.198  0.4946  2.4302 -1.5498
  905MPD2    H313261   4.154   0.153  13.095  0.6810  0.0226 -0.2807
  905MPD2     N13262   4.594   0.265  13.161  0.3132  0.4232  0.4392
  905MPD2    H513263   4.615   0.169  13.138 -0.3087  0.9254 -2.2153
  905MPD2    N113264   4.236   0.557  13.273 -0.0292  0.7133 -0.8355
  905MPD2    H713265   4.309   0.628  13.278  1.5471 -0.8924 -0.6773
  906MPD2     C13266   1.714   0.839  11.279 -0.0578 -0.2161 -1.0644
  906MPD2    C113267   1.749   0.724  11.215 -0.8276 -0.5538 -0.8996
  906MPD2    C213268   1.724   0.602  11.272  0.2035  0.1919 -0.5860
  906MPD2    C313269   1.667   0.583  11.395  0.2589 -0.1643  0.0146
  906MPD2    C413270   1.638   0.703  11.464 -0.8967 -0.4180 -0.1662
  906MPD2    C513271   1.660   0.825  11.409  0.3814 -0.2988  0.4911
  906MPD2     H13272   1.760   0.513  11.222 -0.7816  0.1124 -1.1375
  906MPD2    H113273   1.595   0.696  11.563 -0.8933 -1.8969 -0.2652
  906MPD2    H213274   1.730   0.937  11.234 -1.9553  1.1356  1.1820
  906MPD2    H313275   1.641   0.917  11.464  1.2036  0.7032 -0.8961
  906MPD2     N13276   1.625   0.463  11.452  0.6575 -0.5913 -0.0724
  906MPD2    H513277   1.575   0.466  11.540  0.1201 -1.1890 -0.3592
  906MPD2    N113278   1.796   0.729  11.082  0.4422  0.4295  0.7250
  906MPD2    H713279   1.801   0.641  11.032  1.7635 -0.3648  2.2589
  907MPD2     C13280   0.209   4.406  15.787  0.4859 -0.4932  0.2120
  907MPD2    C113281   0.275   4.293  15.744 -0.1673 -0.6491 -0.2522
  907MPD2    C213282   0.365   4.237  15.828  0.1371 -0.2764 -0.1404
  907MPD2    C313283   0.380   4.278  15.957 -0.0549 -0.5709  0.3824
  907MPD2    C413284   0.295   4.380  16.002  1.4159  0.7654 -0.3958
  907MPD2    C513285   0.210   4.439  15.917 -0.6798 -0.8951 -0.3823
  907MPD2     H13286   0.423   4.149  15.802 -0.2780 -0.5599 -0.1026
  907MPD2    H113287   0.300   4.425  16.101 -0.8411 -0.6327  0.3581
  907MPD2    H213288   0.148   4.468  15.722  1.4427  0.8418  0.5941
  907MPD2    H313289   0.148   4.521  15.950 -1.3028 -1.3359 -0.4649
  907MPD2     N13290   0.489   4.228  16.038  0.1819 -0.4617 -0.0420
  907MPD2    H513291   0.543   4.162  15.983  3.6334  0.3102  2.3874
  907MPD2    N113292   0.265   4.242  15.614  0.3511  0.5712 -0.0484
  907MPD2    H713293   0.312   4.157  15.585  0.0568  0.0509  1.0032
  908MPD2     C13294   3.731   4.475   9.396  0.5160 -0.1829 -0.7379
  908MPD2    C113295   3.609   4.521   9.437  0.1750  0.4691  0.0640
  908MPD2    C213296   3.602   4.598   9.550  0.1735  0.3613  0.2842
  908MPD2    C313297   3.717   4.623   9.624 -0.6662  0.4775  0.4177
  908MPD2    C413298   3.844   4.581   9.572  0.2061 -0.1586 -0.8456
  908MPD2    C513299   3.846   4.501   9.467  0.6543 -0.2570 -0.4261
  908MPD2     H13300   3.508   4.637   9.589 -0.7011  0.8726 -2.3336
  908MPD2    H113301   3.935   4.606   9.627  0.9353 -1.8762 -1.2876
  908MPD2    H213302   3.750   4.408   9.313  0.0280  0.3767 -1.2983
  908MPD2    H313303   3.936   4.450   9.435  0.8080  0.1779 -0.6890
  908MPD2     N13304   3.692   4.705   9.744  0.5196 -0.7890  0.0811
  908MPD2    H513305   3.597   4.724   9.775  0.4520 -1.2316  0.1342
  908MPD2    N113306   3.499   4.463   9.370  0.3098 -0.1103  0.7461
  908MPD2    H713307   3.516   4.418   9.280 -2.4639 -4.0603  2.1824
  909MPD2     C13308   3.602   3.130  11.740  0.3529 -0.1077 -0.0431
  909MPD2    C113309   3.557   3.240  11.667 -0.4417  0.3665 -0.1474
  909MPD2    C213310   3.459   3.321  11.710 -0.2334  0.7433  0.0504
  909MPD2    C313311   3.405   3.294  11.831 -0.1575 -0.1794  0.2576
  909MPD2    C413312   3.443   3.182  11.906 -0.6551  0.4143  0.2917
  909MPD2    C513313   3.535   3.099  11.858 -0.6130  0.2299  0.5536
  909MPD2     H13314   3.442   3.417  11.662 -0.4851 -0.1092 -1.5752
  909MPD2    H113315   3.398   3.154  12.000  0.3365  1.2241  1.0090
  909MPD2    H213316   3.679   3.063  11.703 -0.0309 -0.3219 -0.4532
  909MPD2    H313317   3.554   3.005  11.908 -0.9698  0.1443  0.5278
  909MPD2     N13318   3.306   3.382  11.881 -0.3753  0.0343  0.3366
  909MPD2    H513319   3.282   3.460  11.821 -1.6755 -0.0853  0.7031
  909MPD2    N113320   3.610   3.284  11.546  0.3634 -0.7621 -0.6587
  909MPD2    H713321   3.571   3.370  11.509 -2.8711 -1.6854  0.6500
  910MPD2     C13322   4.006   0.093  15.563  0.0316 -0.2864 -0.5293
  910MPD2    C113323   4.131   0.072  15.509 -0.2890 -0.0683 -0.5609
  910MPD2    C213324   4.160   0.098  15.379 -0.1195 -0.3910  0.3142
  910MPD2    C313325   4.058   0.147  15.297 -0.9868  0.0112 -0.0320
  910MPD2    C413326   3.931   0.156  15.352  0.1928  0.1030 -0.2191
  910MPD2    C513327   3.909   0.135  15.484  0.1317 -0.1760  0.3548
  910MPD2     H13328   4.261   0.088  15.341  0.2413 -2.1477  1.7717
  910MPD2    H113329   3.851   0.194  15.288 -0.0496 -0.3547 -0.1926
  910MPD2    H213330   3.970   0.062  15.660 -0.1453 -1.7139 -1.0492
  910MPD2    H313331   3.814   0.164  15.529  0.1449 -0.4005  0.5283
  910MPD2     N13332   4.074   0.178  15.156  0.4072  0.0810 -0.4127
  910MPD2    H513333   3.984   0.186  15.111  0.8170 -0.2480 -1.2965
  910MPD2    N113334   4.238   0.019  15.582  0.1380  0.4791 -0.0550
  910MPD2    H713335   4.324   0.001  15.532  0.9853  1.6800  0.9774
  911MPD2     C13336   2.427   1.591  16.473  0.0999  0.0232 -0.2965
  911MPD2    C113337   2.384   1.458  16.477 -0.2746 -0.4425  0.3923
  911MPD2    C213338   2.260   1.431  16.416  0.0689 -0.1649 -0.4710
  911MPD2    C313339   2.187   1.529  16.363 -0.0738  0.4273  0.0894
  911MPD2    C413340   2.241   1.660  16.353  0.2459 -0.4317  0.3623
  911MPD2    C513341   2.357   1.695  16.410 -0.5448  0.2655 -0.4856
  911MPD2     H13342   2.221   1.331  16.426 -0.7371  0.1757 -0.2291
  911MPD2    H113343   2.188   1.739  16.302  1.4030 -0.1491 -0.4193
  911MPD2    H213344   2.523   1.612  16.519 -1.3410  1.2179  2.1130
  911MPD2    H313345   2.381   1.800  16.420  1.2579 -0.1179 -0.7619
  911MPD2     N13346   2.059   1.508  16.298  0.0907  0.0661 -0.3755
  911MPD2    H513347   2.029   1.585  16.239 -0.9351 -0.3710 -0.4271
  911MPD2    N113348   2.458   1.357  16.545 -0.6421  0.4208  0.3320
  911MPD2    H713349   2.535   1.385  16.603  1.4379 -0.9241 -1.7643
  912MPD2     C13350   1.690   0.708  15.996  0.0579  0.3654 -0.0328
  912MPD2    C113351   1.733   0.788  16.104 -1.1681  0.2657 -0.0850
  912MPD2    C213352   1.759   0.730  16.221  0.4188  0.4759  0.2706
  912MPD2    C313353   1.719   0.599  16.249  0.0009 -0.2648 -0.0738
  912MPD2    C413354   1.670   0.522  16.148  0.0149  0.2970 -0.2510
  912MPD2    C513355   1.663   0.574  16.017 -1.3161  0.1759 -0.5648
  912MPD2     H13356   1.805   0.785  16.303 -0.4809  0.0496  1.0713
  912MPD2    H113357   1.636   0.421  16.168  0.0875 -0.0710 -2.0270
  912MPD2    H213358   1.657   0.749  15.902  1.0559 -0.1669 -0.6092
  912MPD2    H313359   1.639   0.509  15.934  0.4257  0.6341 -1.4255
  912MPD2     N13360   1.755   0.545  16.373 -0.1324  0.1949 -0.0519
  912MPD2    H513361   1.801   0.610  16.435 -1.0920  1.3960 -0.5972
  912MPD2    N113362   1.750   0.928  16.075  0.0192  0.0252  0.3166
  912MPD2    H713363   1.741   0.963  15.980  1.9131 -0.0028  0.1208
  913MPD2     C13364   2.014   1.970   9.944  0.4825 -0.0966  0.9830
  913MPD2    C113365   1.962   2.088   9.893 -0.1767 -0.1310  0.4384
  913MPD2    C213366   2.029   2.202   9.936 -0.1860  0.2024  0.2234
  913MPD2    C313367   2.140   2.200  10.023 -0.5213 -0.0001  0.0503
  913MPD2    C413368   2.196   2.080  10.058  0.4495  0.3288 -0.0164
  913MPD2    C513369   2.127   1.967  10.025  0.0849  0.0277 -0.4415
  913MPD2     H13370   1.986   2.296   9.905 -1.7770 -0.3450  0.7747
  913MPD2    H113371   2.282   2.079  10.123  0.7815 -1.3848 -0.4836
  913MPD2    H213372   1.979   1.871   9.920 -0.2031  0.3568  0.1286
  913MPD2    H313373   2.162   1.873  10.066  0.8671  0.6398  0.2999
  913MPD2     N13374   2.206   2.313  10.077 -0.2279 -0.1065  0.3130
  913MPD2    H513375   2.289   2.293  10.131 -0.2112  1.7435  0.9977
  913MPD2    N113376   1.850   2.078   9.804  0.6788  0.3333  0.1189
  913MPD2    H713377   1.833   1.983   9.774  1.2998  0.0234  0.7573
  914MPD2     C13378   0.631   2.519  11.824  0.3705 -0.1675 -0.2110
  914MPD2    C113379   0.633   2.627  11.909 -0.3406  0.5360  0.5426
  914MPD2    C213380   0.681   2.603  12.041 -0.0922  0.2494  0.5465
  914MPD2    C313381   0.730   2.479  12.083  0.3679 -0.0510 -0.3430
  914MPD2    C413382   0.727   2.377  11.998 -0.0328 -0.3044 -0.3128
  914MPD2    C513383   0.677   2.395  11.869  0.5623 -0.2596  0.4452
  914MPD2     H13384   0.700   2.685  12.109  1.4400  0.4187 -0.0796
  914MPD2    H113385   0.769   2.279  12.018  2.2060  0.6924 -0.1732
  914MPD2    H213386   0.583   2.529  11.727 -2.4070 -2.2592  0.9494
  914MPD2    H313387   0.663   2.312  11.801  2.4075 -0.7028  0.5914
  914MPD2     N13388   0.800   2.473  12.209 -0.5337  0.5881  0.3883
  914MPD2    H513389   0.788   2.560  12.261 -2.6027 -0.8662  2.2941
  914MPD2    N113390   0.597   2.759  11.879 -0.1792  0.0986  0.1156
  914MPD2    H713391   0.613   2.828  11.952  0.2381 -1.6847  1.7075
  915MPD2     C13392   3.645   2.378  15.270 -0.0236  0.7662 -0.3450
  915MPD2    C113393   3.509   2.356  15.292 -0.1814 -0.4486  0.0158
  915MPD2    C213394   3.448   2.403  15.401 -0.6978  0.1084 -0.6330
  915MPD2    C313395   3.514   2.485  15.492 -0.9028  0.1910  0.0444
  915MPD2    C413396   3.649   2.513  15.465 -0.3621 -0.3548  0.4639
  915MPD2    C513397   3.712   2.455  15.354 -0.4013  0.4896 -0.3910
  915MPD2     H13398   3.342   2.382  15.414 -0.8397  1.5438  0.5597
  915MPD2    H113399   3.710   2.579  15.527  1.4858  0.2175 -1.9534
  915MPD2    H213400   3.699   2.333  15.187 -1.7391  1.7848 -2.0052
  915MPD2    H313401   3.819   2.468  15.340 -0.3178 -0.0774 -0.2523
  915MPD2     N13402   3.442   2.546  15.597 -0.4761 -0.1697 -0.4853
  915MPD2    H513403   3.344   2.520  15.607 -0.6967  0.3223 -1.3610
  915MPD2    N113404   3.441   2.267  15.212 -0.4002 -0.2247 -0.3293
  915MPD2    H713405   3.345   2.246  15.237 -0.6687 -0.3821 -1.4863
  916MPD2     C13406   1.247   0.502  15.785 -0.7390 -0.3232  0.1167
  916MPD2    C113407   1.328   0.441  15.878  0.2230  0.3676  0.0721
  916MPD2    C213408   1.418   0.341  15.832  0.7158  0.5680 -0.0707
  916MPD2    C313409   1.438   0.318  15.691  0.0510  0.2158  0.0601
  916MPD2    C413410   1.363   0.384  15.603 -0.2863  0.3291  0.0096
  916MPD2    C513411   1.266   0.477  15.652  0.3738 -0.5239 -0.3130
  916MPD2     H13412   1.477   0.287  15.905  0.8122 -0.9028 -1.2361
  916MPD2    H113413   1.373   0.367  15.496 -2.3516  0.2658 -0.1907
  916MPD2    H213414   1.170   0.575  15.808 -0.9299 -0.2750 -0.6728
  916MPD2    H313415   1.200   0.523  15.579 -1.6847 -2.4440  0.3464
  916MPD2     N13416   1.527   0.219  15.649 -0.1869  0.6537 -0.3207
  916MPD2    H513417   1.579   0.170  15.720 -0.4486 -2.6214 -2.3953
  916MPD2    N113418   1.321   0.481  16.012  0.3691 -0.8785 -0.0968
  916MPD2    H713419   1.275   0.570  16.027  2.1575  0.3483 -1.8154
  917MPD2     C13420   2.499   2.980  11.269  1.0910  0.0753  0.3665
  917MPD2    C113421   2.409   3.085  11.277  0.2069  0.0734  0.7966
  917MPD2    C213422   2.447   3.217  11.248  0.3115 -0.3184 -0.5283
  917MPD2    C313423   2.581   3.250  11.234 -0.6331  0.8445 -1.1632
  917MPD2    C413424   2.671   3.144  11.230  0.1447  0.4954  0.7146
  917MPD2    C513425   2.629   3.015  11.247 -0.4288 -0.3818 -0.2893
  917MPD2     H13426   2.372   3.293  11.238 -1.1195 -1.8404 -1.3810
  917MPD2    H113427   2.777   3.162  11.217 -0.1907 -0.2022 -2.9589
  917MPD2    H213428   2.473   2.876  11.278 -0.0032  0.3601  0.4683
  917MPD2    H313429   2.706   2.939  11.257 -1.4301 -1.4335 -0.5079
  917MPD2     N13430   2.627   3.379  11.214 -0.5159  0.4920 -0.3951
  917MPD2    H513431   2.728   3.387  11.211 -0.3738 -0.1318  3.4859
  917MPD2    N113432   2.272   3.065  11.301 -0.2383  0.0231 -0.3137
  917MPD2    H713433   2.221   3.147  11.331 -1.2963 -0.9272  0.4495
  918MPD2     C13434   2.434   3.422  11.930 -0.6864 -0.0946 -1.2678
  918MPD2    C113435   2.428   3.286  11.967  0.3788 -0.2719 -0.1706
  918MPD2    C213436   2.320   3.208  11.926  0.4033  0.3333  0.2581
  918MPD2    C313437   2.225   3.257  11.829 -0.2796 -0.4058 -0.6226
  918MPD2    C413438   2.236   3.388  11.797  0.4402  0.3225 -0.6313
  918MPD2    C513439   2.330   3.465  11.853  0.0860  0.4318 -0.3568
  918MPD2     H13440   2.315   3.106  11.962 -0.3916  0.4469  0.4770
  918MPD2    H113441   2.166   3.439  11.731  0.5852 -0.3068 -1.2668
  918MPD2    H213442   2.519   3.487  11.948 -1.3357  0.1146  1.0375
  918MPD2    H313443   2.341   3.567  11.819  0.4509  0.5710  0.1877
  918MPD2     N13444   2.133   3.184  11.758 -0.1146 -0.2849  0.5303
  918MPD2    H513445   2.073   3.236  11.695 -1.6194 -2.3885  0.2253
  918MPD2    N113446   2.527   3.227  12.043 -0.5753  0.3326 -0.7996
  918MPD2    H713447   2.521   3.127  12.063 -2.6116  0.7974  0.8898
  919MPD2     C13448   3.099   1.756  11.324  0.0289 -0.0278 -0.0143
  919MPD2    C113449   3.047   1.642  11.269  0.3336  0.2484 -0.1623
  919MPD2    C213450   3.027   1.631  11.132 -0.4746 -0.0799  0.0405
  919MPD2    C313451   3.041   1.737  11.039  0.0955  0.6586  0.1147
  919MPD2    C413452   3.089   1.852  11.097 -0.1984 -0.0260  0.1935
  919MPD2    C513453   3.124   1.859  11.233  0.0503 -0.0929 -0.1831
  919MPD2     H13454   2.982   1.541  11.091  1.4642 -0.6148 -0.8967
  919MPD2    H113455   3.103   1.946  11.043 -1.1369 -0.0179 -0.0412
  919MPD2    H213456   3.114   1.767  11.431 -1.2141  0.1744  0.1379
  919MPD2    H313457   3.152   1.953  11.278 -0.0870  0.2433 -0.8003
  919MPD2     N13458   2.996   1.736  10.911 -0.2999 -0.0115 -0.8983
  919MPD2    H513459   2.971   1.818  10.855 -1.0901 -0.3779 -1.0841
  919MPD2    N113460   2.996   1.537  11.346  0.2785  0.5311  0.0795
  919MPD2    H713461   2.961   1.453  11.301 -1.5601  1.1613  0.3214
  920MPD2     C13462   2.298   2.200  10.430 -0.5165  0.0701 -0.7061
  920MPD2    C113463   2.231   2.073  10.423 -0.2535 -0.0215 -0.6376
  920MPD2    C213464   2.303   1.960  10.471  0.1456 -0.0219  0.7257
  920MPD2    C313465   2.431   1.981  10.523 -0.2925 -0.3191 -0.1364
  920MPD2    C413466   2.494   2.107  10.522  0.2510  0.2900 -0.6693
  920MPD2    C513467   2.428   2.212  10.469 -0.2373  0.6823 -0.4646
  920MPD2     H13468   2.251   1.865  10.465 -0.8313  0.6411 -1.5728
  920MPD2    H113469   2.595   2.126  10.555  0.3402  2.0865 -1.9948
  920MPD2    H213470   2.257   2.298  10.407  0.4453  0.5129 -0.5030
  920MPD2    H313471   2.477   2.307  10.450 -0.1477  0.5459 -0.9191
  920MPD2     N13472   2.505   1.868  10.563 -0.2521  0.1180 -0.2018
  920MPD2    H513473   2.474   1.778  10.528  3.1867 -1.0064 -0.4150
  920MPD2    N113474   2.098   2.060  10.388 -0.0621  0.5155  0.2029
  920MPD2    H713475   2.063   1.966  10.377  0.8672  0.0491  1.1485
  921MPD2     C13476   3.304   1.080  16.994  0.0952 -0.6381  0.7488
  921MPD2    C113477   3.293   1.014  16.870 -0.0492 -0.3596 -0.0097
  921MPD2    C213478   3.168   1.035  16.805  0.0372  0.2234  0.0647
  921MPD2    C313479   3.061   1.103  16.848 -0.4231 -0.0276 -0.0252
  921MPD2    C413480   3.073   1.171  16.972  0.2328 -0.3529 -0.4371
  921MPD2    C513481   3.194   1.152  17.047  0.2286  0.1920 -0.2598
  921MPD2     H13482   3.150   0.984  16.711  0.4878 -0.0537  0.1274
  921MPD2    H113483   2.993   1.230  17.017  0.6453  0.7054 -1.1054
  921MPD2    H213484   3.401   1.082  17.041  0.2924  1.7886  0.2369
  921MPD2    H313485   3.211   1.209  17.138  1.7529 -1.0396  0.2455
  921MPD2     N13486   2.942   1.094  16.780 -0.7354 -0.1585 -0.0522
  921MPD2    H513487   2.947   1.042  16.694 -0.7196 -0.2697  0.0161
  921MPD2    N113488   3.403   0.944  16.819 -0.6662 -0.2009  0.1262
  921MPD2    H713489   3.475   0.931  16.889 -1.4721  0.7898  1.1480
  922MPD2     C13490   3.683   3.737  17.687  0.1649 -0.0773 -0.0385
  922MPD2    C113491   3.702   3.764  17.554  0.1450 -0.2069 -0.5412
  922MPD2    C213492   3.711   3.654  17.470 -0.6346  0.0425 -0.0758
  922MPD2    C313493   3.685   3.525  17.511  0.2152  0.2065  0.1732
  922MPD2    C413494   3.652   3.501  17.645 -0.8569 -0.3432  0.0680
  922MPD2    C513495   3.647   3.610   0.033 -0.2342  0.3377  0.3686
  922MPD2     H13496   3.734   3.677  17.367 -0.0861  0.2317  0.0927
  922MPD2    H113497   3.620   3.405  17.686 -0.2142 -0.5009  0.1983
  922MPD2    H213498   3.680   3.816   0.065  0.9012  0.5974 -0.7247
  922MPD2    H313499   3.639   3.589   0.139 -0.4120 -0.1677  0.2548
  922MPD2     N13500   3.676   3.422  17.405  0.8122 -0.6686 -0.1759
  922MPD2    H513501   3.700   3.458  17.314 -0.9377  0.6522 -0.1171
  922MPD2    N113502   3.714   3.897  17.507 -0.4212  0.2485  0.1244
  922MPD2    H713503   3.747   3.912  17.413 -0.4088 -1.5123 -0.1614
  923MPD2     C13504   0.924   0.099   8.936  0.5323 -0.4053  0.0978
  923MPD2    C113505   0.877   0.176   9.040 -0.0225  0.7078  0.2059
  923MPD2    C213506   0.932   0.154   9.168 -0.4056  0.3206 -0.2535
  923MPD2    C313507   1.052   0.077   9.179 -0.1399 -0.1769  0.4012
  923MPD2    C413508   1.104   0.020   9.064 -0.3241  0.3106  0.0070
  923MPD2    C513509   1.037   0.024   8.947  0.1365 -0.6430  0.8865
  923MPD2     H13510   0.876   0.189   9.254  1.4385 -1.8534  1.8026
  923MPD2    H113511   1.191   4.678   9.064 -1.2940 -0.9736 -2.0096
  923MPD2    H213512   0.866   0.102   8.845 -1.6248  2.2090  1.5436
  923MPD2    H313513   1.079   4.694   8.862  1.9365 -0.9187  1.9537
  923MPD2     N13514   1.133   0.075   9.295  0.0362  0.0904 -0.5411
  923MPD2    H513515   1.222   0.027   9.290 -1.3824 -2.2737 -3.9190
  923MPD2    N113516   0.757   0.248   9.018  0.5040  0.1036 -0.2796
  923MPD2    H713517   0.711   0.235   8.929  0.4307 -2.4455  0.1335
  924MPD2     C13518   0.497   3.936  15.568 -0.4630 -0.3239  0.3733
  924MPD2    C113519   0.512   3.854  15.676  0.0654  0.9874  0.4797
  924MPD2    C213520   0.600   3.891  15.780 -0.0091  0.2598  0.4465
  924MPD2    C313521   0.667   4.013  15.772 -0.5419  0.4178  0.1327
  924MPD2    C413522   0.651   4.092  15.661 -0.0495  0.2100 -0.0221
  924MPD2    C513523   0.566   4.054  15.563 -0.0870  0.1537 -0.2540
  924MPD2     H13524   0.594   3.842  15.877 -0.4345  0.9198  0.7503
  924MPD2    H113525   0.702   4.188  15.651  0.3334  0.1022  0.8421
  924MPD2    H213526   0.427   3.908  15.490 -1.9574 -0.4748  1.7784
  924MPD2    H313527   0.562   4.109  15.470 -2.6065 -0.1764 -0.3437
  924MPD2     N13528   0.755   4.054  15.880 -0.0752  0.7118  0.4893
  924MPD2    H513529   0.793   4.148  15.871  3.1945 -0.6829 -0.0976
  924MPD2    N113530   0.422   3.747  15.679  0.1403  0.3878  0.3080
  924MPD2    H713531   0.358   3.738  15.601  1.2894  1.0513 -0.7010
  925MPD2     C13532   4.150   1.468  14.591  0.0170 -0.4924 -0.5031
  925MPD2    C113533   4.021   1.433  14.555  0.5106 -0.0394  0.4976
  925MPD2    C213534   3.966   1.337  14.636 -0.4754  0.3295  0.1795
  925MPD2    C313535   4.019   1.284  14.751  0.8664 -0.2896 -0.4548
  925MPD2    C413536   4.149   1.323  14.785  0.0771 -0.0431 -0.4627
  925MPD2    C513537   4.212   1.413  14.702 -0.2950  0.4696 -0.7057
  925MPD2     H13538   3.866   1.310  14.605 -1.0873  1.3140  1.2893
  925MPD2    H113539   4.210   1.278  14.862 -2.3871  0.2532  1.6645
  925MPD2    H213540   4.204   1.540  14.531  1.0734 -0.7342  0.1698
  925MPD2    H313541   4.318   1.432  14.719 -0.3157  1.1343 -1.3376
  925MPD2     N13542   3.952   1.181  14.830 -0.1786 -0.1613 -0.0690
  925MPD2    H513543   4.010   1.122  14.889 -1.3314 -0.9308  0.2906
  925MPD2    N113544   3.957   1.465  14.434  0.5207  0.1460  0.3316
  925MPD2    H713545   3.867   1.422  14.419  1.1322 -0.7615 -0.7176
  926MPD2     C13546   3.235   4.461  13.174 -0.6707  0.0484 -0.1268
  926MPD2    C113547   3.254   4.584  13.222 -0.7864 -0.2422 -0.2196
  926MPD2    C213548   3.297   4.689  13.148 -0.6493  0.1649 -0.3956
  926MPD2    C313549   3.330   4.661  13.014  0.1529 -0.8054 -0.3686
  926MPD2    C413550   3.306   4.537  12.964 -0.1230  0.4024  0.0194
  926MPD2    C513551   3.268   4.427  13.046 -0.0056 -0.3773 -0.7337
  926MPD2     H13552   3.309   0.067  13.185  1.4446 -0.0582 -0.4684
  926MPD2    H113553   3.337   4.518  12.862 -1.1955  0.8867 -0.3999
  926MPD2    H213554   3.220   4.371  13.232  0.7306 -1.6115 -2.3564
  926MPD2    H313555   3.254   4.332  12.996 -0.2268 -1.0394  0.6042
  926MPD2     N13556   3.379   0.038  12.918  0.5926  0.8600 -0.1136
  926MPD2    H513557   3.382   0.009  12.821 -0.7729  1.4764 -0.3411
  926MPD2    N113558   3.216   4.617  13.357 -0.4047 -0.3025  0.1570
  926MPD2    H713559   3.226   4.715  13.382 -0.4365 -0.4432  0.7194
  927MPD2     C13560   2.053   2.318   0.059  0.5237  0.2959 -0.1240
  927MPD2    C113561   2.054   2.216   0.156 -0.1423  0.2306 -1.2433
  927MPD2    C213562   2.150   2.110   0.149 -0.3002  0.4301 -0.1461
  927MPD2    C313563   2.234   2.104   0.041  0.7614  0.6262 -0.7318
  927MPD2    C413564   2.232   2.207  17.648  0.1810  0.5337  0.0419
  927MPD2    C513565   2.152   2.315  17.659  0.1582  0.2459  0.7370
  927MPD2     H13566   2.158   2.044   0.234  0.9947 -0.1147 -0.6887
  927MPD2    H113567   2.297   2.213  17.561 -1.0089  3.6422 -0.6424
  927MPD2    H213568   1.982   2.399   0.052  1.3134  0.8345 -1.8410
  927MPD2    H313569   2.144   2.389  17.580  1.2195  1.0407  1.3748
  927MPD2     N13570   2.341   2.008   0.050  0.3122 -0.2070  0.5251
  927MPD2    H513571   2.335   1.939   0.125  0.8469  1.3903  2.0399
  927MPD2    N113572   1.963   2.236   0.267  0.2142  0.0837 -0.2621
  927MPD2    H713573   1.903   2.318   0.265  1.2987  0.8517 -1.3823
  928MPD2     C13574   4.441   0.755   0.588 -0.6041 -0.1190 -0.2990
  928MPD2    C113575   4.522   0.728   0.696 -0.0137 -0.4689 -0.0336
  928MPD2    C213576   4.646   0.680   0.665  0.0450 -0.4793 -0.2897
  928MPD2    C313577   4.695   0.659   0.537 -0.3081  0.2708 -0.2784
  928MPD2    C413578   4.611   0.689   0.434 -0.1673  0.0065 -0.0403
  928MPD2    C513579   4.486   0.733   0.463 -0.3898 -0.1866  0.1773
  928MPD2     H13580   4.707   0.660   0.752  1.5814 -0.7643 -1.4352
  928MPD2    H113581   4.639   0.674   0.330  2.5704  1.3949  0.4980
  928MPD2    H213582   4.342   0.793   0.612 -1.4119 -0.8443 -2.4748
  928MPD2    H313583   4.425   0.754   0.376 -0.9036  0.0936  0.6043
  928MPD2     N13584   0.102   0.618   0.505  0.1644  0.4736 -0.2686
  928MPD2    H513585   0.128   0.616   0.407  0.5639 -1.4197 -0.1231
  928MPD2    N113586   4.473   0.762   0.822 -0.2611  0.1056 -0.1349
  928MPD2    H713587   4.402   0.834   0.817  1.2410  1.6178  0.1337
  929MPD2     C13588   4.504   0.284   9.888  0.6225  0.0521 -0.0523
  929MPD2    C113589   4.609   0.202   9.886 -0.3250  0.0722  0.6167
  929MPD2    C213590   0.010   0.258   9.909  0.6556 -0.1268  0.2291
  929MPD2    C313591   0.035   0.391   9.941  0.0922  0.6380 -0.3150
  929MPD2    C413592   4.647   0.472   9.944 -0.7704 -0.1346  0.2464
  929MPD2    C513593   4.520   0.421   9.919 -0.4991 -0.9952 -0.6472
  929MPD2     H13594   0.090   0.187   9.923 -2.2297 -3.4371  0.0308
  929MPD2    H113595   4.651   0.578   9.970 -0.7342 -0.5562  1.9223
  929MPD2    H213596   4.403   0.246   9.886  0.1745  1.3828 -2.9364
  929MPD2    H313597   4.434   0.487   9.919  0.0080 -0.3596  3.4231
  929MPD2     N13598   0.160   0.443   9.987 -0.2227 -0.3751  0.0352
  929MPD2    H513599   0.156   0.538  10.024 -1.3908  0.4125 -2.1012
  929MPD2    N113600   4.608   0.062   9.888  0.3721 -0.4723  0.0388
  929MPD2    H713601   4.693   0.011   9.909  0.2021 -0.8702 -0.2375
  930MPD2     C13602   2.148   2.771  14.182  0.1685  0.0113 -0.2958
  930MPD2    C113603   2.210   2.848  14.091 -0.7136  0.1444 -0.0812
  930MPD2    C213604   2.200   2.814  13.960 -0.8837  0.3674 -0.5375
  930MPD2    C313605   2.131   2.710  13.918 -0.3806  0.4750  0.4670
  930MPD2    C413606   2.059   2.640  14.011  0.0758 -0.1196  0.0988
  930MPD2    C513607   2.068   2.666  14.140 -0.0579 -0.0594  0.5869
  930MPD2     H13608   2.251   2.873  13.885 -0.4040 -1.6223 -1.7788
  930MPD2    H113609   2.004   2.553  13.976 -0.4990  0.7500 -1.1929
  930MPD2    H213610   2.153   2.794  14.288 -0.2243  2.9258 -0.9039
  930MPD2    H313611   2.018   2.610  14.218 -0.5586 -1.2421 -0.5832
  930MPD2     N13612   2.137   2.685  13.779 -0.0744 -0.3167 -0.2082
  930MPD2    H513613   2.189   2.752  13.723  1.0212 -1.6542 -0.7888
  930MPD2    N113614   2.290   2.954  14.113 -0.6774  0.1816 -0.1306
  930MPD2    H713615   2.331   2.993  14.029  2.6979  2.7139  2.7005
  931MPD2     C13616   1.444   1.753   0.575  0.7468 -0.0998  0.1464
  931MPD2    C113617   1.476   1.849   0.667 -0.0420 -0.1906 -0.3506
  931MPD2    C213618   1.447   1.821   0.803 -0.9907 -0.7992  0.7092
  931MPD2    C313619   1.414   1.692   0.842  0.7749 -0.3791  0.0952
  931MPD2    C413620   1.395   1.595   0.746  0.2052  0.1286  0.1696
  931MPD2    C513621   1.395   1.630   0.614 -0.3748  0.2382  0.2343
  931MPD2     H13622   1.466   1.899   0.877  0.1684  0.0137 -0.4225
  931MPD2    H113623   1.377   1.491   0.771  1.5590 -0.2771 -0.5367
  931MPD2    H213624   1.459   1.770   0.469  3.1101  2.5389  0.9008
  931MPD2    H313625   1.377   1.554   0.539 -1.3355  0.4964  0.2073
  931MPD2     N13626   1.397   1.655   0.979 -0.3205 -0.3197  0.0852
  931MPD2    H513627   1.389   1.558   1.006 -0.6506 -0.6389 -1.1440
  931MPD2    N113628   1.523   1.975   0.623  0.4052  0.1902 -0.0961
  931MPD2    H713629   1.526   1.994   0.523 -1.6336 -1.9276 -0.5648
  932MPD2     C13630   0.329   1.082  11.360 -0.2934  0.7433 -0.4984
  932MPD2    C113631   0.290   1.163  11.468 -0.4909 -0.2282 -0.0289
  932MPD2    C213632   0.316   1.113  11.597 -0.7553 -0.1855  0.0896
  932MPD2    C313633   0.376   0.987  11.617  0.0919 -0.2258 -0.3778
  932MPD2    C413634   0.421   0.920  11.505  0.2204  0.2834 -0.2889
  932MPD2    C513635   0.402   0.965  11.381  0.2231 -0.1979  0.7242
  932MPD2     H13636   0.270   1.171  11.675 -0.5367  0.3138 -0.1518
  932MPD2    H113637   0.475   0.826  11.514 -0.4974  0.0181  1.1697
  932MPD2    H213638   0.316   1.108  11.255  0.1592  1.2178 -0.4391
  932MPD2    H313639   0.443   0.911  11.297 -0.6079  0.3743 -0.0577
  932MPD2     N13640   0.397   0.927  11.745 -0.3776 -0.8059  0.0524
  932MPD2    H513641   0.444   0.837  11.745  1.0050 -0.0926 -0.0394
  932MPD2    N113642   0.229   1.287  11.440  0.1488  0.2036 -0.5988
  932MPD2    H713643   0.197   1.296  11.344 -0.4783  1.2549 -0.2823
  933MPD2     C13644   4.182   1.283   0.871  0.2940 -0.5898  0.7784
  933MPD2    C113645   4.274   1.294   0.974  0.1939  0.0857 -0.4141
  933MPD2    C213646   4.287   1.414   1.033 -0.6737 -0.0262  0.1527
  933MPD2    C313647   4.196   1.520   1.007  0.2558 -0.1958  0.1923
  933MPD2    C413648   4.103   1.512   0.900 -0.0557 -0.0045 -0.3327
  933MPD2    C513649   4.104   1.393   0.831 -0.7057 -0.0271  0.3807
  933MPD2     H13650   4.369   1.437   1.100 -0.8856  4.2870 -1.0390
  933MPD2    H113651   4.037   1.594   0.871 -1.3421 -0.8767  0.1255
  933MPD2    H213652   4.168   1.189   0.819 -0.2410 -1.1500  1.9379
  933MPD2    H313653   4.035   1.385   0.748 -0.1426 -0.5721 -0.0332
  933MPD2     N13654   4.205   1.630   1.093 -0.5019 -0.1687  0.2650
  933MPD2    H513655   4.277   1.622   1.164 -0.5298 -0.6809  0.2380
  933MPD2    N113656   4.358   1.182   1.006 -0.0475  0.5671 -0.0218
  933MPD2    H713657   4.329   1.097   0.959 -1.6185  1.3356 -0.4535
  934MPD2     C13658   0.497   3.534   1.926  0.4000  0.0081  0.3547
  934MPD2    C113659   0.553   3.418   1.871  0.2747  0.4038  0.4404
  934MPD2    C213660   0.627   3.424   1.755  0.6190 -0.4098 -0.1212
  934MPD2    C313661   0.639   3.544   1.686  0.0649 -0.4649 -0.1530
  934MPD2    C413662   0.595   3.658   1.748  0.2257  0.7296 -0.1008
  934MPD2    C513663   0.521   3.654   1.863 -0.5170 -0.1992 -0.4537
  934MPD2     H13664   0.663   3.330   1.717  2.0127  0.8144 -1.8657
  934MPD2    H113665   0.599   3.758   1.705  1.6643  0.0473 -1.5793
  934MPD2    H213666   0.436   3.527   2.015 -1.7184  0.5073 -1.0593
  934MPD2    H313667   0.465   3.741   1.897 -1.4066 -0.7644 -0.4730
  934MPD2     N13668   0.697   3.565   1.558  0.5398  0.0013 -0.4745
  934MPD2    H513669   0.692   3.662   1.528 -0.3330 -0.3399 -1.4182
  934MPD2    N113670   0.535   3.289   1.930 -0.1703 -0.5762 -0.1142
  934MPD2    H713671   0.592   3.216   1.889  0.9590  0.4288 -0.3156
  935MPD2     C13672   1.222   3.012   0.924  0.5629 -1.0121 -0.0587
  935MPD2    C113673   1.112   2.975   0.993 -0.4258  0.0628  0.3555
  935MPD2    C213674   1.023   3.073   1.034  0.5840  0.4026  0.0765
  935MPD2    C313675   1.052   3.209   1.022 -0.2224 -0.0435 -0.3825
  935MPD2    C413676   1.164   3.248   0.962 -0.3608  0.6707 -0.4182
  935MPD2    C513677   1.244   3.150   0.917  0.1599 -0.5835  0.4609
  935MPD2     H13678   0.924   3.040   1.065 -0.1539  0.5323 -2.1511
  935MPD2    H113679   1.185   3.351   0.938 -0.3573  1.0490  1.2040
  935MPD2    H213680   1.296   2.948   0.877  0.8518 -1.2753  0.7560
  935MPD2    H313681   1.337   3.185   0.874  0.4727 -0.3575  1.3186
  935MPD2     N13682   0.953   3.304   1.062  0.0474  0.6206  0.4039
  935MPD2    H513683   0.876   3.273   1.119  0.0336  2.7513  1.5176
  935MPD2    N113684   1.073   2.847   1.012  0.6560 -0.2273  0.2608
  935MPD2    H713685   1.000   2.838   1.082  0.9182 -2.6229  0.2254
  936MPD2     C13686   0.655   4.099  13.573 -0.0037  0.3210  0.2070
  936MPD2    C113687   0.645   4.155  13.450 -0.0884 -0.1141  0.1659
  936MPD2    C213688   0.743   4.242  13.403 -0.1748 -0.1922 -0.8504
  936MPD2    C313689   0.850   4.277  13.479 -0.4062  0.5355 -0.2972
  936MPD2    C413690   0.869   4.215  13.605 -0.1818 -0.2740  0.2854
  936MPD2    C513691   0.771   4.122  13.643  0.5054  0.1128 -0.1220
  936MPD2     H13692   0.711   4.293  13.313 -0.3389 -1.4666 -1.5175
  936MPD2    H113693   0.948   4.225  13.679  0.5497  0.3836 -0.5836
  936MPD2    H213694   0.582   4.033  13.617 -2.0390  2.4154 -0.0461
  936MPD2    H313695   0.784   4.068  13.737  1.7326 -0.3659 -0.5564
  936MPD2     N13696   0.931   4.389  13.448 -0.6256  0.1144  0.0072
  936MPD2    H513697   1.005   4.417  13.512 -0.0581  1.0248 -1.0487
  936MPD2    N113698   0.530   4.149  13.369 -0.1852 -0.4256 -0.8126
  936MPD2    H713699   0.527   4.209  13.288 -0.3929  1.6695  0.7428
  937MPD2     C13700   3.058   0.832  11.344  0.3890 -0.3739  0.1289
  937MPD2    C113701   3.109   0.956  11.350  0.0916 -0.7488  0.2845
  937MPD2    C213702   3.213   0.987  11.257  0.2348 -0.5175  0.2328
  937MPD2    C313703   3.279   0.895  11.188 -0.2777  0.1343 -1.1470
  937MPD2    C413704   3.233   0.764  11.197 -0.0138 -0.2458  0.3910
  937MPD2    C513705   3.122   0.733  11.273  0.5886  0.3866 -0.3230
  937MPD2     H13706   3.251   1.086  11.238 -2.4711  0.4973  0.1916
  937MPD2    H113707   3.280   0.683  11.143 -1.5494 -0.1648 -1.0967
  937MPD2    H213708   2.966   0.803  11.394 -0.5915  0.8226 -0.9944
  937MPD2    H313709   3.095   0.630  11.291 -0.5381  0.6965 -0.2088
  937MPD2     N13710   3.378   0.936  11.102 -0.2974 -0.5384  0.1376
  937MPD2    H513711   3.389   1.036  11.089 -1.5152 -0.4498 -0.1782
  937MPD2    N113712   3.044   1.069  11.407 -0.6231 -0.2343  0.6868
  937MPD2    H713713   3.072   1.163  11.381  2.4426 -1.3255  0.0456
  938MPD2     C13714   0.442   2.623   1.209  0.2427  0.9174 -1.1886
  938MPD2    C113715   0.306   2.656   1.187 -0.5451  0.2594 -0.8113
  938MPD2    C213716   0.204   2.585   1.244 -0.7707  0.7126  0.0635
  938MPD2    C313717   0.225   2.474   1.320 -0.2527 -0.1559 -0.1371
  938MPD2    C413718   0.359   2.435   1.348  0.6895  0.0288  0.9116
  938MPD2    C513719   0.460   2.513   1.289 -0.2969  0.9253  0.6555
  938MPD2     H13720   0.108   2.634   1.237 -1.1733  0.1307  1.6296
  938MPD2    H113721   0.384   2.349   1.410  0.8550 -0.9299 -0.4774
  938MPD2    H213722   0.530   2.662   1.159  0.6555  2.4067  0.6420
  938MPD2    H313723   0.558   2.475   1.316 -0.0259  0.5368 -0.8779
  938MPD2     N13724   0.118   2.400   1.385 -0.9183  0.1354  0.1632
  938MPD2    H513725   0.139   2.315   1.436  1.8301  0.7543  0.0637
  938MPD2    N113726   0.268   2.762   1.106  0.4631 -0.5469  0.3186
  938MPD2    H713727   0.170   2.773   1.082  0.3460 -1.5123  0.3589
  939MPD2     C13728   1.410   4.568   0.430 -0.6562  0.1007  1.5068
  939MPD2    C113729   1.435   4.545   0.563  0.8807 -0.2087  0.5449
  939MPD2    C213730   1.546   4.472   0.600  0.0347 -0.4231  0.7893
  939MPD2    C313731   1.634   4.426   0.511 -0.5245  0.1923  0.0585
  939MPD2    C413732   1.611   4.463   0.378  0.1374  0.2809  0.2463
  939MPD2    C513733   1.502   4.527   0.342 -0.6752 -0.0541  0.2971
  939MPD2     H13734   1.562   4.467   0.707 -1.7618 -2.5229  0.9625
  939MPD2    H113735   1.671   4.424   0.296 -2.7145 -0.1615 -1.6270
  939MPD2    H213736   1.331   4.632   0.393 -1.2652  0.6618  3.8050
  939MPD2    H313737   1.482   4.539   0.236  0.8388  0.1388  0.0353
  939MPD2     N13738   1.737   4.347   0.556 -0.2985 -0.2243  0.1507
  939MPD2    H513739   1.746   4.329   0.656 -0.2801 -1.3790 -0.0557
  939MPD2    N113740   1.339   4.581   0.653  0.3438 -0.3149 -0.0476
  939MPD2    H713741   1.259   4.634   0.619  0.2618 -0.6541 -0.3835
  940MPD2     C13742   1.116   4.482  13.819  0.4852 -0.5459  0.8448
  940MPD2    C113743   1.088   4.616  13.823 -0.2505  0.2561 -0.3534
  940MPD2    C213744   1.132   4.691  13.716  0.5217  0.5188  0.5197
  940MPD2    C313745   1.223   4.639  13.619  0.4822  0.0702  0.5175
  940MPD2    C413746   1.251   4.505  13.623  0.0812 -0.3187 -0.0944
  940MPD2    C513747   1.200   4.433  13.723  0.2405  0.1125  0.1913
  940MPD2     H13748   1.110   0.073  13.720  1.4961  0.6531  2.4827
  940MPD2    H113749   1.316   4.456  13.551  1.6986  0.7177  0.6372
  940MPD2    H213750   1.073   4.412  13.890 -2.0000 -0.2494 -0.3763
  940MPD2    H313751   1.215   4.327  13.738  0.1056  0.0550 -0.0860
  940MPD2     N13752   1.283   4.711  13.513 -0.6094 -0.1618 -0.2564
  940MPD2    H513753   1.353   4.660  13.460  0.1601  0.1760  0.4266
  940MPD2    N113754   1.013   4.673  13.931 -0.2328 -0.3535 -0.3097
  940MPD2    H713755   1.007   0.050  13.933 -1.2167 -0.4779  2.6891
  941MPD2     C13756   0.205   3.736   9.469  0.5387  0.3237  0.4898
  941MPD2    C113757   0.326   3.677   9.501 -0.7600  0.1875  0.1018
  941MPD2    C213758   0.322   3.548   9.553 -0.3154  0.0864  0.6512
  941MPD2    C313759   0.206   3.480   9.584 -0.3797  0.7127  0.3815
  941MPD2    C413760   0.090   3.539   9.547  0.3653 -0.2461 -0.6392
  941MPD2    C513761   0.089   3.663   9.485  0.2400 -0.6104 -0.0895
  941MPD2     H13762   0.418   3.508   9.584  0.1468  1.5279  1.0690
  941MPD2    H113763   4.716   3.493   9.559  0.6864 -0.6385  0.4274
  941MPD2    H213764   0.208   3.835   9.424 -0.0026  1.1089  2.1583
  941MPD2    H313765   4.719   3.711   9.458 -0.7942 -2.3617  0.4221
  941MPD2     N13766   0.200   3.348   9.643 -0.5535  0.4650 -0.4132
  941MPD2    H513767   0.108   3.317   9.672 -0.4843  2.1802  1.6829
  941MPD2    N113768   0.453   3.742   9.487  0.2521  0.2798 -0.5451
  941MPD2    H713769   0.525   3.683   9.527 -1.0750 -0.8801  0.1166
  942MPD2     C13770   3.548   0.406   9.767 -0.1276  0.6651 -0.7324
  942MPD2    C113771   3.631   0.505   9.812 -0.4115 -0.0092  0.6803
  942MPD2    C213772   3.764   0.511   9.769  0.6772  0.1091 -0.5173
  942MPD2    C313773   3.813   0.409   9.680 -0.3608 -0.5937 -0.7145
  942MPD2    C413774   3.724   0.316   9.640  0.4316 -0.4864  0.2154
  942MPD2    C513775   3.593   0.314   9.676  0.9973 -0.6128 -0.1903
  942MPD2     H13776   3.825   0.591   9.809 -1.9887  1.1430  1.4302
  942MPD2    H113777   3.763   0.241   9.573 -0.5321 -0.6669 -0.1480
  942MPD2    H213778   3.445   0.400   9.803  0.4788  0.7961  1.0470
  942MPD2    H313779   3.523   0.239   9.640  0.3558  1.2253 -2.8226
  942MPD2     N13780   3.943   0.411   9.619  0.1366 -0.4827  0.4497
  942MPD2    H513781   3.965   0.325   9.571  0.6204 -1.3153  2.1752
  942MPD2    N113782   3.604   0.606   9.913  0.3036  0.2991 -0.0603
  942MPD2    H713783   3.674   0.677   9.931  2.2504 -1.6036 -0.1230
  943MPD2     C13784   3.483   1.863  10.826 -0.7288  0.0026 -0.3392
  943MPD2    C113785   3.354   1.885  10.779 -0.1637 -1.0940 -0.3211
  943MPD2    C213786   3.301   1.804  10.683  0.0374 -0.4331  0.1677
  943MPD2    C313787   3.378   1.692  10.637  0.1271  0.5029 -0.5262
  943MPD2    C413788   3.506   1.674  10.682  0.1181  0.4484 -0.1362
  943MPD2    C513789   3.555   1.756  10.779  0.3322 -0.4198  0.7441
  943MPD2     H13790   3.203   1.830  10.645 -0.1290  0.7572  1.4100
  943MPD2    H113791   3.572   1.598  10.643 -0.7712  0.4653 -1.6962
  943MPD2    H213792   3.523   1.933  10.899  2.6551 -1.0104 -1.1991
  943MPD2    H313793   3.657   1.741  10.811  1.7183  2.3678 -2.4270
  943MPD2     N13794   3.335   1.602  10.538 -0.3403  0.5262 -0.3230
  943MPD2    H513795   3.410   1.544  10.503  2.0193  1.9873  2.4157
  943MPD2    N113796   3.303   2.013  10.817  0.4936  0.3722 -0.5727
  943MPD2    H713797   3.369   2.082  10.851  0.1331  0.2483  0.3734
  944MPD2     C13798   4.097   2.265  11.715  0.4676  0.4288  0.9773
  944MPD2    C113799   4.039   2.236  11.599  0.7166 -0.6107  0.7380
  944MPD2    C213800   3.901   2.226  11.588 -0.0217 -0.0126 -0.0775
  944MPD2    C313801   3.825   2.226  11.700 -0.0491 -0.5776 -0.3455
  944MPD2    C413802   3.884   2.243  11.822  0.1301  0.4042 -0.2361
  944MPD2    C513803   4.020   2.262  11.826 -0.2043  0.2528  0.0822
  944MPD2     H13804   3.849   2.218  11.493 -1.5496 -3.2840  1.0368
  944MPD2    H113805   3.826   2.237  11.912 -1.4729  0.0183 -1.3020
  944MPD2    H213806   4.204   2.267  11.729  0.6730 -2.8303 -0.2309
  944MPD2    H313807   4.068   2.279  11.922  0.2787  1.6859 -0.4036
  944MPD2     N13808   3.694   2.252  11.679  0.5923  0.1739  0.7048
  944MPD2    H513809   3.653   2.251  11.587 -0.5465 -1.5617  1.2264
  944MPD2    N113810   4.124   2.223  11.480 -0.3132  0.8537 -0.3225
  944MPD2    H713811   4.223   2.233  11.497 -0.5138  0.2786  1.1412
    1TCq1    O113812   4.498   3.826  13.981 -0.2332 -0.2556  0.1730
    1TCq1    C113813   4.532   3.950  14.008 -0.6873  0.8467  0.6165
    1TCq1    O213814   4.490   4.048  13.950 -0.0890 -0.2719 -0.0116
    1TCq1    C213815   4.670   3.948  14.069  0.0179 -0.2907  0.5021
    1TCq1    C313816   4.712   3.854  14.161 -0.6436  0.3088 -0.0043
    1TCq1    C413817   0.126   3.851  14.183  0.1518  0.3879 -0.2817
    1TCq1    C513818   0.215   3.936  14.130 -0.3693  0.3017  0.0179
    1TCq1    C613819   0.167   4.036  14.049 -0.2422 -0.0100  0.0405
    1TCq1    C713820   0.031   4.039  14.014 -0.4318 -0.1679 -0.2888
    1TCq1    C813821   0.257   4.125  13.977 -0.2476  0.0899 -0.5855
    1TCq1    O413822   0.217   4.202  13.894  0.3298 -0.0369 -0.4319
    1TCq1    C913823   0.176   3.747  14.275  0.2826 -0.4978 -0.4607
    1TCq1    O513824   0.299   3.752  14.302 -0.7804 -0.0247 -0.4175
    1TCq1    O613825   0.096   3.661  14.319 -0.6215 -0.1535 -0.1263
    1TCq1    H113826   4.561   3.758  14.013  0.1717  0.8653  1.7467
    1TCq1    H213827   4.652   3.776  14.204 -0.7244  0.2622 -0.2020
    1TCq1    H313828   0.320   3.921  14.153 -0.3306  1.4134  0.5843
    1TCq1    H413829   4.718   4.113  13.943 -0.2757 -0.4073 -0.6200
    2MPD2     C13830   0.732   4.342  13.940 -0.6603 -0.4889 -0.0135
    2MPD2    C113831   0.717   4.267  14.060  0.4178  0.6061 -0.3421
    2MPD2    C213832   0.605   4.190  14.084  0.1049 -0.5242 -0.9424
    2MPD2    C313833   0.500   4.187  13.997  0.7119  0.1011  0.2177
    2MPD2    C413834   0.509   4.265  13.879 -0.7597  0.1451  0.2304
    2MPD2    C513835   0.624   4.339  13.857  0.5735  0.2100 -0.4708
    2MPD2     H13836   0.597   4.119  14.165 -1.7734  0.8197  0.0763
    2MPD2    H113837   0.425   4.277  13.811 -0.0466 -1.3516 -0.9109
    2MPD2    H213838   0.811   4.411  13.915  0.4990 -0.7607  2.8030
    2MPD2    H313839   0.634   4.400  13.768  0.3582  0.1580 -0.5298
    2MPD2     N13840   0.378   4.125  14.038  0.5361  0.0841  0.0167
    2MPD2    H513841   0.375   4.069  14.123  1.9990 -1.3287 -0.8545
    2MPD2    N113842   0.823   4.273  14.147 -0.4378 -0.6286  0.0045
    2MPD2    H713843   0.897   4.333  14.111  0.2726 -1.2039  0.5242
    3TMC2    C113844   0.982   4.217  14.321 -0.5406  0.8204  0.6518
    3TMC2    C213845   0.998   4.160  14.446 -0.1142 -0.0596 -0.1780
    3TMC2    C313846   1.125   4.123  14.480  0.5115 -0.0089  0.2243
    3TMC2    C413847   1.081   4.232  14.231  0.2921  0.2738 -0.6648
    3TMC2    C513848   1.204   4.179  14.275  0.5286 -0.5437  0.1054
    3TMC2    C613849   1.228   4.122  14.395  0.2969  0.4679 -0.4231
    3TMC2     C13850   0.843   4.213  14.271  0.0143 -0.8375 -0.6454
    3TMC2     O13851   0.773   4.147  14.343 -0.1741 -0.3217 -0.1113
    3TMC2     H13852   0.919   4.176  14.518  1.0801  0.4474  1.0279
    3TMC2    H113853   1.061   4.268  14.131  0.6443 -1.4225 -1.3401
    3TMC2    H213854   1.320   4.072  14.419 -0.0001 -0.2856 -0.8574
    3TMC2    C713855   1.320   4.198  14.191 -0.1488 -0.7447 -0.5543
    3TMC2    C813856   1.159   4.123  14.626  0.2068 -0.0276 -0.6448
    3TMC2    O113857   1.397   4.104  14.186  0.3309 -0.0447  1.0449
    3TMC2    O213858   1.267   4.166  14.661  0.2928 -0.6105  0.0882
    3TMC2    O513859   1.049   4.095  14.692 -0.2988 -0.3591  0.1408
    3TMC2    H513860   0.982   4.052  14.635  1.1262  0.4234 -2.1549
    4MPD2     C13861   0.709   0.438  13.416 -0.7864  0.2130 -0.3588
    4MPD2    C113862   0.836   0.444  13.362 -0.4001  0.1573 -0.0956
    4MPD2    C213863   0.945   0.442  13.448  0.2121 -0.4540  0.1690
    4MPD2    C313864   0.932   0.429  13.582  0.0798 -0.7840  0.3354
    4MPD2    C413865   0.805   0.411  13.631 -0.4024 -0.2868  0.0801
    4MPD2    C513866   0.693   0.426  13.551 -0.5779  0.2694 -0.0240
    4MPD2     H13867   1.045   0.444  13.408  0.1058  1.2874 -0.0294
    4MPD2    H113868   0.791   0.412  13.738  2.7618  2.5254  0.4648
    4MPD2    H213869   0.617   0.436  13.360 -2.7638  0.9425  2.8568
    4MPD2    H313870   0.597   0.417  13.600  1.1548 -2.5448  2.8854
    4MPD2     N13871   1.050   0.433  13.656  0.0306 -0.3273 -0.3282
    4MPD2    H513872   1.128   0.437  13.591 -0.4804 -0.1559 -0.9277
    4MPD2    N113873   0.855   0.449  13.222 -0.4250  0.2327  0.6078
    4MPD2    H713874   0.779   0.473  13.160 -1.7661 -0.3407  2.0343
    5TCq2    C113875   1.065   0.403  13.789 -0.1040 -0.0382 -0.5832
    5TCq2    O213876   0.981   0.361  13.866  0.3788 -0.2416  0.3030
    5TCq2    C213877   1.208   0.386  13.821  0.1527  0.2254 -0.2147
    5TCq2    C313878   1.307   0.431  13.742  0.0200  0.1078  0.1335
    5TCq2    C413879   1.425   0.353  13.743  0.0917  0.0592  0.7312
    5TCq2    C513880   1.442   0.248  13.825 -0.1093 -0.2374 -0.7118
    5TCq2    C613881   1.347   0.221  13.924 -0.1897 -0.1449 -0.0015
    5TCq2    C713882   1.229   0.291  13.917 -0.5804 -0.2990  0.5796
    5TCq2    C813883   1.348   0.088  13.979  0.4256  0.4121 -0.5685
    5TCq2    O413884   1.276   0.062  14.075  0.0329  0.2109 -0.5590
    5TCq2    C913885   1.537   0.380  13.647  0.3963  0.3207  0.1233
    5TCq2    O513886   1.640   0.314  13.668  0.4751  0.3564 -0.7135
    5TCq2    O613887   1.510   0.448  13.541  0.3358 -0.1688 -0.3099
    5TCq2    H213888   1.293   0.517  13.678  0.8827 -1.3258 -1.9883
    5TCq2    H313889   1.533   0.189  13.825  0.3988  0.5685 -2.6083
    5TCq2    H413890   1.148   0.264  13.984 -1.1980 -0.9419 -0.4225
    6MPD1     C13891   0.850   1.381  11.587 -0.5938 -0.0111  0.5698
    6MPD1    C113892   0.748   1.397  11.673 -0.5550 -0.1588  0.1967
    6MPD1    C213893   0.769   1.371  11.806 -0.2838  0.0074  0.5908
    6MPD1    C313894   0.897   1.346  11.854 -0.9183 -0.3972  0.0460
    6MPD1    C413895   0.999   1.332  11.759  0.5123 -0.2364 -0.2887
    6MPD1    C513896   0.978   1.345  11.627 -0.2024  0.3519 -0.0363
    6MPD1     H13897   0.680   1.349  11.864  0.2446 -1.7185  0.7668
    6MPD1    H113898   1.094   1.289  11.790  1.2133 -0.3056 -2.5470
    6MPD1    H213899   0.837   1.399  11.481 -0.1666  0.1050  0.5396
    6MPD1    H313900   1.055   1.325  11.554  2.3611  2.3606  2.1161
    6MPD1     N13901   0.922   1.325  11.991 -0.0157  0.2977  1.2097
    6MPD1    H513902   1.014   1.286  12.011 -0.1051  0.5944  2.1670
    6MPD1    N113903   0.618   1.416  11.624  0.5672  0.6807 -0.6349
    6MPD1    H613904   0.556   1.470  11.684  0.1423  0.3128 -0.7417
    6MPD1    H713905   0.620   1.465  11.535  0.5721  1.5976 -0.1355
    7MPD2     C13906   0.580   1.111  12.778  0.1148  0.4606 -0.4358
    7MPD2    C113907   0.662   1.042  12.691 -0.1306 -0.0944  0.5044
    7MPD2    C213908   0.699   0.912  12.719 -0.1932  0.5824 -0.1677
    7MPD2    C313909   0.661   0.845  12.828 -0.0688  0.2846  0.5118
    7MPD2    C413910   0.577   0.912  12.921 -0.0877 -0.2385 -0.5189
    7MPD2    C513911   0.538   1.038  12.884 -0.5103  0.0857  0.1379
    7MPD2     H13912   0.770   0.868  12.649  0.8313  3.5041 -0.9320
    7MPD2    H113913   0.536   0.867  13.011 -1.7941  1.3649 -0.5057
    7MPD2    H213914   0.546   1.212  12.761 -1.2723  0.0118 -0.2977
    7MPD2    H313915   0.468   1.087  12.951 -1.8785 -2.7600  0.7679
    7MPD2     N13916   0.711   0.719  12.861 -0.1303 -0.3544 -0.2599
    7MPD2    H513917   0.692   0.688  12.956  0.8126 -1.9973 -0.5983
    7MPD2    N113918   0.734   1.110  12.592 -0.1064 -0.2196  0.2407
    7MPD2    H713919   0.804   1.058  12.541 -0.4883  0.2050 -0.7199
    8TMC3    C113920   0.831   0.514  12.833  0.3088 -0.0864  0.1741
    8TMC3    C213921   0.846   0.506  12.964  0.4115 -1.0117  0.7702
    8TMC3    C313922   0.965   0.453  13.013 -0.5721 -0.2196 -0.0868
    8TMC3    C413923   0.918   0.443  12.751  0.3708  0.4011 -0.0830
    8TMC3    C513924   1.037   0.400  12.800 -0.1616 -0.4609 -0.0754
    8TMC3    C613925   1.068   0.410  12.933 -0.3400  0.0917  0.3473
    8TMC3     C13926   0.787   0.641  12.778  0.2636  1.3067  0.7477
    8TMC3     O13927   0.821   0.659  12.660  0.2934  0.1255  0.5079
    8TMC3     H13928   0.773   0.556  13.028  0.0722 -0.8109  0.2267
    8TMC3    H113929   0.888   0.427  12.648  0.8380 -2.7551  0.2662
    8TMC3    H213930   1.163   0.369  12.965 -0.5858 -0.7183  0.0361
    8TMC3    C713931   1.149   0.431  12.713  0.8586  0.1390 -0.7089
    8TMC3    C813932   0.973   0.431  13.157 -0.5747 -0.5947 -0.3456
    8TMC3    O113933   1.263   0.396  12.731  0.3225  0.1591 -0.5774
    8TMC3    O213934   1.085   0.407  13.199  0.3190  0.1747  0.4309
    9TMC3    C113935   0.870   1.301  12.220  0.1824  0.8808  0.2727
    9TMC3    C213936   0.985   1.223  12.235 -0.9865 -0.5560 -0.5106
    9TMC3    C313937   1.006   1.162  12.352 -0.3114 -0.1920  0.8153
    9TMC3    C413938   0.789   1.328  12.328  0.6595  0.5787 -0.3380
    9TMC3    C513939   0.823   1.267  12.447  0.2336  0.7235  0.0131
    9TMC3    C613940   0.938   1.188  12.465 -0.8249 -0.0231  0.6570
    9TMC3     C13941   0.835   1.352  12.094 -0.5889  0.0799  0.1186
    9TMC3     O13942   0.736   1.426  12.101 -0.0297  0.0888  0.1463
    9TMC3     H13943   1.041   1.196  12.147  1.5016  1.5787  0.4176
    9TMC3    H113944   0.694   1.378  12.320  1.1203  1.7171  1.2145
    9TMC3    H213945   0.962   1.138  12.558 -0.6375  0.4061  0.8386
    9TMC3    C713946   0.716   1.237  12.543  0.5084  0.2830  0.3711
    9TMC3    C813947   1.122   1.067  12.357 -0.0361 -0.0956 -0.4230
    9TMC3    O113948   0.644   1.329  12.567  0.1796  0.1449  0.5527
    9TMC3    O213949   1.222   1.081  12.288  0.1498 -0.2315  0.6788
   10MPD2     C13950   1.322   0.621  12.535 -0.1805 -0.5448 -0.2933
   10MPD2    C113951   1.189   0.629  12.557 -0.1818  0.2844  0.2034
   10MPD2    C213952   1.114   0.737  12.520  0.0172 -0.1635 -0.3705
   10MPD2    C313953   1.178   0.845  12.463 -0.0899  0.5864 -0.0270
   10MPD2    C413954   1.311   0.838  12.426  0.1790  0.0364  0.4199
   10MPD2    C513955   1.381   0.730  12.467  0.2191  0.0611  0.1503
   10MPD2     H13956   1.007   0.738  12.538 -0.1411  1.6961 -1.4703
   10MPD2    H113957   1.362   0.908  12.360 -0.2591  0.6056  0.6818
   10MPD2    H213958   1.379   0.536  12.571 -0.1078 -0.9259 -1.3177
   10MPD2    H313959   1.486   0.726  12.443  0.0903 -0.7318 -0.2772
   10MPD2     N13960   1.092   0.958  12.435  0.1300 -0.0289 -0.6257
   10MPD2    H513961   0.991   0.951  12.445  0.1327  1.2600  0.2482
   10MPD2    N113962   1.112   0.531  12.626  0.5837  0.2133 -0.3896
   10MPD2    H713963   1.014   0.558  12.634  0.2330 -1.1011 -0.2713
   11MPD2     C13964   1.500   4.317  13.998  0.7782  0.1181 -0.2606
   11MPD2    C113965   1.400   4.385  14.057  0.7578 -0.4235  0.3382
   11MPD2    C213966   1.374   4.514  14.019 -0.1224 -0.6546  0.0418
   11MPD2    C313967   1.443   4.586  13.930  0.1420 -0.5511  0.0900
   11MPD2    C413968   1.543   4.515  13.863 -0.1500  0.8662  0.1231
   11MPD2    C513969   1.573   4.386  13.902 -0.2690  0.0575 -0.0325
   11MPD2     H13970   1.282   4.554  14.060  0.2189  0.8681 -0.6949
   11MPD2    H113971   1.601   4.558  13.783 -1.5147  1.0712 -0.7530
   11MPD2    H213972   1.543   4.223  14.029 -0.5758 -0.3628  0.1272
   11MPD2    H313973   1.651   4.334  13.847 -0.8798 -1.3575  0.4530
   11MPD2     N13974   1.430   4.722  13.910  0.1328  0.4609 -0.3426
   11MPD2    H513975   1.484   0.035  13.833  1.5186  0.5189  0.6645
   11MPD2    N113976   1.306   4.321  14.137 -0.1304 -0.0488 -0.2401
   11MPD2    H713977   1.237   4.384  14.177  0.0721  0.2922 -0.4249
    1MPD1     C13978   2.787   2.333   0.136 -0.3759  0.4660 -0.2155
    1MPD1    C113979   2.786   2.225   0.213 -0.2096  0.0417 -0.2349
    1MPD1    C213980   2.889   2.129   0.198 -0.0896 -0.6238  0.2974
    1MPD1    C313981   2.990   2.133   0.096 -0.0803  0.6835  0.6706
    1MPD1    C413982   2.987   2.245   0.015  0.2792 -0.4490 -0.4280
    1MPD1    C513983   2.893   2.339   0.041  0.3317 -0.2369  0.6351
    1MPD1     H13984   2.898   2.040   0.261 -2.8781 -1.3247 -0.3138
    1MPD1    H113985   3.044   2.253  17.620 -0.8524  0.3847 -1.0629
    1MPD1    H213986   2.721   2.418   0.149 -0.4816  0.1189  1.5027
    1MPD1    H313987   2.892   2.425  17.671 -1.9968 -1.1807 -0.5394
    1MPD1     N13988   3.082   2.037   0.062 -0.0131 -0.4434 -0.0241
    1MPD1    H513989   3.139   2.056  17.678 -2.3945  2.8264 -0.9383
    1MPD1    N113990   2.683   2.202   0.311  0.0661 -0.4139  0.5127
    1MPD1    H613991   2.599   2.252   0.281  0.0291  0.0312  1.3767
    1MPD1    H713992   2.661   2.103   0.322  2.0005 -0.7371  1.4134
    2MPD1     C13993   3.306   1.126   0.483  0.0953  0.2748  0.6489
    2MPD1    C113994   3.219   1.230   0.519  0.3972 -0.0351 -0.9650
    2MPD1    C213995   3.199   1.322   0.421 -0.1136 -0.3611  0.0389
    2MPD1    C313996   3.270   1.334   0.305  0.6618  0.5800 -0.3246
    2MPD1    C413997   3.363   1.236   0.283  1.1041 -0.3782  0.5570
    2MPD1    C513998   3.374   1.133   0.369 -0.0914 -0.3915  0.4510
    2MPD1     H13999   3.128   1.403   0.435  0.7610  0.2475  0.8941
    2MPD1    H114000   3.432   1.233   0.199  1.6358 -2.7384  1.0764
    2MPD1    H214001   3.318   1.037   0.544 -1.2128  0.2494  0.8704
    2MPD1    H314002   3.441   1.061   0.322 -0.1257 -0.3143  0.2839
    2MPD1     N14003   3.234   1.436   0.217 -0.2470  0.2278 -0.0431
    2MPD1    H514004   3.151   1.491   0.234  1.3485  2.4016  0.7479
    2MPD1    N114005   3.129   1.208   0.621  0.4939 -0.5239 -0.0421
    2MPD1    H614006   3.081   1.289   0.660  0.3102  0.1711 -1.6926
    2MPD1    H714007   3.153   1.143   0.696 -2.0935 -0.1380  1.1122
    3TMC3    C114008   3.255   1.596   0.043 -0.1115  0.2052  0.8629
    3TMC3    C214009   3.285   1.615  17.605 -0.0103  0.3353 -0.2036
    3TMC3    C314010   3.265   1.734  17.545  0.6348 -0.0763  0.3348
    3TMC3    C414011   3.208   1.701   0.115 -0.2552  0.3692 -0.1541
    3TMC3    C514012   3.196   1.828   0.053 -0.6868  0.0029  0.1163
    3TMC3    C614013   3.221   1.844  17.615  1.9363 -0.4656 -0.4957
    3TMC3     C14014   3.297   1.475   0.105  0.3566  0.3902 -0.4754
    3TMC3     O14015   3.387   1.413   0.052  0.3930  0.0722  0.6473
    3TMC3     H14016   3.339   1.535  17.557  1.0014  0.7160  0.3106
    3TMC3    H114017   3.189   1.685   0.220  0.4305  1.0806  0.0773
    3TMC3    H214018   3.213   1.935  17.556  0.7456 -1.5470 -2.0215
    3TMC3    C714019   3.100   1.917   0.126 -0.6777  0.3212 -0.3395
    3TMC3    C814020   3.330   1.761  17.417 -0.5001 -0.0795 -0.3293
    3TMC3    O114021   3.060   1.882   0.237  0.2510  0.5591 -0.1286
    3TMC3    O214022   3.380   1.871  17.399 -0.1698 -0.3273  0.1788
    4MPD1     C14023   3.404   1.626  16.930  0.5402  0.1685 -0.1039
    4MPD1    C114024   3.351   1.518  16.997  0.3160  0.6872  0.0590
    4MPD1    C214025   3.320   1.535  17.133 -0.1566  0.5777 -0.2577
    4MPD1    C314026   3.352   1.654  17.198  0.1975  0.0457 -0.0331
    4MPD1    C414027   3.425   1.750  17.130  0.5701  0.0248  0.0380
    4MPD1    C514028   3.448   1.736  16.997 -0.2452  0.7003 -0.0732
    4MPD1     H14029   3.263   1.461  17.188 -2.1552  2.4000  0.1145
    4MPD1    H114030   3.463   1.836  17.184  1.0515  0.9656 -1.8210
    4MPD1    H214031   3.412   1.632  16.822 -1.7953  0.8117 -0.2242
    4MPD1    H314032   3.492   1.817  16.939  1.3521  2.3083  3.4001
    4MPD1     N14033   3.319   1.654  17.335  0.3563  0.0407  0.1074
    4MPD1    H514034   3.270   1.568  17.359 -0.2774  0.6899  1.1619
    4MPD1    N114035   3.299   1.407  16.931 -0.2691 -0.0631  0.1874
    4MPD1    H614036   3.278   1.325  16.987  0.2626 -1.7388 -2.0597
    4MPD1    H714037   3.351   1.388  16.845  0.1667 -0.7508  0.6113
    1TCq1    O114038   0.278   0.575  11.491  0.0493  0.3779  0.1946
    1TCq1    C114039   0.208   0.643  11.581 -0.2827 -0.8829  0.3967
    1TCq1    O214040   0.228   0.641  11.702 -0.0731  0.8199  0.4888
    1TCq1    C214041   0.111   0.720  11.511 -0.6356  0.1979 -0.0297
    1TCq1    C314042   0.069   0.691  11.383 -0.4884 -0.3551 -0.2313
    1TCq1    C414043   4.722   0.788  11.320 -0.0128 -0.5048 -0.1913
    1TCq1    C514044   4.684   0.902  11.384  0.2308  0.0715 -0.1161
    1TCq1    C614045   0.008   0.930  11.507 -0.3485 -0.9147 -0.7071
    1TCq1    C714046   0.082   0.839  11.573  0.4850  0.3675 -0.0868
    1TCq1    C814047   4.691   1.056  11.573  0.0461 -0.2215 -0.4753
    1TCq1    O414048   4.702   1.078  11.691  0.0915  0.5930 -0.6995
    1TCq1    C914049   4.634   0.758  11.211  0.0165 -0.5214  0.6733
    1TCq1    O514050   4.587   0.860  11.149 -0.5021  0.0042 -0.0628
    1TCq1    O614051   4.628   0.642  11.164 -0.0327 -0.2804 -0.1350
    1TCq1    H114052   0.270   0.602  11.396  0.1824  0.8943  0.3292
    1TCq1    H214053   0.064   0.590  11.344 -0.3390 -1.1938  1.9110
    1TCq1    H314054   4.611   0.966  11.337  0.3762  1.0765  1.0189
    1TCq1    H414055   0.125   0.860  11.669  2.7907  0.1486 -1.0784
    2MPD1     C14056   4.520   1.540  11.513 -0.3211 -0.3740  0.0689
    2MPD1    C114057   4.513   1.469  11.391 -0.2072  0.1943  0.2514
    2MPD1    C214058   4.539   1.334  11.383  0.0170 -0.1177  0.4710
    2MPD1    C314059   4.577   1.273  11.498  0.3895 -0.1228  0.6311
    2MPD1    C414060   4.569   1.337  11.624 -0.0632 -0.8130  0.0475
    2MPD1    C514061   4.534   1.468  11.629  0.8258 -0.0724  0.1290
    2MPD1     H14062   4.547   1.280  11.289 -0.1755 -1.0524  0.9909
    2MPD1    H114063   4.607   1.287  11.713 -1.1813 -1.1608  0.3279
    2MPD1    H214064   4.504   1.647  11.519  0.8344 -0.3181  1.9623
    2MPD1    H314065   4.528   1.516  11.726 -0.9585 -0.7838  0.3772
    2MPD1     N14066   4.632   1.144  11.479  0.3948 -0.0347 -0.2979
    2MPD1    H514067   4.644   1.113  11.383  2.5681 -1.8289  0.5418
    2MPD1    N114068   4.511   1.543  11.274 -0.8894 -0.0715 -0.1953
    2MPD1    H614069   4.446   1.621  11.272 -1.0477 -0.1912  0.1775
    2MPD1    H714070   4.485   1.492  11.190  0.2485  0.3428 -0.7973
    1TCq1    O114071   0.146   3.113   1.715 -0.2469 -0.1561  0.6938
    1TCq1    C114072   0.025   3.066   1.668 -0.9966 -0.3605  0.1568
    1TCq1    O214073   4.711   2.954   1.675  0.2134 -0.0157 -0.4680
    1TCq1    C214074   4.678   3.172   1.598  0.0174 -0.1119  0.5784
    1TCq1    C314075   0.022   3.279   1.548 -0.1037 -0.2273  1.0404
    1TCq1    C414076   4.676   3.357   1.462  0.2327 -0.3437 -0.2398
    1TCq1    C514077   4.539   3.357   1.463 -0.3428  0.0637  0.2748
    1TCq1    C614078   4.473   3.245   1.515  0.9098  0.7080 -0.0238
    1TCq1    C714079   4.546   3.154   1.583 -0.1437 -0.1956  0.2678
    1TCq1    C814080   4.333   3.244   1.544  0.0823 -0.3870  0.2670
    1TCq1    O414081   4.288   3.173   1.635  1.0445 -0.3974 -0.1333
    1TCq1    C914082   0.011   3.493   1.436  0.5404  0.2956  0.0238
    1TCq1    O514083   4.649   3.584   1.403  0.8324  0.5556 -0.3592
    1TCq1    O614084   0.125   3.514   1.482 -0.2034  0.3377 -0.5544
    1TCq1    H114085   0.156   3.210   1.705  1.4268 -0.0837  2.9176
    1TCq1    H214086   0.131   3.276   1.546 -0.0733  1.1927  0.5691
    1TCq1    H314087   4.479   3.436   1.419 -1.6065 -0.8922  0.2735
    1TCq1    H414088   4.503   3.056   1.604  0.9303 -0.9140 -0.8491
    2MPD1     C14089   3.835   3.328   1.448 -0.3411 -0.1759 -0.5772
    2MPD1    C114090   3.906   3.372   1.337  0.8910  0.1643  0.0277
    2MPD1    C214091   4.042   3.362   1.345  0.0017  0.6639  1.0039
    2MPD1    C314092   4.117   3.320   1.453 -0.0935 -0.6365  0.1747
    2MPD1    C414093   4.036   3.283   1.564 -0.2844 -0.3764  0.3276
    2MPD1    C514094   3.897   3.285   1.564  0.5918 -0.1914 -0.6562
    2MPD1     H14095   4.099   3.382   1.255  1.1484  0.4321  1.6839
    2MPD1    H114096   4.082   3.256   1.659 -1.2808 -2.3270  0.2501
    2MPD1    H214097   3.727   3.328   1.434 -0.6181 -0.3768  1.5471
    2MPD1    H314098   3.836   3.241   1.641  0.3735  2.2045  0.5498
    2MPD1     N14099   4.259   3.320   1.453 -0.0285  0.3432  0.0722
    2MPD1    H514100   4.303   3.340   1.364  0.6587 -0.9951  0.1265
    2MPD1    N114101   3.833   3.411   1.223  0.1774  0.2068  0.4348
    2MPD1    H614102   3.740   3.448   1.240  0.1840 -0.0172  0.9497
    2MPD1    H714103   3.884   3.466   1.154 -2.5141  1.1181 -0.8131
    1MPD1     C14104   1.768   1.092  11.641 -0.2349  0.6836  0.5480
    1MPD1    C114105   1.872   1.051  11.552 -0.1803 -1.6984 -0.6151
    1MPD1    C214106   1.914   1.147  11.458  0.5914  0.2466 -0.2087
    1MPD1    C314107   1.842   1.254  11.422  0.1644 -0.1450  0.4968
    1MPD1    C414108   1.739   1.288  11.504  0.2008 -0.3980 -0.5617
    1MPD1    C514109   1.703   1.209  11.620  0.1666 -0.3989  0.5982
    1MPD1     H14110   2.013   1.123  11.420  0.9521 -0.8970  1.4539
    1MPD1    H114111   1.658   1.352  11.471 -0.4012 -1.0932 -0.4196
    1MPD1    H214112   1.745   1.045  11.735  1.5823 -1.8002 -0.2437
    1MPD1    H314113   1.629   1.252  11.687 -0.2493 -3.4264  2.0885
    1MPD1     N14114   1.870   1.340  11.319  0.0516  0.2942  1.0348
    1MPD1    H514115   1.807   1.419  11.309  0.3424  0.7241  2.6806
    1MPD1    N114116   1.951   0.948  11.591 -0.2303  0.2971 -0.4225
    1MPD1    H614117   1.884   0.882  11.630  0.5920  0.2168  0.8487
    1MPD1    H714118   1.997   0.902  11.513  0.9659  0.1596  0.3687
    2MPD1     C14119   1.009   1.353  11.192 -0.5366 -0.2194  0.5848
    2MPD1    C114120   0.946   1.239  11.142 -0.7220 -0.2453  0.0827
    2MPD1    C214121   1.022   1.158  11.054 -0.1373  0.3035  0.6295
    2MPD1    C314122   1.150   1.191  11.009  0.7691  0.6135 -0.2136
    2MPD1    C414123   1.206   1.312  11.050 -0.7004 -0.1408  0.2659
    2MPD1    C514124   1.135   1.391  11.136 -0.6141  0.3823 -0.8424
    2MPD1     H14125   0.983   1.064  11.016  1.7381  0.7531 -2.3631
    2MPD1    H114126   1.304   1.343  11.016 -1.0293  0.1663 -0.4044
    2MPD1    H214127   0.958   1.424  11.257 -0.9178  1.4211 -1.4991
    2MPD1    H314128   1.172   1.485  11.176 -1.6867 -0.0293  1.1346
    2MPD1     N14129   1.225   1.119  10.915 -0.2075  0.1991  0.5741
    2MPD1    H514130   1.313   1.167  10.897  0.2007 -0.8990 -0.3701
    2MPD1    N114131   0.826   1.186  11.192  0.2005  0.6018 -0.5037
    2MPD1    H614132   0.777   1.130  11.122 -1.4019 -2.0893  2.7855
    2MPD1    H714133   0.767   1.266  11.215  1.3402  1.3644 -0.2444
    3MPD1     C14134   1.029   0.427  10.155  0.0010  0.2913 -0.0542
    3MPD1    C114135   1.027   0.404  10.294 -0.1941 -0.5312 -0.5948
    3MPD1    C214136   1.067   0.498  10.378  0.4048  0.0791  0.2324
    3MPD1    C314137   1.122   0.622  10.333  0.2921 -0.4704  0.0466
    3MPD1    C414138   1.122   0.652  10.198 -0.2300  0.1735 -0.0461
    3MPD1    C514139   1.084   0.551  10.110  0.0774 -0.3768 -0.1223
    3MPD1     H14140   1.072   0.485  10.485  1.4927  1.9053  0.4182
    3MPD1    H114141   1.161   0.745  10.158 -0.5646 -0.2619 -1.3845
    3MPD1    H214142   0.987   0.360  10.081  2.3602 -0.3603 -0.8127
    3MPD1    H314143   1.067   0.575  10.006  0.2486  0.6898  0.0945
    3MPD1     N14144   1.180   0.705  10.438 -0.1620  0.5644 -0.3422
    3MPD1    H514145   1.181   0.659  10.528  1.6848  0.8926 -0.2116
    3MPD1    N114146   0.947   0.293  10.343 -0.6222 -0.2796  0.6128
    3MPD1    H614147   0.975   0.275  10.439  1.2656 -0.8892 -0.0660
    3MPD1    H714148   0.856   0.334  10.365  1.4557  2.6793  3.7650
    4MPD2     C14149   1.664   1.569  10.619 -0.7065  0.0508 -0.2469
    4MPD2    C114150   1.786   1.629  10.633 -0.5871 -0.0713 -0.2114
    4MPD2    C214151   1.866   1.649  10.515  0.2057 -0.5569  0.5471
    4MPD2    C314152   1.817   1.611  10.391 -0.3637  0.0888  0.3630
    4MPD2    C414153   1.696   1.548  10.386  0.2655 -0.3958 -0.2748
    4MPD2    C514154   1.617   1.533  10.495  0.3050 -0.1753  0.2182
    4MPD2     H14155   1.967   1.688  10.524 -0.0370  0.4568 -1.2587
    4MPD2    H114156   1.654   1.518  10.291  1.3653  0.5894 -1.0817
    4MPD2    H214157   1.587   1.563  10.695 -1.7249  1.2299 -1.1904
    4MPD2    H314158   1.523   1.479  10.485  0.7028 -0.8193 -0.0259
    4MPD2     N14159   1.904   1.610  10.278  0.4012 -0.5840  0.0773
    4MPD2    H514160   1.883   1.546  10.202 -1.1323  0.7267 -0.5965
    4MPD2    N114161   1.848   1.651  10.759  0.4772 -0.2579 -0.0390
    4MPD2    H714162   1.946   1.677  10.749 -0.2863  2.9250  0.8208
    5TMC3    C114163   1.896   1.590  10.987  0.1491 -0.3435 -0.6603
    5TMC3    C214164   1.884   1.483  11.070 -0.5877 -0.2139 -0.5991
    5TMC3    C314165   1.985   1.448  11.150 -0.1322 -0.2854 -0.0155
    5TMC3    C414166   2.015   1.663  10.980 -0.3574 -0.5879 -0.0315
    5TMC3    C514167   2.119   1.623  11.060  0.0373 -0.3737  0.4803
    5TMC3    C614168   2.107   1.516  11.145 -0.2351  0.4133 -0.0981
    5TMC3     C14169   1.797   1.596  10.878  0.5968 -0.3374 -0.6348
    5TMC3     O14170   1.695   1.534  10.894  0.0585 -0.2624 -0.0008
    5TMC3     H14171   1.790   1.434  11.088  0.0950 -0.7008  1.5749
    5TMC3    H114172   2.024   1.741  10.905  1.2172  1.1170  1.9131
    5TMC3    H214173   2.189   1.489  11.210  0.4550  0.6187 -0.8908
    5TMC3    C714174   2.235   1.612  10.978  0.6098 -0.0017  0.1497
    5TMC3    C814175   1.977   1.334  11.236  0.3033  0.4892 -0.2281
    5TMC3    O114176   2.249   1.689  10.883 -0.4007  0.2931  0.1386
    5TMC3    O214177   2.076   1.261  11.240  0.2596  0.4147 -0.7088
    6TMC3    C114178   1.291   0.955  10.759  0.1027  0.3206  0.5927
    6TMC3    C214179   1.242   0.880  10.656  0.4043  0.4908 -0.3558
    6TMC3    C314180   1.317   0.857  10.543  0.2749 -0.5900  0.1891
    6TMC3    C414181   1.418   1.008  10.752  0.4274 -0.7162  0.3400
    6TMC3    C514182   1.493   0.982  10.642 -0.8057 -0.3777  0.5537
    6TMC3    C614183   1.436   0.919  10.532 -0.1726  0.4091 -0.1728
    6TMC3     C14184   1.200   0.993  10.867 -0.7993 -0.4004  0.2382
    6TMC3     O14185   1.114   0.908  10.894 -0.2958  0.4479 -0.0369
    6TMC3     H14186   1.144   0.836  10.669  0.8562 -0.2624  0.4812
    6TMC3    H114187   1.444   1.086  10.824 -1.2314 -0.8811  1.1228
    6TMC3    H214188   1.499   0.892  10.448 -1.2439 -1.1502 -0.4628
    6TMC3    C714189   1.616   1.055  10.611 -0.1015  0.2592  0.0593
    6TMC3    C814190   1.260   0.816  10.421  0.0774 -0.3218  0.1980
    6TMC3    O114191   1.645   1.063  10.491  0.1341 -0.0803 -0.5574
    6TMC3    O214192   1.280   0.875  10.313 -0.2665 -0.2241 -0.5018
    7MPD2     C14193   2.507   1.265  10.700  0.4373  0.3821  0.5963
    7MPD2    C114194   2.447   1.378  10.655 -0.2598  0.2401  0.3101
    7MPD2    C214195   2.379   1.459  10.750 -0.1967 -0.3433 -0.1690
    7MPD2    C314196   2.370   1.418  10.886  0.6231  0.5434  0.5718
    7MPD2    C414197   2.437   1.296  10.925 -0.0050  0.0592  0.4782
    7MPD2    C514198   2.506   1.231  10.831  0.1166 -1.0497  0.2551
    7MPD2     H14199   2.320   1.545  10.723  2.0165  1.2260 -0.0425
    7MPD2    H114200   2.440   1.269  11.030  0.5094  0.8888  0.6746
    7MPD2    H214201   2.557   1.187  10.644 -1.9612  1.0309 -2.4568
    7MPD2    H314202   2.562   1.149  10.876  1.8640  0.3489  0.6524
    7MPD2     N14203   2.293   1.486  10.986  0.0518 -1.8501  0.0636
    7MPD2    H514204   2.270   1.431  11.068  2.8238  0.0194  2.1071
    7MPD2    N114205   2.440   1.411  10.517 -0.0841 -0.7425  0.7324
    7MPD2    H714206   2.470   1.349  10.442 -0.5439 -0.6632  0.4827
    8TMC3    C114207   2.311   1.498  10.342  0.3040  0.9560 -0.4425
    8TMC3    C214208   2.251   1.377  10.342 -0.0433  0.4072 -1.1865
    8TMC3    C314209   2.140   1.359  10.270  0.3245 -0.0915  0.7608
    8TMC3    C414210   2.244   1.608  10.289 -0.1044 -0.0627  0.1537
    8TMC3    C514211   2.130   1.590  10.220 -0.5887 -0.0003 -0.1315
    8TMC3    C614212   2.080   1.460  10.198  0.0251 -0.0667  0.1469
    8TMC3     C14213   2.389   1.524  10.467  0.3673  0.0488 -0.0075
    8TMC3     O14214   2.381   1.633  10.522 -0.3647 -0.1004  0.1703
    8TMC3     H14215   2.302   1.291  10.384 -0.7637  1.3620  1.6112
    8TMC3    H114216   2.280   1.710  10.295 -3.3694  1.0439  1.2109
    8TMC3    H214217   1.996   1.440  10.133 -0.4823  0.9683  0.4941
    8TMC3    C714218   2.026   1.676  10.266 -0.3794 -0.1943 -0.1807
    8TMC3    C814219   2.040   1.298  10.351  0.4056  0.3098 -0.7899
    8TMC3    O114220   2.056   1.776  10.326  0.1964 -0.3279 -0.2384
    8TMC3    O214221   1.930   1.266  10.303 -0.4950 -0.3299  0.0280
    9MPD2     C14222   2.067   1.276  10.717  0.1721 -1.0942 -1.1614
    9MPD2    C114223   2.009   1.254  10.597 -0.3086 -0.1046  0.7682
    9MPD2    C214224   1.881   1.196  10.592 -0.7182  0.0253  0.1444
    9MPD2    C314225   1.810   1.172  10.709  0.2430 -0.0536 -0.3376
    9MPD2    C414226   1.878   1.192  10.834 -0.5508  0.6643 -0.3757
    9MPD2    C514227   2.004   1.244  10.837 -0.4258  0.1374  0.3503
    9MPD2     H14228   1.833   1.175  10.496 -1.5218 -0.5322  0.6655
    9MPD2    H114229   1.842   1.145  10.925 -2.4390  0.4449 -1.2380
    9MPD2    H214230   2.172   1.296  10.736  0.1599 -1.3497 -0.8210
    9MPD2    H314231   2.064   1.242  10.927  2.3859  2.7468 -1.4483
    9MPD2     N14232   1.687   1.105  10.715 -0.0533 -0.3231  0.0285
    9MPD2    H514233   1.651   1.081  10.807 -0.6066  1.2899  0.2362
    9MPD2    N114234   2.087   1.284  10.484  0.3389  0.4766 -0.1716
    9MPD2    H714235   2.179   1.318  10.508  0.5184 -1.3312  1.6804
    1MPD1     C14236   1.289   0.557  15.023 -0.0980  0.0593  0.5603
    1MPD1    C114237   1.272   0.537  15.160  0.0080  0.5046  0.4511
    1MPD1    C214238   1.255   0.409  15.206  0.1413 -0.2521 -0.8080
    1MPD1    C314239   1.238   0.296  15.120  0.0051  0.6132  0.2067
    1MPD1    C414240   1.230   0.324  14.985 -0.2082  0.3839  0.1397
    1MPD1    C514241   1.264   0.447  14.946  0.1802 -0.1417 -0.5831
    1MPD1     H14242   1.251   0.401  15.315  1.6049 -1.7493 -0.8688
    1MPD1    H114243   1.218   0.245  14.912 -0.7976  0.5221  0.0909
    1MPD1    H214244   1.304   0.654  14.977  0.5718 -0.4588 -0.3037
    1MPD1    H314245   1.242   0.472  14.843  0.7198 -1.0578 -0.9265
    1MPD1     N14246   1.244   0.163  15.165 -0.5770 -0.3327 -0.2272
    1MPD1    H514247   1.250   0.091  15.094 -2.8773 -0.5203 -0.2530
    1MPD1    N114248   1.305   0.635  15.255 -0.0386  0.4460 -0.2893
    1MPD1    H614249   1.285   0.723  15.207 -0.1354 -0.2512 -1.5268
    1MPD1    H714250   1.250   0.622  15.339 -3.0037 -1.3377 -2.5004
    2MPD1     C14251   1.392   4.549  16.123 -0.1317 -0.1995  0.3321
    2MPD1    C114252   1.316   4.648  16.067  0.7977 -0.6319 -0.0864
    2MPD1    C214253   1.299   4.649  15.937  0.1664 -0.1869 -0.0878
    2MPD1    C314254   1.341   4.557  15.850 -0.4065  0.4023 -0.6315
    2MPD1    C414255   1.425   4.457  15.908 -0.4477  0.2223  0.0078
    2MPD1    C514256   1.452   4.455  16.040 -0.5128  0.1090  0.8860
    2MPD1     H14257   1.239   0.007  15.897  2.8555  1.7493 -0.1571
    2MPD1    H114258   1.468   4.382  15.842  0.3739  0.4428  0.2945
    2MPD1    H214259   1.416   4.543  16.228 -1.4210  0.3128  0.6547
    2MPD1    H314260   1.508   4.374  16.085  0.6949 -0.1211 -1.0574
    2MPD1     N14261   1.314   4.563  15.711 -0.2617  0.8094  0.5444
    2MPD1    H514262   1.257   4.640  15.679 -2.1097 -0.6359  0.4277
    2MPD1    N114263   1.245   0.017  16.141  0.3953  0.2562 -0.2037
    2MPD1    H614264   1.269   0.004  16.239 -0.2827  2.0159  0.2057
    2MPD1    H714265   1.283   0.109  16.118 -0.3441 -0.2169 -3.3004
    3TCq2    C114266   1.365   4.481  15.614  0.5708 -0.5453  0.1201
    3TCq2    O214267   1.446   4.389  15.612 -0.1806  0.5075  0.0274
    3TCq2    C214268   1.356   4.536  15.477  0.6313 -0.4060 -0.1116
    3TCq2    C314269   1.392   4.456  15.370 -0.4927 -0.7244  0.8601
    3TCq2    C414270   1.395   4.509  15.248  0.0935 -0.0974  0.4243
    3TCq2    C514271   1.339   4.628  15.223 -0.0124  0.6936  0.1763
    3TCq2    C614272   1.297   4.707  15.323  0.3808  0.3077 -0.3555
    3TCq2    C714273   1.303   4.660  15.451 -0.2579  0.0110 -0.6070
    3TCq2    C814274   1.249   0.120  15.299  0.3465 -0.6633 -0.2877
    3TCq2    O414275   1.226   0.177  15.400 -0.1824  0.6427 -0.2034
    3TCq2    C914276   1.447   4.421  15.146 -0.6816  0.3879  0.0329
    3TCq2    O514277   1.486   4.306  15.176  0.2660 -0.5683 -0.0321
    3TCq2    O614278   1.468   4.471  15.028  0.2322 -0.5469  0.4584
    3TCq2    H214279   1.439   4.360  15.387  0.2202 -0.2247  1.7058
    3TCq2    H314280   1.343   4.658  15.118 -0.5545  1.8209  0.4759
    3TCq2    H414281   1.278   0.000  15.536  1.3084  2.3100 -1.8903
    1TCq1    O114282   4.023   3.683  12.892  0.3535 -0.1146  0.1650
    1TCq1    C114283   4.090   3.604  12.809 -0.5094 -0.0029  0.1452
    1TCq1    O214284   4.134   3.634  12.698  0.2403  0.0196  0.7421
    1TCq1    C214285   4.175   3.528  12.901 -0.4572 -0.2302  0.7954
    1TCq1    C314286   4.135   3.407  12.943  0.2443  0.3695 -0.1920
    1TCq1    C414287   4.215   3.330  13.021 -0.4701 -0.0808 -0.5283
    1TCq1    C514288   4.337   3.376  13.058  0.1686  0.6534  0.8000
    1TCq1    C614289   4.380   3.494  13.009 -0.1734  0.3723 -1.4387
    1TCq1    C714290   4.306   3.567  12.928  0.0215  0.0070 -0.1324
    1TCq1    C814291   4.505   3.562  13.048  0.8916 -0.1185 -0.2768
    1TCq1    O414292   4.541   3.646  12.961  0.3143  0.1252 -0.4020
    1TCq1    C914293   4.169   3.198  13.070 -0.0419  0.0139  0.1671
    1TCq1    O514294   4.253   3.131  13.137 -0.3374  0.6346 -0.0893
    1TCq1    O614295   4.047   3.173  13.059  0.2598  0.3124  0.2064
    1TCq1    H114296   4.011   3.638  12.979 -0.7405 -0.1998 -0.0315
    1TCq1    H214297   4.035   3.377  12.912 -0.3173  2.1637 -0.0952
    1TCq1    H314298   4.397   3.313  13.122 -2.7539 -1.9993  0.9077
    1TCq1    H414299   4.336   3.667  12.897  2.0406 -0.5431  0.0561
    2MPD2     C14300   0.039   3.654  13.143  0.3463  0.3166  0.4715
    2MPD2    C114301   4.666   3.592  13.229 -0.1899  0.1508 -0.7782
    2MPD2    C214302   4.691   3.585  13.362 -0.1376 -0.5470  0.1839
    2MPD2    C314303   0.090   3.630  13.410  0.1487  0.4592 -0.2697
    2MPD2    C414304   0.185   3.699  13.331 -0.3603  1.0043  1.0270
    2MPD2    C514305   0.153   3.709  13.198  0.6758 -0.1347  0.8950
    2MPD2     H14306   4.618   3.549  13.433  2.3282 -0.7788  2.5964
    2MPD2    H114307   0.270   3.754  13.369  0.8538 -1.3021  1.6456
    2MPD2    H214308   0.029   3.668  13.036 -2.9375  3.2812  1.1662
    2MPD2    H314309   0.213   3.775  13.136  1.9132  0.8797  3.1445
    2MPD2     N14310   0.111   3.617  13.548 -0.2203 -0.1157  0.6323
    2MPD2    H514311   0.030   3.593  13.604  0.7933 -2.0459  1.2778
    2MPD2    N114312   4.545   3.542  13.178  0.1220  0.9222  0.8196
    2MPD2    H714313   4.486   3.489  13.240  2.4734 -1.5679  0.9517
    3TCq1    O114314   0.000   3.403  13.980 -0.7365  0.2553  0.0639
    3TCq1    C114315   0.014   3.540  14.004  0.2185  0.2994 -0.1552
    3TCq1    O214316   4.649   3.628  14.010 -0.0457 -0.3703 -0.0608
    3TCq1    C214317   0.140   3.576  13.942  0.2741  0.3012 -0.0200
    3TCq1    C314318   0.258   3.546  13.998 -1.0775 -0.0484 -0.0867
    3TCq1    C414319   0.366   3.564  13.922  0.2135 -0.2859 -0.2710
    3TCq1    C514320   0.360   3.599  13.797 -0.3501  0.0817  0.0782
    3TCq1    C614321   0.245   3.642  13.749  0.2931  0.6552  0.0282
    3TCq1    C714322   0.132   3.633  13.820 -0.0368  0.8049 -0.2047
    3TCq1    C814323   0.236   3.649  13.610  0.1738 -0.1311 -0.1918
    3TCq1    O414324   0.351   3.656  13.562  0.1526 -0.1533 -0.3767
    3TCq1    C914325   0.491   3.542  13.988  0.5917  0.4252 -0.0535
    3TCq1    O514326   0.494   3.525  14.112  0.5011 -0.0188  0.0503
    3TCq1    O614327   0.598   3.568  13.925  0.3282 -0.2296 -0.3023
    3TCq1    H114328   0.078   3.370  13.931 -0.8323 -1.5431  1.1314
    3TCq1    H214329   0.267   3.529  14.105 -5.1910  2.0755  0.5710
    3TCq1    H314330   0.456   3.610  13.747  0.0817  3.0340  1.5390
    3TCq1    H414331   0.054   3.702  13.787 -0.7534  2.1588  4.3359
    1MPD2     C14332   3.732   4.489  14.486 -0.2493  0.3756  0.5789
    1MPD2    C114333   3.711   4.533  14.614  0.8701 -0.3238  0.5265
    1MPD2    C214334   3.818   4.545  14.691  0.6252 -0.1521 -0.5225
    1MPD2    C314335   3.949   4.514  14.652 -0.5000 -0.5545 -0.4664
    1MPD2    C414336   3.969   4.470  14.526 -0.1844  0.1543 -0.3337
    1MPD2    C514337   3.861   4.456  14.444 -0.6137  0.7573  0.1258
    1MPD2     H14338   3.792   4.595  14.784 -4.0328  0.0138 -1.8906
    1MPD2    H114339   4.066   4.431  14.495 -0.8592 -0.2255 -1.9746
    1MPD2    H214340   3.649   4.469  14.419  0.3916 -1.6696  0.3949
    1MPD2    H314341   3.866   4.412  14.345 -0.8082 -0.6743  0.7489
    1MPD2     N14342   4.044   4.514  14.755  0.3195  0.9233 -0.6809
    1MPD2    H514343   4.004   4.550  14.841  0.5133 -0.1557 -0.1431
    1MPD2    N114344   3.584   4.566  14.662  0.7645 -0.3158  0.4746
    1MPD2    H714345   3.517   4.584  14.589  1.2515  1.4805  0.4625
    2TMC3    C114346   3.404   4.589  14.824  0.0125 -0.4277 -0.4543
    2TMC3    C214347   3.365   4.548  14.951  0.0651 -0.3426  0.6814
    2TMC3    C314348   3.306   4.629  15.047  0.4400 -0.2655 -0.0316
    2TMC3    C414349   3.363   4.713  14.774 -0.5367 -0.5558  0.3854
    2TMC3    C514350   3.281   0.056  14.862  0.5699 -0.0991  0.1552
    2TMC3    C614351   3.257   0.020  14.992  0.0289  0.8329  0.1618
    2TMC3     C14352   3.548   4.555  14.797  0.3527  0.2345  0.4622
    2TMC3     O14353   3.606   4.507  14.893 -0.1409  0.1210 -0.6727
    2TMC3     H14354   3.386   4.443  14.964 -1.9735 -0.8509 -0.1246
    2TMC3    H114355   3.369   4.721  14.666 -0.5080  0.8352  0.4863
    2TMC3    H214356   3.205   0.087  15.060 -1.0020 -0.1964  0.3890
    2TMC3    C714357   3.207   0.182  14.822 -0.4613 -0.1077  0.2065
    2TMC3    C814358   3.382   4.652  15.162  0.7399 -0.5622  0.2523
    2TMC3    O114359   3.107   0.212  14.884  0.1431  0.2116 -0.1508
    2TMC3    O214360   3.332   4.702  15.259 -0.1642 -1.0293  0.3534
    3TCq1    O114361   3.950   1.103  14.410 -0.6985  0.1705 -0.1916
    3TCq1    C114362   3.814   1.112  14.426 -0.7998 -0.1105 -0.7748
    3TCq1    O214363   3.745   1.209  14.401  0.0047 -0.7477  0.1796
    3TCq1    C214364   3.765   0.977  14.424 -0.1927 -0.4286  0.5477
    3TCq1    C314365   3.840   0.882  14.361  0.5357 -0.4025 -0.1042
    3TCq1    C414366   3.788   0.759  14.349  0.8980 -0.1489 -0.2687
    3TCq1    C514367   3.668   0.736  14.398  0.1739  0.0325  0.1460
    3TCq1    C614368   3.593   0.832  14.463 -0.6128 -0.3112  0.1201
    3TCq1    C714369   3.640   0.958  14.483  0.0283  0.1844  0.0085
    3TCq1    C814370   3.466   0.798  14.518  0.5401  0.1910  0.3891
    3TCq1    O414371   3.385   0.889  14.531  1.1586  0.0661  0.1665
    3TCq1    C914372   3.880   0.650  14.316  0.5336  0.1255 -0.5364
    3TCq1    O514373   3.843   0.531  14.337  0.0045 -0.3251 -0.7398
    3TCq1    O614374   3.984   0.684  14.255  0.7543  0.6639  0.1345
    3TCq1    H114375   3.973   1.017  14.451  2.1787  0.2421 -1.6437
    3TCq1    H214376   3.939   0.898  14.319  1.2885  1.2278  2.2479
    3TCq1    H314377   3.630   0.635  14.383 -1.0050  0.3670  0.8798
    3TCq1    H414378   3.582   1.034  14.535  0.5308  0.1855  0.5584
    4MPD2     C14379   3.222   0.658  14.644 -0.8131 -1.1264 -0.4778
    4MPD2    C114380   3.345   0.602  14.616 -0.3006 -0.4000  0.2065
    4MPD2    C214381   3.366   0.473  14.657 -0.0722 -0.2099  0.5718
    4MPD2    C314382   3.261   0.403  14.714 -0.1986 -0.3993  0.5303
    4MPD2    C414383   3.135   0.460  14.739 -0.2679 -0.2277  0.0500
    4MPD2    C514384   3.124   0.591  14.710 -0.3755 -0.0505 -0.4010
    4MPD2     H14385   3.462   0.425  14.645 -0.1918 -0.5005  0.7760
    4MPD2    H114386   3.046   0.411  14.778 -1.2447  1.4818 -0.0489
    4MPD2    H214387   3.198   0.759  14.614 -0.9352 -1.1924 -0.6009
    4MPD2    H314388   3.029   0.643  14.721 -1.5623 -2.3316  0.1753
    4MPD2     N14389   3.281   0.263  14.746 -0.1737 -0.1761  0.3304
    4MPD2    H514390   3.369   0.224  14.712 -0.3476  0.3122 -0.6993
    4MPD2    N114391   3.450   0.670  14.551 -0.2671 -0.3121 -0.6758
    4MPD2    H714392   3.532   0.612  14.535  0.2620  0.1945  0.2198
    5TMC2    C114393   4.173   4.528  15.081 -0.0081  0.0063  0.4813
    5TMC2    C214394   4.234   4.406  15.128 -0.1573  0.5032  0.3532
    5TMC2    C314395   4.291   4.334  15.034 -0.0770 -0.2501 -0.1492
    5TMC2    C414396   4.197   4.567  14.954 -0.4995 -0.0221  0.2293
    5TMC2    C514397   4.249   4.485  14.860  0.2808 -0.1991  0.7721
    5TMC2    C614398   4.295   4.361  14.899  0.0719 -0.4208  0.0922
    5TMC2     C14399   4.027   4.551  15.106 -0.2468  0.3060 -0.1874
    5TMC2     O14400   3.959   4.603  15.022  0.0060 -0.3734 -0.0228
    5TMC2     H14401   4.211   4.367  15.226 -0.9998  1.1599  0.4205
    5TMC2    H114402   4.165   4.663  14.916 -0.0889 -0.5771 -1.5096
    5TMC2    H214403   4.340   4.292  14.828 -0.2761 -0.5089 -0.0387
    5TMC2    C714404   4.177   4.480  14.737 -0.1283 -0.3294  0.1241
    5TMC2    C814405   4.338   4.201  15.068 -0.5039 -0.2209 -0.3678
    5TMC2    O114406   4.235   4.443  14.639  0.0315 -0.3685  0.0240
    5TMC2    O214407   4.292   4.099  15.016 -0.0942  0.0559  0.1250
    5TMC2    O514408   4.396   4.206  15.187  0.3540 -0.3674  0.2041
    5TMC2    H514409   4.422   4.297  15.213 -0.3387 -0.4286  1.0923
    6MPD2     C14410   3.592   4.603  15.374  0.0202  0.2728 -0.4834
    6MPD2    C114411   3.613   4.596  15.239 -0.1969  0.2973  0.1626
    6MPD2    C214412   3.740   4.560  15.189  0.2724  0.2110 -0.4970
    6MPD2    C314413   3.850   4.554  15.275 -0.6236 -1.1560 -0.5906
    6MPD2    C414414   3.820   4.558  15.413 -0.1710  0.8087 -0.3334
    6MPD2    C514415   3.699   4.587  15.459  0.2610  0.3258 -0.3206
    6MPD2     H14416   3.756   4.548  15.083  0.5533 -1.2412 -0.2864
    6MPD2    H114417   3.897   4.548  15.489 -1.3619  0.4474  0.8117
    6MPD2    H214418   3.500   4.634  15.421 -0.8633  1.0925 -2.7772
    6MPD2    H314419   3.687   4.591  15.567 -1.7002 -0.7595 -0.5044
    6MPD2     N14420   3.983   4.517  15.230  0.1894  0.4307 -0.6933
    6MPD2    H514421   4.054   4.506  15.302  0.3131 -1.7700 -1.1595
    6MPD2    N114422   3.510   4.598  15.146 -0.4991 -0.7638  0.3416
    6MPD2    H714423   3.536   4.568  15.053  2.0727 -1.0732  1.1644
  945NH4     N114424   0.064   2.743   1.945 -0.2464 -0.2329 -0.2266
  945NH4     H214425   0.040   2.822   2.009 -1.8706 -0.8972 -0.0291
  945NH4     H314426   0.104   2.663   1.998 -0.8117  1.3470  2.6484
  945NH4     H414427   0.151   2.777   1.899  0.7051 -0.2944  1.5074
  945NH4     H514428   4.709   2.713   1.884  0.3960 -1.4968 -0.4287
  946SOD     NA14429   0.725   3.439  13.787  0.5622  0.2254 -0.1433
  947SOD     NA14430   4.423   1.284   4.522  0.4784 -0.0421  0.1269
  948SOD     NA14431   4.480   2.783   9.646  0.5700 -0.1729  0.1450
  949SOD     NA14432   1.537   2.117   1.885  0.0138  0.3742 -0.5289
  950SOD     NA14433   1.493   4.586  14.837 -0.2586  0.1753  0.0752
  951SOD     NA14434   0.454   1.459   9.557 -0.4711 -0.4615  0.0867
  952SOD     NA14435   1.478   2.279   1.352  0.0945  0.2563 -0.3066
  953SOD     NA14436   1.552   4.251  14.930  0.3217 -0.4710 -0.0891
  954SOD     NA14437   0.709   3.487  13.136  0.0576 -0.0637  0.5313
  955SOD     NA14438   0.159   2.647  10.362  1.0937 -0.3222 -0.0184
  956SOD     NA14439   0.011   3.848  12.695 -0.3772 -0.3448  0.1694
  957SOD     NA14440   0.271   0.449  11.848  0.1192  0.2348  0.1003
  958SOD     NA14441   0.273   0.987  14.378  0.3351  0.1222 -0.0094
  959SOD     NA14442   3.465   4.107   9.691 -0.1832 -0.5704 -0.2508
  960SOD     NA14443   1.982   2.836  12.989 -0.0964  0.3977  0.0509
  961SOD     NA14444   3.530   1.531   9.265  0.4251 -0.1935  0.1071
  962SOD     NA14445   1.479   2.414   1.054 -0.1377  0.3487  0.0206
  963SOD     NA14446   1.393   0.013   8.094 -0.1100  0.0707 -0.1205
  964SOD     NA14447   4.389   4.313  10.891 -0.3732  0.0883 -0.1123
  965SOD     NA14448   0.273   1.296  12.251 -0.2084 -0.1134 -0.0850
  966SOD     NA14449   3.919   0.262  10.719 -0.3681  0.1664  0.1376
  967SOD     NA14450   3.831   2.472  11.129  0.5919 -0.1729 -0.0032
  968SOD     NA14451   4.446   2.986  10.234 -0.3291 -0.1874  0.0251
  969SOD     NA14452   4.683   2.794  10.181 -0.3693  0.4910 -0.5215
  970SOD     NA14453   1.508   4.530  17.420 -0.0268  0.3795  0.6111
  971SOD     NA14454   1.582   0.633  12.985 -0.8443 -0.0804  0.0605
  972SOD     NA14455   1.836   4.296  15.130  0.5628 -0.0104 -0.2397
  973SOD     NA14456   4.659   1.403   1.108 -0.3437 -0.0289  0.1985
  974SOD     NA14457   4.091   1.424   3.633  0.1665  0.0578  0.0074
  975SOD     NA14458   4.276   2.833  11.078  0.0181  0.4416  0.0876
  976SOD     NA14459   0.495   4.204  11.701 -0.3524 -0.4074 -0.2468
  977SOD     NA14460   3.703   3.732   1.284  0.3760  0.1000 -0.0542
  978SOD     NA14461   0.675   0.521  12.303  0.1311  0.4815 -0.0876
  979SOD     NA14462   3.009   1.995   1.760 -0.1233 -0.3146  0.5013
  980SOD     NA14463   0.497   3.712  14.238 -0.2199 -0.2245  0.2530
  981SOD     NA14464   0.892   3.316   9.809 -0.4990  0.3367  0.2480
  982SOD     NA14465   4.276   4.563   5.186  0.2781 -0.0923 -0.3868
  983SOD     NA14466   1.875   2.036  15.005  0.2544 -0.1959 -0.1848
  984SOD     NA14467   4.598   1.856   8.772  0.0206  0.1356  0.2675
  985SOD     NA14468   3.785   0.537  13.240  0.1044 -0.0453 -0.2916
  986SOD     NA14469   0.982   2.328  14.624  0.2897  0.0453  0.5534
  987SOD     NA14470   0.721   3.498  14.104  0.2574  0.2273 -0.2880
  988SOD     NA14471   1.490   0.344   1.968  0.1082 -0.4780 -0.0430
  989SOD     NA14472   1.958   1.605   2.406 -0.0639 -0.2033  0.0196
  990SOD     NA14473   0.726   4.133  11.878 -0.6048  0.1973 -0.1181
  991SOD     NA14474   0.169   3.949  17.008 -0.0024  0.0537  0.5173
  992SOD     NA14475   1.003   4.705  16.138 -0.3861 -0.0466 -0.0563
  993SOD     NA14476   4.665   1.301  13.752 -0.2683  0.1126  0.1301
  994SOD     NA14477   3.399   3.591  15.596  0.3323  0.0469 -0.2712
  995SOD     NA14478   1.084   1.198  16.689 -0.3778 -0.0006 -0.1729
  996SOD     NA14479   3.966   0.365  14.396 -0.2430 -0.2306  0.2163
  997SOD     NA14480   2.123   3.247   1.260  0.4615 -0.1275  0.0325
  998SOD     NA14481   4.207   0.159  11.309  0.1519  0.2566  0.0928
  999SOD     NA14482   1.010   4.078  11.377 -0.4448  0.0389 -0.7782
 1000SOD     NA14483   2.026   3.229   9.787  0.0619 -0.0848 -0.1105
 1001SOD     NA14484   4.162   1.936  12.467  0.0666  0.5739  0.3807
 1002SOD     NA14485   2.012   0.449   0.872 -0.2325  0.4048 -0.4086
 1003SOD     NA14486   0.316   2.586  16.480  0.1076  0.5580 -0.2497
 1004SOD     NA14487   1.794   0.459  15.213 -0.5218  0.4016 -0.4304
 1005SOD     NA14488   2.558   2.548  11.081  0.3523 -0.0758 -0.2696
 1006SOD     NA14489   2.738   3.037  13.321  0.2470  0.3071  0.4848
 1007SOD     NA14490   0.973   3.566  17.541  0.1424 -0.1497 -0.5958
 1008SOD     NA14491   1.163   0.528   3.691  0.3394 -0.4368  0.0453
 1009SOD     NA14492   1.593   0.025  10.670 -0.1829 -0.1444 -0.0480
 1010SOD     NA14493   1.722   1.692   2.979  0.0541  0.2027  0.2588
 1011SOL     OW14494   2.499   0.376  13.061  0.2222 -0.1837  0.5197
 1011SOL    HW114495   2.483   0.414  12.974 -3.2528 -0.7999  0.8636
 1011SOL    HW214496   2.557   0.303  13.042  0.9248  0.1690  1.2955
 1012SOL     OW14497   3.318   3.213   4.410 -0.0821 -0.2241 -0.0365
 1012SOL    HW114498   3.282   3.300   4.398  0.8219  0.3060  1.0814
 1012SOL    HW214499   3.247   3.182   4.467 -0.0497  0.4065  0.3396
 1013SOL     OW14500   0.809   4.336  15.816 -0.2154 -0.2928  0.2143
 1013SOL    HW114501   0.831   4.342  15.723 -0.2247 -1.7181  0.1236
 1013SOL    HW214502   0.794   4.427  15.839  0.6811 -0.4625  1.4369
 1014SOL     OW14503   0.114   3.904  10.750  0.1759  0.4665 -0.7208
 1014SOL    HW114504   0.117   3.814  10.720 -0.8956  0.5837 -1.1786
 1014SOL    HW214505   0.020   3.925  10.753  0.4082  1.4444 -0.1431
 1015SOL     OW14506   3.872   0.693   1.529 -0.1994  0.2540 -0.6360
 1015SOL    HW114507   3.846   0.645   1.450  0.7361 -0.5106 -0.4816
 1015SOL    HW214508   3.790   0.737   1.550 -1.3506 -1.6969 -1.0805
 1016SOL     OW14509   2.848   1.223   4.422  0.0436  0.4630 -0.4033
 1016SOL    HW114510   2.787   1.184   4.484  0.1591  0.2570 -0.4189
 1016SOL    HW214511   2.924   1.169   4.401 -0.0669 -0.0220  0.4314
 1017SOL     OW14512   2.434   0.963   4.711  0.0638 -0.1830 -0.3607
 1017SOL    HW114513   2.508   1.011   4.749  0.1856  0.7075 -1.7087
 1017SOL    HW214514   2.474   0.909   4.643  0.2845  2.2857 -2.1955
 1018SOL     OW14515   0.451   0.418   3.111 -0.3639  0.0644 -0.1643
 1018SOL    HW114516   0.427   0.509   3.096 -0.4325 -0.2533 -1.9066
 1018SOL    HW214517   0.491   0.396   3.027 -1.2551 -1.0173 -0.3137
 1019SOL     OW14518   2.691   1.976   1.250  0.2061 -0.2531 -0.6347
 1019SOL    HW114519   2.607   1.969   1.295 -0.6806 -2.3495 -2.5985
 1019SOL    HW214520   2.743   2.002   1.325  1.4606 -0.6160 -1.3772
 1020SOL     OW14521   0.515   0.526   4.986  0.2423 -0.1373 -0.7280
 1020SOL    HW114522   0.584   0.511   5.050  1.3845  1.5288 -1.5673
 1020SOL    HW214523   0.527   0.449   4.930 -0.2564 -0.1210 -0.8539
 1021SOL     OW14524   2.695   2.698  14.138  0.0619 -0.0883  0.1554
 1021SOL    HW114525   2.787   2.671  14.138  0.9224  2.8301 -0.3956
 1021SOL    HW214526   2.705   2.793  14.150 -1.0498  0.2758 -1.7841
 1022SOL     OW14527   0.471   1.944   7.694 -0.1378  0.1824 -0.2406
 1022SOL    HW114528   0.461   2.000   7.770  0.4420  1.0167 -0.7845
 1022SOL    HW214529   0.482   1.855   7.730  1.8253  0.4322 -0.2319
 1023SOL     OW14530   1.385   3.480   0.109 -0.1953 -0.2372  0.5875
 1023SOL    HW114531   1.436   3.400   0.095 -0.4657 -0.1935 -0.6293
 1023SOL    HW214532   1.461   3.535   0.129  1.4152 -2.7215  1.2528
 1024SOL     OW14533   0.753   0.043   2.857  0.1399  0.7509  0.3942
 1024SOL    HW114534   0.698   4.705   2.809  0.5405  0.1662  0.6942
 1024SOL    HW214535   0.728   0.021   2.947 -1.8058 -1.3059 -0.6661
 1025SOL     OW14536   3.378   4.118   6.494 -0.0538 -0.7600  0.1241
 1025SOL    HW114537   3.326   4.186   6.536  1.2439 -0.0364  0.5570
 1025SOL    HW214538   3.439   4.178   6.450 -1.5779 -0.2771 -1.3315
 1026SOL     OW14539   1.162   4.421  16.613 -0.3295 -0.0786 -0.1671
 1026SOL    HW114540   1.237   4.481  16.612 -1.2526  1.1115  2.2804
 1026SOL    HW214541   1.169   4.381  16.699 -0.9891 -0.5077 -0.3135
 1027SOL     OW14542   0.493   1.555   3.532 -0.5451  0.4592  0.2502
 1027SOL    HW114543   0.538   1.591   3.456  1.0703 -1.9505  0.0631
 1027SOL    HW214544   0.402   1.566   3.506 -0.3251 -0.1555 -0.7665
 1028SOL     OW14545   2.263   2.763   3.299 -0.4608 -0.3318 -0.8158
 1028SOL    HW114546   2.287   2.821   3.226  0.8934 -0.7141 -0.6674
 1028SOL    HW214547   2.322   2.688   3.294  0.1101  0.0772 -0.1070
 1029SOL     OW14548   2.351   4.223   6.211 -0.1361  0.2395 -0.0433
 1029SOL    HW114549   2.443   4.202   6.227 -0.7775 -1.7917  1.1133
 1029SOL    HW214550   2.359   4.260   6.123  0.9948 -0.5296 -0.2682
 1030SOL     OW14551   1.794   2.919   6.796  0.2673  0.1136 -0.0514
 1030SOL    HW114552   1.775   2.895   6.887 -0.5205  0.4788 -0.1191
 1030SOL    HW214553   1.753   3.005   6.794 -0.6099 -0.2840  0.5342
 1031SOL     OW14554   4.056   2.773   7.813  0.5727  0.2756 -0.6583
 1031SOL    HW114555   4.020   2.781   7.725  1.9645 -0.7729 -1.3238
 1031SOL    HW214556   4.079   2.680   7.815 -0.9409 -0.0939  0.1170
 1032SOL     OW14557   4.323   4.381  11.106  0.5432 -0.0876  0.0179
 1032SOL    HW114558   4.393   4.430  11.149  0.5897  1.6741 -2.0049
 1032SOL    HW214559   4.263   4.379  11.180 -0.9895  1.8000 -1.1614
 1033SOL     OW14560   0.147   3.091   8.717 -0.2260 -0.0786 -0.6340
 1033SOL    HW114561   0.108   3.068   8.801 -0.6922 -0.6747 -1.0181
 1033SOL    HW214562   0.240   3.076   8.736  0.0317  0.6817 -1.2596
 1034SOL     OW14563   4.310   0.409   6.707 -0.2460 -0.2808 -0.2983
 1034SOL    HW114564   4.403   0.393   6.726 -0.1511  0.4504 -0.1442
 1034SOL    HW214565   4.304   0.382   6.615 -1.2194  0.4910 -0.4529
 1035SOL     OW14566   3.562   0.597   7.045  0.6751  0.5181 -0.1070
 1035SOL    HW114567   3.501   0.541   7.094  1.6966 -0.3243  0.1971
 1035SOL    HW214568   3.556   0.679   7.093  1.7389  0.5074  0.0575
 1036SOL     OW14569   4.406   0.267  11.353 -0.0809 -0.2239 -0.0137
 1036SOL    HW114570   4.438   0.323  11.283  3.7715 -0.4340  1.6158
 1036SOL    HW214571   4.475   0.269  11.419  2.5570  0.9869 -2.8503
 1037SOL     OW14572   2.968   1.929   0.508 -0.4505 -0.4136  0.7802
 1037SOL    HW114573   2.967   2.023   0.494 -1.2310 -0.8139 -2.0636
 1037SOL    HW214574   3.041   1.916   0.568 -0.0113 -2.2739 -0.1217
 1038SOL     OW14575   3.327   2.779   4.727  0.3005  0.1200  0.1316
 1038SOL    HW114576   3.355   2.720   4.797  1.1534 -1.5443 -1.6180
 1038SOL    HW214577   3.249   2.824   4.759 -0.8394 -0.6795 -1.5577
 1039SOL     OW14578   3.147   4.012  17.454  1.0341  0.1372 -0.3243
 1039SOL    HW114579   3.198   3.983  17.378 -0.8793  2.0003 -2.3411
 1039SOL    HW214580   3.121   4.096  17.416  0.2816  0.2222  0.3799
 1040SOL     OW14581   1.671   4.286   4.635  0.0460  0.6111 -0.3924
 1040SOL    HW114582   1.706   4.351   4.696 -0.2943  0.3540  0.0773
 1040SOL    HW214583   1.581   4.318   4.633  0.3460  1.5490  1.8923
 1041SOL     OW14584   0.786   0.532   2.916  0.4922  0.4395  0.7261
 1041SOL    HW114585   0.838   0.552   2.839 -2.3875 -0.3139 -1.4232
 1041SOL    HW214586   0.841   0.472   2.965 -1.2693 -1.0520  0.8609
 1042SOL     OW14587   1.632   0.107   8.591 -0.1364 -0.2599  1.1484
 1042SOL    HW114588   1.612   0.192   8.552  3.2800  0.6017  1.2530
 1042SOL    HW214589   1.598   0.123   8.679 -0.2419  0.7796  0.9157
 1043SOL     OW14590   0.252   1.832   8.488  0.9201 -0.5950  0.4507
 1043SOL    HW114591   0.305   1.752   8.489  1.2127 -0.3922  1.2980
 1043SOL    HW214592   0.212   1.806   8.405  0.8832  0.0262  0.2781
 1044SOL     OW14593   0.142   2.195   6.654  0.6061 -0.4043  0.3222
 1044SOL    HW114594   0.231   2.181   6.685  0.3458 -0.5191  1.0193
 1044SOL    HW214595   0.099   2.225   6.734 -0.1053  1.9912 -0.9554
 1045SOL     OW14596   4.145   2.450   7.382 -0.4147  0.2595 -0.7200
 1045SOL    HW114597   4.142   2.534   7.336  0.4824 -0.1837 -1.5934
 1045SOL    HW214598   4.098   2.392   7.320  0.6423 -1.2230 -0.1335
 1046SOL     OW14599   4.015   3.273   3.680  0.4830 -0.3321  0.5035
 1046SOL    HW114600   3.983   3.192   3.721 -0.2259 -0.6869 -0.7696
 1046SOL    HW214601   4.080   3.241   3.618  0.3890  0.9315 -0.2294
 1047SOL     OW14602   2.612   3.471  15.320  0.0936  0.0661 -0.4608
 1047SOL    HW114603   2.531   3.482  15.271 -0.7307  1.6092  1.2489
 1047SOL    HW214604   2.635   3.380  15.301  1.2198  0.1063  0.7180
 1048SOL     OW14605   2.209   0.217   3.708  0.6645  0.3175  0.4219
 1048SOL    HW114606   2.223   0.312   3.699  1.2229  0.1298 -0.6968
 1048SOL    HW214607   2.283   0.188   3.654  1.0936  0.8024  0.7423
 1049SOL     OW14608   2.270   1.426   2.213  0.1542  0.5961 -0.5179
 1049SOL    HW114609   2.267   1.470   2.128 -0.5941  0.0882 -0.7563
 1049SOL    HW214610   2.353   1.382   2.200  1.5160  2.3441  2.2248
 1050SOL     OW14611   3.257   2.690   6.002 -0.4281 -0.1896  0.6484
 1050SOL    HW114612   3.288   2.736   5.924 -0.9123  0.1105  0.6369
 1050SOL    HW214613   3.320   2.708   6.072 -1.6688 -0.0028  1.7072
 1051SOL     OW14614   3.627   3.213  16.246 -0.1972  0.6744  0.2865
 1051SOL    HW114615   3.643   3.124  16.216 -1.9243  0.5558 -0.2960
 1051SOL    HW214616   3.627   3.251  16.159  3.0208  2.2200  0.9728
 1052SOL     OW14617   2.533   2.889   1.690  0.1422 -0.3620 -0.0738
 1052SOL    HW114618   2.507   2.814   1.638 -1.3062  0.1982 -0.1477
 1052SOL    HW214619   2.455   2.880   1.745 -1.2583  1.1761 -1.8045
 1053SOL     OW14620   1.367   2.209  14.675 -0.4425  0.4258  0.2334
 1053SOL    HW114621   1.349   2.303  14.680 -1.5176 -0.0640  4.8690
 1053SOL    HW214622   1.461   2.206  14.690 -0.4751 -0.8387  0.1503
 1054SOL     OW14623   3.572   1.189  17.266  0.2990  0.1941  0.2577
 1054SOL    HW114624   3.581   1.278  17.302 -1.3466  0.2377  0.5845
 1054SOL    HW214625   3.646   1.197  17.207  1.3893  1.3919  1.7875
 1055SOL     OW14626   2.218   0.912   8.849  0.0297 -0.1116  0.0342
 1055SOL    HW114627   2.297   0.964   8.861 -1.2344  1.6187  0.9221
 1055SOL    HW214628   2.217   0.859   8.928  0.8007 -1.0648 -0.6078
 1056SOL     OW14629   4.323   1.313   2.381 -0.2605  0.2762 -0.3452
 1056SOL    HW114630   4.373   1.360   2.314  1.3480 -1.3317 -0.2787
 1056SOL    HW214631   4.290   1.386   2.434  0.6445  0.2598  0.2419
 1057SOL     OW14632   0.822   1.743   7.552  0.1620 -0.2274  0.6241
 1057SOL    HW114633   0.845   1.733   7.459 -1.5430  0.5846  0.1138
 1057SOL    HW214634   0.809   1.651   7.576  0.1306 -0.1738  0.8054
 1058SOL     OW14635   4.486   2.758   9.413 -0.2219  0.4927 -0.4293
 1058SOL    HW114636   4.419   2.689   9.417 -1.1627  1.4310 -0.0103
 1058SOL    HW214637   4.550   2.713   9.357 -0.1376  0.4642 -0.3092
 1059SOL     OW14638   1.808   2.631  14.694  0.4534 -0.1854 -0.1897
 1059SOL    HW114639   1.826   2.675  14.610  0.6612 -0.3117 -0.2143
 1059SOL    HW214640   1.897   2.602  14.718  1.6055  2.7462 -0.9158
 1060SOL     OW14641   1.540   3.684   6.862 -0.2374 -0.2390 -0.1718
 1060SOL    HW114642   1.545   3.672   6.767 -0.3194  2.5720 -0.5433
 1060SOL    HW214643   1.445   3.682   6.869 -0.2110 -1.5085 -0.2308
 1061SOL     OW14644   1.984   4.676   8.264 -0.2958  0.5524 -0.3404
 1061SOL    HW114645   2.005   4.722   8.345  2.1719  0.0018 -0.6777
 1061SOL    HW214646   2.057   4.697   8.206  0.1045  2.0157  0.6951
 1062SOL     OW14647   4.418   1.635   4.752  0.2947  0.1497 -0.2021
 1062SOL    HW114648   4.474   1.650   4.676  1.4302  1.1528  0.8210
 1062SOL    HW214649   4.354   1.705   4.738  0.2331 -0.1005 -1.1953
 1063SOL     OW14650   4.502   2.936   3.817 -0.6889 -0.6982 -0.3606
 1063SOL    HW114651   4.528   2.956   3.907 -1.0075  3.4186 -1.2069
 1063SOL    HW214652   4.588   2.909   3.786 -0.3658 -1.7441  1.4306
 1064SOL     OW14653   1.108   3.675   6.305  0.4230  0.5406  0.3604
 1064SOL    HW114654   1.170   3.606   6.283 -0.8833 -0.3695 -0.4521
 1064SOL    HW214655   1.171   3.747   6.313  0.3705  0.7609 -1.2427
 1065SOL     OW14656   0.482   1.030   0.068 -0.3584 -0.1577 -0.1619
 1065SOL    HW114657   0.411   0.988   0.019  0.2563 -1.2192 -0.1415
 1065SOL    HW214658   0.506   1.093   0.000 -1.1485  0.1136 -0.1907
 1066SOL     OW14659   1.347   1.285   5.515 -0.1798  0.8874  0.0892
 1066SOL    HW114660   1.395   1.245   5.588 -1.8632  1.0684  1.3065
 1066SOL    HW214661   1.269   1.230   5.506 -0.2043  0.4129  3.0529
 1067SOL     OW14662   1.476   0.593   2.704 -0.1384  0.1560 -0.2398
 1067SOL    HW114663   1.383   0.579   2.683  0.1400 -0.2830 -1.2085
 1067SOL    HW214664   1.509   0.530   2.640  3.8475  1.4446  0.5881
 1068SOL     OW14665   2.361   0.960   3.910 -0.5131 -0.1158  0.2809
 1068SOL    HW114666   2.333   0.916   3.990 -0.0697 -2.6044 -0.9446
 1068SOL    HW214667   2.304   0.913   3.849 -0.5059  0.7815 -0.4271
 1069SOL     OW14668   4.386   4.128   4.286  0.5675 -0.6541  0.2566
 1069SOL    HW114669   4.441   4.149   4.362  1.1115  0.2449 -0.3788
 1069SOL    HW214670   4.313   4.077   4.322  0.2348  0.1421  0.7322
 1070SOL     OW14671   0.705   0.956   7.591 -0.0881  0.7315 -0.1354
 1070SOL    HW114672   0.633   0.941   7.529  1.6278 -0.9955 -1.6994
 1070SOL    HW214673   0.701   1.051   7.603 -1.0807  0.9260 -2.0686
 1071SOL     OW14674   2.485   3.069   1.119 -0.1291  0.4286  0.0181
 1071SOL    HW114675   2.479   3.052   1.213 -1.4474 -0.8847 -0.3031
 1071SOL    HW214676   2.541   3.146   1.114 -0.0857  0.4437  0.8283
 1072SOL     OW14677   1.402   0.178   6.957 -0.1902  0.1448  0.2201
 1072SOL    HW114678   1.398   0.106   6.894  0.8560  1.9316 -1.9272
 1072SOL    HW214679   1.497   0.189   6.948 -0.3906  0.8974 -1.1224
 1073SOL     OW14680   4.314   4.666   9.320 -0.0822 -0.0865 -0.2803
 1073SOL    HW114681   4.300   0.033   9.293  1.3940  0.2942  0.2059
 1073SOL    HW214682   4.392   4.687   9.371 -0.9897  2.1006  0.2183
 1074SOL     OW14683   2.102   3.176   2.373 -0.0506  0.2924  0.1770
 1074SOL    HW114684   2.028   3.236   2.378  0.6544  1.1718  0.0908
 1074SOL    HW214685   2.147   3.220   2.300  0.0577  0.6460  0.4581
 1075SOL     OW14686   1.094   4.418  15.253  0.2375  0.0438 -0.5587
 1075SOL    HW114687   1.027   4.477  15.286  1.5880 -0.6064  3.4171
 1075SOL    HW214688   1.105   4.347  15.316 -1.6867  0.8701  0.7030
 1076SOL     OW14689   1.047   2.878   2.020  0.4509  0.1421 -0.1567
 1076SOL    HW114690   0.989   2.925   2.080  2.3756 -1.6768  3.1301
 1076SOL    HW214691   1.022   2.789   2.045 -0.4365  0.4547  0.0403
 1077SOL     OW14692   0.374   1.426   5.768  0.5069  0.7557 -0.4528
 1077SOL    HW114693   0.438   1.397   5.702  0.2945 -0.9102  0.0772
 1077SOL    HW214694   0.386   1.356   5.832 -5.3398 -1.1995 -1.5705
 1078SOL     OW14695   0.516   1.868  17.248 -0.1445  0.0314 -0.6190
 1078SOL    HW114696   0.583   1.936  17.238 -1.7136  1.7169  0.2801
 1078SOL    HW214697   0.431   1.913  17.245 -0.0287  0.4521  1.7781
 1079SOL     OW14698   1.915   3.536   8.537 -0.3147 -0.2825 -0.4733
 1079SOL    HW114699   1.876   3.461   8.583  1.0784 -1.0442 -0.5493
 1079SOL    HW214700   1.917   3.597   8.610  0.4489  1.8860 -2.2902
 1080SOL     OW14701   1.185   0.191   5.846 -0.0107  0.1087  0.1640
 1080SOL    HW114702   1.133   0.263   5.882 -1.5355 -0.1218 -1.5804
 1080SOL    HW214703   1.245   0.230   5.783 -0.1181  1.8592  1.1666
 1081SOL     OW14704   0.417   2.799   5.286 -0.3656 -0.2017  0.1697
 1081SOL    HW114705   0.361   2.772   5.358 -0.3168 -0.4286  0.1241
 1081SOL    HW214706   0.361   2.765   5.215 -0.1145 -0.7935  0.2524
 1082SOL     OW14707   1.906   1.117   1.839 -0.0621 -0.0725 -0.7774
 1082SOL    HW114708   1.868   1.162   1.764 -0.6262  2.2445  0.8871
 1082SOL    HW214709   1.930   1.189   1.897 -0.6041 -1.6280  1.3576
 1083SOL     OW14710   4.510   4.643   9.509 -0.3691  0.2132 -0.2166
 1083SOL    HW114711   4.503   4.550   9.533 -1.5759  0.3765  0.0705
 1083SOL    HW214712   4.599   4.666   9.534  0.1858  0.0909 -2.0567
 1084SOL     OW14713   3.198   4.507   7.719 -0.5261 -0.5944 -0.0539
 1084SOL    HW114714   3.115   4.544   7.747 -1.2167  0.3329 -3.3262
 1084SOL    HW214715   3.253   4.566   7.770 -0.8205 -0.3085 -0.0706
 1085SOL     OW14716   2.653   3.527   1.483  0.4657  0.2010 -0.3836
 1085SOL    HW114717   2.645   3.603   1.425  0.8935  0.4947 -0.0559
 1085SOL    HW214718   2.576   3.478   1.454 -1.9272  3.2394  0.7679
 1086SOL     OW14719   3.344   4.205   7.540  0.3828 -0.1825  0.0549
 1086SOL    HW114720   3.399   4.135   7.504 -1.3333 -0.1272 -2.6264
 1086SOL    HW214721   3.257   4.169   7.524  1.3750 -3.0220  1.0080
 1087SOL     OW14722   2.291   0.948   8.066 -0.4676  0.4445  0.8727
 1087SOL    HW114723   2.250   1.025   8.027 -1.9375 -0.7092  0.1971
 1087SOL    HW214724   2.228   0.879   8.050 -0.4390  0.2064  1.7429
 1088SOL     OW14725   3.285   0.476   5.849  0.4116 -0.8146 -0.1125
 1088SOL    HW114726   3.253   0.525   5.924  3.9456 -1.6078  1.8809
 1088SOL    HW214727   3.301   0.393   5.895 -1.5499 -0.7234  0.7288
 1089SOL     OW14728   4.125   0.156   6.660 -0.0238 -0.0584 -0.0353
 1089SOL    HW114729   4.178   0.125   6.586  1.1710 -2.5400  1.8767
 1089SOL    HW214730   4.050   0.176   6.604 -1.2958 -2.1541  0.9480
 1090SOL     OW14731   1.764   3.671   1.507 -0.2875  0.5011  0.2552
 1090SOL    HW114732   1.853   3.704   1.495 -0.5711  0.2596 -2.5422
 1090SOL    HW214733   1.714   3.698   1.429 -0.8455  1.3869  0.9172
 1091SOL     OW14734   0.368   4.571   1.886 -0.1773 -0.1810  0.1749
 1091SOL    HW114735   0.402   4.517   1.814  0.8489  1.0917 -0.3104
 1091SOL    HW214736   0.313   4.626   1.830 -0.9514 -0.8096  0.3235
 1092SOL     OW14737   0.578   3.419  14.920 -0.3308  0.0411  0.3677
 1092SOL    HW114738   0.498   3.415  14.868 -0.2214  0.7960  0.1425
 1092SOL    HW214739   0.559   3.493  14.977 -0.6234 -0.6078  1.1203
 1093SOL     OW14740   1.442   4.284   8.619  0.1831  0.0544  0.0614
 1093SOL    HW114741   1.524   4.284   8.569  1.2304  1.6558  1.7668
 1093SOL    HW214742   1.381   4.326   8.559 -0.6257 -2.8801 -1.1586
 1094SOL     OW14743   2.233   4.597   6.752  0.5212  0.1050 -0.4303
 1094SOL    HW114744   2.285   4.649   6.813 -1.3501  1.1095  0.3087
 1094SOL    HW214745   2.301   4.547   6.707 -0.2629 -3.3252  2.2503
 1095SOL     OW14746   0.759   1.224   7.602 -0.0796 -0.8906 -0.2810
 1095SOL    HW114747   0.709   1.304   7.621  2.7342  0.9421 -0.5723
 1095SOL    HW214748   0.845   1.241   7.641 -0.5174  0.4305  0.1328
 1096SOL     OW14749   2.147   2.309   5.088  0.1465  0.1619  0.5191
 1096SOL    HW114750   2.141   2.275   4.999 -1.5196  1.2416  0.2266
 1096SOL    HW214751   2.175   2.398   5.069  1.1272 -0.1213  0.6318
 1097SOL     OW14752   1.720   0.926   5.956 -0.0158  0.0878 -0.3668
 1097SOL    HW114753   1.644   0.984   5.958 -0.1792 -0.1242 -0.4968
 1097SOL    HW214754   1.782   0.988   5.918 -0.0557  0.6553  0.4784
 1098SOL     OW14755   1.643   3.109  15.406 -0.0314  0.1205  0.1701
 1098SOL    HW114756   1.733   3.134  15.429 -0.1648 -0.0321  0.8733
 1098SOL    HW214757   1.607   3.155  15.482 -1.4498  0.8402 -0.9495
 1099SOL     OW14758   4.237   4.492   3.533 -0.2004  0.2865  0.2035
 1099SOL    HW114759   4.187   4.552   3.477 -3.1948 -0.9416  1.5552
 1099SOL    HW214760   4.199   4.413   3.494 -2.3815  1.0663  0.7196
 1100SOL     OW14761   0.968   0.375   1.345 -0.5132 -0.3064 -0.0280
 1100SOL    HW114762   0.930   0.303   1.294  0.4634 -1.1420  0.4239
 1100SOL    HW214763   1.045   0.399   1.292  0.8453 -1.0063  1.6267
 1101SOL     OW14764   0.015   1.785   4.017 -0.2288 -0.1500 -0.4609
 1101SOL    HW114765   0.022   1.787   3.922 -0.4033  0.4546 -0.4610
 1101SOL    HW214766   0.071   1.709   4.034 -1.1914 -0.5225  1.0800
 1102SOL     OW14767   2.184   4.343   7.787  0.0354 -0.0113 -0.1653
 1102SOL    HW114768   2.159   4.272   7.728 -1.0602 -0.8595  1.3409
 1102SOL    HW214769   2.178   4.299   7.872 -1.9376 -0.4145 -0.5170
 1103SOL     OW14770   1.554   1.903   5.450  0.0576 -0.6803 -0.0974
 1103SOL    HW114771   1.488   1.946   5.396 -1.0348 -3.1916 -0.7781
 1103SOL    HW214772   1.523   1.812   5.443 -0.1617 -0.5807 -0.3961
 1104SOL     OW14773   1.096   3.287   0.363  0.0470 -0.4198  0.4143
 1104SOL    HW114774   1.053   3.369   0.384  1.1433  0.7301 -1.7607
 1104SOL    HW214775   1.097   3.238   0.445 -0.6434  1.9297  1.8105
 1105SOL     OW14776   3.719   3.261  10.143 -0.4173  0.5611 -0.3139
 1105SOL    HW114777   3.755   3.277  10.230  0.2714  0.3072 -0.5478
 1105SOL    HW214778   3.795   3.257  10.085 -0.0067  0.5059  0.2319
 1106SOL     OW14779   0.500   1.393   6.466 -0.4903  0.1811 -0.0876
 1106SOL    HW114780   0.443   1.423   6.395  0.1993 -1.6706 -1.4392
 1106SOL    HW214781   0.580   1.364   6.421 -0.4325  0.2236 -0.0112
 1107SOL     OW14782   3.919   0.642  10.845  0.0645  0.3968 -0.0813
 1107SOL    HW114783   3.824   0.647  10.857  0.3729  2.9298  1.3450
 1107SOL    HW214784   3.924   0.598  10.760  1.9542  1.8312 -0.7127
 1108SOL     OW14785   4.082   0.943   8.951 -0.3702  0.2449  0.3888
 1108SOL    HW114786   4.006   0.908   8.997  0.0930  3.0331  3.2794
 1108SOL    HW214787   4.096   1.022   9.002 -0.0999  0.4579 -0.0158
 1109SOL     OW14788   0.065   4.094  12.327 -0.2837  0.4140 -0.4540
 1109SOL    HW114789   4.708   4.062  12.288 -0.1393  2.6967 -2.6618
 1109SOL    HW214790   0.127   4.024  12.309 -1.6591 -0.9937  0.3038
 1110SOL     OW14791   0.759   4.636   4.674 -0.3129 -0.2050  0.8779
 1110SOL    HW114792   0.804   4.717   4.698  0.3737 -0.8166  1.6579
 1110SOL    HW214793   0.784   4.621   4.583 -1.3113 -1.5570  0.8338
 1111SOL     OW14794   1.706   4.498   4.803  0.0063  0.2607 -0.2291
 1111SOL    HW114795   1.629   4.537   4.845  0.2642 -0.2480  0.7171
 1111SOL    HW214796   1.771   4.477   4.869 -1.5428 -0.0571  1.1882
 1112SOL     OW14797   2.336   1.289   0.028  0.1951  0.1474  0.1705
 1112SOL    HW114798   2.401   1.299   0.097 -0.0711  1.0939  0.2836
 1112SOL    HW214799   2.389   1.272  17.647 -0.3078  3.5508 -0.9180
 1113SOL     OW14800   1.994   3.762   2.246  0.1991  0.5052  0.1439
 1113SOL    HW114801   1.936   3.784   2.318  0.0169  1.7362 -0.3771
 1113SOL    HW214802   2.066   3.826   2.254 -1.9191  3.1995 -2.2396
 1114SOL     OW14803   3.584   1.234   4.006 -0.0057 -0.2111  0.3079
 1114SOL    HW114804   3.615   1.254   3.917 -2.2942 -2.0351 -0.9193
 1114SOL    HW214805   3.580   1.318   4.051  0.2925  0.4052 -0.7998
 1115SOL     OW14806   1.018   3.644   1.554 -0.3222  0.0917 -0.0390
 1115SOL    HW114807   1.052   3.600   1.476  0.3785 -0.7106  0.7369
 1115SOL    HW214808   0.947   3.696   1.515  1.0914  2.3871  0.4806
 1116SOL     OW14809   1.628   2.586  12.346 -0.1832  0.1141  0.0142
 1116SOL    HW114810   1.719   2.584  12.376  0.5594 -2.4742 -2.3888
 1116SOL    HW214811   1.639   2.629  12.261 -0.5145 -0.9288 -0.5562
 1117SOL     OW14812   1.410   4.013   0.460  0.3581  0.1210 -0.5729
 1117SOL    HW114813   1.469   4.053   0.395  0.7436 -0.7679 -0.7645
 1117SOL    HW214814   1.330   4.063   0.445  0.6011  0.1981 -1.6354
 1118SOL     OW14815   3.442   4.710   8.868 -0.1121 -0.3091  0.6986
 1118SOL    HW114816   3.477   0.025   8.948 -1.3777 -0.4821  1.3472
 1118SOL    HW214817   3.450   0.066   8.816 -2.3326 -0.0490  0.7428
 1119SOL     OW14818   3.419   3.936   5.187  0.0394 -0.5606  0.2280
 1119SOL    HW114819   3.323   3.930   5.185 -0.0521  0.9230  0.0948
 1119SOL    HW214820   3.427   4.002   5.256 -1.3855 -0.0814 -0.0553
 1120SOL     OW14821   3.229   0.458   3.474  0.0292  0.1970 -0.3863
 1120SOL    HW114822   3.223   0.516   3.550 -0.2309  0.8293 -0.8916
 1120SOL    HW214823   3.213   0.371   3.510 -0.3355  0.4502  0.0663
 1121SOL     OW14824   0.743   3.508   4.034  0.3038 -0.3202 -0.4460
 1121SOL    HW114825   0.674   3.533   3.972 -0.6038 -1.7312 -0.0095
 1121SOL    HW214826   0.731   3.414   4.047  0.0779 -0.4261 -1.4559
 1122SOL     OW14827   0.820   3.929   5.409 -0.4033  0.4966 -0.2951
 1122SOL    HW114828   0.805   4.017   5.442  1.4867  0.6367  0.1915
 1122SOL    HW214829   0.827   3.878   5.490  3.0433  0.8562 -0.3691
 1123SOL     OW14830   0.787   3.027  17.294 -0.1723  0.3538 -0.3342
 1123SOL    HW114831   0.830   3.033  17.379 -0.2774 -0.6449 -0.2090
 1123SOL    HW214832   0.812   2.937  17.274  0.7564  0.4421  0.4369
 1124SOL     OW14833   1.100   2.119  16.431 -0.9241  0.1581 -0.1997
 1124SOL    HW114834   1.051   2.191  16.472  0.9846  1.3555 -0.0612
 1124SOL    HW214835   1.049   2.043  16.458 -1.4288  1.0454  1.3737
 1125SOL     OW14836   1.789   3.835  10.640  0.1374 -0.0325  0.0088
 1125SOL    HW114837   1.748   3.854  10.724  0.1721  0.2931 -0.0498
 1125SOL    HW214838   1.815   3.920  10.605 -1.0035  1.0082  1.7267
 1126SOL     OW14839   2.661   2.449   8.989  0.1195  0.0024  0.4733
 1126SOL    HW114840   2.704   2.530   8.964 -0.3933  0.1768  0.1486
 1126SOL    HW214841   2.628   2.476   9.075 -0.7914  0.8297 -0.1283
 1127SOL     OW14842   0.613   3.830  14.776 -0.5195  0.1264 -0.1682
 1127SOL    HW114843   0.522   3.804  14.788 -0.1903 -1.2445 -0.5547
 1127SOL    HW214844   0.644   3.761  14.717  0.4817  1.2864 -1.0064
 1128SOL     OW14845   2.878   4.079   2.761 -0.5524  0.1362  0.4412
 1128SOL    HW114846   2.945   4.112   2.700 -0.5509  0.2343  0.4964
 1128SOL    HW214847   2.884   4.150   2.824  2.4018 -0.5504  0.9659
 1129SOL     OW14848   4.481   2.905   0.583  0.0868 -0.2348  0.0070
 1129SOL    HW114849   4.536   2.929   0.509 -0.3786 -0.9785 -0.5785
 1129SOL    HW214850   4.549   2.900   0.649  0.3017  2.1790 -0.0111
 1130SOL     OW14851   0.696   2.094   5.784 -0.6330 -0.1666  0.7216
 1130SOL    HW114852   0.751   2.019   5.761 -1.7281 -0.1851 -1.7579
 1130SOL    HW214853   0.708   2.090   5.879 -0.8789  3.8982  0.9096
 1131SOL     OW14854   2.035   0.852   8.286 -0.0018  0.2844  0.3365
 1131SOL    HW114855   2.036   0.756   8.288 -0.2475  0.2711 -0.3376
 1131SOL    HW214856   1.991   0.864   8.202  1.6030  3.3967 -0.0858
 1132SOL     OW14857   4.153   1.261   6.034 -0.4415  0.0158  0.2594
 1132SOL    HW114858   4.133   1.168   6.021 -0.0928  0.1201 -1.0227
 1132SOL    HW214859   4.243   1.249   6.004 -0.3050  1.3903  0.1221
 1133SOL     OW14860   0.215   0.652   6.311  0.2746  0.6804 -0.1706
 1133SOL    HW114861   0.127   0.677   6.282  0.2640 -1.1286 -1.7086
 1133SOL    HW214862   0.250   0.738   6.334  0.9408  0.1884  0.7085
 1134SOL     OW14863   1.169   0.303   0.748 -0.4726 -0.2171  0.1939
 1134SOL    HW114864   1.229   0.289   0.822 -1.0116 -2.3119  0.2379
 1134SOL    HW214865   1.079   0.302   0.779 -1.0275  1.5601 -1.3437
 1135SOL     OW14866   4.443   1.635   6.043 -0.0538  0.3175 -0.3479
 1135SOL    HW114867   4.367   1.693   6.040 -0.2912  0.0871  1.3184
 1135SOL    HW214868   4.490   1.675   5.969  1.6754  4.3854  2.9229
 1136SOL     OW14869   0.771   1.219   5.838  0.2739  0.2652  0.2907
 1136SOL    HW114870   0.848   1.163   5.830  0.7784  0.9551  0.3224
 1136SOL    HW214871   0.802   1.293   5.889  1.3088  0.9853 -1.4009
 1137SOL     OW14872   0.334   3.037   3.838  0.1846 -0.3593 -0.2991
 1137SOL    HW114873   0.260   3.086   3.800 -0.7997 -1.2672  0.4508
 1137SOL    HW214874   0.316   2.953   3.798 -2.5157 -0.4285  1.0321
 1138SOL     OW14875   0.213   0.685   5.605  0.4700 -0.2389 -0.1381
 1138SOL    HW114876   0.253   0.710   5.521  0.2542  0.9951  0.1298
 1138SOL    HW214877   0.211   0.767   5.654  0.4562 -0.9857  1.0977
 1139SOL     OW14878   3.253   0.635  15.639 -0.5297 -0.2782 -0.2147
 1139SOL    HW114879   3.297   0.611  15.558 -0.3615  2.1266 -0.8421
 1139SOL    HW214880   3.330   0.657  15.691  0.2966 -2.9410 -0.3133
 1140SOL     OW14881   0.643   4.098   8.336 -0.0148 -0.8104 -0.1668
 1140SOL    HW114882   0.720   4.064   8.382 -0.2859 -1.6854 -0.3518
 1140SOL    HW214883   0.622   4.175   8.388 -1.2684 -1.4041  0.2056
 1141SOL     OW14884   1.319   2.387  16.676  0.0368 -0.5236 -0.3003
 1141SOL    HW114885   1.296   2.356  16.764 -0.6165 -0.2254 -0.3689
 1141SOL    HW214886   1.236   2.419  16.641  0.3472  0.0371 -0.5214
 1142SOL     OW14887   2.750   1.666   2.977 -0.6102 -0.4853  0.3991
 1142SOL    HW114888   2.741   1.573   2.996  0.3664 -0.2586  1.9784
 1142SOL    HW214889   2.797   1.650   2.896 -0.3577  1.0931  0.2242
 1143SOL     OW14890   2.207   2.731   2.708 -0.1775  0.4567 -0.2740
 1143SOL    HW114891   2.214   2.691   2.621  0.5339 -0.4641  0.2176
 1143SOL    HW214892   2.116   2.731   2.737 -0.0968  1.5112 -0.0103
 1144SOL     OW14893   1.700   4.095  17.555  0.0321  0.0296 -0.5057
 1144SOL    HW114894   1.612   4.077  17.522 -0.2898 -2.9603  1.9624
 1144SOL    HW214895   1.750   4.020  17.523  1.8562  0.1379  2.0596
 1145SOL     OW14896   1.797   2.938   9.932 -0.5503  0.0943 -0.0375
 1145SOL    HW114897   1.754   3.021   9.949 -0.3774 -0.1590  1.5859
 1145SOL    HW214898   1.775   2.885  10.009 -2.6744 -2.8578 -2.6250
 1146SOL     OW14899   3.924   0.638   2.486  0.6222 -0.4473 -0.1772
 1146SOL    HW114900   3.910   0.544   2.493  1.0805 -0.2968  2.6982
 1146SOL    HW214901   3.992   0.649   2.420 -0.8109 -1.0129 -1.7635
 1147SOL     OW14902   4.468   1.704  12.007 -0.4428 -0.5952 -0.2380
 1147SOL    HW114903   4.554   1.706  11.964 -0.0308 -2.3174  0.5133
 1147SOL    HW214904   4.433   1.677  11.923 -1.6299 -2.8605  0.9909
 1148SOL     OW14905   1.705   4.602  17.363  0.5305 -0.1510  0.2116
 1148SOL    HW114906   1.741   4.672  17.418  0.6166 -0.1481  0.1515
 1148SOL    HW214907   1.733   4.645  17.282 -0.3460  0.2644  0.1229
 1149SOL     OW14908   0.542   4.283  15.283 -0.2157  0.2290 -0.2659
 1149SOL    HW114909   0.612   4.335  15.244 -1.2867  2.8006  1.2112
 1149SOL    HW214910   0.530   4.340  15.358 -1.1263  0.3776 -0.5199
 1150SOL     OW14911   0.097   0.069   4.345 -0.3366 -0.1554  0.1042
 1150SOL    HW114912   0.162   0.058   4.415  0.0826 -0.9966 -0.4160
 1150SOL    HW214913   0.152   0.081   4.267 -4.5817 -1.5861 -3.0957
 1151SOL     OW14914   2.369   1.345   2.786 -0.3363 -0.1175 -0.0250
 1151SOL    HW114915   2.412   1.378   2.865 -0.4676 -0.8248  0.3400
 1151SOL    HW214916   2.295   1.406   2.779  0.0155  0.5911  2.4175
 1152SOL     OW14917   1.905   1.912   7.244  0.7397  0.3225  0.6794
 1152SOL    HW114918   1.950   1.992   7.269  0.9942  0.0310  1.1536
 1152SOL    HW214919   1.844   1.946   7.178 -1.6320  0.4651  2.9390
 1153SOL     OW14920   1.225   0.570   0.649 -0.2713 -0.0253 -0.5461
 1153SOL    HW114921   1.196   0.484   0.681  0.0292  0.2853  0.5358
 1153SOL    HW214922   1.220   0.629   0.723  0.4480 -0.3812 -0.2134
 1154SOL     OW14923   4.146   2.338  13.459  0.2912 -0.3721 -0.1633
 1154SOL    HW114924   4.125   2.329  13.366 -0.4501  0.6154 -0.0842
 1154SOL    HW214925   4.229   2.290  13.450  1.6042  1.6398  1.1678
 1155SOL     OW14926   1.093   4.055  15.124  0.4197 -0.3948 -0.6107
 1155SOL    HW114927   1.067   3.985  15.184 -0.7657  0.5260 -0.0657
 1155SOL    HW214928   1.127   4.002  15.052 -3.1825 -2.0744 -1.0846
 1156SOL     OW14929   1.394   3.889   0.716  0.0043 -0.2417  0.8739
 1156SOL    HW114930   1.425   3.804   0.746 -0.0786 -0.3663  0.6152
 1156SOL    HW214931   1.421   3.897   0.624 -1.1960  1.0270  0.6277
 1157SOL     OW14932   1.660   3.898   8.303 -0.2524  0.2410  0.5712
 1157SOL    HW114933   1.716   3.970   8.273  0.1245  0.6806  2.3651
 1157SOL    HW214934   1.682   3.905   8.395 -0.2810  2.4239  0.4165
 1158SOL     OW14935   1.844   0.889   8.502  0.3350  0.4908 -0.1052
 1158SOL    HW114936   1.909   0.926   8.562  0.4948  2.1096 -1.2747
 1158SOL    HW214937   1.900   0.860   8.430 -1.1452 -1.9826 -0.2166
 1159SOL     OW14938   4.482   3.158   9.548 -0.5944 -0.6533  0.2403
 1159SOL    HW114939   4.455   3.211   9.623 -0.2105  0.3873 -0.3474
 1159SOL    HW214940   4.517   3.086   9.601  2.1633  0.2816 -0.2920
 1160SOL     OW14941   2.823   1.331   6.097 -0.5799  0.1065 -0.1713
 1160SOL    HW114942   2.747   1.386   6.076 -0.2424  1.5724  2.3706
 1160SOL    HW214943   2.821   1.315   6.192  0.8894 -1.0306 -0.3259
 1161SOL     OW14944   4.004   4.119   1.652 -0.6373 -0.4479  0.1706
 1161SOL    HW114945   3.998   4.117   1.557 -0.9676  0.4769  0.1715
 1161SOL    HW214946   4.031   4.031   1.681 -1.0795  0.4811  3.4274
 1162SOL     OW14947   1.137   3.652   8.001 -0.1288  0.1803  0.5305
 1162SOL    HW114948   1.213   3.599   8.027  0.1371  0.3108  0.0317
 1162SOL    HW214949   1.174   3.734   7.967 -0.1888 -0.0705 -0.1400
 1163SOL     OW14950   1.416   3.074  17.650  0.0908 -0.1683 -0.1297
 1163SOL    HW114951   1.367   3.067   0.035 -1.4065 -1.7632 -1.1469
 1163SOL    HW214952   1.405   2.986  17.614  0.7743 -0.7941  1.1926
 1164SOL     OW14953   0.501   3.407   7.299 -0.1411 -0.5414 -0.5623
 1164SOL    HW114954   0.530   3.471   7.364 -5.3530 -1.3442  2.5107
 1164SOL    HW214955   0.485   3.467   7.226  2.3136 -0.1748 -0.8196
 1165SOL     OW14956   1.270   1.679   5.144 -0.3938  0.3002 -0.6432
 1165SOL    HW114957   1.188   1.727   5.151  0.9017  2.5867 -1.1659
 1165SOL    HW214958   1.231   1.594   5.127 -0.4387  0.4906 -1.4693
 1166SOL     OW14959   4.567   1.567   0.977  0.7050  0.1483 -0.0458
 1166SOL    HW114960   4.510   1.577   0.900 -0.5909 -0.3935  0.8521
 1166SOL    HW214961   4.578   1.660   0.995 -0.3001  0.3713 -0.5439
 1167SOL     OW14962   0.396   0.927  15.453 -0.3576  0.5087 -0.0267
 1167SOL    HW114963   0.376   1.005  15.401  0.5136  1.4328  1.0149
 1167SOL    HW214964   0.457   0.889  15.390 -1.0852  0.9593 -1.0027
 1168SOL     OW14965   0.309   1.173   9.231  0.1120 -0.3008  0.2675
 1168SOL    HW114966   0.394   1.132   9.214 -0.5062 -0.7470 -1.7888
 1168SOL    HW214967   0.260   1.093   9.249  1.5250 -0.6210  2.7240
 1169SOL     OW14968   4.203   1.516   2.177 -0.0169  0.2270 -0.2150
 1169SOL    HW114969   4.251   1.595   2.202 -1.8554  0.4077  2.7459
 1169SOL    HW214970   4.159   1.491   2.258 -2.5741 -0.1361 -1.7434
 1170SOL     OW14971   4.123   1.069   2.984 -0.4866 -0.1883  0.3493
 1170SOL    HW114972   4.191   1.086   3.048 -0.5995  1.3796  0.0598
 1170SOL    HW214973   4.127   1.147   2.928  1.6878 -0.1324  0.5960
 1171SOL     OW14974   0.575   2.381   9.120  0.3943 -0.2716 -0.3730
 1171SOL    HW114975   0.574   2.331   9.202  0.7795  2.8208  1.5052
 1171SOL    HW214976   0.613   2.323   9.054  1.4014 -1.2662  1.0788
 1172SOL     OW14977   0.662   2.963   6.877 -0.1644  0.1205  0.0340
 1172SOL    HW114978   0.685   3.055   6.871  1.9538 -0.3757  0.2729
 1172SOL    HW214979   0.732   2.920   6.826 -0.9684 -2.7766  1.3343
 1173SOL     OW14980   4.116   1.226   9.025 -0.0711  0.2217  0.0117
 1173SOL    HW114981   4.027   1.259   9.009 -0.0633  0.6763  0.9196
 1173SOL    HW214982   4.138   1.255   9.113  1.6790  0.4945 -0.5072
 1174SOL     OW14983   3.276   1.791   9.743  0.3547  0.4485 -0.0949
 1174SOL    HW114984   3.220   1.722   9.709  0.3220 -0.5593  2.0365
 1174SOL    HW214985   3.326   1.737   9.804  0.0113  1.2169  0.8653
 1175SOL     OW14986   3.021   2.125   7.459  0.2431  0.2393  0.1848
 1175SOL    HW114987   2.949   2.085   7.507  0.7964  0.1475  0.9245
 1175SOL    HW214988   3.072   2.045   7.461  1.6934  1.2349  2.3494
 1176SOL     OW14989   3.326   0.637   7.585 -0.0456 -0.0419  0.3010
 1176SOL    HW114990   3.327   0.674   7.673 -1.2392  0.1941  0.2130
 1176SOL    HW214991   3.419   0.627   7.563 -0.2086 -1.6926  0.3613
 1177SOL     OW14992   0.343   0.939  17.353 -0.1424 -0.3150 -0.5809
 1177SOL    HW114993   0.287   0.897  17.287  0.7403 -0.9198 -0.9474
 1177SOL    HW214994   0.286   0.948  17.429 -0.0177  0.8218 -0.6308
 1178SOL     OW14995   1.562   3.716   8.578  0.7255  0.3792  0.2630
 1178SOL    HW114996   1.545   3.803   8.542  2.3515  0.7649  0.4169
 1178SOL    HW214997   1.582   3.746   8.667  1.0732  0.0035  0.3105
 1179SOL     OW14998   3.236   3.625   9.023 -0.1609 -0.3090  0.1845
 1179SOL    HW114999   3.239   3.720   9.033  0.3254 -0.5135  1.8936
 1179SOL    HW215000   3.221   3.596   9.112 -1.2532  0.9460  0.4198
 1180SOL     OW15001   3.811   1.014   6.091 -0.2542 -0.7468  0.7542
 1180SOL    HW115002   3.730   0.984   6.050 -0.2873  2.3187 -1.4341
 1180SOL    HW215003   3.871   0.997   6.018  0.7741 -0.8868  1.6303
 1181SOL     OW15004   4.268   4.446   4.212  1.1988  0.2172 -0.5092
 1181SOL    HW115005   4.231   4.441   4.124 -0.2739  1.9710  0.0109
 1181SOL    HW215006   4.342   4.386   4.201 -0.4112 -2.2013  1.7151
 1182SOL     OW15007   2.001   3.235   1.465  0.5734  0.3686 -0.1965
 1182SOL    HW115008   1.916   3.278   1.477  0.0979 -0.6818  0.1707
 1182SOL    HW215009   2.019   3.206   1.554 -0.2347 -0.8025 -0.4150
 1183SOL     OW15010   3.286   3.222   9.987 -0.2742 -0.3490  0.1681
 1183SOL    HW115011   3.369   3.177   9.999 -0.6029 -0.5147  1.7375
 1183SOL    HW215012   3.246   3.160   9.925  1.3318 -1.5643  0.3570
 1184SOL     OW15013   2.187   1.881   4.043 -0.1872  0.2342 -0.2070
 1184SOL    HW115014   2.161   1.795   4.077  2.6867 -0.6816 -0.3190
 1184SOL    HW215015   2.113   1.933   4.073 -0.1584 -0.0987  0.4328
 1185SOL     OW15016   1.010   0.579   8.811  0.7180  0.4034  0.1798
 1185SOL    HW115017   1.047   0.580   8.723 -0.0692  1.8979 -0.1348
 1185SOL    HW215018   1.022   0.486   8.828  2.7149  0.5091 -0.7163
 1186SOL     OW15019   0.261   0.381   8.630  0.4810  0.0997  0.0987
 1186SOL    HW115020   0.314   0.339   8.562 -1.4931  0.8613 -1.9275
 1186SOL    HW215021   0.267   0.310   8.693 -1.0497  1.2189  1.4787
 1187SOL     OW15022   3.916   4.408  16.387  0.2867 -0.6769  0.2328
 1187SOL    HW115023   3.982   4.463  16.345 -0.2644 -0.1487  0.0673
 1187SOL    HW215024   3.894   4.345  16.319  0.3487  0.4647 -0.8324
 1188SOL     OW15025   0.280   1.535  17.050  0.6362  0.0013 -0.4090
 1188SOL    HW115026   0.293   1.445  17.020  2.8208  1.1891 -3.0676
 1188SOL    HW215027   0.289   1.515  17.143  0.3221 -0.2294 -0.4278
 1189SOL     OW15028   1.098   3.988  11.571  0.0045 -0.8451 -0.2788
 1189SOL    HW115029   1.190   4.005  11.591 -0.4523 -0.1416  1.2565
 1189SOL    HW215030   1.096   3.897  11.601 -0.2836 -0.6532  0.2892
 1190SOL     OW15031   0.819   3.718   3.205 -0.9893 -0.4601  0.5180
 1190SOL    HW115032   0.839   3.774   3.280  1.1098 -1.3921  0.6621
 1190SOL    HW215033   0.823   3.627   3.237 -2.0130 -0.3356  1.0020
 1191SOL     OW15034   1.258   2.928  10.258 -0.1761  0.3800  0.3918
 1191SOL    HW115035   1.268   2.942  10.164  1.7713  1.3102  0.7380
 1191SOL    HW215036   1.186   2.986  10.280 -0.2452  0.7866 -0.8818
 1192SOL     OW15037   2.551   1.377  13.344 -0.4112 -0.0447 -0.0094
 1192SOL    HW115038   2.521   1.333  13.423  0.4576  0.1643  0.4414
 1192SOL    HW215039   2.640   1.404  13.369  0.8597 -2.9424 -1.3088
 1193SOL     OW15040   4.403   0.747   2.143  0.2911  0.2086  0.0109
 1193SOL    HW115041   4.498   0.733   2.147  0.2185 -0.4408 -0.4161
 1193SOL    HW215042   4.385   0.792   2.225  2.4806  1.1835 -0.0419
 1194SOL     OW15043   0.544   1.593  12.507  0.4281 -0.2784 -0.1443
 1194SOL    HW115044   0.567   1.607  12.415  0.9718  1.4149  0.2565
 1194SOL    HW215045   0.566   1.501  12.519  1.1192 -0.1548 -0.5061
 1195SOL     OW15046   3.106   2.648  13.446 -0.2000  0.0318  0.1978
 1195SOL    HW115047   3.064   2.694  13.519  0.7860 -0.3084  0.9897
 1195SOL    HW215048   3.119   2.566  13.492 -0.4246  0.1069  0.3906
 1196SOL     OW15049   2.493   3.703   8.755 -0.0064 -0.3350  0.2263
 1196SOL    HW115050   2.554   3.666   8.691  1.4718  2.2361  0.1126
 1196SOL    HW215051   2.439   3.625   8.766 -0.1716 -0.2334  0.1466
 1197SOL     OW15052   2.897   1.409   8.602  0.2400  0.8233  0.2534
 1197SOL    HW115053   2.866   1.341   8.661 -0.6621  0.5450 -0.5279
 1197SOL    HW215054   2.848   1.392   8.521  2.3341 -2.6215 -0.2575
 1198SOL     OW15055   2.747   2.908   9.735  0.9334  0.5709  0.4484
 1198SOL    HW115056   2.699   2.908   9.652  0.1490  0.0159  0.8999
 1198SOL    HW215057   2.683   2.935   9.801 -0.6437 -0.3401 -0.6884
 1199SOL     OW15058   0.274   0.094   2.855 -0.1104 -0.3654 -0.1256
 1199SOL    HW115059   0.293   0.001   2.862 -0.7845 -0.4172  1.0301
 1199SOL    HW215060   0.344   0.128   2.799  0.1511 -0.9584 -0.1605
 1200SOL     OW15061   3.199   2.151   9.819  0.2821 -0.6023  0.4795
 1200SOL    HW115062   3.135   2.159   9.748  1.4784 -3.9455 -0.9887
 1200SOL    HW215063   3.272   2.102   9.781  0.4043 -0.4338  0.4945
 1201SOL     OW15064   3.173   0.776   5.574  0.1896  0.3688  0.4171
 1201SOL    HW115065   3.094   0.737   5.611  0.2867 -1.2148 -1.0606
 1201SOL    HW215066   3.223   0.702   5.541  0.9575  0.7692  0.6785
 1202SOL     OW15067   4.612   0.495   7.677  0.2828 -0.3607 -0.6232
 1202SOL    HW115068   4.687   0.452   7.719 -1.1915  0.6725  3.0861
 1202SOL    HW215069   4.557   0.417   7.681 -0.1105 -0.1694 -2.6666
 1203SOL     OW15070   0.937   4.063  11.821  0.0526  0.6269  0.4629
 1203SOL    HW115071   1.002   4.106  11.877 -0.1050  0.4009  0.8248
 1203SOL    HW215072   0.975   4.069  11.734 -0.3780  0.2552  0.2497
 1204SOL     OW15073   4.001   3.459   9.371  0.2292 -0.4493  0.5327
 1204SOL    HW115074   3.965   3.391   9.427 -2.7010  0.8616  0.2059
 1204SOL    HW215075   4.046   3.403   9.307  1.6828  0.9772  0.3120
 1205SOL     OW15076   4.672   2.822  13.682 -0.2445 -0.4797  0.3720
 1205SOL    HW115077   4.712   2.748  13.727  0.4943 -0.3288 -0.0233
 1205SOL    HW215078   4.581   2.794  13.676 -0.5870  0.6229  0.3891
 1206SOL     OW15079   3.691   2.310   0.854 -0.6601  0.1028 -0.0144
 1206SOL    HW115080   3.613   2.366   0.852  0.0054  0.9608 -1.6142
 1206SOL    HW215081   3.677   2.258   0.775 -1.3012 -1.0689  0.8813
 1207SOL     OW15082   3.028   1.492   6.883  0.1412 -0.4866 -0.0616
 1207SOL    HW115083   2.944   1.499   6.838 -0.1684  0.8150  0.6993
 1207SOL    HW215084   3.028   1.399   6.906  0.2029 -0.6603 -0.7763
 1208SOL     OW15085   4.668   4.619   2.325 -0.0222  0.0448  0.0279
 1208SOL    HW115086   4.623   4.658   2.400  1.1654 -0.1937  0.8714
 1208SOL    HW215087   4.694   4.705   2.294 -0.9406  0.1024 -0.5774
 1209SOL     OW15088   1.857   3.785   9.577  0.7104  0.3392 -0.1424
 1209SOL    HW115089   1.768   3.788   9.543  0.8169 -2.6799 -0.6050
 1209SOL    HW215090   1.888   3.866   9.535  1.9741 -0.1100 -0.0634
 1210SOL     OW15091   1.149   4.310   0.733 -0.1169  0.3670  0.3621
 1210SOL    HW115092   1.159   4.326   0.827 -3.0044 -0.5763  0.8361
 1210SOL    HW215093   1.232   4.265   0.725 -0.0033  0.2525  2.2055
 1211SOL     OW15094   4.218   0.415  15.739 -0.4268  0.1013 -0.3200
 1211SOL    HW115095   4.205   0.509  15.725  2.7434  1.0755  3.2191
 1211SOL    HW215096   4.309   0.411  15.770 -1.3760  2.7180  2.8556
 1212SOL     OW15097   0.686   4.127   1.993 -0.3318  0.1522  0.4920
 1212SOL    HW115098   0.678   4.209   2.042  1.7345  0.4221  0.3517
 1212SOL    HW215099   0.620   4.069   2.031 -1.2408  0.8481  0.0146
 1213SOL     OW15100   2.471   2.210  17.036  0.4050  0.3071  0.0103
 1213SOL    HW115101   2.466   2.122  17.000 -2.3204 -0.3016  1.9222
 1213SOL    HW215102   2.543   2.200  17.099  1.1507 -1.0189 -1.0669
 1214SOL     OW15103   0.874   2.067   6.039 -0.4809  0.3433  0.0862
 1214SOL    HW115104   0.875   1.974   6.016 -0.5782  1.0565 -2.7761
 1214SOL    HW215105   0.943   2.069   6.105 -1.3402  0.0074  0.9842
 1215SOL     OW15106   0.886   1.130   3.545 -0.7971  0.4201  0.3670
 1215SOL    HW115107   0.818   1.179   3.499  0.4544  1.7188 -0.0957
 1215SOL    HW215108   0.844   1.046   3.567 -0.4041 -0.1237 -0.9855
 1216SOL     OW15109   2.547   3.583   2.009 -0.4515  0.1611  0.4633
 1216SOL    HW115110   2.610   3.513   2.029  1.0386  0.9006 -1.6232
 1216SOL    HW215111   2.536   3.565   1.916 -2.4917  1.4305  0.4494
 1217SOL     OW15112   3.871   1.547   6.391 -0.0977  0.3770  0.1363
 1217SOL    HW115113   3.931   1.477   6.364  1.4394  1.2054  1.3922
 1217SOL    HW215114   3.798   1.530   6.331  1.0173 -1.4069 -0.7273
 1218SOL     OW15115   1.485   3.331   1.487  0.1618  0.4286  0.3211
 1218SOL    HW115116   1.498   3.426   1.488  3.1528  0.0144  0.2367
 1218SOL    HW215117   1.425   3.310   1.415  1.3914  0.9131 -0.8322
 1219SOL     OW15118   0.860   0.571  14.008  0.2311  0.3558 -0.0876
 1219SOL    HW115119   0.880   0.614  13.925 -0.8529  0.7843 -0.1387
 1219SOL    HW215120   0.829   0.484  13.983  0.0573  0.2549  0.4824
 1220SOL     OW15121   2.015   3.196   7.276  0.8198  0.7188  0.0989
 1220SOL    HW115122   1.929   3.170   7.244  0.6021 -1.1188  2.1877
 1220SOL    HW215123   2.027   3.160   7.364 -0.7941  2.9772  1.2466
 1221SOL     OW15124   2.457   1.310  13.593  0.2447 -0.0836 -0.0106
 1221SOL    HW115125   2.463   1.394  13.639 -0.3407 -0.1641  0.2143
 1221SOL    HW215126   2.422   1.271  13.673  2.0843 -1.4136  0.1361
 1222SOL     OW15127   4.635   0.640   5.686 -0.0002  0.2737 -0.1362
 1222SOL    HW115128   4.599   0.714   5.636 -1.7150 -1.7819 -1.9292
 1222SOL    HW215129   0.002   0.668   5.696  0.3156 -0.8390  0.1461
 1223SOL     OW15130   1.637   1.317   2.218  0.2124  0.7794  0.3535
 1223SOL    HW115131   1.664   1.373   2.145 -0.6023  0.4880 -0.1680
 1223SOL    HW215132   1.702   1.248   2.206  0.4152  1.0487 -0.1292
 1224SOL     OW15133   2.691   1.428  11.236 -0.3956  0.2348 -0.1307
 1224SOL    HW115134   2.729   1.431  11.149 -0.4007  1.1152 -0.1056
 1224SOL    HW215135   2.670   1.336  11.255  0.4362  0.2692  0.9688
 1225SOL     OW15136   1.516   4.098   1.838 -0.0098  0.2129  0.1619
 1225SOL    HW115137   1.474   4.153   1.904  0.3347  0.3474  0.2681
 1225SOL    HW215138   1.502   4.009   1.871 -1.2635  0.2829 -0.1742
 1226SOL     OW15139   4.706   2.544   3.519 -0.0944  0.3841  0.3106
 1226SOL    HW115140   0.053   2.479   3.521 -1.4491 -1.0936  0.4550
 1226SOL    HW215141   0.021   2.605   3.456  1.6260 -0.1460  0.8669
 1227SOL     OW15142   3.387   4.331  12.006 -0.0463  0.4686  0.1919
 1227SOL    HW115143   3.338   4.305  12.084  0.8201  0.9241  0.9024
 1227SOL    HW215144   3.322   4.343  11.937 -0.3356 -0.4161  0.3156
 1228SOL     OW15145   0.686   0.067   3.378 -0.3437 -0.4383  0.0164
 1228SOL    HW115146   0.650   0.053   3.465  3.9592 -1.0268  1.6987
 1228SOL    HW215147   0.673   0.161   3.369 -1.2377 -0.4178  1.5886
 1229SOL     OW15148   4.308   4.241  13.963 -0.0585 -0.2436 -0.5162
 1229SOL    HW115149   4.251   4.167  13.980 -1.0069  1.2953  2.8091
 1229SOL    HW215150   4.385   4.186  13.949  1.7904  1.4265  3.2232
 1230SOL     OW15151   2.591   2.435   6.414  0.1765  0.5077 -0.4280
 1230SOL    HW115152   2.628   2.519   6.387 -0.0353  1.0739  1.0776
 1230SOL    HW215153   2.554   2.462   6.498  0.9648  0.5010 -0.0843
 1231SOL     OW15154   0.274   0.758   7.382 -0.0053 -0.2904  0.0227
 1231SOL    HW115155   0.207   0.697   7.352 -1.5825  2.2275 -1.5852
 1231SOL    HW215156   0.297   0.718   7.466 -1.2832 -0.5406  0.2606
 1232SOL     OW15157   1.426   0.286   5.747 -0.1988  0.0628 -0.2143
 1232SOL    HW115158   1.436   0.194   5.772  0.5310  0.0949 -0.3992
 1232SOL    HW215159   1.514   0.321   5.735 -1.2955  2.7604 -0.3350
 1233SOL     OW15160   3.141   4.252  14.768 -0.0273  0.1132  0.1294
 1233SOL    HW115161   3.236   4.244  14.764 -0.1124 -0.7609 -0.1811
 1233SOL    HW215162   3.132   4.270  14.861  2.0891 -1.2942  0.5824
 1234SOL     OW15163   4.249   0.555   1.253  0.1313  0.0408 -0.1029
 1234SOL    HW115164   4.311   0.497   1.209 -0.4560 -2.4208  2.3288
 1234SOL    HW215165   4.226   0.603   1.174 -0.4886  0.0026  0.0556
 1235SOL     OW15166   3.457   1.377  11.958 -1.0549  1.0097  0.3153
 1235SOL    HW115167   3.433   1.294  11.999  2.2319 -0.3973 -0.6018
 1235SOL    HW215168   3.465   1.435  12.033  0.1426  0.0690  0.9245
 1236SOL     OW15169   2.987   3.128   3.919  0.0754 -0.3728 -0.3552
 1236SOL    HW115170   3.041   3.076   3.979  0.8687  0.1837 -0.5871
 1236SOL    HW215171   3.002   3.086   3.834 -1.3570  1.3678 -1.4593
 1237SOL     OW15172   2.449   1.648   1.495  0.3882  0.1545 -0.1225
 1237SOL    HW115173   2.533   1.638   1.450  1.0274  0.8405  0.9326
 1237SOL    HW215174   2.433   1.742   1.492 -2.5747 -0.3962 -1.9889
 1238SOL     OW15175   2.258   2.275  16.710  0.3919  0.2153 -0.4224
 1238SOL    HW115176   2.228   2.200  16.762 -3.1015  0.4473 -2.1134
 1238SOL    HW215177   2.181   2.332  16.708  0.6024  0.4852 -0.7825
 1239SOL     OW15178   3.703   4.505  14.147  0.3357 -0.1428  0.3639
 1239SOL    HW115179   3.726   4.433  14.205 -0.7019  0.5388  1.6277
 1239SOL    HW215180   3.630   4.472  14.095  0.2393 -0.8290  0.9415
 1240SOL     OW15181   0.465   3.093   8.618 -0.2422 -0.4426 -0.3421
 1240SOL    HW115182   0.514   3.029   8.566 -0.9032 -0.6861 -0.6585
 1240SOL    HW215183   0.542   3.131   8.660 -1.8343  1.3165  1.0044
 1241SOL     OW15184   4.501   0.708   4.022 -0.2431  0.6892  0.6545
 1241SOL    HW115185   4.406   0.704   4.037  0.1409 -1.3583  2.4302
 1241SOL    HW215186   4.530   0.618   4.035  1.5711  1.3430  1.1481
 1242SOL     OW15187   1.346   2.888   4.823 -0.9522  0.4426  0.1036
 1242SOL    HW115188   1.262   2.913   4.862 -1.2031 -1.7813  0.9519
 1242SOL    HW215189   1.303   2.839   4.753 -1.4325  2.2074 -0.8360
 1243SOL     OW15190   3.006   0.399   6.329 -0.5515  0.3841  0.1042
 1243SOL    HW115191   3.067   0.385   6.257 -2.2570  0.6347 -1.3931
 1243SOL    HW215192   3.057   0.366   6.403  0.8874  0.3413 -0.9129
 1244SOL     OW15193   2.028   2.596   3.475 -0.1591 -1.0091  0.0024
 1244SOL    HW115194   2.057   2.599   3.566  0.0660 -3.2012 -0.0075
 1244SOL    HW215195   2.104   2.632   3.429  0.3130 -1.6706  0.2635
 1245SOL     OW15196   0.762   4.371  10.497  0.2178 -0.4802  0.3430
 1245SOL    HW115197   0.824   4.388  10.567 -1.0592  2.0209  0.8388
 1245SOL    HW215198   0.690   4.336  10.550  0.3275 -0.3021  0.6078
 1246SOL     OW15199   1.029   3.257   8.019  0.4355 -0.1492  0.0883
 1246SOL    HW115200   1.117   3.237   7.988  1.1539  1.4889  1.0621
 1246SOL    HW215201   1.010   3.175   8.064 -4.5462  1.5895  1.1886
 1247SOL     OW15202   0.281   0.905  14.586 -0.0875 -0.2751  0.2165
 1247SOL    HW115203   0.257   0.928  14.676 -2.5174 -0.6224 -0.3547
 1247SOL    HW215204   0.297   0.811  14.588  0.3095 -0.1979  0.6912
 1248SOL     OW15205   4.635   1.580   2.962 -0.5258  0.1105  0.6961
 1248SOL    HW115206   4.605   1.500   2.921 -1.9308 -0.4884  2.8637
 1248SOL    HW215207   4.550   1.623   2.972 -0.5218  0.0616  0.9544
 1249SOL     OW15208   1.829   1.286  17.196 -0.1157 -0.2360 -0.1387
 1249SOL    HW115209   1.750   1.232  17.191 -0.5308  0.4642 -1.2108
 1249SOL    HW215210   1.891   1.238  17.249 -0.4403 -2.1448 -1.5028
 1250SOL     OW15211   1.564   1.633   3.607  0.2175 -0.2474 -0.2724
 1250SOL    HW115212   1.486   1.601   3.654  1.5875 -3.3282 -0.0940
 1250SOL    HW215213   1.557   1.726   3.625  2.0546 -0.0777 -0.5105
 1251SOL     OW15214   1.424   2.496   3.996 -0.5050  0.0561  0.3637
 1251SOL    HW115215   1.371   2.552   4.052  1.7330  0.5910  1.9133
 1251SOL    HW215216   1.392   2.515   3.908  0.5232 -0.4491 -0.1202
 1252SOL     OW15217   4.266   1.564   0.015 -0.1979 -0.0913 -0.2000
 1252SOL    HW115218   4.280   1.609  17.629  1.4651 -1.2785 -0.5607
 1252SOL    HW215219   4.171   1.574   0.009 -0.0814  2.1121  1.5944
 1253SOL     OW15220   1.569   3.627   5.618  0.0970 -0.2154  0.1895
 1253SOL    HW115221   1.566   3.532   5.632  1.3921 -0.1742  0.7677
 1253SOL    HW215222   1.475   3.637   5.605  0.3806  0.3993 -1.3645
 1254SOL     OW15223   2.169   0.364   2.319  0.3095  0.4330 -0.3104
 1254SOL    HW115224   2.162   0.270   2.336  1.2774  0.7175  1.6625
 1254SOL    HW215225   2.260   0.382   2.342  0.9307  1.1625 -3.2919
 1255SOL     OW15226   3.247   4.350   5.634  0.4625 -0.0104  0.3344
 1255SOL    HW115227   3.323   4.292   5.633  0.3989 -0.0945  0.4636
 1255SOL    HW215228   3.203   4.330   5.551 -0.6495  0.3720  0.8347
 1256SOL     OW15229   3.865   0.824   5.054  0.6116  0.0444  0.0216
 1256SOL    HW115230   3.838   0.890   4.990  1.3143 -0.5481 -0.8639
 1256SOL    HW215231   3.879   0.742   5.008  3.5377  0.7028 -0.2208
 1257SOL     OW15232   0.199   3.484   4.169 -0.2401  0.8478  0.0653
 1257SOL    HW115233   0.130   3.434   4.124 -0.6189  1.4579 -0.0249
 1257SOL    HW215234   0.187   3.447   4.256 -0.0387 -0.7680 -0.5873
 1258SOL     OW15235   0.830   1.826  13.970  0.2104 -0.7051 -0.0949
 1258SOL    HW115236   0.888   1.762  14.010 -1.4676 -3.0245 -1.3705
 1258SOL    HW215237   0.788   1.780  13.897  0.4376  0.1860 -0.7987
 1259SOL     OW15238   4.471   0.078  16.953  0.5222  0.1748  0.3088
 1259SOL    HW115239   4.555   0.083  16.908 -1.0056 -0.1183 -2.5596
 1259SOL    HW215240   4.416   0.122  16.889  0.1977 -0.5698  0.0788
 1260SOL     OW15241   0.713   1.830  16.142 -0.7573 -0.2673 -0.2824
 1260SOL    HW115242   0.691   1.921  16.122 -1.9494 -0.5903 -0.4784
 1260SOL    HW215243   0.628   1.796  16.112 -0.5819 -0.9109 -0.0506
 1261SOL     OW15244   3.386   3.023   5.022  0.7227 -0.4284  0.2996
 1261SOL    HW115245   3.432   3.051   5.101 -2.5232 -0.5648  2.2830
 1261SOL    HW215246   3.442   2.951   4.995  0.9335 -0.4434  0.7769
 1262SOL     OW15247   0.575   2.680   3.141  0.1049  0.0926  0.0791
 1262SOL    HW115248   0.583   2.729   3.059 -0.5299 -0.3780 -0.2714
 1262SOL    HW215249   0.599   2.744   3.207  1.2728  0.3713 -0.6098
 1263SOL     OW15250   1.622   1.332   0.833 -0.6889 -0.3464 -0.5272
 1263SOL    HW115251   1.578   1.362   0.913  4.6334 -1.1485  2.7080
 1263SOL    HW215252   1.556   1.276   0.791 -1.0885 -0.0029 -0.3612
 1264SOL     OW15253   0.932   3.754   4.665  0.5647  0.2645 -0.3895
 1264SOL    HW115254   0.955   3.796   4.748  0.5563 -1.4826  0.5013
 1264SOL    HW215255   0.845   3.715   4.668  0.0185  1.5656  0.5769
 1265SOL     OW15256   3.463   4.131  10.190 -0.6767 -0.5514 -0.3029
 1265SOL    HW115257   3.447   4.181  10.269 -0.6876  0.3497 -0.8814
 1265SOL    HW215258   3.447   4.046  10.231  2.2073 -0.2848  1.3619
 1266SOL     OW15259   3.808   1.728   9.644  0.3049 -0.2472  0.5981
 1266SOL    HW115260   3.850   1.710   9.559 -0.2758  1.4337 -0.0367
 1266SOL    HW215261   3.884   1.712   9.700  1.8712  0.2756 -1.3782
 1267SOL     OW15262   2.548   1.572  12.668  0.0518  0.6141  0.2739
 1267SOL    HW115263   2.516   1.585  12.579  1.2097 -0.3802 -0.2862
 1267SOL    HW215264   2.520   1.483  12.685  0.6943  0.2986 -0.2761
 1268SOL     OW15265   1.543   0.343   8.500 -0.5758 -0.0766 -0.1419
 1268SOL    HW115266   1.454   0.377   8.512 -1.2948 -2.0093  0.1346
 1268SOL    HW215267   1.562   0.381   8.414 -0.1561  0.9212  0.3936
 1269SOL     OW15268   4.640   4.004   1.281 -0.1453 -0.6091  0.4417
 1269SOL    HW115269   4.633   4.082   1.225 -2.5129 -0.0547  1.5094
 1269SOL    HW215270   4.547   3.983   1.284 -0.6730  1.1794 -3.1966
 1270SOL     OW15271   0.166   0.663   2.999 -0.3973  0.0320 -0.0460
 1270SOL    HW115272   0.167   0.753   2.966 -1.1837 -0.3709 -1.1729
 1270SOL    HW215273   0.169   0.603   2.925  0.4271 -0.9864  0.8052
 1271SOL     OW15274   0.980   0.693   7.816  0.1516 -0.1868 -0.2664
 1271SOL    HW115275   1.050   0.722   7.758  0.6161 -2.1809 -0.7289
 1271SOL    HW215276   0.933   0.775   7.830 -0.4006 -0.4045 -0.8688
 1272SOL     OW15277   2.088   2.280   5.966 -0.0316 -0.0991 -0.7319
 1272SOL    HW115278   2.155   2.334   5.924 -0.7266  1.9770  0.8311
 1272SOL    HW215279   2.053   2.330   6.040 -0.4750  0.4040 -1.2823
 1273SOL     OW15280   4.086   0.788  17.100 -0.4895  0.2181  0.1823
 1273SOL    HW115281   4.104   0.697  17.121 -0.0709  1.2308  4.0860
 1273SOL    HW215282   4.001   0.811  17.137 -0.7077  0.4061 -0.4280
 1274SOL     OW15283   1.491   1.879   7.466 -0.2311 -0.1919  0.2628
 1274SOL    HW115284   1.483   1.951   7.404  0.2366  0.3135  0.7897
 1274SOL    HW215285   1.586   1.863   7.468 -0.2573 -0.3457  0.2897
 1275SOL     OW15286   3.308   2.742   0.532  0.1911 -0.5710  0.2189
 1275SOL    HW115287   3.214   2.760   0.542  0.3726  0.1922  0.6137
 1275SOL    HW215288   3.307   2.650   0.557  0.9071 -0.5826  0.2030
 1276SOL     OW15289   2.804   4.440  11.236  0.1084  0.3694  0.8385
 1276SOL    HW115290   2.812   4.348  11.263  0.0526 -0.7210 -2.8463
 1276SOL    HW215291   2.853   4.489  11.302  1.9100 -0.3879  0.0832
 1277SOL     OW15292   2.856   4.475   8.990 -0.0204  0.3652 -0.0828
 1277SOL    HW115293   2.903   4.492   8.909  0.1943 -1.3091 -0.2991
 1277SOL    HW215294   2.765   4.463   8.962  0.0590 -0.8297  0.1706
 1278SOL     OW15295   2.459   1.830  10.964  0.3099  0.4351 -0.4857
 1278SOL    HW115296   2.372   1.821  10.926  1.3987 -0.1350 -2.8414
 1278SOL    HW215297   2.440   1.852  11.055 -1.2264 -0.3029 -0.6389
 1279SOL     OW15298   1.680   4.530   3.450 -0.1884  0.3126  0.3059
 1279SOL    HW115299   1.622   4.454   3.444 -2.0876  1.9396 -1.8673
 1279SOL    HW215300   1.643   4.595   3.390  0.8367  0.7676  0.1717
 1280SOL     OW15301   0.913   3.584   3.609 -0.4751  0.5143 -0.1591
 1280SOL    HW115302   0.941   3.551   3.694 -1.2826 -1.0279 -0.4952
 1280SOL    HW215303   0.985   3.645   3.592  0.4819 -0.3587  0.7580
 1281SOL     OW15304   0.664   2.759   2.816  0.0113  0.0451 -0.2760
 1281SOL    HW115305   0.576   2.795   2.804  1.3855  3.2403 -0.7666
 1281SOL    HW215306   0.703   2.824   2.874 -2.1060 -0.3327  1.5693
 1282SOL     OW15307   3.968   1.749   8.449  0.2247 -0.2216  0.3531
 1282SOL    HW115308   3.955   1.844   8.446 -0.7731 -0.4114 -1.4247
 1282SOL    HW215309   3.987   1.744   8.543  0.5555  0.9850  0.3457
 1283SOL     OW15310   0.962   4.026  10.894 -0.0965 -0.0636  0.1407
 1283SOL    HW115311   0.964   4.101  10.834  0.0921  0.6703  1.0611
 1283SOL    HW215312   1.039   3.976  10.870  0.9450  0.4519  2.3945
 1284SOL     OW15313   1.216   2.265   5.531  0.0633  0.0427  0.4743
 1284SOL    HW115314   1.245   2.351   5.561  0.9413  0.7641 -2.3548
 1284SOL    HW215315   1.130   2.288   5.495  0.9936 -0.1096 -1.8792
 1285SOL     OW15316   0.634   4.493  15.987 -0.1942 -0.3815 -0.2496
 1285SOL    HW115317   0.591   4.526  15.908 -2.4808  0.1945  1.2149
 1285SOL    HW215318   0.583   4.414  16.003 -1.3509  0.3644 -0.2115
 1286SOL     OW15319   4.244   3.442   6.759 -0.3738  0.0463  0.0254
 1286SOL    HW115320   4.278   3.353   6.774  1.6572  0.4898 -1.8679
 1286SOL    HW215321   4.302   3.469   6.688  1.0150 -1.0004  0.7452
 1287SOL     OW15322   0.388   1.948   2.497  0.7591 -0.2831  0.0987
 1287SOL    HW115323   0.358   2.018   2.438  0.7369 -0.1786  0.2338
 1287SOL    HW215324   0.472   1.932   2.454  1.2237  2.5175 -0.0312
 1288SOL     OW15325   3.670   0.232   3.210  0.8092  0.3909 -0.6167
 1288SOL    HW115326   3.756   0.229   3.168  0.4696  2.5385 -1.4427
 1288SOL    HW215327   3.684   0.156   3.266  0.1283  1.0453  0.4233
 1289SOL     OW15328   1.942   4.630   7.482 -0.6988  0.4330 -0.0363
 1289SOL    HW115329   1.852   4.657   7.467 -0.8878 -0.4249 -0.4962
 1289SOL    HW215330   1.929   4.571   7.557  0.5464  0.5547  0.2770
 1290SOL     OW15331   1.608   2.619   2.218 -0.1818 -0.1127  0.3190
 1290SOL    HW115332   1.652   2.621   2.133 -0.5193  1.3983  0.1715
 1290SOL    HW215333   1.526   2.578   2.192  0.0820 -1.3210  1.3874
 1291SOL     OW15334   3.411   1.578  11.032 -0.1399 -0.2990 -0.2385
 1291SOL    HW115335   3.457   1.639  10.975  0.4699  2.2706  3.0634
 1291SOL    HW215336   3.472   1.570  11.105  0.5358 -2.1686 -0.9924
 1292SOL     OW15337   0.719   4.232   2.396 -0.0423 -0.3410 -0.0647
 1292SOL    HW115338   0.717   4.137   2.399  0.2545 -0.3899 -1.6916
 1292SOL    HW215339   0.631   4.254   2.428 -0.3527 -2.0987  0.2745
 1293SOL     OW15340   0.380   2.651   3.334  0.6021  0.0810  0.5169
 1293SOL    HW115341   0.368   2.556   3.338  3.7222 -0.2082  2.8977
 1293SOL    HW215342   0.450   2.666   3.271  0.1163  1.5633  0.3308
 1294SOL     OW15343   1.814   2.586   4.406  0.0973  0.1377 -0.8154
 1294SOL    HW115344   1.890   2.638   4.381 -0.0305  0.7340  0.0460
 1294SOL    HW215345   1.790   2.545   4.323 -1.5064 -0.2430 -0.1652
 1295SOL     OW15346   2.976   3.008  15.141  0.4481  0.3075 -0.0844
 1295SOL    HW115347   2.934   3.014  15.055 -0.1530 -0.9650  0.1263
 1295SOL    HW215348   2.919   3.047  15.207  0.6236 -1.1491  0.9145
 1296SOL     OW15349   2.719   2.629   4.896 -0.4825  0.5401 -0.2216
 1296SOL    HW115350   2.653   2.629   4.965 -4.0044 -0.8449 -3.5988
 1296SOL    HW215351   2.783   2.566   4.929 -1.1904 -1.2806 -2.4205
 1297SOL     OW15352   2.064   3.702   6.989 -0.7783 -0.3570  0.3560
 1297SOL    HW115353   2.090   3.789   6.957  2.5200 -1.3461  0.4004
 1297SOL    HW215354   1.971   3.704   6.966 -0.2688 -1.8206 -1.8189
 1298SOL     OW15355   4.678   0.509   1.716 -0.0019  0.3477 -0.3674
 1298SOL    HW115356   0.050   0.510   1.715 -0.0181  1.9310  0.4565
 1298SOL    HW215357   4.662   0.496   1.622 -0.8127  1.2557 -0.3584
 1299SOL     OW15358   1.583   4.596   7.056 -0.0607  0.1947  0.1779
 1299SOL    HW115359   1.635   4.653   6.998 -1.8983  1.5318 -0.1551
 1299SOL    HW215360   1.522   4.657   7.097 -1.0994 -0.8207  0.1076
 1300SOL     OW15361   3.504   0.786   8.119  0.0704  0.1851  0.4115
 1300SOL    HW115362   3.589   0.830   8.123  0.9453 -1.5920  1.0697
 1300SOL    HW215363   3.437   0.854   8.129 -0.3073 -0.3287  1.4047
 1301SOL     OW15364   0.404   4.555  12.228 -0.7574  0.0486 -0.2457
 1301SOL    HW115365   0.479   4.498  12.212 -0.6557  0.2813 -0.6053
 1301SOL    HW215366   0.343   4.514  12.166  0.1723  0.4418 -1.4167
 1302SOL     OW15367   2.317   4.640   0.221 -0.3242 -0.2488  0.3297
 1302SOL    HW115368   2.404   4.614   0.250  0.4874 -0.2556 -2.1186
 1302SOL    HW215369   2.294   4.716   0.274 -0.2914 -0.4003  0.5590
 1303SOL     OW15370   3.200   0.274   6.155  0.0427  0.3675 -0.4340
 1303SOL    HW115371   3.273   0.255   6.096 -0.1117 -0.5601 -0.3174
 1303SOL    HW215372   3.124   0.238   6.109  1.8013 -0.6341 -2.6179
 1304SOL     OW15373   2.230   4.228   1.432  0.4082 -0.7494 -0.0878
 1304SOL    HW115374   2.312   4.278   1.432  0.0880 -0.2189  3.6391
 1304SOL    HW215375   2.174   4.285   1.379 -0.6530 -2.7419 -1.0869
 1305SOL     OW15376   0.511   2.114  14.446 -0.4360 -0.1619  0.1939
 1305SOL    HW115377   0.524   2.192  14.392  1.4707 -0.8261 -0.2923
 1305SOL    HW215378   0.451   2.062  14.392 -0.8914  0.0731  0.4730
 1306SOL     OW15379   0.869   2.464   7.203  0.1881  0.1913  0.3385
 1306SOL    HW115380   0.898   2.509   7.124  0.1852  0.7612  0.6565
 1306SOL    HW215381   0.846   2.376   7.175 -0.2048 -0.0073  1.2714
 1307SOL     OW15382   0.753   1.149  13.656 -0.2697 -0.0610 -0.3351
 1307SOL    HW115383   0.802   1.120  13.580  1.4022  2.0065 -0.0405
 1307SOL    HW215384   0.820   1.212  13.683  0.9508 -1.0198 -1.1382
 1308SOL     OW15385   0.822   2.605  10.580 -0.4558 -0.0666 -0.5552
 1308SOL    HW115386   0.776   2.648  10.653  0.2082  0.4955 -0.4687
 1308SOL    HW215387   0.910   2.602  10.616 -1.7488 -0.1600  2.6187
 1309SOL     OW15388   3.593   3.306  12.158 -0.3348  0.2478  0.0240
 1309SOL    HW115389   3.531   3.319  12.086 -0.0399 -0.2541 -0.3151
 1309SOL    HW215390   3.534   3.258  12.217 -2.7356  0.9892 -1.7787
 1310SOL     OW15391   1.536   0.806   1.704 -0.3157 -0.2809 -0.0034
 1310SOL    HW115392   1.485   0.731   1.734  0.5863 -1.1284 -0.6038
 1310SOL    HW215393   1.592   0.811   1.782  2.2055 -0.3212 -1.8143
 1311SOL     OW15394   1.323   0.618   1.602 -0.4184 -0.0332  0.8031
 1311SOL    HW115395   1.354   0.682   1.539 -0.8544  1.7579  2.4186
 1311SOL    HW215396   1.283   0.553   1.544 -0.7340  0.0823  0.8912
 1312SOL     OW15397   1.574   3.887   8.793  0.7855 -0.0629 -0.1830
 1312SOL    HW115398   1.568   3.927   8.880  2.5887  0.1811 -0.1704
 1312SOL    HW215399   1.616   3.960   8.748 -1.4492 -0.1886 -2.4644
 1313SOL     OW15400   0.861   0.969   7.861 -0.1557 -0.1560  0.2733
 1313SOL    HW115401   0.794   0.979   7.929  0.6209  1.2555  0.8272
 1313SOL    HW215402   0.804   0.986   7.786  0.1268 -3.1541 -0.6357
 1314SOL     OW15403   3.583   3.203   6.295 -0.1672 -0.4307 -0.1204
 1314SOL    HW115404   3.596   3.265   6.366  0.6031 -2.6163  1.6428
 1314SOL    HW215405   3.513   3.246   6.246 -0.0743 -0.7254 -0.5069
 1315SOL     OW15406   3.304   2.032  16.586  0.5880 -0.0851 -0.4262
 1315SOL    HW115407   3.248   1.954  16.593 -1.0153  1.1545  0.7234
 1315SOL    HW215408   3.242   2.090  16.541 -0.1451  0.0372  0.7275
 1316SOL     OW15409   3.356   4.517   8.699 -0.3677  0.4734  0.3721
 1316SOL    HW115410   3.394   4.587   8.752  0.4860  0.5815 -0.3729
 1316SOL    HW215411   3.293   4.474   8.756 -0.7198  1.2672  0.5867
 1317SOL     OW15412   0.223   1.051  10.700  0.0464  0.4758  0.1673
 1317SOL    HW115413   0.308   1.023  10.668 -0.7375 -2.2659  0.4446
 1317SOL    HW215414   0.216   1.013  10.788  1.9325  1.0903  0.5657
 1318SOL     OW15415   1.646   1.963   2.027  0.6236  0.3957 -0.0919
 1318SOL    HW115416   1.680   2.001   2.107  1.2392  1.1417 -0.7100
 1318SOL    HW215417   1.707   1.891   2.008 -0.6522  0.1192 -3.2269
 1319SOL     OW15418   3.495   0.792   5.910  0.2371  0.0972 -0.2176
 1319SOL    HW115419   3.430   0.809   5.842  0.5588 -4.1543 -1.5534
 1319SOL    HW215420   3.496   0.872   5.962  0.7235 -0.0839  0.0550
 1320SOL     OW15421   1.479   4.047   1.583 -0.6326  0.2168 -0.1130
 1320SOL    HW115422   1.397   4.096   1.575 -2.0302 -2.1613 -0.5251
 1320SOL    HW215423   1.501   4.068   1.674 -0.7268  0.7663 -0.2190
 1321SOL     OW15424   1.080   3.537   3.028 -0.1068  0.4005 -0.5010
 1321SOL    HW115425   1.154   3.576   3.075 -0.2831  0.0951  0.0230
 1321SOL    HW215426   1.038   3.478   3.090 -1.7449  1.3887 -0.6656
 1322SOL     OW15427   4.012   3.061  12.291 -0.0828 -0.7524  0.2040
 1322SOL    HW115428   3.949   2.998  12.255 -1.8252 -0.2361  2.3460
 1322SOL    HW215429   3.976   3.137  12.246  2.7861  0.2306 -0.4495
 1323SOL     OW15430   2.842   3.778  16.381 -0.1486 -0.4779 -0.0300
 1323SOL    HW115431   2.820   3.871  16.368 -0.9649 -0.4275  1.7106
 1323SOL    HW215432   2.785   3.762  16.456 -0.5860 -1.0113 -0.4840
 1324SOL     OW15433   4.282   2.249   0.655  0.1680  0.7545 -0.4176
 1324SOL    HW115434   4.322   2.302   0.586 -0.6341 -0.2229 -1.6176
 1324SOL    HW215435   4.233   2.323   0.690  0.2439  0.5612  0.1004
 1325SOL     OW15436   4.049   4.645  10.077 -0.3023 -0.2491 -0.1040
 1325SOL    HW115437   4.020   4.570  10.024  0.4223 -0.9785  0.5285
 1325SOL    HW215438   4.029   4.716  10.016 -1.1068  0.1251  0.5943
 1326SOL     OW15439   4.067   2.603  15.357 -0.4689  0.2187 -0.4631
 1326SOL    HW115440   4.042   2.685  15.314  0.9664 -0.3278 -2.3318
 1326SOL    HW215441   4.059   2.639  15.445  0.5715 -1.8264  0.4832
 1327SOL     OW15442   1.603   0.517   3.795 -0.0500 -0.7642 -0.7050
 1327SOL    HW115443   1.632   0.538   3.706 -1.6459 -0.6667 -1.1947
 1327SOL    HW215444   1.643   0.430   3.798 -0.1403 -0.8121 -0.9454
 1328SOL     OW15445   2.238   1.308   7.436  0.0566 -0.0449 -0.3522
 1328SOL    HW115446   2.163   1.362   7.462  1.0330  0.2971  1.7247
 1328SOL    HW215447   2.201   1.241   7.377 -1.0783 -0.6785  1.0741
 1329SOL     OW15448   3.628   2.980  14.064  0.0433 -0.9401  0.1217
 1329SOL    HW115449   3.700   2.924  14.034  0.3226 -0.3415 -0.3300
 1329SOL    HW215450   3.589   3.024  13.989  1.4943  0.1202 -0.0086
 1330SOL     OW15451   2.282   3.074   6.700  0.4489  0.2750 -0.2545
 1330SOL    HW115452   2.358   3.070   6.642  0.1718  1.3358 -0.7066
 1330SOL    HW215453   2.270   3.169   6.696 -2.7831 -0.1387 -0.3102
 1331SOL     OW15454   4.136   1.982   2.762 -0.2394 -0.1378 -0.1357
 1331SOL    HW115455   4.095   2.068   2.776 -0.2593 -0.1490 -0.1265
 1331SOL    HW215456   4.175   1.989   2.675 -0.7129  1.2297 -0.2489
 1332SOL     OW15457   1.256   4.582   0.137  0.1589 -0.4194 -0.7860
 1332SOL    HW115458   1.179   4.607   0.086 -0.5127  0.0678  0.4853
 1332SOL    HW215459   1.327   4.580   0.073  3.5109  0.0802  2.9079
 1333SOL     OW15460   4.663   1.578   5.410 -0.2040  0.2981  0.0604
 1333SOL    HW115461   4.609   1.603   5.485  0.8424 -0.8681  1.2155
 1333SOL    HW215462   0.008   1.530   5.456  1.3273  1.4854 -0.9869
 1334SOL     OW15463   1.247   3.528   2.019 -0.1405  0.1015 -0.2637
 1334SOL    HW115464   1.227   3.595   1.954 -0.8427  0.5531  0.4155
 1334SOL    HW215465   1.201   3.453   1.983 -0.1822  0.0530 -0.1126
 1335SOL     OW15466   0.469   1.102   7.156 -0.0349  0.2974 -0.6138
 1335SOL    HW115467   0.459   1.144   7.070 -0.7020  0.1274 -0.6232
 1335SOL    HW215468   0.563   1.098   7.174 -0.9090 -2.4770  3.1226
 1336SOL     OW15469   2.594   2.998   7.696  0.0191  0.0022 -0.3658
 1336SOL    HW115470   2.566   2.937   7.764 -1.7842  0.3157 -0.8170
 1336SOL    HW215471   2.619   3.070   7.753  0.4636  0.1143 -0.7042
 1337SOL     OW15472   3.797   0.025   4.431 -0.5765  0.4133  0.3561
 1337SOL    HW115473   3.836   0.112   4.433  1.1119 -0.3742  1.8751
 1337SOL    HW215474   3.708   0.043   4.462 -2.3450 -1.9384 -3.3592
 1338SOL     OW15475   1.188   1.346  16.840  0.1171  0.2279 -0.1788
 1338SOL    HW115476   1.282   1.353  16.823  0.3529  2.9281  2.1487
 1338SOL    HW215477   1.169   1.429  16.883  0.2324 -2.3408  4.8958
 1339SOL     OW15478   0.116   4.064   4.429 -0.6471 -0.3054  0.2916
 1339SOL    HW115479   0.072   4.079   4.512  3.2027  0.5346  2.1547
 1339SOL    HW215480   0.064   3.989   4.398  0.1903 -0.4459 -0.7746
 1340SOL     OW15481   2.846   0.300   6.579  0.6142 -0.3242  0.1330
 1340SOL    HW115482   2.938   0.294   6.603  0.3596  0.0186  1.1733
 1340SOL    HW215483   2.835   0.384   6.535  0.8000  0.3564  1.3812
 1341SOL     OW15484   1.066   3.986   7.218  0.2480  0.0612  0.1550
 1341SOL    HW115485   1.018   4.066   7.237  3.4686  1.8413  0.8224
 1341SOL    HW215486   0.996   3.931   7.183  0.8889 -0.5647 -0.1625
 1342SOL     OW15487   2.508   2.632   0.677  0.3383 -0.2650  0.5882
 1342SOL    HW115488   2.573   2.688   0.719  0.6291  0.9144 -1.4396
 1342SOL    HW215489   2.547   2.606   0.594  1.0940  0.5546  0.6877
 1343SOL     OW15490   2.271   2.014   7.062 -0.0716  0.0834  0.1113
 1343SOL    HW115491   2.338   2.035   7.127  0.7320 -0.9996 -0.3810
 1343SOL    HW215492   2.247   1.925   7.087  0.7044 -0.5227 -1.3551
 1344SOL     OW15493   1.794   0.455   9.042 -0.5520  0.5022 -0.0800
 1344SOL    HW115494   1.765   0.364   9.053  0.4027  0.2651  0.4811
 1344SOL    HW215495   1.709   0.493   9.021 -0.0449 -0.2717 -3.6109
 1345SOL     OW15496   4.076   2.550   6.200  0.8056  0.2808 -0.3839
 1345SOL    HW115497   4.046   2.516   6.284 -0.0525  3.0162  0.4104
 1345SOL    HW215498   4.172   2.548   6.204  0.8525  2.0857 -0.6286
 1346SOL     OW15499   1.207   2.840   7.527  0.7502  0.0191  0.8464
 1346SOL    HW115500   1.159   2.758   7.513  1.2693  0.1772 -1.9478
 1346SOL    HW215501   1.233   2.874   7.441  2.5887 -1.1280  0.9544
 1347SOL     OW15502   1.285   3.160  16.047 -0.2077 -0.4018  0.0975
 1347SOL    HW115503   1.329   3.081  16.078 -0.3758 -0.6152 -0.2090
 1347SOL    HW215504   1.353   3.190  15.988 -0.7903 -1.1466 -0.9456
 1348SOL     OW15505   1.374   3.209  12.688  0.2341  0.3478  0.5749
 1348SOL    HW115506   1.398   3.211  12.596  2.2534  0.5903  1.0976
 1348SOL    HW215507   1.289   3.167  12.686 -0.3374  1.6101 -1.6234
 1349SOL     OW15508   0.643   1.318   3.567  0.2758 -0.0477  0.1883
 1349SOL    HW115509   0.711   1.325   3.634  0.1561  0.4952  0.2523
 1349SOL    HW215510   0.599   1.402   3.577  1.0443  0.2899  0.7627
 1350SOL     OW15511   3.779   0.103   6.811 -0.1860  0.2111  0.0271
 1350SOL    HW115512   3.697   0.095   6.763  0.7298 -0.3097 -1.4714
 1350SOL    HW215513   3.799   0.197   6.813  0.7036 -0.0156  1.4669
 1351SOL     OW15514   0.446   0.719   3.105 -0.2719  0.6128  0.2074
 1351SOL    HW115515   0.530   0.724   3.150 -0.5583  0.0220  0.7940
 1351SOL    HW215516   0.432   0.800   3.055 -1.8900 -1.2044 -2.3115
 1352SOL     OW15517   0.229   4.105   3.490 -0.3815 -0.5405 -0.0403
 1352SOL    HW115518   0.274   4.121   3.573 -1.1149  0.7849  0.0973
 1352SOL    HW215519   0.145   4.149   3.502  0.0880 -1.0704  4.8445
 1353SOL     OW15520   0.667   3.183   4.459  0.6433 -0.6833  0.3556
 1353SOL    HW115521   0.593   3.123   4.447  1.3298 -1.0695 -1.8875
 1353SOL    HW215522   0.739   3.120   4.457  0.8612 -0.4529  0.9899
 1354SOL     OW15523   2.068   3.399   8.981 -0.1356 -0.2214  0.7579
 1354SOL    HW115524   2.092   3.308   8.998  0.5255 -0.4213 -1.2774
 1354SOL    HW215525   2.069   3.434   9.070  2.1393 -0.3073  0.7623
 1355SOL     OW15526   3.216   2.990   2.282 -0.1361 -0.3909  0.2719
 1355SOL    HW115527   3.188   3.071   2.324 -1.8939  0.0287 -1.6932
 1355SOL    HW215528   3.278   3.023   2.217  1.0718 -1.8147  0.6946
 1356SOL     OW15529   4.423   4.464   8.160 -0.6252  0.7405 -0.2719
 1356SOL    HW115530   4.358   4.533   8.147  0.5813  1.9639  0.1770
 1356SOL    HW215531   4.397   4.398   8.096 -0.8527  1.7715 -1.2461
 1357SOL     OW15532   0.204   0.553  16.332  0.2682 -0.0061 -0.1165
 1357SOL    HW115533   0.216   0.603  16.413 -0.9405  0.2045 -0.0717
 1357SOL    HW215534   0.154   0.477  16.363 -2.3238  1.8680  0.3125
 1358SOL     OW15535   0.760   3.237   6.820  0.2009  0.9151  1.1990
 1358SOL    HW115536   0.699   3.311   6.824 -0.6878  0.2726 -0.0902
 1358SOL    HW215537   0.797   3.236   6.731  0.4455  0.2104  1.3087
 1359SOL     OW15538   0.603   4.007   2.769  0.3905 -0.0740  0.1523
 1359SOL    HW115539   0.685   4.002   2.818 -0.3199  2.7100  1.6306
 1359SOL    HW215540   0.557   4.062   2.833  0.1949 -1.1585  0.9473
 1360SOL     OW15541   3.304   1.569   8.036 -0.1282 -0.1262 -0.0205
 1360SOL    HW115542   3.240   1.641   8.030  0.6474  0.5175 -0.7102
 1360SOL    HW215543   3.244   1.500   8.007  1.3958 -0.3033 -2.7662
 1361SOL     OW15544   0.435   2.596  13.720  0.2949  0.1933  0.1982
 1361SOL    HW115545   0.427   2.630  13.631  0.1205  0.5708  0.3580
 1361SOL    HW215546   0.521   2.553  13.717 -0.2202 -0.7681 -0.5839
 1362SOL     OW15547   0.625   2.229   2.451  0.5963  0.2515  0.4494
 1362SOL    HW115548   0.624   2.150   2.397 -0.6774  1.3946 -1.1688
 1362SOL    HW215549   0.720   2.236   2.463  0.6271  0.5043  0.0447
 1363SOL     OW15550   0.199   4.081   5.682 -0.1871  0.0042  0.1988
 1363SOL    HW115551   0.134   4.081   5.752  0.4894 -1.1599  0.8401
 1363SOL    HW215552   0.258   4.150   5.712 -1.3689  0.7383  0.8441
 1364SOL     OW15553   3.417   2.158   2.078  0.3377  0.4138 -0.0548
 1364SOL    HW115554   3.488   2.222   2.074  1.1305 -0.4713  0.0586
 1364SOL    HW215555   3.460   2.091   2.025 -0.3836 -0.8312  0.9487
 1365SOL     OW15556   3.203   2.421   9.936 -0.0807  0.8582 -0.1204
 1365SOL    HW115557   3.254   2.398  10.013 -3.0909  0.2047  1.7117
 1365SOL    HW215558   3.205   2.337   9.890  0.4656  0.9275 -0.2150
 1366SOL     OW15559   1.502   4.285  10.079 -0.3690 -0.4120 -0.2276
 1366SOL    HW115560   1.535   4.197  10.098 -0.4236 -0.8183 -1.9793
 1366SOL    HW215561   1.410   4.271  10.055 -0.6980  0.1047  0.7292
 1367SOL     OW15562   2.072   1.983   5.635 -0.7096  0.3968 -0.0680
 1367SOL    HW115563   2.020   1.959   5.558 -1.5851  0.0874  0.6173
 1367SOL    HW215564   2.152   2.006   5.588 -0.6043 -0.7957 -0.4830
 1368SOL     OW15565   0.018   1.547   3.236 -0.1780 -0.1135 -0.4386
 1368SOL    HW115566   4.703   1.628   3.269  0.2089 -0.4949  0.9388
 1368SOL    HW215567   4.723   1.540   3.142 -0.8646 -0.8677 -0.2438
 1369SOL     OW15568   1.082   1.355  16.527  0.0072 -0.4937 -0.6714
 1369SOL    HW115569   1.157   1.392  16.481  1.9284 -2.0890  1.1550
 1369SOL    HW215570   1.016   1.420  16.504 -1.7542 -1.2825  2.1921
 1370SOL     OW15571   4.384   3.811   8.512  0.1738 -0.0090  0.1608
 1370SOL    HW115572   4.369   3.756   8.589  2.0262  0.4843  0.8760
 1370SOL    HW215573   4.320   3.877   8.539 -0.8617 -0.9046 -0.1012
 1371SOL     OW15574   0.527   1.236   0.256 -0.1819 -0.0219 -0.2171
 1371SOL    HW115575   0.515   1.166   0.320 -2.6511  0.1132 -0.5248
 1371SOL    HW215576   0.495   1.192   0.177 -1.1765 -0.6690  0.5438
 1372SOL     OW15577   2.989   1.742   6.203 -0.2774  0.3692  0.0866
 1372SOL    HW115578   3.003   1.712   6.113 -0.5206  0.8261 -0.1058
 1372SOL    HW215579   2.923   1.811   6.201 -1.0298 -0.3731 -0.4407
 1373SOL     OW15580   1.282   2.260   8.914 -0.3238  0.5156 -0.1747
 1373SOL    HW115581   1.238   2.310   8.982 -0.7943  0.7520 -0.6579
 1373SOL    HW215582   1.375   2.282   8.919 -0.3227  0.7009 -1.0918
 1374SOL     OW15583   4.384   4.066   0.289 -0.1205 -0.2293  0.2019
 1374SOL    HW115584   4.375   4.080   0.194  1.1182 -0.6020  0.0297
 1374SOL    HW215585   4.322   4.135   0.315  2.6166  1.6644  1.6838
 1375SOL     OW15586   1.172   0.670   5.049 -0.7187 -0.3869 -0.3029
 1375SOL    HW115587   1.121   0.606   5.098 -1.2418 -0.3989 -0.8745
 1375SOL    HW215588   1.255   0.660   5.096  0.0291  1.0874 -1.3121
 1376SOL     OW15589   4.141   1.221   3.545  0.0540 -0.3123 -0.2058
 1376SOL    HW115590   4.085   1.175   3.482 -2.1160 -1.8554  2.8108
 1376SOL    HW215591   4.225   1.181   3.525  0.0386  0.0829 -1.0310
 1377SOL     OW15592   2.527   0.759  10.634 -0.3135 -0.3650  0.5967
 1377SOL    HW115593   2.575   0.710  10.701 -1.9028  0.9191  2.6650
 1377SOL    HW215594   2.464   0.705  10.587 -0.2361  1.5748 -1.7397
 1378SOL     OW15595   1.468   3.500   2.355  0.4567 -0.3955  0.3923
 1378SOL    HW115596   1.546   3.498   2.410  0.6536  0.5358  0.1437
 1378SOL    HW215597   1.413   3.571   2.389 -0.1106 -0.2408 -0.8610
 1379SOL     OW15598   3.377   2.680  13.386  0.6027  0.7014  0.2688
 1379SOL    HW115599   3.389   2.775  13.395  2.5447  0.5137 -0.1966
 1379SOL    HW215600   3.282   2.668  13.387  0.5837  0.4632 -2.2842
 1380SOL     OW15601   0.837   3.275  17.188  0.5090  0.5009 -0.8070
 1380SOL    HW115602   0.795   3.195  17.219  0.6963  0.5919 -0.3157
 1380SOL    HW215603   0.909   3.233  17.140  0.7921  0.4769 -0.3576
 1381SOL     OW15604   1.290   4.420   1.711  0.2328 -0.4538  0.1852
 1381SOL    HW115605   1.257   4.331   1.724 -0.2448 -0.2683  0.2473
 1381SOL    HW215606   1.333   4.443   1.793 -2.0156  0.3460  1.1411
 1382SOL     OW15607   4.034   0.857   8.162 -0.1561  0.1496 -0.4360
 1382SOL    HW115608   3.984   0.794   8.110  0.1479  0.5529 -1.2173
 1382SOL    HW215609   3.968   0.890   8.222  1.8811  0.4064  1.6549
 1383SOL     OW15610   0.132   1.493   7.509 -0.2787  0.1414 -0.6882
 1383SOL    HW115611   0.168   1.430   7.572 -1.8316 -0.1870 -0.1365
 1383SOL    HW215612   0.137   1.444   7.427  0.2905 -1.0647  0.0613
 1384SOL     OW15613   1.410   0.641   5.189  0.2199 -0.6419 -0.5380
 1384SOL    HW115614   1.481   0.649   5.124  0.3433  0.4560 -0.2630
 1384SOL    HW215615   1.444   0.628   5.278  1.3655 -3.6241 -1.3907
 1385SOL     OW15616   0.932   1.644  10.505 -0.1540  0.1778 -0.0890
 1385SOL    HW115617   0.865   1.615  10.566 -0.8042 -2.0969 -1.8652
 1385SOL    HW215618   0.897   1.727  10.474 -1.2212  0.1861  1.1581
 1386SOL     OW15619   0.440   0.039   4.910  0.2428  0.6011 -0.3470
 1386SOL    HW115620   0.527   0.006   4.934 -0.8580 -2.3988 -0.5077
 1386SOL    HW215621   0.398   4.679   4.896 -1.6727  1.7027 -1.1809
 1387SOL     OW15622   3.624   4.663   5.520 -0.8804  0.8794 -0.3263
 1387SOL    HW115623   3.620   4.695   5.430 -1.6600  2.6615  0.3458
 1387SOL    HW215624   3.699   4.605   5.504 -0.3605  0.9887  1.7538
 1388SOL     OW15625   3.397   2.589   1.099  0.0713 -0.0338 -0.3328
 1388SOL    HW115626   3.334   2.649   1.059  2.1304  2.3835  0.0633
 1388SOL    HW215627   3.351   2.564   1.180 -0.0374  0.5588 -0.2113
 1389SOL     OW15628   2.904   0.108   8.390  0.7979 -0.4595  0.4938
 1389SOL    HW115629   2.905   0.197   8.423 -0.8437  0.1371 -1.0846
 1389SOL    HW215630   2.888   0.043   8.459  2.4386 -1.6232 -0.2281
 1390SOL     OW15631   4.127   4.218   6.045  0.1290  0.2141  0.3811
 1390SOL    HW115632   4.107   4.303   6.006  2.5336  0.1738 -0.9945
 1390SOL    HW215633   4.064   4.224   6.116 -1.8439  1.0325 -1.4221
 1391SOL     OW15634   4.263   3.024   4.402  0.1875 -0.1744 -0.3611
 1391SOL    HW115635   4.217   3.108   4.396  0.4901 -0.0215 -0.5063
 1391SOL    HW215636   4.230   2.982   4.482  1.3260  3.7117  2.1314
 1392SOL     OW15637   1.125   0.845   0.532 -0.1424 -0.3227  0.1064
 1392SOL    HW115638   1.143   0.939   0.527  0.0348 -0.3490  0.2635
 1392SOL    HW215639   1.208   0.803   0.555  0.3767 -0.8773 -2.8120
 1393SOL     OW15640   1.377   1.898  12.274 -0.2535 -0.2998 -0.1774
 1393SOL    HW115641   1.370   1.861  12.186  0.7285  1.2252 -0.8967
 1393SOL    HW215642   1.361   1.820  12.328 -2.1817  1.1128  1.2802
 1394SOL     OW15643   2.327   0.301   5.108  0.3346 -0.1697  0.3557
 1394SOL    HW115644   2.275   0.375   5.140 -0.8229 -0.6649 -0.3793
 1394SOL    HW215645   2.393   0.336   5.049  0.2381  1.4994  1.2308
 1395SOL     OW15646   4.534   4.674  14.430 -0.1996 -0.3448 -0.3860
 1395SOL    HW115647   4.593   0.024  14.416 -1.8400  0.8360 -1.1577
 1395SOL    HW215648   4.582   4.600  14.394 -0.5462 -1.6507  1.8635
 1396SOL     OW15649   4.374   3.800   2.119 -0.5153 -0.0165 -0.7237
 1396SOL    HW115650   4.432   3.844   2.181 -0.0607  0.7752 -1.7076
 1396SOL    HW215651   4.288   3.838   2.140  0.1423  0.1039  1.6973
 1397SOL     OW15652   1.308   4.716  14.883  0.0243 -0.0904  0.2523
 1397SOL    HW115653   1.214   4.705  14.891  0.1240 -1.7554 -0.8391
 1397SOL    HW215654   1.313   0.015  14.790  0.8511  4.4059  1.3990
 1398SOL     OW15655   0.413   4.171   2.915 -0.0876 -0.1123  0.7145
 1398SOL    HW115656   0.365   4.253   2.922 -1.6131 -0.8518 -0.8907
 1398SOL    HW215657   0.466   4.188   2.993  1.4623 -0.7013 -0.2075
 1399SOL     OW15658   3.671   2.217   3.801  0.1288 -0.4972 -0.2153
 1399SOL    HW115659   3.651   2.205   3.708 -0.4086  1.2696 -0.3361
 1399SOL    HW215660   3.764   2.239   3.807  0.0366 -0.8999  2.7016
 1400SOL     OW15661   2.640   1.535   1.955 -0.0698 -0.1130  0.0647
 1400SOL    HW115662   2.672   1.445   1.965  1.3022  0.3506 -0.1077
 1400SOL    HW215663   2.718   1.558   1.904  0.5082 -3.2526 -0.4631
 1401SOL     OW15664   2.284   4.109  17.256  0.4890  0.1837  0.2827
 1401SOL    HW115665   2.360   4.101  17.314  1.7649 -0.5209 -1.4595
 1401SOL    HW215666   2.325   4.131  17.172 -0.3311 -1.0447 -0.4376
 1402SOL     OW15667   3.629   2.954   9.295 -0.1710 -0.4741  0.3710
 1402SOL    HW115668   3.629   2.862   9.320 -1.0673 -0.2562  1.2068
 1402SOL    HW215669   3.537   2.975   9.280  0.6436  2.3581 -0.6907
 1403SOL     OW15670   0.138   2.974   7.169  0.0448  0.0550  0.0527
 1403SOL    HW115671   0.174   3.061   7.155  0.3029  0.4164  3.0749
 1403SOL    HW215672   0.051   2.977   7.129  1.6523  1.0534 -3.3565
 1404SOL     OW15673   1.314   2.584   2.543 -0.1390  0.6424  0.4891
 1404SOL    HW115674   1.339   2.619   2.629  0.7491 -2.1699  1.3848
 1404SOL    HW215675   1.287   2.496   2.572 -1.0341  1.5729  2.4859
 1405SOL     OW15676   2.688   0.818  11.544 -0.6439 -0.3584 -0.0032
 1405SOL    HW115677   2.609   0.863  11.574 -0.3282  1.6167 -2.1936
 1405SOL    HW215678   2.751   0.890  11.552 -1.0743 -0.0195  0.3566
 1406SOL     OW15679   3.436   2.693  11.111 -0.4327 -0.0266  0.4811
 1406SOL    HW115680   3.414   2.659  11.025  1.0325  2.3077 -0.8104
 1406SOL    HW215681   3.507   2.753  11.090  1.0757 -1.9676  0.1373
 1407SOL     OW15682   0.628   4.181  11.149 -0.1430 -0.2085  0.2291
 1407SOL    HW115683   0.674   4.099  11.129  0.3105  0.0036  0.3982
 1407SOL    HW215684   0.579   4.204  11.070  0.7821 -1.0795 -0.6045
 1408SOL     OW15685   2.628   2.575   1.980  0.1288 -0.3118  0.8189
 1408SOL    HW115686   2.564   2.566   1.909 -0.1032  2.7792  0.6465
 1408SOL    HW215687   2.691   2.634   1.938 -0.2083  1.2009  2.4764
 1409SOL     OW15688   1.234   0.887   2.468 -0.3097  0.6713  0.1470
 1409SOL    HW115689   1.263   0.904   2.558 -3.3520 -2.1188  1.6619
 1409SOL    HW215690   1.139   0.877   2.476 -0.3938 -0.0243 -1.7570
 1410SOL     OW15691   0.208   0.501   3.998 -0.0829  0.0638 -0.1247
 1410SOL    HW115692   0.154   0.483   4.075 -0.5438 -0.6883 -0.6224
 1410SOL    HW215693   0.149   0.466   3.932  0.6400  1.3644 -1.4545
 1411SOL     OW15694   0.850   3.795  11.838 -0.0854 -0.3641 -0.1919
 1411SOL    HW115695   0.889   3.811  11.924  0.4376  1.1210 -0.7175
 1411SOL    HW215696   0.847   3.884  11.804  1.9042 -0.5109 -0.7233
 1412SOL     OW15697   1.739   4.604   3.701 -0.0314  0.3584 -0.2077
 1412SOL    HW115698   1.723   4.513   3.725 -0.4360  0.4743 -0.0377
 1412SOL    HW215699   1.740   4.591   3.606  1.4649  1.1674 -0.3119
 1413SOL     OW15700   1.474   0.717  17.154  0.0036 -0.1821  0.0487
 1413SOL    HW115701   1.439   0.635  17.190  0.6257 -0.8663 -0.8757
 1413SOL    HW215702   1.398   0.751  17.107 -1.0860 -0.5950  1.5240
 1414SOL     OW15703   1.584   1.916   3.621 -0.0292 -0.2761  0.0052
 1414SOL    HW115704   1.658   1.962   3.662  2.0322 -1.7653 -2.0370
 1414SOL    HW215705   1.522   1.931   3.692 -0.1625 -0.9209  0.0184
 1415SOL     OW15706   4.320   3.384   8.362 -0.3329 -0.1367  0.0999
 1415SOL    HW115707   4.226   3.400   8.357  0.0492  2.1928  0.2504
 1415SOL    HW215708   4.331   3.300   8.317  0.7710  0.4095 -0.6443
 1416SOL     OW15709   0.725   3.121   2.370  0.3956 -0.1260 -0.0716
 1416SOL    HW115710   0.752   3.102   2.460  0.4109  1.2196  0.2053
 1416SOL    HW215711   0.633   3.141   2.381  0.5489  2.2199 -3.0193
 1417SOL     OW15712   4.074   2.514   7.809 -0.1255  0.3399  0.1302
 1417SOL    HW115713   4.042   2.424   7.804  0.0806  0.1609  2.1069
 1417SOL    HW215714   4.110   2.517   7.898  1.1241 -1.6382 -0.3363
 1418SOL     OW15715   2.825   2.852   2.739  0.9609  0.3095  0.4433
 1418SOL    HW115716   2.853   2.830   2.651 -1.4055  1.0027 -0.4848
 1418SOL    HW215717   2.848   2.769   2.780  2.2592  0.1492 -0.6031
 1419SOL     OW15718   0.699   4.450   3.753 -0.5251 -0.6188 -0.7379
 1419SOL    HW115719   0.775   4.401   3.785 -2.9186 -2.6124  1.8605
 1419SOL    HW215720   0.708   4.534   3.798  0.9683 -0.6873 -0.9111
 1420SOL     OW15721   0.226   2.496   7.995 -0.1396  0.3721 -0.2942
 1420SOL    HW115722   0.286   2.526   7.927  1.4833  0.7613  1.3141
 1420SOL    HW215723   0.208   2.577   8.042 -1.8356  0.7562 -1.6182
 1421SOL     OW15724   2.005   3.165   9.125 -0.1785 -0.3698 -0.1584
 1421SOL    HW115725   2.021   3.077   9.156  0.3578 -0.2477 -0.0911
 1421SOL    HW215726   1.947   3.199   9.193  1.4938 -0.9220  1.5271
 1422SOL     OW15727   4.366   3.823   2.433  0.5514  0.1374  0.3583
 1422SOL    HW115728   4.444   3.878   2.439  0.5179 -0.0513  2.3250
 1422SOL    HW215729   4.298   3.863   2.486  0.1377 -0.7431  0.4918
 1423SOL     OW15730   0.606   3.125   3.147  0.4211 -0.8282 -0.0243
 1423SOL    HW115731   0.520   3.110   3.107  0.3908  0.9573 -0.6398
 1423SOL    HW215732   0.587   3.213   3.179  1.8212 -0.0797 -1.2917
 1424SOL     OW15733   2.478   1.779   3.325  0.5394  0.2758  0.4970
 1424SOL    HW115734   2.433   1.861   3.304 -1.7023 -1.2593 -0.6331
 1424SOL    HW215735   2.441   1.751   3.408 -0.2849 -0.1113 -0.0047
 1425SOL     OW15736   4.170   0.114   2.540 -1.0151  0.4008 -0.3138
 1425SOL    HW115737   4.081   0.143   2.559 -2.0195 -2.5362 -0.4324
 1425SOL    HW215738   4.186   0.174   2.468  0.9914  0.4661  0.2041
 1426SOL     OW15739   0.810   3.113  15.636 -0.2474  0.0544  0.2635
 1426SOL    HW115740   0.718   3.092  15.623 -0.3243  1.7905 -1.9668
 1426SOL    HW215741   0.825   3.068  15.719  1.5519  0.7692  0.3197
 1427SOL     OW15742   1.738   1.277   6.491 -0.1834 -0.3229 -0.2243
 1427SOL    HW115743   1.804   1.224   6.536  0.8808  0.4308 -0.8767
 1427SOL    HW215744   1.793   1.352   6.466 -0.4753  0.1278  0.4620
 1428SOL     OW15745   3.602   1.661  12.913 -0.7351 -0.1309  0.3743
 1428SOL    HW115746   3.533   1.719  12.945 -1.5233 -0.1696 -1.2412
 1428SOL    HW215747   3.612   1.608  12.992 -0.3787 -1.7668 -0.7674
 1429SOL     OW15748   2.694   2.950   1.918  0.3054 -0.5736 -0.3238
 1429SOL    HW115749   2.653   3.035   1.934 -0.9324 -1.3259  0.4363
 1429SOL    HW215750   2.663   2.930   1.830 -2.9163 -1.8315  1.1175
 1430SOL     OW15751   0.773   1.751  17.420 -0.2598 -0.4070  0.2084
 1430SOL    HW115752   0.835   1.692  17.463  0.3490  0.1437  0.0830
 1430SOL    HW215753   0.825   1.780  17.345  1.0508 -2.0493  0.4709
 1431SOL     OW15754   2.360   1.460   8.650 -0.2238  0.5805 -0.3689
 1431SOL    HW115755   2.418   1.513   8.704  3.5767 -1.9370 -2.0150
 1431SOL    HW215756   2.334   1.509   8.571  2.4251  1.3961 -0.7126
 1432SOL     OW15757   0.456   2.112   3.644  0.3110 -0.0318  0.3482
 1432SOL    HW115758   0.373   2.069   3.665  0.9860 -1.5638 -0.1630
 1432SOL    HW215759   0.443   2.193   3.694 -0.8541 -0.8214  1.3479
 1433SOL     OW15760   4.533   4.705   1.198  0.0172 -0.4726 -0.0246
 1433SOL    HW115761   4.475   0.011   1.268 -0.3096 -1.6223  0.1887
 1433SOL    HW215762   4.608   4.675   1.249 -0.7832 -2.3707  0.0357
 1434SOL     OW15763   0.390   1.666  11.865 -0.3584  0.1189  0.1044
 1434SOL    HW115764   0.483   1.668  11.890 -0.2140 -1.5057 -0.2960
 1434SOL    HW215765   0.372   1.573  11.877  3.7432 -0.5821  0.8110
 1435SOL     OW15766   0.027   2.567   3.180 -0.3151  0.3491 -0.1755
 1435SOL    HW115767   4.690   2.535   3.113 -0.6506  0.9753 -0.1773
 1435SOL    HW215768   0.103   2.529   3.137 -1.0828 -2.4908  0.9875
 1436SOL     OW15769   1.311   0.010  16.444  0.3109  0.0690  0.5925
 1436SOL    HW115770   1.353   0.093  16.464 -0.0497  0.3091  0.3480
 1436SOL    HW215771   1.342   4.672  16.510  0.3093 -1.4986 -0.8671
 1437SOL     OW15772   3.634   3.510  16.758  0.2243  0.1018 -0.1496
 1437SOL    HW115773   3.571   3.438  16.754 -1.4950  1.5474  0.7526
 1437SOL    HW215774   3.710   3.477  16.805 -2.2205 -1.5922  2.5457
 1438SOL     OW15775   1.841   1.928   5.446  0.2549  0.2075  0.0292
 1438SOL    HW115776   1.819   1.978   5.524  0.8720  1.8121 -0.8390
 1438SOL    HW215777   1.752   1.929   5.410 -0.0577  1.2075  0.8476
 1439SOL     OW15778   2.119   0.606  13.913  0.2232  0.4960  0.5793
 1439SOL    HW115779   2.065   0.669  13.866 -1.9033 -0.9163  1.1245
 1439SOL    HW215780   2.201   0.616  13.864 -1.5038  1.5508 -2.1166
 1440SOL     OW15781   3.946   0.671   0.636  0.3766 -0.8951  0.6714
 1440SOL    HW115782   3.858   0.674   0.600  1.6906  1.5600 -2.3600
 1440SOL    HW215783   3.984   0.610   0.573 -1.3806 -2.1052  0.8110
 1441SOL     OW15784   2.807   3.762   3.666 -0.4602  0.2548 -0.4706
 1441SOL    HW115785   2.814   3.803   3.752  0.0949 -0.3220 -0.2429
 1441SOL    HW215786   2.896   3.765   3.631  0.2313  0.1541  1.3035
 1442SOL     OW15787   1.907   2.103   2.080 -0.7539 -0.5963 -0.0090
 1442SOL    HW115788   1.995   2.077   2.106 -0.2338 -1.2298 -2.4035
 1442SOL    HW215789   1.860   2.070   2.157 -1.0957  0.4343  0.2223
 1443SOL     OW15790   0.810   0.830   5.725 -0.1866  1.0063 -0.5429
 1443SOL    HW115791   0.755   0.780   5.664 -0.3528  1.4531 -0.7571
 1443SOL    HW215792   0.749   0.864   5.791  0.9343  1.2526  0.3555
 1444SOL     OW15793   4.216   1.358  13.782  0.2809 -0.3763  0.0317
 1444SOL    HW115794   4.222   1.344  13.877 -4.0151 -0.4852  0.2452
 1444SOL    HW215795   4.159   1.434  13.784 -0.9847 -1.3135 -0.5184
 1445SOL     OW15796   1.971   1.462   3.375 -0.3286 -0.4559  0.0291
 1445SOL    HW115797   1.979   1.377   3.333  2.3317 -0.3502  0.3248
 1445SOL    HW215798   1.985   1.441   3.467 -1.2234 -0.8071  0.0756
 1446SOL     OW15799   1.520   2.054  13.054  0.1286 -0.7200 -0.0094
 1446SOL    HW115800   1.595   2.113  13.062  0.3372 -0.8425 -1.0070
 1446SOL    HW215801   1.449   2.117  13.068  1.4395  0.5337  0.9529
 1447SOL     OW15802   0.428   4.530   8.361 -0.1600 -0.2939  0.1706
 1447SOL    HW115803   0.504   4.477   8.338 -2.2327 -3.5636  0.8931
 1447SOL    HW215804   0.366   4.464   8.392 -1.9065  0.5969 -1.4155
 1448SOL     OW15805   1.297   3.348  14.212 -0.2779 -0.1092 -0.3454
 1448SOL    HW115806   1.240   3.271  14.206  0.1250 -0.3928 -0.5793
 1448SOL    HW215807   1.384   3.311  14.199 -1.0483 -1.7572 -0.8343
 1449SOL     OW15808   3.310   0.759   8.967  0.1524 -0.1838  0.3564
 1449SOL    HW115809   3.281   0.734   8.879  0.1323 -0.9123  0.5711
 1449SOL    HW215810   3.237   0.815   8.992  1.1999  1.0072  0.7663
 1450SOL     OW15811   3.448   3.510   8.612 -0.0812  0.0675  0.2431
 1450SOL    HW115812   3.416   3.588   8.567 -0.7988  0.5198  1.5486
 1450SOL    HW215813   3.438   3.540   8.703  0.4848 -2.3006  1.0842
 1451SOL     OW15814   0.439   3.418   4.398 -0.4234 -0.4286  0.0782
 1451SOL    HW115815   0.433   3.399   4.492 -0.3886  3.7208  0.9401
 1451SOL    HW215816   0.506   3.353   4.377 -0.3313 -0.7186  1.2480
 1452SOL     OW15817   0.056   0.689   8.696 -0.2533  0.4904 -0.0119
 1452SOL    HW115818   4.696   0.703   8.652 -0.2283 -1.0331 -0.5582
 1452SOL    HW215819   0.042   0.619   8.760 -0.1342  0.5370  0.0653
 1453SOL     OW15820   0.200   0.585   6.649  0.0175  0.1447 -0.0427
 1453SOL    HW115821   0.293   0.590   6.627 -0.4196  0.0639 -1.9192
 1453SOL    HW215822   0.159   0.635   6.578  0.9745  2.2018  0.8617
 1454SOL     OW15823   2.958   0.392  10.032  0.1051 -0.2879 -0.2305
 1454SOL    HW115824   2.967   0.458  10.100 -1.2072  0.8152 -1.1365
 1454SOL    HW215825   3.048   0.374  10.002  0.2941  2.3804 -1.2356
 1455SOL     OW15826   3.734   0.835   2.876 -0.0401  0.0494 -0.0733
 1455SOL    HW115827   3.771   0.892   2.944  0.6904 -0.8591  0.2861
 1455SOL    HW215828   3.657   0.801   2.922 -0.8487  2.1111  0.0903
 1456SOL     OW15829   4.502   0.259   1.764 -0.5093  0.3504  0.2905
 1456SOL    HW115830   4.543   0.227   1.684 -1.8971  1.2361 -0.7812
 1456SOL    HW215831   4.565   0.330   1.778  0.0361 -0.2336  0.8201
 1457SOL     OW15832   4.080   0.934   9.702  0.7570 -0.1180  0.0109
 1457SOL    HW115833   4.144   0.924   9.631  1.1328  2.0077  0.0746
 1457SOL    HW215834   4.092   0.856   9.756 -0.5503 -0.1740  0.2286
 1458SOL     OW15835   2.580   2.155   1.832 -0.0251  0.1451 -0.2335
 1458SOL    HW115836   2.540   2.123   1.751 -0.8529  0.7944 -0.0737
 1458SOL    HW215837   2.601   2.237   1.787  0.8566  1.1685  2.0324
 1459SOL     OW15838   4.519   0.247  10.842 -0.0584 -0.4458  0.5642
 1459SOL    HW115839   4.585   0.316  10.840 -0.5110 -0.0134  0.3658
 1459SOL    HW215840   4.447   0.298  10.803  0.6472  0.8493  0.9670
 1460SOL     OW15841   2.669   4.112   7.923  0.2285 -0.4437 -0.2665
 1460SOL    HW115842   2.673   4.118   8.018  1.4983  0.7252 -0.3840
 1460SOL    HW215843   2.596   4.052   7.913  1.2975 -1.4677 -2.0642
 1461SOL     OW15844   4.215   3.623   2.262 -0.1276 -0.6327 -0.4174
 1461SOL    HW115845   4.265   3.645   2.184  0.3269  0.0968  0.0779
 1461SOL    HW215846   4.264   3.676   2.326  0.7184 -0.5160 -1.1558
 1462SOL     OW15847   1.430   1.655   6.049  0.1309  0.0265  0.2852
 1462SOL    HW115848   1.478   1.734   6.027 -0.9150  0.2387 -1.2332
 1462SOL    HW215849   1.501   1.601   6.084  0.7139  0.9473  0.5343
 1463SOL     OW15850   4.709   3.686   2.968  0.1344  0.4692 -0.3991
 1463SOL    HW115851   4.677   3.767   2.930 -1.1864  0.0729 -0.1192
 1463SOL    HW215852   0.066   3.669   2.920  0.7714 -0.5851  1.0201
 1464SOL     OW15853   1.662   0.522   7.320  0.3535 -0.1892  0.1325
 1464SOL    HW115854   1.664   0.577   7.241  0.2808  0.7512  0.7853
 1464SOL    HW215855   1.665   0.591   7.387 -0.8112 -0.9108  0.9278
 1465SOL     OW15856   2.975   1.739   3.435  0.4258  0.1034 -0.5192
 1465SOL    HW115857   3.066   1.738   3.406  0.6892 -0.6281  0.3511
 1465SOL    HW215858   2.935   1.685   3.366  1.1700  0.5832 -1.3223
 1466SOL     OW15859   3.926   2.243   7.816  0.1591 -0.4453 -0.3274
 1466SOL    HW115860   3.971   2.159   7.806 -0.6138 -1.0024  0.8394
 1466SOL    HW215861   3.833   2.219   7.807  0.1460  0.5899 -2.9608
 1467SOL     OW15862   3.399   1.426  14.878 -0.5022  0.3888 -0.4677
 1467SOL    HW115863   3.427   1.348  14.830 -0.7327 -0.1870  0.3481
 1467SOL    HW215864   3.480   1.477  14.870 -0.2616 -0.4194 -3.2218
 1468SOL     OW15865   4.678   0.006   5.777 -0.2882  0.7098  0.0644
 1468SOL    HW115866   4.613   0.046   5.719 -1.4717 -0.5706  0.4945
 1468SOL    HW215867   4.693   4.642   5.744 -0.8483 -0.4247  2.8012
 1469SOL     OW15868   3.016   3.343   7.468 -0.6524 -0.4335 -0.6194
 1469SOL    HW115869   3.110   3.322   7.471 -0.6014  0.0976  1.3183
 1469SOL    HW215870   3.020   3.437   7.485 -0.0061 -0.2507 -1.7484
 1470SOL     OW15871   1.434   1.155   0.777 -0.6428 -0.4024  0.5104
 1470SOL    HW115872   1.480   1.080   0.737  0.9617  1.3851 -0.9862
 1470SOL    HW215873   1.380   1.110   0.842 -1.5700 -0.3127 -0.2065
 1471SOL     OW15874   2.415   1.897  11.508  0.1267  0.1221  0.5155
 1471SOL    HW115875   2.378   1.920  11.593  1.3292 -2.5428  1.7582
 1471SOL    HW215876   2.403   1.802  11.500  0.5733  0.2740 -1.8580
 1472SOL     OW15877   3.682   2.826  11.486  0.5309 -0.0393 -0.4034
 1472SOL    HW115878   3.711   2.918  11.491  0.9543 -0.1046 -1.6996
 1472SOL    HW215879   3.703   2.806  11.578  2.1346  0.8912 -0.5616
 1473SOL     OW15880   2.041   1.255   6.900 -0.6726  0.1656  0.0095
 1473SOL    HW115881   2.090   1.240   6.819 -1.3337 -1.9906  0.0209
 1473SOL    HW215882   1.963   1.301   6.869 -1.7890 -1.6673  0.0912
 1474SOL     OW15883   1.640   3.452  15.261 -0.1532  0.4631  0.7117
 1474SOL    HW115884   1.722   3.500  15.277  1.4010 -2.0111  0.0778
 1474SOL    HW215885   1.594   3.482  15.339 -0.3323 -1.5737  1.3754
 1475SOL     OW15886   4.298   0.387  13.910 -0.9412 -0.0564 -0.5454
 1475SOL    HW115887   4.326   0.373  14.000 -0.5452  0.9475 -0.5108
 1475SOL    HW215888   4.203   0.389  13.918 -0.9490 -0.6637 -0.5000
 1476SOL     OW15889   4.588   1.440  17.239 -0.1292  0.0685  0.0189
 1476SOL    HW115890   4.596   1.493  17.318  1.3153 -0.8501  0.4926
 1476SOL    HW215891   4.563   1.500  17.168 -1.6730  0.0411  0.5429
 1477SOL     OW15892   0.356   3.962   3.976  0.7304  0.1716  0.3201
 1477SOL    HW115893   0.438   3.934   3.936 -0.0475 -1.6322 -0.0437
 1477SOL    HW215894   0.343   3.892   4.041 -0.8052 -1.0365 -1.3054
 1478SOL     OW15895   3.451   1.974  12.651 -0.0895 -0.0356 -0.8511
 1478SOL    HW115896   3.375   1.937  12.606 -1.2693 -0.2263  1.2862
 1478SOL    HW215897   3.516   1.906  12.633 -3.0263 -2.4974 -2.1304
 1479SOL     OW15898   2.545   0.426  12.296  0.1912  0.8164  0.1639
 1479SOL    HW115899   2.588   0.478  12.364 -1.8148  1.6261  0.8118
 1479SOL    HW215900   2.453   0.433  12.320 -0.3033  1.1431 -1.7821
 1480SOL     OW15901   3.392   2.506   7.062  0.4488 -0.4101  0.2078
 1480SOL    HW115902   3.348   2.437   7.012  2.0498 -0.5475 -0.9894
 1480SOL    HW215903   3.445   2.542   6.991  0.2269 -0.2392  0.1262
 1481SOL     OW15904   3.416   1.609  14.394  0.3231  0.1571 -0.6174
 1481SOL    HW115905   3.478   1.563  14.337  1.3075  1.1927 -0.3767
 1481SOL    HW215906   3.467   1.634  14.471 -0.8970 -0.1629  0.2893
 1482SOL     OW15907   0.195   0.142   1.486  0.3462 -0.5215 -0.5491
 1482SOL    HW115908   0.196   0.206   1.415  1.6274  2.6543  2.3630
 1482SOL    HW215909   0.230   0.066   1.440  2.0828  1.6990 -2.9416
 1483SOL     OW15910   1.908   3.480   3.236  0.6985 -0.1191 -0.5890
 1483SOL    HW115911   1.988   3.524   3.265  1.7288 -1.7086 -1.0257
 1483SOL    HW215912   1.867   3.465   3.321  3.5218  1.1461  0.9973
 1484SOL     OW15913   2.018   1.779   0.377  0.5439 -0.3124 -0.6214
 1484SOL    HW115914   1.940   1.724   0.383  1.2606 -1.7268 -4.2731
 1484SOL    HW215915   1.976   1.862   0.354 -0.4329 -0.6717 -0.1527
 1485SOL     OW15916   2.959   2.425   2.083  0.3695  0.3882 -0.1668
 1485SOL    HW115917   2.904   2.350   2.062  0.8681  0.3284 -1.2805
 1485SOL    HW215918   3.048   2.391   2.094  1.5825  3.7870  0.6735
 1486SOL     OW15919   3.796   3.075   6.460 -0.1730 -0.0733 -0.5888
 1486SOL    HW115920   3.724   3.012   6.465 -0.5757  0.4491  0.1999
 1486SOL    HW215921   3.766   3.153   6.507  3.0795  0.8158  0.0448
 1487SOL     OW15922   1.598   0.488   1.784 -0.2442 -0.7531  0.6398
 1487SOL    HW115923   1.596   0.438   1.702  1.5898  0.9536 -0.4411
 1487SOL    HW215924   1.691   0.511   1.784 -0.2117 -0.8922  1.1291
 1488SOL     OW15925   2.568   2.856   8.353  0.6200  0.4615  0.2578
 1488SOL    HW115926   2.534   2.816   8.273  0.9900  0.5845  0.0382
 1488SOL    HW215927   2.658   2.841   8.322 -0.9737  0.0027 -4.1632
 1489SOL     OW15928   3.367   0.411   7.154 -0.0011 -0.4362  0.2586
 1489SOL    HW115929   3.361   0.338   7.093  1.2630 -0.4663  0.1631
 1489SOL    HW215930   3.302   0.387   7.220 -2.7365 -0.0068 -2.2724
 1490SOL     OW15931   2.157   3.873   8.134  0.1725  0.5630 -0.2204
 1490SOL    HW115932   2.209   3.805   8.092  1.8214  0.2753  2.3567
 1490SOL    HW215933   2.070   3.835   8.124  0.1303  0.7566 -0.6187
 1491SOL     OW15934   2.403   0.719  11.869 -0.1453 -0.2961 -0.2461
 1491SOL    HW115935   2.350   0.760  11.800 -0.2880 -1.6239 -0.9203
 1491SOL    HW215936   2.460   0.667  11.812 -0.0722  0.0409 -0.4784
 1492SOL     OW15937   4.110   1.724  10.053  0.7725  0.1528  0.0015
 1492SOL    HW115938   4.076   1.780  10.123 -0.5232 -0.3937 -0.2000
 1492SOL    HW215939   4.203   1.723  10.077  0.4002  1.8227  1.5350
 1493SOL     OW15940   4.359   0.357   3.989 -0.3218 -0.9049 -0.3590
 1493SOL    HW115941   4.266   0.365   3.967 -0.5261 -0.4050  0.6622
 1493SOL    HW215942   4.359   0.404   4.073 -0.2917  1.2151 -1.5485
 1494SOL     OW15943   3.630   1.350   9.350  0.1258 -0.0909 -0.5942
 1494SOL    HW115944   3.562   1.301   9.396  0.6694 -0.4362 -0.1640
 1494SOL    HW215945   3.681   1.285   9.303  2.7125 -0.7334  3.1108
 1495SOL     OW15946   0.491   3.966   3.519  0.3015  0.7987 -0.5988
 1495SOL    HW115947   0.396   3.980   3.513  0.2369  1.1377  1.2981
 1495SOL    HW215948   0.524   4.022   3.448 -0.8774  0.7700 -1.1880
 1496SOL     OW15949   0.302   1.489   6.826  0.5000  0.2303 -0.2597
 1496SOL    HW115950   0.315   1.495   6.920 -2.4300  1.4108  0.0667
 1496SOL    HW215951   0.392   1.510   6.802 -0.4849  2.0540 -2.4096
 1497SOL     OW15952   0.644   0.801  15.916 -0.0108 -0.1238  0.2288
 1497SOL    HW115953   0.606   0.815  15.829 -1.2224 -0.5454  0.6899
 1497SOL    HW215954   0.571   0.825  15.972  1.0135  1.9351  0.6890
 1498SOL     OW15955   3.257   3.132  12.308  0.3338  0.2039  0.4877
 1498SOL    HW115956   3.227   3.212  12.265 -3.0366 -1.0583  0.5445
 1498SOL    HW215957   3.313   3.098  12.238 -1.4163  1.9282 -1.7588
 1499SOL     OW15958   3.788   0.397  13.423  0.5406  0.1608 -0.5431
 1499SOL    HW115959   3.854   0.329  13.437 -1.4002 -1.7499 -0.7200
 1499SOL    HW215960   3.733   0.380  13.499  0.3892 -2.4704 -1.2399
 1500SOL     OW15961   0.006   1.531   9.550 -0.1062  0.1330  0.1930
 1500SOL    HW115962   4.706   1.455   9.498 -2.0776  0.6743  0.2963
 1500SOL    HW215963   4.647   1.579   9.550 -0.1322  0.0996  0.8573
 1501SOL     OW15964   3.194   4.456   6.865 -0.2257  0.1305  0.2907
 1501SOL    HW115965   3.135   4.396   6.910  2.2601 -1.3483  1.6200
 1501SOL    HW215966   3.133   4.528   6.850 -2.2430 -1.7473 -0.4417
 1502SOL     OW15967   0.243   2.393   3.992 -0.0842 -0.5034 -0.2506
 1502SOL    HW115968   0.228   2.484   4.015 -0.2151 -0.3360 -0.9975
 1502SOL    HW215969   0.155   2.358   3.979 -0.2657 -0.6087  1.1822
 1503SOL     OW15970   1.383   1.090   8.582 -0.3450  0.3737  0.3433
 1503SOL    HW115971   1.400   1.049   8.667  0.4951  0.9893  0.4743
 1503SOL    HW215972   1.346   1.175   8.606 -1.5832 -0.6133  1.9114
 1504SOL     OW15973   1.315   2.398   7.499 -0.0950  0.0183  0.8223
 1504SOL    HW115974   1.382   2.456   7.463  0.8307  0.5816  3.4413
 1504SOL    HW215975   1.343   2.380   7.589  0.6559  3.0160  1.1966
 1505SOL     OW15976   1.020   1.190   5.095  0.3430  0.7646 -0.1349
 1505SOL    HW115977   1.021   1.096   5.115 -0.5063  0.7756 -0.0327
 1505SOL    HW215978   0.990   1.225   5.179 -0.6399  3.0596 -1.4452
 1506SOL     OW15979   0.492   1.673   6.979 -0.5134  0.1139 -0.0874
 1506SOL    HW115980   0.558   1.608   6.953 -1.5807 -1.5320  1.3328
 1506SOL    HW215981   0.437   1.622   7.038 -2.8728  1.3850 -1.1842
 1507SOL     OW15982   0.288   1.003   5.688  0.1442  0.2090 -0.3613
 1507SOL    HW115983   0.351   1.071   5.713  0.6190 -0.2236 -0.3854
 1507SOL    HW215984   0.257   0.972   5.773 -2.6024  0.1001 -1.3820
 1508SOL     OW15985   1.228   0.300   1.592 -0.2343  0.1220 -0.1302
 1508SOL    HW115986   1.163   0.369   1.600  0.1783  0.5111 -0.1183
 1508SOL    HW215987   1.253   0.293   1.684 -1.3979  1.2356  0.2638
 1509SOL     OW15988   1.820   1.268   8.248 -0.0071  0.1317 -0.0186
 1509SOL    HW115989   1.797   1.178   8.226  1.9214 -0.6441  1.1103
 1509SOL    HW215990   1.911   1.278   8.221 -0.7897  1.0824 -2.2812
 1510SOL     OW15991   0.103   0.306   2.946 -0.4307  0.7652  0.1753
 1510SOL    HW115992   0.176   0.243   2.940 -1.3973 -0.3615  0.3804
 1510SOL    HW215993   0.135   0.364   2.877  0.6757  1.0312  0.9000
 1511SOL     OW15994   0.259   2.563   2.020  1.0219  0.1075 -0.3139
 1511SOL    HW115995   0.306   2.517   1.950 -2.2408 -2.4834 -0.7925
 1511SOL    HW215996   0.301   2.532   2.100 -0.7147 -0.4911  0.3478
 1512SOL     OW15997   3.725   1.743  16.117 -0.3690  0.9505  0.3006
 1512SOL    HW115998   3.738   1.674  16.052  2.9221  1.5371  0.3392
 1512SOL    HW215999   3.631   1.740  16.137 -0.4187  2.5252  0.2711
 1513SOL     OW16000   0.499   3.685   0.387 -0.0280 -0.5851 -0.2118
 1513SOL    HW116001   0.569   3.620   0.388 -0.8645 -1.4847 -0.5664
 1513SOL    HW216002   0.427   3.628   0.411  0.3494 -0.5700  0.9599
 1514SOL     OW16003   2.679   4.513   5.764  0.0030  0.5690  0.3823
 1514SOL    HW116004   2.602   4.485   5.713  0.3101  0.2761  0.0835
 1514SOL    HW216005   2.744   4.485   5.700 -0.7419  1.2982 -0.6932
 1515SOL     OW16006   4.503   4.499   3.540  0.3505 -0.1840  0.4453
 1515SOL    HW116007   4.408   4.505   3.539  0.3064 -0.8295  0.6461
 1515SOL    HW216008   4.506   4.454   3.625 -2.0400 -0.1379  0.5539
 1516SOL     OW16009   4.004   2.995   8.358  0.2271 -0.0505  0.4131
 1516SOL    HW116010   3.960   3.076   8.385  0.6273  0.5824 -0.8559
 1516SOL    HW216011   3.930   2.944   8.325 -1.4451  2.1094  0.8336
 1517SOL     OW16012   4.086   2.966   1.673 -0.1402 -0.2355  0.3006
 1517SOL    HW116013   4.050   2.899   1.615  1.9897 -0.7464 -0.4134
 1517SOL    HW216014   4.140   3.021   1.617 -2.9947  1.8607 -0.4108
 1518SOL     OW16015   3.158   2.399  15.129  0.2293  0.4626 -0.3598
 1518SOL    HW116016   3.213   2.477  15.122  2.6025 -1.4637 -3.1280
 1518SOL    HW216017   3.095   2.401  15.057 -0.0837  0.6562 -0.0813
 1519SOL     OW16018   3.064   3.305   5.621 -0.1936  0.1219  0.2080
 1519SOL    HW116019   3.127   3.314   5.692  0.4187  1.8040 -0.5521
 1519SOL    HW216020   3.119   3.323   5.545 -1.0255 -0.4792 -0.5400
 1520SOL     OW16021   1.209   2.837   8.496 -0.0593 -0.0980  0.2155
 1520SOL    HW116022   1.166   2.874   8.573 -1.7338  0.6124 -1.0665
 1520SOL    HW216023   1.134   2.822   8.439  1.5049 -0.2783 -1.8243
 1521SOL     OW16024   0.612   0.290   6.123 -0.2788  0.5337 -0.6126
 1521SOL    HW116025   0.533   0.322   6.078 -1.8218 -0.0607  1.6981
 1521SOL    HW216026   0.614   0.354   6.193  2.8119 -2.1199  1.6962
 1522SOL     OW16027   1.445   4.546   5.916  0.1782 -0.8576 -0.2740
 1522SOL    HW116028   1.458   4.506   5.830 -0.4924 -0.2939 -0.6349
 1522SOL    HW216029   1.462   4.470   5.970 -0.9698 -1.3839 -0.6663
 1523SOL     OW16030   2.233   1.795  16.940  0.2730 -0.3321  0.0428
 1523SOL    HW116031   2.185   1.848  16.876 -0.8849 -1.2915  0.1002
 1523SOL    HW216032   2.172   1.808  17.013 -0.4120 -0.3835 -0.5134
 1524SOL     OW16033   1.449   2.018  16.211 -0.1697 -0.0582 -0.0345
 1524SOL    HW116034   1.386   1.972  16.155 -0.6823 -0.0329  0.5146
 1524SOL    HW216035   1.408   2.105  16.216  0.4002  0.1983  0.1430
 1525SOL     OW16036   0.380   0.395   6.392 -0.3763  0.0046  0.6114
 1525SOL    HW116037   0.305   0.453   6.376 -1.1631 -0.9866  0.7614
 1525SOL    HW216038   0.446   0.458   6.422  0.4746 -0.6841  0.1941
 1526SOL     OW16039   1.931   1.455   4.658  0.7395 -0.6373 -0.2434
 1526SOL    HW116040   1.961   1.545   4.673  0.7839 -0.5973 -0.5777
 1526SOL    HW216041   1.888   1.441   4.743  0.1947  1.9471 -0.0731
 1527SOL     OW16042   1.833   2.886   6.003  0.6165  0.1544  0.3650
 1527SOL    HW116043   1.924   2.902   6.028  0.4941 -0.1452  0.9865
 1527SOL    HW216044   1.849   2.867   5.911 -0.3917  1.3518 -0.0712
 1528SOL     OW16045   4.689   0.689   5.008 -0.0170  0.0291 -0.1711
 1528SOL    HW116046   4.723   0.755   4.947  0.6593  0.3166  0.5142
 1528SOL    HW216047   4.612   0.732   5.046  0.6119  1.0571 -0.0642
 1529SOL     OW16048   4.095   1.462  17.175  0.0322  0.3919  0.2441
 1529SOL    HW116049   4.159   1.466  17.246  0.4370  0.8197 -0.1487
 1529SOL    HW216050   4.167   1.439  17.116 -0.1263 -0.8292  0.5199
 1530SOL     OW16051   2.416   1.107   8.888  0.0935 -0.2676 -0.3296
 1530SOL    HW116052   2.374   1.185   8.924  2.3461  0.2622  1.1381
 1530SOL    HW216053   2.427   1.139   8.798  1.3066 -3.1279 -1.2166
 1531SOL     OW16054   0.215   2.753   5.786  0.1746  0.2279  0.1125
 1531SOL    HW116055   0.196   2.845   5.805 -1.3406  0.2612 -1.5149
 1531SOL    HW216056   0.242   2.719   5.871  1.5530  0.0148 -0.4123
 1532SOL     OW16057   3.011   1.369  13.963 -0.0053 -0.5395 -0.0660
 1532SOL    HW116058   3.020   1.464  13.974  0.9100 -0.5750 -0.5856
 1532SOL    HW216059   3.030   1.354  13.871 -0.3650  1.6003 -0.4948
 1533SOL     OW16060   3.609   2.501  11.181  0.0964  0.3922  0.0254
 1533SOL    HW116061   3.554   2.454  11.119 -0.7717 -1.0050  1.8733
 1533SOL    HW216062   3.556   2.580  11.193  0.8983  1.0503 -0.7428
 1534SOL     OW16063   3.204   1.056  13.253 -0.0184 -0.2013 -0.3290
 1534SOL    HW116064   3.120   1.013  13.263  0.4316 -0.8603  0.5818
 1534SOL    HW216065   3.173   1.139  13.216  0.2356 -0.2957 -0.7593
 1535SOL     OW16066   2.374   4.716   2.631  0.0595  0.0477  0.6401
 1535SOL    HW116067   2.400   4.645   2.573 -0.8397  0.0444  0.2369
 1535SOL    HW216068   2.314   0.038   2.572  0.0767 -1.2908 -0.4090
 1536SOL     OW16069   0.558   0.323   2.441  0.3581  0.0086 -0.1162
 1536SOL    HW116070   0.528   0.326   2.532 -2.9004 -2.0131 -1.1655
 1536SOL    HW216071   0.626   0.391   2.445 -0.4899  0.7995  0.6921
 1537SOL     OW16072   0.760   3.884   0.314  0.4051  0.4120  0.3012
 1537SOL    HW116073   0.850   3.873   0.347 -0.4977 -1.1993  2.2673
 1537SOL    HW216074   0.775   3.841   0.230  1.8838  2.7908 -0.6565
 1538SOL     OW16075   2.094   4.240  11.624  0.1796 -0.4491 -0.0712
 1538SOL    HW116076   2.113   4.330  11.651  1.3652 -0.9132  0.6097
 1538SOL    HW216077   2.049   4.253  11.540  1.3039 -0.1079 -0.6190
 1539SOL     OW16078   1.992   2.791   7.727 -0.4468  0.6947 -0.0061
 1539SOL    HW116079   2.054   2.857   7.757  0.2529  1.3117 -2.9004
 1539SOL    HW216080   1.947   2.759   7.806 -0.0150 -1.5505 -0.6690
 1540SOL     OW16081   1.750   2.367   6.579  0.1256 -0.6072 -0.0910
 1540SOL    HW116082   1.706   2.397   6.659 -0.9268 -0.0471 -0.8893
 1540SOL    HW216083   1.770   2.448   6.534  0.3267 -2.2978 -3.0138
 1541SOL     OW16084   0.673   1.320   4.692 -0.1186 -0.5397 -0.1803
 1541SOL    HW116085   0.743   1.324   4.627  1.7822 -1.0891  1.8161
 1541SOL    HW216086   0.720   1.329   4.775  2.1138  0.2263 -1.5377
 1542SOL     OW16087   1.663   1.893   4.927 -0.4205  0.0213 -0.3873
 1542SOL    HW116088   1.626   1.833   4.993 -1.5137  1.5032  0.3696
 1542SOL    HW216089   1.588   1.952   4.916  0.3179  0.7053 -1.6472
 1543SOL     OW16090   1.932   4.170   3.337 -0.4603  0.2308  0.1706
 1543SOL    HW116091   1.967   4.098   3.285  0.9879  0.3419  0.9959
 1543SOL    HW216092   1.884   4.215   3.267 -1.9833 -1.4340  0.1439
 1544SOL     OW16093   0.714   1.113  11.562 -0.4489 -0.4954  0.3577
 1544SOL    HW116094   0.687   1.197  11.599 -0.6441  0.4167 -1.8123
 1544SOL    HW216095   0.630   1.070  11.551 -1.9363  2.4737  0.0803
 1545SOL     OW16096   3.405   3.627   4.196 -0.1241  0.6796  0.0901
 1545SOL    HW116097   3.493   3.623   4.159  0.8356 -0.1218  2.4879
 1545SOL    HW216098   3.423   3.658   4.284 -0.9403 -0.3051  0.6011
 1546SOL     OW16099   2.115   2.156   2.635  0.0832  0.0758 -0.3949
 1546SOL    HW116100   2.090   2.247   2.617  2.7969  0.7484 -0.8274
 1546SOL    HW216101   2.133   2.134   2.543 -1.6448  0.0406 -0.7184
 1547SOL     OW16102   0.473   0.631   6.569 -0.4539 -0.5702 -0.1692
 1547SOL    HW116103   0.499   0.723   6.579  1.0616 -0.9329 -0.7999
 1547SOL    HW216104   0.545   0.583   6.609 -0.6324 -0.6653  0.0388
 1548SOL     OW16105   3.429   4.500   1.619  0.4374  0.1391  0.1772
 1548SOL    HW116106   3.474   4.419   1.642 -2.1889 -1.4207 -0.1271
 1548SOL    HW216107   3.374   4.518   1.696 -0.9569  1.3665 -1.0989
 1549SOL     OW16108   3.376   4.618   7.873 -0.1778  0.1588  0.1222
 1549SOL    HW116109   3.442   4.684   7.894  1.1654 -1.1367 -0.0485
 1549SOL    HW216110   3.375   4.569   7.955  1.0335  1.0063  0.6487
 1550SOL     OW16111   2.388   0.546   6.205  0.1079  0.1909 -0.2941
 1550SOL    HW116112   2.350   0.522   6.120 -0.5843  0.6411 -0.1128
 1550SOL    HW216113   2.308   0.551   6.256 -1.4065 -1.4349 -2.4900
 1551SOL     OW16114   1.835   1.132   2.171  0.1330 -0.1474  0.0498
 1551SOL    HW116115   1.919   1.178   2.162  0.8193 -1.5409 -0.5564
 1551SOL    HW216116   1.857   1.085   2.252 -0.4545  1.7421  1.3242
 1552SOL     OW16117   2.944   4.297   7.932 -0.2475 -0.4056 -0.2601
 1552SOL    HW116118   3.026   4.326   7.971 -0.1491 -0.1974 -0.6265
 1552SOL    HW216119   2.881   4.364   7.958  0.4616 -0.2795  1.1069
 1553SOL     OW16120   2.390   1.565   9.548 -0.3346  0.2796 -0.3844
 1553SOL    HW116121   2.477   1.546   9.513  0.4649  0.8916  1.2893
 1553SOL    HW216122   2.356   1.479   9.568  0.6466 -0.2190 -0.8336
 1554SOL     OW16123   4.034   0.429   6.437  0.1371  0.3786  0.2349
 1554SOL    HW116124   4.004   0.457   6.350 -0.0381  0.0991  0.2050
 1554SOL    HW216125   4.021   0.502   6.498 -1.4273  0.2998 -0.0095
 1555SOL     OW16126   4.252   4.108   8.013 -0.2704  0.1808 -0.1619
 1555SOL    HW116127   4.293   4.181   7.966  1.1515  0.1375  1.0398
 1555SOL    HW216128   4.161   4.122   7.988 -0.5335  0.5280  1.0346
 1556SOL     OW16129   3.584   2.848   2.375 -0.4108 -0.0928  0.0859
 1556SOL    HW116130   3.649   2.879   2.438 -0.0845  0.4159 -0.5017
 1556SOL    HW216131   3.608   2.910   2.306 -1.2077  1.7090  1.4361
 1557SOL     OW16132   0.423   3.539   3.498  0.1504  0.2978  0.0597
 1557SOL    HW116133   0.481   3.615   3.501  1.3913 -0.6153 -0.5627
 1557SOL    HW216134   0.387   3.552   3.585 -0.3169 -0.5576 -0.0051
 1558SOL     OW16135   0.069   3.136   6.698 -0.2299 -0.8067  0.1279
 1558SOL    HW116136   0.131   3.207   6.681  0.0788 -0.9467  0.6753
 1558SOL    HW216137   0.048   3.130   6.605  0.9141  2.2786 -0.3403
 1559SOL     OW16138   0.317   4.147   5.263  0.3966  0.7821  0.1303
 1559SOL    HW116139   0.396   4.094   5.270 -1.2109 -1.6163  0.2931
 1559SOL    HW216140   0.356   4.234   5.257  1.3366  0.2556 -1.1492
 1560SOL     OW16141   2.243   0.129   3.380 -0.0794  0.4521  0.2628
 1560SOL    HW116142   2.171   0.066   3.385  1.5980 -1.4066  0.9186
 1560SOL    HW216143   2.307   0.096   3.317  0.1733  0.7319  0.3764
 1561SOL     OW16144   0.911   4.361   5.415  0.0861  0.6220 -0.1519
 1561SOL    HW116145   0.964   4.284   5.396  0.4138  0.9571 -0.6235
 1561SOL    HW216146   0.921   4.417   5.338 -0.0710  1.1730  0.2292
 1562SOL     OW16147   4.235   0.854  14.002  0.1595 -0.4923  0.6795
 1562SOL    HW116148   4.168   0.786  13.993  0.2648 -0.3007 -1.6186
 1562SOL    HW216149   4.222   0.895  14.087 -0.0230 -1.4344  1.1035
 1563SOL     OW16150   2.492   0.615   5.432 -0.4747  0.2212  0.4386
 1563SOL    HW116151   2.404   0.579   5.434 -0.8378  1.0783 -0.0596
 1563SOL    HW216152   2.485   0.702   5.472  0.4261  0.2670  0.5000
 1564SOL     OW16153   1.684   4.578   5.353 -0.1661 -0.5795 -0.4755
 1564SOL    HW116154   1.652   4.539   5.271 -1.8221  3.0259 -1.5434
 1564SOL    HW216155   1.750   4.516   5.382 -0.2275 -0.4048  0.0269
 1565SOL     OW16156   3.596   1.196   5.845 -0.1361 -0.0459 -0.0560
 1565SOL    HW116157   3.662   1.230   5.905  0.3533  2.1732 -1.8309
 1565SOL    HW216158   3.656   1.177   5.772  0.2838  2.2762 -0.3362
 1566SOL     OW16159   2.942   4.148   8.704 -0.0902  0.2342 -0.0355
 1566SOL    HW116160   3.036   4.142   8.716 -0.2425 -1.9404  0.0813
 1566SOL    HW216161   2.936   4.110   8.616 -0.9001 -2.6654  1.2977
 1567SOL     OW16162   2.775   3.022   8.009  0.0831  0.3230 -0.5962
 1567SOL    HW116163   2.843   3.043   8.073  0.6398 -0.4375 -0.9418
 1567SOL    HW216164   2.770   2.927   8.006  2.6034  0.1033  2.5169
 1568SOL     OW16165   0.158   0.557   3.264  0.4401 -0.4328 -0.2659
 1568SOL    HW116166   0.188   0.588   3.179  0.0547  1.4818  0.2913
 1568SOL    HW216167   0.102   0.487   3.231  0.4653  0.1074 -1.4495
 1569SOL     OW16168   0.172   0.482  14.863  0.9602  0.2488  0.3817
 1569SOL    HW116169   0.086   0.513  14.835  1.4576  0.5913 -0.7456
 1569SOL    HW216170   0.168   0.400  14.815  2.6848  0.7693 -0.6472
 1570SOL     OW16171   3.912   3.362   9.038  0.1735  0.2580 -0.0786
 1570SOL    HW116172   3.969   3.381   9.113  1.2747 -1.1252 -0.5665
 1570SOL    HW216173   3.892   3.268   9.048  0.9976  0.0757 -0.1629
 1571SOL     OW16174   1.706   4.412  12.594 -0.5177 -0.4676  0.3824
 1571SOL    HW116175   1.634   4.471  12.617 -1.8439 -1.7007 -0.6627
 1571SOL    HW216176   1.692   4.414  12.500  0.3653  0.8742  0.2682
 1572SOL     OW16177   1.546   2.986   5.294  0.9475  0.4918  0.2252
 1572SOL    HW116178   1.597   2.929   5.351  1.7472  1.4248  0.4421
 1572SOL    HW216179   1.479   2.932   5.253  1.5852  0.3645 -0.6474
 1573SOL     OW16180   2.602   1.394   5.967  0.3944  0.3295 -1.1231
 1573SOL    HW116181   2.575   1.302   5.955  0.4735  0.0490  0.8791
 1573SOL    HW216182   2.542   1.432   5.903 -1.7405 -0.0304  0.6704
 1574SOL     OW16183   1.746   0.742   4.563 -0.1129 -0.0618 -0.3499
 1574SOL    HW116184   1.679   0.699   4.511 -1.5417 -0.2306  1.6498
 1574SOL    HW216185   1.816   0.728   4.499  0.3528 -3.2654  0.8619
 1575SOL     OW16186   4.638   2.243   8.606  0.4535  0.0846 -0.2396
 1575SOL    HW116187   4.597   2.329   8.601  0.8498  0.2270 -1.0690
 1575SOL    HW216188   4.562   2.186   8.597 -0.1862  0.7143  1.2104
 1576SOL     OW16189   2.858   4.182  11.285  0.1303 -0.2465  0.5508
 1576SOL    HW116190   2.913   4.155  11.211  0.0565  2.0856 -0.3334
 1576SOL    HW216191   2.831   4.093  11.310 -1.0611 -0.4516 -1.4332
 1577SOL     OW16192   4.432   3.756   0.367  0.6340  0.5943 -0.0198
 1577SOL    HW116193   4.415   3.814   0.441 -0.5974  0.0549  0.1245
 1577SOL    HW216194   4.515   3.718   0.395 -0.2241 -1.3238 -0.0314
 1578SOL     OW16195   2.391   1.853  11.228  0.1100 -0.2051 -0.5533
 1578SOL    HW116196   2.436   1.770  11.210  0.8167 -0.0485  0.4804
 1578SOL    HW216197   2.374   1.854  11.322  1.0254  0.5591 -0.3923
 1579SOL     OW16198   3.977   3.744   1.949  0.1112  0.2629 -0.2821
 1579SOL    HW116199   4.061   3.767   1.909 -0.3546  0.9182 -0.8969
 1579SOL    HW216200   3.918   3.796   1.895  1.5341  0.6314 -1.4741
 1580SOL     OW16201   0.326   3.007   4.127 -0.0160  0.2796 -0.9077
 1580SOL    HW116202   0.275   2.930   4.102 -0.1209  0.0864 -0.1020
 1580SOL    HW216203   0.370   3.033   4.046 -1.4509 -0.8642 -2.0490
 1581SOL     OW16204   1.882   2.382  15.913  0.5553  0.2438 -0.4723
 1581SOL    HW116205   1.938   2.434  15.971  3.3651 -2.3403 -0.8387
 1581SOL    HW216206   1.863   2.311  15.975  1.7552  0.4694  0.1600
 1582SOL     OW16207   2.991   2.731   9.793 -0.5258  0.1070 -0.6991
 1582SOL    HW116208   2.990   2.751   9.887 -1.6795 -0.7159 -0.5388
 1582SOL    HW216209   2.907   2.765   9.764 -1.1934 -1.2989 -0.4002
 1583SOL     OW16210   2.843   2.835   8.310 -0.2571  0.2539  0.2122
 1583SOL    HW116211   2.868   2.919   8.272 -2.0599  0.7241  0.0770
 1583SOL    HW216212   2.896   2.832   8.390  0.2404  0.5446 -0.1052
 1584SOL     OW16213   4.448   1.637   4.159  0.2220  0.8135 -0.6267
 1584SOL    HW116214   4.455   1.551   4.120 -2.0091  0.3630 -0.0035
 1584SOL    HW216215   4.502   1.692   4.102  0.3455 -0.3919 -1.6675
 1585SOL     OW16216   3.997   1.941  16.292 -0.2268 -0.1633 -0.6554
 1585SOL    HW116217   4.000   1.943  16.196  3.5651  1.8423 -0.5235
 1585SOL    HW216218   3.902   1.947  16.298 -0.2631 -1.2125 -0.0970
 1586SOL     OW16219   4.490   0.009   1.466  0.3746  0.2663  0.0902
 1586SOL    HW116220   4.554   4.683   1.517  0.8134 -1.4931 -2.1913
 1586SOL    HW216221   4.540   0.091   1.464  1.8049 -0.6736 -2.7369
 1587SOL     OW16222   3.044   2.613   3.187 -0.2405 -0.2284  0.3057
 1587SOL    HW116223   2.959   2.640   3.220 -0.4887 -0.8516  0.1620
 1587SOL    HW216224   3.084   2.698   3.167  0.1043 -0.3440  0.5021
 1588SOL     OW16225   3.903   0.522   8.526 -0.2037 -0.6840  0.0140
 1588SOL    HW116226   3.869   0.610   8.512 -0.2524 -1.0127 -1.9693
 1588SOL    HW216227   3.873   0.490   8.441 -1.4777  0.7946 -0.0817
 1589SOL     OW16228   1.770   4.160   6.847  0.2945 -0.8217  0.1510
 1589SOL    HW116229   1.748   4.098   6.916 -1.5170 -1.0547 -0.6463
 1589SOL    HW216230   1.853   4.198   6.876 -1.0786  2.8978 -0.7548
 1590SOL     OW16231   2.041   3.078   5.019  0.4429  0.0375 -0.6747
 1590SOL    HW116232   2.085   2.993   5.024  0.6184  0.2004  0.6071
 1590SOL    HW216233   1.949   3.063   5.000  0.3503 -1.2762  0.8094
 1591SOL     OW16234   2.187   0.688   6.648 -0.5998  0.7327  0.5489
 1591SOL    HW116235   2.227   0.635   6.717  1.2774  0.6125 -0.6259
 1591SOL    HW216236   2.216   0.636   6.573  0.2149 -0.5284  1.7210
 1592SOL     OW16237   2.232   2.281   4.341 -0.1255  0.4188  0.5190
 1592SOL    HW116238   2.142   2.313   4.333  0.2170  0.9180 -1.4517
 1592SOL    HW216239   2.250   2.261   4.249  0.4233  0.5926  0.5873
 1593SOL     OW16240   3.571   2.754   7.608  0.3650  0.4385  0.3366
 1593SOL    HW116241   3.510   2.710   7.548  2.2711  0.2816 -1.4753
 1593SOL    HW216242   3.577   2.836   7.560 -0.1124 -0.4683 -1.2661
 1594SOL     OW16243   0.155   0.576  14.253  0.0447  0.3703  0.1766
 1594SOL    HW116244   0.221   0.507  14.242 -1.9222 -1.4974  0.1904
 1594SOL    HW216245   0.076   0.538  14.215 -0.3464 -0.1508  1.4744
 1595SOL     OW16246   4.161   1.289   8.555 -0.0032  0.0116 -0.8305
 1595SOL    HW116247   4.102   1.335   8.614  0.9325 -0.6964  0.6472
 1595SOL    HW216248   4.244   1.291   8.603 -1.7160 -0.4959  2.1397
 1596SOL     OW16249   1.891   3.409   0.811  0.1971  0.1790 -0.3283
 1596SOL    HW116250   1.866   3.409   0.719 -2.2497  0.5976  0.3181
 1596SOL    HW216251   1.937   3.325   0.819 -0.8819 -0.4525 -0.7034
 1597SOL     OW16252   2.973   4.395  17.613 -0.3672  0.4273 -1.3870
 1597SOL    HW116253   2.911   4.457  17.651 -0.6778 -1.1978  0.7648
 1597SOL    HW216254   2.943   4.315  17.655 -2.6272  1.1312 -1.6970
 1598SOL     OW16255   3.397   1.361   9.139 -0.5408 -0.1868  0.5245
 1598SOL    HW116256   3.324   1.401   9.091 -0.3661 -1.4311 -0.7882
 1598SOL    HW216257   3.347   1.311   9.203 -0.7717  0.4799  0.8637
 1599SOL     OW16258   3.005   1.108   9.705 -0.0543  0.0696 -0.5138
 1599SOL    HW116259   2.995   1.015   9.689 -2.8742  0.1627  0.7194
 1599SOL    HW216260   3.098   1.109   9.731 -0.4793 -1.1194  1.0412
 1600SOL     OW16261   4.464   1.811  10.963  0.1219 -0.3505 -0.0883
 1600SOL    HW116262   4.539   1.853  11.005 -0.2715  0.2075  0.0567
 1600SOL    HW216263   4.432   1.773  11.045 -0.1301  3.5177  1.5807
 1601SOL     OW16264   0.762   2.391   4.358 -0.5777  0.1368  0.2125
 1601SOL    HW116265   0.715   2.435   4.288 -2.7003  1.2068  2.3070
 1601SOL    HW216266   0.745   2.450   4.432 -2.3847  1.0918 -0.9617
 1602SOL     OW16267   1.942   1.912   8.784 -0.3672  0.2728 -0.3313
 1602SOL    HW116268   1.971   1.862   8.708 -0.9380 -0.3776 -0.1195
 1602SOL    HW216269   1.941   2.006   8.763  0.6848  0.1739 -0.8298
 1603SOL     OW16270   2.367   0.332   4.600 -0.0376 -0.2760  0.5789
 1603SOL    HW116271   2.390   0.242   4.622 -1.1727 -1.1192 -1.6330
 1603SOL    HW216272   2.305   0.360   4.667  0.9274  1.0679  0.8939
 1604SOL     OW16273   1.487   2.899   8.459 -0.5719 -0.1218 -0.2402
 1604SOL    HW116274   1.501   2.904   8.553 -3.6997 -1.9506  0.3406
 1604SOL    HW216275   1.392   2.888   8.448 -0.4161 -0.1959 -1.5817
 1605SOL     OW16276   3.375   2.472   6.295  0.1893  0.3944 -0.0119
 1605SOL    HW116277   3.319   2.398   6.315  2.0631 -1.5876 -2.0045
 1605SOL    HW216278   3.447   2.465   6.358 -1.9867  1.1262  2.5692
 1606SOL     OW16279   0.977   0.391   2.560  0.1134  0.3115  0.2069
 1606SOL    HW116280   0.950   0.338   2.485  1.8504 -1.8922  1.1234
 1606SOL    HW216281   0.950   0.336   2.634 -0.8153 -0.3772 -0.6346
 1607SOL     OW16282   0.659   2.098  16.156 -0.2036  0.0579  0.6342
 1607SOL    HW116283   0.579   2.141  16.185 -0.5925 -0.4691  0.3399
 1607SOL    HW216284   0.728   2.145  16.203  0.2403 -0.3771  0.4202
 1608SOL     OW16285   1.522   1.889  17.575 -0.3197 -0.3531 -0.5839
 1608SOL    HW116286   1.596   1.839  17.540 -0.7284 -1.1654 -0.3026
 1608SOL    HW216287   1.570   1.971  17.568 -0.6521 -0.0482  0.7678
 1609SOL     OW16288   2.356   2.926   2.450  0.0745 -0.0580  0.1472
 1609SOL    HW116289   2.428   2.902   2.509 -0.1867 -0.8197  0.1598
 1609SOL    HW216290   2.385   2.897   2.363  1.6795 -0.9488  0.9827
 1610SOL     OW16291   3.165   2.445   9.498 -0.5268  0.1454  0.0302
 1610SOL    HW116292   3.111   2.426   9.575  0.0392 -1.7149 -0.0335
 1610SOL    HW216293   3.169   2.540   9.504 -2.3300  0.2382 -0.2257
 1611SOL     OW16294   3.510   3.887   9.674  0.4709  0.2004 -0.3821
 1611SOL    HW116295   3.537   3.799   9.647  0.4981  0.1945 -0.3353
 1611SOL    HW216296   3.464   3.868   9.755 -1.4280  0.8477 -1.3179
 1612SOL     OW16297   3.568   4.557   4.018 -0.3288 -0.0474  0.0226
 1612SOL    HW116298   3.572   4.613   3.941  1.5087 -0.8019 -0.4314
 1612SOL    HW216299   3.646   4.503   4.006  0.6427  1.4894 -0.5644
 1613SOL     OW16300   1.623   0.213  14.535 -0.3754  0.2847 -0.2767
 1613SOL    HW116301   1.673   0.138  14.566 -1.2565  0.1856  0.8906
 1613SOL    HW216302   1.661   0.222  14.448  0.1379 -0.3175 -0.1177
 1614SOL     OW16303   0.935   3.734  16.507  0.4246  0.2942 -0.3680
 1614SOL    HW116304   0.975   3.819  16.527 -0.8757  0.1319  3.0227
 1614SOL    HW216305   0.857   3.744  16.561  0.1169 -4.7740  0.0684
 1615SOL     OW16306   1.840   2.340   8.410  0.6834  0.3801 -0.7293
 1615SOL    HW116307   1.791   2.324   8.329  2.5715 -1.7391 -1.4764
 1615SOL    HW216308   1.770   2.321   8.473  1.6506 -0.6206  0.0526
 1616SOL     OW16309   2.903   3.897   8.262 -0.6207 -0.7696  0.3155
 1616SOL    HW116310   2.940   3.984   8.248 -0.7835 -1.0276 -1.7368
 1616SOL    HW216311   2.852   3.920   8.339 -2.4554 -0.1683 -1.0588
 1617SOL     OW16312   2.645   0.112   5.569  0.1843 -0.2156  0.1077
 1617SOL    HW116313   2.621   0.195   5.527  0.7669  0.2017  0.5936
 1617SOL    HW216314   2.668   0.068   5.488  1.1491 -0.4145  0.4919
 1618SOL     OW16315   2.846   4.321   2.966  0.0903  0.5426 -0.3948
 1618SOL    HW116316   2.892   4.285   3.042 -0.5195  0.1676 -0.1994
 1618SOL    HW216317   2.895   4.401   2.953 -3.6747  3.2973  2.3764
 1619SOL     OW16318   1.656   0.410   1.532 -0.0316  0.0932  0.2708
 1619SOL    HW116319   1.713   0.334   1.545  1.6035  1.5130  1.3753
 1619SOL    HW216320   1.606   0.384   1.455 -0.5709  0.4794  0.4916
 1620SOL     OW16321   0.309   2.218   3.289  0.1082 -0.1354  0.0276
 1620SOL    HW116322   0.312   2.238   3.195  2.2683 -0.6077 -0.0050
 1620SOL    HW216323   0.301   2.124   3.278 -0.1684  0.1281 -1.9331
 1621SOL     OW16324   0.217   1.660   0.510  0.3793 -0.1293 -0.2281
 1621SOL    HW116325   0.144   1.643   0.570 -0.3382  0.3161 -0.9794
 1621SOL    HW216326   0.171   1.668   0.427 -0.0900 -2.3968 -0.1948
 1622SOL     OW16327   0.803   0.832  14.080 -0.0652 -0.6373  0.0407
 1622SOL    HW116328   0.797   0.737  14.078 -0.5616 -0.6325  1.3450
 1622SOL    HW216329   0.799   0.839  13.985  2.8733  2.5332  0.1580
 1623SOL     OW16330   0.174   3.768   8.235 -0.4629  0.5737  0.0188
 1623SOL    HW116331   0.139   3.849   8.273 -0.0104  0.9244 -0.3176
 1623SOL    HW216332   0.207   3.724   8.314 -0.7050  2.3748  1.1266
 1624SOL     OW16333   1.448   2.769   3.669  0.4260 -0.2134  0.1861
 1624SOL    HW116334   1.417   2.771   3.760 -1.5058  0.0865 -0.4891
 1624SOL    HW216335   1.445   2.862   3.648  0.2003 -0.4727 -0.8990
 1625SOL     OW16336   2.104   3.247  17.410  0.7072  0.5752  0.3303
 1625SOL    HW116337   2.092   3.324  17.466 -1.5280  0.3425  0.2025
 1625SOL    HW216338   2.198   3.251  17.397  0.8133 -0.1111  0.8683
 1626SOL     OW16339   0.639   4.362   2.161 -0.2501 -0.2690 -0.4441
 1626SOL    HW116340   0.544   4.357   2.163 -0.3088  0.3769 -1.4363
 1626SOL    HW216341   0.660   4.316   2.243  1.4209  2.4070  0.6353
 1627SOL     OW16342   3.691   4.402  13.325  0.1533 -0.3269 -0.4948
 1627SOL    HW116343   3.667   4.445  13.407  0.7369  0.8706 -0.9523
 1627SOL    HW216344   3.716   4.478  13.271  1.3817 -0.7838 -0.5697
 1628SOL     OW16345   1.283   1.813   8.447 -0.3314  0.3191  0.4875
 1628SOL    HW116346   1.355   1.776   8.498 -2.0180  0.1038  2.6747
 1628SOL    HW216347   1.276   1.906   8.470  0.3928  0.4801  0.0688
 1629SOL     OW16348   1.017   4.486   8.731 -0.0113  0.3957  0.1741
 1629SOL    HW116349   0.996   4.489   8.825  0.0992  0.8576  0.1848
 1629SOL    HW216350   1.111   4.502   8.734  0.0794 -0.4491  2.0256
 1630SOL     OW16351   0.940   1.613   8.887 -0.0386  0.2231  0.8834
 1630SOL    HW116352   0.917   1.609   8.980  0.4162  0.9083  1.0291
 1630SOL    HW216353   0.912   1.527   8.857  1.9808  0.8685 -2.9210
 1631SOL     OW16354   2.531   4.399  16.302  1.0248 -0.4426 -0.0283
 1631SOL    HW116355   2.576   4.461  16.244 -1.9319  0.5585 -1.2358
 1631SOL    HW216356   2.496   4.458  16.368  0.8617  0.7887 -1.2171
 1632SOL     OW16357   0.188   1.493   5.557  0.4803  0.0458 -0.4191
 1632SOL    HW116358   0.279   1.473   5.582  0.2330 -0.4327  0.1017
 1632SOL    HW216359   0.138   1.420   5.593  0.5003  0.6458  0.8389
 1633SOL     OW16360   4.200   3.574   7.268  0.2730 -0.0110 -0.3274
 1633SOL    HW116361   4.156   3.659   7.262 -1.0058 -0.6582 -0.1646
 1633SOL    HW216362   4.247   3.569   7.185 -0.9697 -0.1377 -1.0202
 1634SOL     OW16363   1.800   1.013   3.280  0.1910 -0.3938 -0.0941
 1634SOL    HW116364   1.854   0.938   3.304 -0.9008 -1.0229  0.3810
 1634SOL    HW216365   1.776   1.042   3.368  0.4463  3.0791 -1.1663
 1635SOL     OW16366   3.159   0.614   4.880 -0.2282 -0.0040 -0.2425
 1635SOL    HW116367   3.168   0.520   4.863  2.8554 -0.2644  2.7058
 1635SOL    HW216368   3.252   0.634   4.875 -0.3702  1.5083  2.8772
 1636SOL     OW16369   3.713   1.722   5.596  0.4784  0.9237 -0.2354
 1636SOL    HW116370   3.762   1.771   5.662  1.2115  3.5951 -2.7923
 1636SOL    HW216371   3.626   1.755   5.620 -0.1428  0.6102 -2.0656
 1637SOL     OW16372   4.011   4.294  11.403 -0.0876  0.2174 -0.0518
 1637SOL    HW116373   3.921   4.299  11.368 -0.6999 -1.3572  1.2934
 1637SOL    HW216374   4.034   4.384  11.379 -0.0008  0.0828 -0.4819
 1638SOL     OW16375   3.526   0.717   3.041 -0.4145 -0.0589  0.5093
 1638SOL    HW116376   3.493   0.775   3.110 -2.6445 -0.0722 -0.5478
 1638SOL    HW216377   3.588   0.655   3.079  0.2010 -0.0550 -0.4957
 1639SOL     OW16378   2.202   3.603   7.999 -0.2315  0.2486  0.3078
 1639SOL    HW116379   2.209   3.513   8.031  0.0467 -0.0710 -0.6259
 1639SOL    HW216380   2.292   3.628   7.979 -0.0928 -1.1724 -0.8917
 1640SOL     OW16381   2.119   3.985   4.541  0.1491 -0.4885 -1.0650
 1640SOL    HW116382   2.155   3.908   4.495  2.0517  0.4865 -1.1953
 1640SOL    HW216383   2.119   3.942   4.627 -0.9295 -0.4569 -1.0394
 1641SOL     OW16384   3.339   1.793   4.648  0.4211 -0.5437 -0.2555
 1641SOL    HW116385   3.332   1.728   4.578  0.1815 -0.1342 -0.6065
 1641SOL    HW216386   3.431   1.781   4.674  0.1676 -2.1399 -0.0995
 1642SOL     OW16387   0.017   0.921   7.168 -0.2207  0.2938  0.0147
 1642SOL    HW116388   0.071   0.980   7.115 -0.0448  1.7072  1.7436
 1642SOL    HW216389   4.653   0.944   7.138  0.5994  0.1089 -2.5049
 1643SOL     OW16390   3.793   3.705   4.691  0.3421 -0.2152 -0.3921
 1643SOL    HW116391   3.744   3.668   4.765 -2.7141  0.5405 -2.0697
 1643SOL    HW216392   3.795   3.625   4.639  0.7635  0.0509 -0.7868
 1644SOL     OW16393   2.149   2.716   1.870  0.2378 -0.0014  0.6831
 1644SOL    HW116394   2.061   2.724   1.833  0.2827  2.3631  1.0806
 1644SOL    HW216395   2.190   2.803   1.867 -2.2714  1.1922  1.3897
 1645SOL     OW16396   0.776   0.760   0.330 -0.3816  0.1754  0.0056
 1645SOL    HW116397   0.818   0.841   0.301  0.0262  0.8706  2.5415
 1645SOL    HW216398   0.850   0.718   0.373  0.0876 -2.7955 -3.6134
 1646SOL     OW16399   0.004   1.902   2.522  0.2604 -0.1234 -0.0804
 1646SOL    HW116400   4.635   1.895   2.499  0.6096  0.7071 -1.8055
 1646SOL    HW216401   0.014   1.977   2.580  1.4925  1.3584 -2.2178
 1647SOL     OW16402   0.333   0.531   1.223 -0.0180 -0.4695 -0.0884
 1647SOL    HW116403   0.417   0.498   1.189  0.1414 -0.4198  0.2613
 1647SOL    HW216404   0.264   0.495   1.167 -0.2254  0.6338 -0.5326
 1648SOL     OW16405   3.152   2.850   3.155  0.3318 -0.6605 -0.3017
 1648SOL    HW116406   3.120   2.940   3.154  0.5108 -0.6294 -2.1126
 1648SOL    HW216407   3.197   2.843   3.240  0.2975  0.3905 -0.1969
 1649SOL     OW16408   4.163   3.882  15.943  0.6069  0.3081  0.3768
 1649SOL    HW116409   4.118   3.883  16.027  0.6730  0.7779  0.4074
 1649SOL    HW216410   4.242   3.855  15.989 -0.7864  0.0148  2.5881
 1650SOL     OW16411   3.256   4.540  11.778 -0.0543  0.0959 -0.4684
 1650SOL    HW116412   3.214   4.455  11.794  1.2701 -0.0126  2.4529
 1650SOL    HW216413   3.301   4.521  11.696 -0.5947  1.3066 -1.0452
 1651SOL     OW16414   4.693   3.681   6.679 -0.1826  0.1730  0.2549
 1651SOL    HW116415   4.616   3.733   6.702 -2.6290 -3.0070 -0.9121
 1651SOL    HW216416   4.709   3.635   6.761 -0.2803  0.3112  0.3527
 1652SOL     OW16417   3.218   2.015   9.052  0.1457  0.3727  0.6777
 1652SOL    HW116418   3.169   2.085   9.009 -1.6268 -1.6238 -0.5956
 1652SOL    HW216419   3.161   1.972   9.116 -1.0007  0.6721 -0.1241
 1653SOL     OW16420   0.352   0.566   1.488 -0.1392 -0.8110 -0.0099
 1653SOL    HW116421   0.310   0.548   1.404  0.7449  5.7398 -1.7893
 1653SOL    HW216422   0.436   0.524   1.471  0.9793  0.9001  1.3022
 1654SOL     OW16423   0.758   3.354  13.322  0.2332 -0.3886  0.3755
 1654SOL    HW116424   0.682   3.305  13.352  0.7048 -2.3088 -1.4925
 1654SOL    HW216425   0.801   3.355  13.407  0.3171  0.7354  0.3236
 1655SOL     OW16426   3.474   3.292   2.399  0.2255  0.1818 -0.3897
 1655SOL    HW116427   3.498   3.228   2.333 -0.9085  0.3836 -0.9810
 1655SOL    HW216428   3.462   3.239   2.478  1.4581 -0.2629 -0.4896
 1656SOL     OW16429   1.393   2.680   0.233  0.2252  0.1635 -0.0231
 1656SOL    HW116430   1.477   2.670   0.278 -1.0465  1.6569  2.7347
 1656SOL    HW216431   1.339   2.605   0.260 -2.1956  1.4920 -1.1548
 1657SOL     OW16432   3.122   2.180   1.096  0.0787 -0.5050 -0.1191
 1657SOL    HW116433   3.033   2.204   1.069 -0.2151  0.4443  1.7408
 1657SOL    HW216434   3.122   2.184   1.191  0.0338 -2.1922 -0.0578
 1658SOL     OW16435   2.955   0.550   2.470  0.2149 -0.8254 -0.4352
 1658SOL    HW116436   2.996   0.621   2.421 -0.9920 -0.8831 -1.5292
 1658SOL    HW216437   3.014   0.533   2.543 -0.9290 -0.8601  0.4847
 1659SOL     OW16438   0.440   1.498   0.310  0.2088 -0.1718 -0.4340
 1659SOL    HW116439   0.501   1.438   0.267 -0.9226 -0.6072 -1.4277
 1659SOL    HW216440   0.354   1.465   0.283  0.1854  1.0038 -1.7932
 1660SOL     OW16441   4.232   1.478  12.869 -0.0193  0.0680 -0.4569
 1660SOL    HW116442   4.172   1.551  12.849  1.7831  1.9146  0.8975
 1660SOL    HW216443   4.252   1.446  12.781 -0.9506 -0.1331 -0.5919
 1661SOL     OW16444   3.437   2.651   5.443  0.1387  0.2465  0.4396
 1661SOL    HW116445   3.513   2.664   5.500 -1.1504  0.2056  2.1630
 1661SOL    HW216446   3.483   2.657   5.359  1.3000  1.0754  1.1422
 1662SOL     OW16447   3.994   3.801   8.658 -0.4208  0.2082  0.2736
 1662SOL    HW116448   3.964   3.878   8.706 -0.5090 -0.3226  1.0727
 1662SOL    HW216449   4.005   3.738   8.729 -0.7432  0.2870  0.3919
 1663SOL     OW16450   3.935   0.498  10.632  0.3329  0.3596  0.1005
 1663SOL    HW116451   3.960   0.517  10.542 -0.1548 -2.7128 -0.6539
 1663SOL    HW216452   3.846   0.470  10.614 -0.1736  1.4602  0.8939
 1664SOL     OW16453   4.391   2.575   9.684  0.2383  0.1341 -0.3218
 1664SOL    HW116454   4.429   2.488   9.695 -2.7919 -0.9039  1.6491
 1664SOL    HW216455   4.301   2.555   9.708  0.3806  0.4362  0.4772
 1665SOL     OW16456   1.718   2.224  13.066 -0.8427  0.2386 -0.1493
 1665SOL    HW116457   1.700   2.280  13.141  0.2821  0.0691  0.2402
 1665SOL    HW216458   1.787   2.269  13.018 -0.6313 -0.0699 -0.1360
 1666SOL     OW16459   4.579   0.880   4.473 -0.0261  0.2905  0.1654
 1666SOL    HW116460   4.529   0.838   4.403 -1.0869  0.3177  0.9083
 1666SOL    HW216461   4.617   0.798   4.504 -0.6900  0.5482  1.6355
 1667SOL     OW16462   0.701   2.093   9.038 -0.2679  0.1680  0.2929
 1667SOL    HW116463   0.722   2.078   9.130  0.6394 -1.2800 -0.1363
 1667SOL    HW216464   0.623   2.040   9.022 -1.8297  2.1846  1.2594
 1668SOL     OW16465   4.257   3.081   8.347  0.2274  0.3872 -0.3183
 1668SOL    HW116466   4.295   3.051   8.430 -0.1591 -0.3033 -0.3943
 1668SOL    HW216467   4.167   3.053   8.365  0.5813 -1.1441 -0.9162
 1669SOL     OW16468   1.977   4.065  11.179 -0.8216  0.2387 -0.1150
 1669SOL    HW116469   1.968   4.142  11.236 -2.1826  1.0796 -1.4802
 1669SOL    HW216470   2.066   4.080  11.147 -0.5891 -0.5121  0.1984
 1670SOL     OW16471   2.789   0.944   3.607  0.0429  0.5757  0.2869
 1670SOL    HW116472   2.790   0.920   3.515  0.7953 -3.3190  1.3392
 1670SOL    HW216473   2.702   0.922   3.640  0.5197  1.0233  1.8258
 1671SOL     OW16474   0.584   1.143  17.522  0.5012  0.4019  0.1128
 1671SOL    HW116475   0.579   1.238  17.517 -2.8373  0.1783 -0.5070
 1671SOL    HW216476   0.534   1.096  17.456 -0.5865  2.0031 -0.1963
 1672SOL     OW16477   4.121   4.306   8.401  0.4779  0.8243 -0.3370
 1672SOL    HW116478   4.056   4.357   8.353 -0.0673  0.5380  0.0921
 1672SOL    HW216479   4.072   4.280   8.479  1.0127  2.5984  0.6016
 1673SOL     OW16480   4.699   1.117  10.884 -0.2809  0.0833 -0.7255
 1673SOL    HW116481   4.695   1.092  10.792 -1.1166 -0.7250 -0.4742
 1673SOL    HW216482   4.609   1.093  10.906  0.3024  1.4147  3.1044
 1674SOL     OW16483   4.042   1.094  13.200  0.2939  0.1897 -0.4375
 1674SOL    HW116484   4.012   1.109  13.290 -0.2906 -2.6706 -0.1452
 1674SOL    HW216485   4.056   1.181  13.162  2.6190  0.1490  0.3279
 1675SOL     OW16486   3.432   2.472   4.777 -0.2811 -0.3193  0.0615
 1675SOL    HW116487   3.483   2.393   4.760  0.2018  0.2556 -1.1612
 1675SOL    HW216488   3.498   2.541   4.776  1.9568 -2.4434  1.0576
 1676SOL     OW16489   4.615   4.700   3.744 -0.0665 -0.1079 -0.7404
 1676SOL    HW116490   4.592   4.652   3.823  0.4654 -0.0406 -0.5421
 1676SOL    HW216491   4.541   0.037   3.740  0.2507  0.4533  1.8622
 1677SOL     OW16492   2.075   2.719   0.873 -0.1834 -0.2872 -0.6322
 1677SOL    HW116493   2.149   2.763   0.831 -1.6310  1.0298 -1.8148
 1677SOL    HW216494   2.010   2.717   0.804  0.4452 -0.8018 -1.2054
 1678SOL     OW16495   1.803   3.165  15.137 -0.1038 -0.0178  0.1149
 1678SOL    HW116496   1.875   3.107  15.117  1.1533  0.6601  2.7112
 1678SOL    HW216497   1.836   3.219  15.209 -0.9108 -0.1512  0.5823
 1679SOL     OW16498   1.996   1.864   6.077  0.0099 -0.4917  0.0095
 1679SOL    HW116499   2.074   1.898   6.034 -0.6466  1.7701  0.6323
 1679SOL    HW216500   2.010   1.769   6.071  2.0912 -0.1305 -1.0375
 1680SOL     OW16501   2.601   2.021   8.997 -0.2488 -0.3040  0.3791
 1680SOL    HW116502   2.560   1.976   8.923  2.0294 -1.0345 -0.4399
 1680SOL    HW216503   2.641   1.944   9.038 -1.6401 -0.8129  0.7871
 1681SOL     OW16504   3.571   3.539  14.887 -0.0268  0.3470  0.3726
 1681SOL    HW116505   3.597   3.518  14.977 -1.0813 -1.4703  0.2505
 1681SOL    HW216506   3.574   3.448  14.857 -0.0325  0.0862  1.1638
 1682SOL     OW16507   2.799   0.558   5.598 -0.0590  0.3843 -0.1204
 1682SOL    HW116508   2.753   0.606   5.667  1.0433  1.5325 -0.1726
 1682SOL    HW216509   2.791   0.468   5.629  1.2404  0.6467  0.9607
 1683SOL     OW16510   2.688   3.339   3.152 -0.0395  0.0192  0.3276
 1683SOL    HW116511   2.703   3.307   3.063 -1.7208 -0.5067  0.2374
 1683SOL    HW216512   2.635   3.414   3.124  1.1294  1.0403  0.8723
 1684SOL     OW16513   2.052   1.745   5.794  0.4040 -0.5405 -0.2649
 1684SOL    HW116514   2.069   1.821   5.739  0.6100 -0.4380 -0.0620
 1684SOL    HW216515   2.100   1.770   5.874 -0.6884 -1.3577  0.6351
 1685SOL     OW16516   1.174   2.354   8.228  0.6492 -0.1919  0.4047
 1685SOL    HW116517   1.139   2.408   8.298 -0.2613  1.7767 -1.5856
 1685SOL    HW216518   1.226   2.419   8.181  0.5154 -0.4083 -0.0483
 1686SOL     OW16519   3.869   0.320  10.924  0.6485  0.2060  0.4124
 1686SOL    HW116520   3.846   0.400  10.972 -0.1879 -0.0052  0.3709
 1686SOL    HW216521   3.821   0.255  10.974  1.6732 -0.2106  0.8496
 1687SOL     OW16522   2.251   3.341   8.126  0.0292  0.0162  0.0158
 1687SOL    HW116523   2.186   3.348   8.196 -0.8663  2.1609 -1.0633
 1687SOL    HW216524   2.310   3.277   8.167 -0.3320 -0.2880  0.0679
 1688SOL     OW16525   0.099   3.052  15.271 -0.0997  0.2177  0.0642
 1688SOL    HW116526   0.160   3.059  15.198  1.4939  0.3000  1.4088
 1688SOL    HW216527   0.079   2.959  15.266 -2.4508  0.8199 -1.5994
 1689SOL     OW16528   0.689   0.766   7.015 -0.7823 -0.1659 -0.1045
 1689SOL    HW116529   0.668   0.784   7.107 -1.9424 -1.5482 -0.0913
 1689SOL    HW216530   0.670   0.852   6.978 -2.5379  0.8453  3.1355
 1690SOL     OW16531   4.662   3.880  12.913  0.6865  0.0751 -0.4232
 1690SOL    HW116532   4.618   3.800  12.943 -0.1826  0.7155 -0.0236
 1690SOL    HW216533   4.606   3.951  12.942 -0.7274 -0.5650 -1.5767
 1691SOL     OW16534   3.048   1.755   6.857  0.0997  0.0956  0.8363
 1691SOL    HW116535   2.980   1.773   6.922 -0.6146  0.8372 -0.1191
 1691SOL    HW216536   3.062   1.660   6.861 -2.5013 -0.2687  1.3210
 1692SOL     OW16537   2.567   2.795  10.718  0.1884  0.2086 -0.0877
 1692SOL    HW116538   2.605   2.723  10.767 -0.0669  0.2094  0.1138
 1692SOL    HW216539   2.499   2.748  10.670  1.2340 -0.6501 -0.7077
 1693SOL     OW16540   3.794   2.628   9.933 -0.0639  0.0721 -0.7313
 1693SOL    HW116541   3.861   2.618  10.000 -2.3899 -1.9543  1.2739
 1693SOL    HW216542   3.829   2.554   9.883 -0.3992  0.1225 -1.0441
 1694SOL     OW16543   0.868   3.270   6.590 -0.1800 -0.0700  0.1980
 1694SOL    HW116544   0.955   3.231   6.578 -0.1879 -0.0207 -0.0120
 1694SOL    HW216545   0.869   3.310   6.503 -0.6426  0.1572  0.2968
 1695SOL     OW16546   3.446   3.165  13.053  0.1835 -0.1122 -0.3682
 1695SOL    HW116547   3.416   3.124  13.134 -0.6967  0.1030 -0.5802
 1695SOL    HW216548   3.388   3.240  13.040  0.3615  0.1329  0.2427
 1696SOL     OW16549   3.556   1.261   8.933  0.2445 -0.2718 -0.3595
 1696SOL    HW116550   3.493   1.315   8.885 -0.1203  0.3566  0.8069
 1696SOL    HW216551   3.554   1.317   9.010  1.0965 -3.4452  1.9675
 1697SOL     OW16552   0.232   0.115  10.234 -0.3164  0.6936 -0.3259
 1697SOL    HW116553   0.215   0.119  10.140  0.6468  0.1649 -0.5145
 1697SOL    HW216554   0.148   0.153  10.260 -0.7931  0.2159 -1.1546
 1698SOL     OW16555   0.375   3.052   5.617 -0.6995 -0.1697  0.6662
 1698SOL    HW116556   0.435   2.979   5.602 -0.9078 -0.0977 -0.5129
 1698SOL    HW216557   0.357   3.060   5.711 -0.6984  0.4024  0.6202
 1699SOL     OW16558   0.317   2.293   6.370 -0.0608 -0.9121 -0.1673
 1699SOL    HW116559   0.266   2.287   6.290 -0.6734  1.0420  0.0732
 1699SOL    HW216560   0.373   2.217   6.361  0.3689 -0.3503 -2.1120
 1700SOL     OW16561   3.727   3.901   8.952 -0.2277  0.0198  0.3258
 1700SOL    HW116562   3.700   3.834   8.890 -0.1941  2.3448 -2.2187
 1700SOL    HW216563   3.753   3.845   9.025  0.2102 -1.3515 -0.8715
 1701SOL     OW16564   2.404   3.429   9.940  0.3206  0.1123 -0.2622
 1701SOL    HW116565   2.338   3.491   9.972  0.3995  0.0416  0.0355
 1701SOL    HW216566   2.433   3.485   9.867  0.3203 -4.0472 -3.4272
 1702SOL     OW16567   1.303   4.015   3.329 -0.0351  0.1283  0.4451
 1702SOL    HW116568   1.311   4.101   3.288 -1.4100  0.9827  1.9881
 1702SOL    HW216569   1.327   3.960   3.254  0.1612  1.5776 -0.5641
 1703SOL     OW16570   1.495   2.584   7.415 -0.0809 -0.2281  0.0880
 1703SOL    HW116571   1.475   2.617   7.328  0.9219 -2.5109 -1.0025
 1703SOL    HW216572   1.583   2.621   7.427 -0.1680 -0.3222  1.0443
 1704SOL     OW16573   4.007   3.190  15.356  0.4317 -1.1242  0.2262
 1704SOL    HW116574   4.093   3.196  15.315  0.5053 -0.3437  0.4986
 1704SOL    HW216575   4.020   3.175  15.450 -0.4512  0.9275  0.6843
 1705SOL     OW16576   2.822   2.700  13.046  0.2435 -0.8349  0.2568
 1705SOL    HW116577   2.840   2.615  13.005  1.4342 -1.0995  1.3280
 1705SOL    HW216578   2.848   2.761  12.977 -2.0468 -0.6305 -0.4119
 1706SOL     OW16579   0.318   2.027   2.038 -0.1662  0.4245 -0.8132
 1706SOL    HW116580   0.365   1.944   2.041 -1.9591 -0.6313 -1.5145
 1706SOL    HW216581   0.295   2.051   2.128 -0.9558 -0.8800 -0.6728
 1707SOL     OW16582   4.130   4.266  11.850  0.4775 -0.3339 -0.0708
 1707SOL    HW116583   4.096   4.237  11.935 -0.0468  1.3068  0.2649
 1707SOL    HW216584   4.208   4.317  11.867  1.5109 -1.4869 -1.3928
 1708SOL     OW16585   3.882   3.590   6.184  0.3453 -0.2505  0.2069
 1708SOL    HW116586   3.957   3.643   6.155 -0.8880  0.9125 -0.8483
 1708SOL    HW216587   3.933   3.524   6.232  0.5082  0.0678  0.4740
 1709SOL     OW16588   0.336   1.329  12.490  0.0307 -0.5731  0.0743
 1709SOL    HW116589   0.426   1.327  12.520  0.7672 -0.9128 -2.1194
 1709SOL    HW216590   0.293   1.260  12.540 -0.4800  0.1309  0.6083
 1710SOL     OW16591   2.057   3.033   3.357  0.4329 -0.2887  0.2682
 1710SOL    HW116592   2.015   2.963   3.306 -1.7028  1.5144 -0.4422
 1710SOL    HW216593   2.021   3.106   3.307 -1.6072 -1.8071 -0.4948
 1711SOL     OW16594   3.496   4.336  13.753  0.4467 -0.0705 -0.0115
 1711SOL    HW116595   3.531   4.422  13.731  0.4574  0.3971  1.7942
 1711SOL    HW216596   3.473   4.299  13.668 -0.7912  0.6502  0.0074
 1712SOL     OW16597   3.881   1.374   1.586 -0.2195 -0.2636 -0.1363
 1712SOL    HW116598   3.973   1.389   1.608 -0.2571  1.3183 -1.0270
 1712SOL    HW216599   3.832   1.406   1.662 -1.5003  1.0069 -1.4973
 1713SOL     OW16600   3.420   2.340   3.839 -0.5448  0.5431 -0.3295
 1713SOL    HW116601   3.496   2.282   3.840 -0.7727  0.2363 -0.5857
 1713SOL    HW216602   3.445   2.398   3.767  0.9266  0.6419  0.2662
 1714SOL     OW16603   1.726   0.256  15.908 -0.5652 -0.4891 -0.3630
 1714SOL    HW116604   1.817   0.226  15.901 -0.2062  0.5113  0.1119
 1714SOL    HW216605   1.709   0.221  15.996 -0.5030  1.0007  0.2296
 1715SOL     OW16606   3.062   0.001  11.854  0.1893  0.1318  0.2887
 1715SOL    HW116607   3.129   4.671  11.813  0.8826 -0.7318  2.5450
 1715SOL    HW216608   3.025   0.055  11.784  2.4261 -0.3477 -1.2611
 1716SOL     OW16609   4.184   0.868  14.279  0.3193  0.1340 -0.3553
 1716SOL    HW116610   4.202   0.827  14.363 -1.9361  1.4733  0.7727
 1716SOL    HW216611   4.109   0.813  14.254 -0.5241  1.1722 -0.1222
 1717SOL     OW16612   4.254   3.000  10.087  0.0215  0.0680  0.6007
 1717SOL    HW116613   4.191   3.048  10.033  1.8696  0.6291 -1.0318
 1717SOL    HW216614   4.203   2.964  10.160 -0.5863  1.0105  0.6325
 1718SOL     OW16615   4.094   2.716   3.011 -0.4962  0.7384  0.2305
 1718SOL    HW116616   4.088   2.782   2.942 -1.4190 -0.2357 -0.6210
 1718SOL    HW216617   4.012   2.725   3.060  0.2100  0.5267  1.4497
 1719SOL     OW16618   2.346   2.160   6.778  0.5789  0.1632  0.1947
 1719SOL    HW116619   2.355   2.130   6.869  0.5887 -0.1526  0.0881
 1719SOL    HW216620   2.261   2.203   6.769 -0.0341 -1.1571 -0.3549
 1720SOL     OW16621   1.540   3.583   4.083 -0.1943  0.0457  0.1158
 1720SOL    HW116622   1.607   3.578   4.015  0.1407  0.1483  0.4350
 1720SOL    HW216623   1.470   3.619   4.029 -1.2554 -3.9523 -1.1820
 1721SOL     OW16624   2.594   0.386  13.720 -0.3796 -0.2159 -0.3373
 1721SOL    HW116625   2.520   0.350  13.768 -1.1152  0.5060 -0.9185
 1721SOL    HW216626   2.548   0.413  13.640 -0.7942 -0.1767 -0.0871
 1722SOL     OW16627   3.621   2.674  16.503  0.0799 -0.3686  0.2228
 1722SOL    HW116628   3.573   2.747  16.541  0.4461  0.0749 -0.1682
 1722SOL    HW216629   3.646   2.629  16.583  1.7392  1.0213  0.4697
 1723SOL     OW16630   4.076   3.867   1.131 -0.1085 -0.3466 -0.2316
 1723SOL    HW116631   4.001   3.831   1.178 -1.6448  0.9688 -1.6769
 1723SOL    HW216632   4.093   3.800   1.065 -1.6117 -2.5422  1.6496
 1724SOL     OW16633   1.939   4.319   8.393  0.0492 -0.7644  0.0868
 1724SOL    HW116634   2.033   4.316   8.375  0.0647  1.8163 -0.3185
 1724SOL    HW216635   1.943   4.342   8.486  0.3838 -2.4947  0.5091
 1725SOL     OW16636   4.410   1.553   0.240  0.3181 -0.4807 -0.0343
 1725SOL    HW116637   4.500   1.571   0.212 -0.8903  0.7842 -3.0543
 1725SOL    HW216638   4.359   1.570   0.161 -0.4228 -0.4285  0.4573
 1726SOL     OW16639   1.301   2.094   4.145 -0.3508 -0.5104 -0.4548
 1726SOL    HW116640   1.388   2.055   4.155 -0.3516 -0.3172  0.2962
 1726SOL    HW216641   1.303   2.155   4.219  0.2757 -1.1881  0.0849
 1727SOL     OW16642   4.691   0.025  15.786  0.8431 -0.3333 -0.0240
 1727SOL    HW116643   4.618   0.082  15.762  0.2349 -0.6848  1.0097
 1727SOL    HW216644   0.032   0.040  15.717  1.2650  0.0249  0.4490
 1728SOL     OW16645   2.937   1.256   4.864  0.0554  0.1516 -0.1620
 1728SOL    HW116646   2.975   1.226   4.947  0.9582  1.6710 -0.0269
 1728SOL    HW216647   2.856   1.207   4.869  0.4347 -0.5464 -0.9700
 1729SOL     OW16648   4.371   3.642  15.632  0.5855 -0.0781  0.0650
 1729SOL    HW116649   4.356   3.664  15.540  0.9002 -1.0125 -0.2088
 1729SOL    HW216650   4.457   3.680  15.652  0.8384 -0.9482  0.6363
 1730SOL     OW16651   0.835   2.408   8.951  0.3315  0.2646  0.1290
 1730SOL    HW116652   0.741   2.425   8.953  0.0127 -1.2708 -1.5152
 1730SOL    HW216653   0.878   2.492   8.969  0.1015 -0.0134  2.0587
 1731SOL     OW16654   0.812   1.715   0.599  0.2413  0.3717 -0.3954
 1731SOL    HW116655   0.761   1.793   0.623  0.7498  0.9578 -1.2385
 1731SOL    HW216656   0.867   1.755   0.532 -1.8997  1.0788 -1.7235
 1732SOL     OW16657   1.583   3.161   1.708  0.0261  0.1317 -0.2170
 1732SOL    HW116658   1.544   3.241   1.744  1.8968  0.5540  0.9016
 1732SOL    HW216659   1.540   3.177   1.624  2.5709  1.8607 -1.1957
 1733SOL     OW16660   2.559   1.120   3.013  0.1011  0.2465  0.4680
 1733SOL    HW116661   2.531   1.205   2.978  0.3173  0.3979  0.6640
 1733SOL    HW216662   2.651   1.108   2.992 -0.0051 -0.9050  0.6467
 1734SOL     OW16663   4.281   1.190   7.238  0.2137 -0.1354 -0.3331
 1734SOL    HW116664   4.358   1.214   7.290 -0.0114 -0.4330  0.1368
 1734SOL    HW216665   4.286   1.257   7.169  1.9810 -0.2971 -0.3786
 1735SOL     OW16666   3.164   4.113   4.946 -0.1855 -0.2307 -0.3859
 1735SOL    HW116667   3.128   4.026   4.927 -1.2385 -0.0602  0.8285
 1735SOL    HW216668   3.255   4.094   4.924  0.1941  0.4407  0.6182
 1736SOL     OW16669   4.135   0.402   3.648 -0.2250 -0.2489  0.2653
 1736SOL    HW116670   4.138   0.376   3.740  1.3561  1.2967  0.6712
 1736SOL    HW216671   4.042   0.384   3.642 -0.6337  2.4216 -1.9072
 1737SOL     OW16672   2.100   2.793  15.971 -0.3571  0.4546 -0.3767
 1737SOL    HW116673   2.012   2.811  15.938 -1.9132 -1.4963  2.7506
 1737SOL    HW216674   2.115   2.874  16.021 -0.3333  0.0547  0.2606
 1738SOL     OW16675   0.207   3.319  12.258  0.2440  0.0110  0.2066
 1738SOL    HW116676   0.292   3.277  12.245 -0.3496 -0.9545 -0.5616
 1738SOL    HW216677   0.200   3.369  12.177  0.1315 -0.7623 -0.2646
 1739SOL     OW16678   2.761   1.933   3.026 -0.1561  0.1546  0.1227
 1739SOL    HW116679   2.735   1.843   3.003 -0.4004  0.5760 -1.2785
 1739SOL    HW216680   2.697   1.975   2.968 -1.8604 -2.2568  0.2487
 1740SOL     OW16681   4.455   0.404  12.545 -0.3440  0.5359  0.1437
 1740SOL    HW116682   4.450   0.494  12.512 -2.0595  1.0665  1.8769
 1740SOL    HW216683   4.492   0.363  12.467 -1.3062 -0.6591  0.3229
 1741SOL     OW16684   2.561   2.835   5.819 -0.6427 -0.1475  0.0295
 1741SOL    HW116685   2.647   2.867   5.791 -1.7993  1.9017 -1.1574
 1741SOL    HW216686   2.519   2.785   5.750 -2.4140  2.2766 -0.6562
 1742SOL     OW16687   2.694   1.105   5.644  0.7314 -0.1536  0.5325
 1742SOL    HW116688   2.731   1.038   5.587 -0.5975 -0.4740  0.0438
 1742SOL    HW216689   2.769   1.120   5.701  1.7992 -1.4981 -0.5060
 1743SOL     OW16690   1.096   0.001   8.498 -0.1530 -0.0524 -0.4141
 1743SOL    HW116691   1.178   4.677   8.499  0.2797  0.7189  0.6648
 1743SOL    HW216692   1.036   4.679   8.438  0.7804  1.5986 -2.5714
 1744SOL     OW16693   4.115   0.889   3.967 -0.2064  0.1061  0.0867
 1744SOL    HW116694   4.069   0.911   3.886 -0.0818 -0.7512 -0.2137
 1744SOL    HW216695   4.039   0.898   4.023  1.6769  1.5999  2.4138
 1745SOL     OW16696   4.123   2.037   6.971  0.1566 -0.3430 -0.3978
 1745SOL    HW116697   4.218   2.027   6.962  0.2507 -0.9104  1.3309
 1745SOL    HW216698   4.104   1.972   7.039  3.2115  1.2770  1.9964
 1746SOL     OW16699   3.108   2.944  12.418  0.0269  0.1011 -0.0073
 1746SOL    HW116700   3.185   2.899  12.383 -0.8032 -1.5935  0.3365
 1746SOL    HW216701   3.132   3.033  12.392 -1.5413  1.1830  2.2051
 1747SOL     OW16702   2.939   3.448  11.512  0.4374 -0.0188  0.2668
 1747SOL    HW116703   2.894   3.450  11.596  0.1222 -1.0391  0.1177
 1747SOL    HW216704   2.949   3.540  11.485  1.3764 -0.1958  0.0296
 1748SOL     OW16705   3.496   4.071   3.755 -0.0340 -0.2803 -0.1915
 1748SOL    HW116706   3.580   4.037   3.786 -0.5456 -0.3668  1.1191
 1748SOL    HW216707   3.432   4.053   3.824  1.5723 -0.1545  1.3517
 1749SOL     OW16708   3.682   2.637   3.458  0.3038  0.6422 -0.3840
 1749SOL    HW116709   3.684   2.661   3.550 -0.5086  0.4669 -0.3276
 1749SOL    HW216710   3.710   2.718   3.416  0.4918  0.4147 -0.7050
 1750SOL     OW16711   1.158   4.289   2.451  0.3947  0.6331  0.3882
 1750SOL    HW116712   1.217   4.307   2.525  0.9889  2.9656 -0.6642
 1750SOL    HW216713   1.155   4.194   2.456 -0.9427  0.7581  2.0843
 1751SOL     OW16714   2.944   2.220   0.512  0.1997  0.4227  0.6954
 1751SOL    HW116715   2.965   2.232   0.605  0.3311  2.7322  0.3684
 1751SOL    HW216716   2.848   2.216   0.515  0.2077 -0.4169 -0.3005
 1752SOL     OW16717   0.945   2.044   9.821  0.7277 -0.4475  0.0489
 1752SOL    HW116718   1.033   2.073   9.797 -0.0740  2.0236  0.1117
 1752SOL    HW216719   0.900   2.124   9.794  1.3495 -0.6763 -1.6278
 1753SOL     OW16720   3.440   3.475  11.398 -0.4277  0.3788 -0.1329
 1753SOL    HW116721   3.444   3.492  11.303  2.8858  1.4290  0.1976
 1753SOL    HW216722   3.351   3.439  11.395 -0.0915 -0.4851  0.3382
 1754SOL     OW16723   0.063   4.049   8.294  0.2147  0.1286 -0.0477
 1754SOL    HW116724   0.012   4.079   8.369 -2.2218  0.4363 -1.8063
 1754SOL    HW216725   0.003   4.072   8.223 -0.2709  1.0921  0.6891
 1755SOL     OW16726   1.807   0.248   5.679 -0.1914  0.2372  0.1858
 1755SOL    HW116727   1.734   0.310   5.670 -0.2859  0.1057  0.0421
 1755SOL    HW216728   1.765   0.166   5.652  1.8048 -1.1917  1.4644
 1756SOL     OW16729   4.671   0.624   4.626  0.2820 -0.2850  0.1166
 1756SOL    HW116730   4.607   0.569   4.672  0.4399  0.2087  0.9268
 1756SOL    HW216731   0.033   0.608   4.666 -1.0234 -2.0076  2.2535
 1757SOL     OW16732   3.167   1.167   3.210 -0.1339  0.2345  0.5978
 1757SOL    HW116733   3.240   1.167   3.148 -0.8467 -1.5573 -0.2190
 1757SOL    HW216734   3.155   1.072   3.214  0.8387 -0.0051 -1.6797
 1758SOL     OW16735   1.724   4.603  16.094 -0.1929 -0.3744 -0.3187
 1758SOL    HW116736   1.730   4.580  16.001 -0.0958 -0.3389 -0.3206
 1758SOL    HW216737   1.680   4.688  16.090  1.8579  0.8158  2.5456
 1759SOL     OW16738   1.831   0.623   2.391 -0.0367  0.3697  0.4559
 1759SOL    HW116739   1.789   0.709   2.393  0.2184  0.4972  0.1604
 1759SOL    HW216740   1.879   0.619   2.474  0.9326 -0.3178 -0.1358
 1760SOL     OW16741   0.130   1.249   3.147 -0.0466 -0.4037  0.4405
 1760SOL    HW116742   0.097   1.293   3.069  0.6894  0.2627  0.5000
 1760SOL    HW216743   0.223   1.253   3.125 -0.0968 -3.0522 -0.1934
 1761SOL     OW16744   2.745   2.255   2.932  0.6585  0.1800 -0.4892
 1761SOL    HW116745   2.832   2.225   2.959  0.2445 -0.1896  0.4424
 1761SOL    HW216746   2.687   2.180   2.920  0.3295  0.5035 -0.8971
 1762SOL     OW16747   4.248   0.661   4.560  0.1741 -0.2840 -0.2949
 1762SOL    HW116748   4.262   0.704   4.645 -0.5770 -0.1317 -0.2485
 1762SOL    HW216749   4.153   0.654   4.554  0.1275 -0.6193  0.7928
 1763SOL     OW16750   1.571   1.344   8.607 -0.0386  0.8670  0.2385
 1763SOL    HW116751   1.538   1.356   8.518  0.5236  2.4224  0.2407
 1763SOL    HW216752   1.634   1.272   8.601 -2.5627 -1.3043  0.0221
 1764SOL     OW16753   2.030   1.593  15.857  0.1687  0.4965 -0.3456
 1764SOL    HW116754   1.974   1.542  15.798  0.2322  1.3226 -1.1172
 1764SOL    HW216755   2.106   1.610  15.802 -0.5608  4.0105 -0.2223
 1765SOL     OW16756   2.160   3.588   7.261 -0.3738  0.6754  0.0897
 1765SOL    HW116757   2.091   3.539   7.217 -0.2460  1.3777 -0.8679
 1765SOL    HW216758   2.169   3.662   7.201 -0.5741  0.5959 -0.0382
 1766SOL     OW16759   2.893   4.193   4.557 -0.4246  1.0081  0.3473
 1766SOL    HW116760   2.902   4.098   4.548 -2.5044  0.8088  0.5380
 1766SOL    HW216761   2.961   4.220   4.619  1.2787  1.0433 -1.5301
 1767SOL     OW16762   4.092   3.046   0.687 -0.1287  0.0360 -0.1789
 1767SOL    HW116763   4.055   3.008   0.608 -0.2002  0.5640 -0.3930
 1767SOL    HW216764   4.064   3.137   0.681 -2.3468 -0.7185 -1.2917
 1768SOL     OW16765   2.130   2.622   6.614  0.1820  0.5272  0.4839
 1768SOL    HW116766   2.065   2.622   6.684  1.2615  0.2477  1.5007
 1768SOL    HW216767   2.068   2.618   6.542  1.5054 -0.1576 -0.6158
 1769SOL     OW16768   3.249   1.914   8.217  0.7328  0.3441  0.0519
 1769SOL    HW116769   3.205   1.995   8.192 -0.1627 -0.4884 -1.0320
 1769SOL    HW216770   3.191   1.849   8.177 -0.6183  2.9012 -2.1233
 1770SOL     OW16771   1.029   2.968   7.143  0.2386  0.4102  0.1372
 1770SOL    HW116772   0.936   2.945   7.143 -0.0495  1.5881 -0.2453
 1770SOL    HW216773   1.080   2.892   7.170 -1.6025 -0.7877  0.2519
 1771SOL     OW16774   4.361   4.108  12.547  0.9746 -0.3763  0.4861
 1771SOL    HW116775   4.380   4.174  12.480 -1.0402  1.3184  1.5689
 1771SOL    HW216776   4.266   4.113  12.559  1.1587  1.6105  1.0853
 1772SOL     OW16777   2.390   3.340   7.615  0.7771 -0.3078 -0.0209
 1772SOL    HW116778   2.295   3.342   7.597  0.7186 -1.1453  0.1992
 1772SOL    HW216779   2.414   3.416   7.562  0.7675  0.2475  0.7808
 1773SOL     OW16780   3.035   3.519   8.401  0.2306 -0.0328 -0.1519
 1773SOL    HW116781   3.071   3.607   8.416  0.8940 -0.0687 -1.5766
 1773SOL    HW216782   3.013   3.516   8.308  0.4594 -0.4455 -0.1906
 1774SOL     OW16783   0.510   3.892   1.519 -0.0781  0.1485 -0.1310
 1774SOL    HW116784   0.433   3.897   1.576  0.6743  2.4898  0.6579
 1774SOL    HW216785   0.463   3.893   1.436 -0.5288 -0.3997  0.1164
 1775SOL     OW16786   3.744   2.062   6.980 -0.4148 -0.5809  0.1862
 1775SOL    HW116787   3.807   1.993   7.002  0.5476  0.7489  1.5575
 1775SOL    HW216788   3.739   2.106   7.065 -0.1299  2.1007 -1.1966
 1776SOL     OW16789   1.692   2.052   7.111  0.3934 -0.0600 -0.3586
 1776SOL    HW116790   1.691   2.134   7.061 -1.4502 -0.7233 -1.4317
 1776SOL    HW216791   1.646   2.076   7.191  3.1752  2.1286  0.5655
 1777SOL     OW16792   0.304   2.981  16.874 -0.3961 -0.1702 -0.3302
 1777SOL    HW116793   0.396   2.976  16.898 -0.3033 -0.5595 -0.7899
 1777SOL    HW216794   0.273   3.053  16.930  0.2133  1.0130 -1.5024
 1778SOL     OW16795   2.572   2.893   6.978  0.9337  0.0567  0.1650
 1778SOL    HW116796   2.588   2.988   6.981  1.0198 -0.0408  3.6053
 1778SOL    HW216797   2.656   2.847   6.979  1.8690  1.7557  0.0084
 1779SOL     OW16798   3.356   1.699   9.193  0.5062 -0.0239 -0.6794
 1779SOL    HW116799   3.325   1.764   9.256 -0.0022  0.7052 -1.6809
 1779SOL    HW216800   3.281   1.700   9.133  0.3749  0.5710 -0.5005
 1780SOL     OW16801   1.844   3.838   3.224 -0.1117  0.5256 -0.2475
 1780SOL    HW116802   1.936   3.853   3.203  0.4544 -3.2615 -0.4672
 1780SOL    HW216803   1.807   3.815   3.139  0.9844  0.1461 -0.6245
 1781SOL     OW16804   1.538   0.145   1.846  0.1455  1.0070 -0.1086
 1781SOL    HW116805   1.560   0.104   1.763  0.4406 -1.5210  1.1911
 1781SOL    HW216806   1.452   0.105   1.862 -1.5139  3.5188 -2.7790
 1782SOL     OW16807   2.143   3.300   5.181  0.0427 -0.4625  0.0438
 1782SOL    HW116808   2.238   3.295   5.170  0.1098 -0.0412  0.4555
 1782SOL    HW216809   2.117   3.216   5.144  0.0891 -0.4141 -0.0957
 1783SOL     OW16810   3.075   0.995   7.965 -0.2118 -0.5945  0.0907
 1783SOL    HW116811   3.033   1.053   7.901 -0.1830  0.5218  1.0810
 1783SOL    HW216812   3.150   1.045   7.998  0.1880 -0.5778 -0.8416
 1784SOL     OW16813   3.577   4.190  15.406  0.4502 -0.1205  0.2640
 1784SOL    HW116814   3.585   4.231  15.492 -1.5102 -0.6818  0.6992
 1784SOL    HW216815   3.613   4.255  15.346  1.0866 -2.6472 -2.0794
 1785SOL     OW16816   0.046   1.249   3.931  0.1903 -0.0775  0.2588
 1785SOL    HW116817   0.075   1.218   4.017  0.6914  0.9619  0.4728
 1785SOL    HW216818   0.036   1.162   3.893 -2.0858 -0.6173  2.0647
 1786SOL     OW16819   3.039   1.091   7.270 -0.0656  0.4245  0.0686
 1786SOL    HW116820   2.978   1.044   7.214 -0.9514  1.3004  0.3049
 1786SOL    HW216821   3.119   1.071   7.221  0.0522 -0.3408  0.5647
 1787SOL     OW16822   4.021   2.611   5.312 -0.0957  0.6184  0.4221
 1787SOL    HW116823   4.054   2.600   5.223 -0.7093 -3.7154  0.7064
 1787SOL    HW216824   4.096   2.593   5.369 -1.4443 -1.4109  1.5724
 1788SOL     OW16825   3.720   1.481   6.183 -0.0225  0.3688  0.0349
 1788SOL    HW116826   3.794   1.445   6.134 -0.0355  0.7968 -0.3062
 1788SOL    HW216827   3.662   1.506   6.111 -0.5645  0.6370  0.5645
 1789SOL     OW16828   0.513   0.226   5.478 -0.2825 -0.0581 -0.3589
 1789SOL    HW116829   0.595   0.183   5.453  1.0813  0.9712  2.3865
 1789SOL    HW216830   0.452   0.182   5.419 -2.1021  1.2046  0.5714
 1790SOL     OW16831   0.226   0.369  15.569 -0.1915 -0.1646  0.2734
 1790SOL    HW116832   0.321   0.380  15.579  0.2917 -3.2199 -0.9251
 1790SOL    HW216833   0.200   0.365  15.661  1.9155  0.9415  0.9181
 1791SOL     OW16834   2.145   2.557   2.132 -0.5746  0.2293 -0.2630
 1791SOL    HW116835   2.065   2.542   2.182  0.2793 -0.0925  1.0292
 1791SOL    HW216836   2.116   2.524   2.048  0.7259 -0.1404 -0.5605
 1792SOL     OW16837   2.553   2.257   5.875 -0.8588  0.5729 -0.2129
 1792SOL    HW116838   2.582   2.198   5.806  1.1335  2.2336 -0.8107
 1792SOL    HW216839   2.607   2.224   5.946  0.1590 -0.7990 -1.6514
 1793SOL     OW16840   2.991   2.110  16.698  0.4219  0.5854  0.1007
 1793SOL    HW116841   2.918   2.059  16.733 -0.4826  1.1223 -1.0241
 1793SOL    HW216842   2.951   2.167  16.632 -0.0634  0.9226  0.6839
 1794SOL     OW16843   0.538   2.006   7.191 -0.4887  0.0557 -0.5977
 1794SOL    HW116844   0.554   2.010   7.096  3.9823  1.2928  0.2260
 1794SOL    HW216845   0.619   1.960   7.212 -1.5453 -1.5166  0.0658
 1795SOL     OW16846   0.701   2.790   2.486 -0.3300 -0.0233  0.2605
 1795SOL    HW116847   0.708   2.885   2.491  1.3315 -0.1089 -0.6997
 1795SOL    HW216848   0.605   2.788   2.488 -0.3369 -0.6782 -0.9914
 1796SOL     OW16849   2.747   4.022   1.572  0.3187  0.5023  1.0844
 1796SOL    HW116850   2.673   4.027   1.633 -1.9988 -1.3991 -1.6043
 1796SOL    HW216851   2.805   3.962   1.618 -2.1205  0.2017  3.7247
 1797SOL     OW16852   4.151   1.770  16.435 -0.4110  0.1759 -0.2273
 1797SOL    HW116853   4.174   1.834  16.502  0.7151 -2.8290  2.2516
 1797SOL    HW216854   4.098   1.824  16.377 -1.9543  1.0562  1.9875
 1798SOL     OW16855   0.916   1.494   5.535 -0.1024  0.4174 -0.3399
 1798SOL    HW116856   1.012   1.494   5.543 -0.0522  1.5788 -0.8307
 1798SOL    HW216857   0.913   1.580   5.493  2.6492  0.4553 -0.4607
 1799SOL     OW16858   2.943   3.979  13.920 -0.2508  0.0047  0.0235
 1799SOL    HW116859   2.964   4.053  13.863 -0.6680  1.1204  1.3282
 1799SOL    HW216860   2.971   3.903  13.868  5.1000  0.2091  2.5978
 1800SOL     OW16861   3.879   4.017   7.147  0.6697  0.1628 -0.2228
 1800SOL    HW116862   3.883   3.940   7.204 -0.4381  1.3959  1.5246
 1800SOL    HW216863   3.936   3.982   7.079  3.1939  0.7809  1.5918
 1801SOL     OW16864   2.244   0.648   0.566  0.2073 -0.6877 -0.3259
 1801SOL    HW116865   2.238   0.709   0.639  0.2947 -0.9801 -0.0750
 1801SOL    HW216866   2.278   0.706   0.498  1.1455  1.9002  2.3534
 1802SOL     OW16867   2.393   4.057   9.098 -0.2977  0.1033 -0.5320
 1802SOL    HW116868   2.445   3.999   9.042 -1.8548 -0.0677 -1.7821
 1802SOL    HW216869   2.308   4.039   9.058  0.3887 -1.2378 -1.3786
 1803SOL     OW16870   3.723   3.502   3.895  0.7443  0.1850  0.3156
 1803SOL    HW116871   3.714   3.498   3.800  1.5663 -1.8484  0.3127
 1803SOL    HW216872   3.647   3.458   3.933  1.0591 -0.5201  0.1317
 1804SOL     OW16873   0.076   1.196   5.381 -0.4168 -0.1883 -0.3953
 1804SOL    HW116874   0.117   1.272   5.340 -0.6670  0.2560  0.1926
 1804SOL    HW216875   0.068   1.228   5.470 -0.2524  0.6797 -0.6915
 1805SOL     OW16876   0.506   0.248   2.706  0.1820  0.1948  0.2215
 1805SOL    HW116877   0.600   0.256   2.727  0.3398 -1.2873  0.0672
 1805SOL    HW216878   0.498   0.183   2.636 -0.5168 -3.5555  3.7962
 1806SOL     OW16879   4.633   3.366   5.691 -0.9936 -0.4948  0.0832
 1806SOL    HW116880   4.701   3.355   5.625 -1.1073 -0.7624  0.0125
 1806SOL    HW216881   4.654   3.457   5.714  1.2222 -1.6023  2.3807
 1807SOL     OW16882   1.167   3.855   7.439 -0.1037 -0.0519 -0.0207
 1807SOL    HW116883   1.088   3.803   7.458 -0.8829  1.6462  1.4283
 1807SOL    HW216884   1.129   3.909   7.370  0.9162  2.1259  1.1313
 1808SOL     OW16885   1.870   1.051   6.663  0.5132  0.5737  0.4694
 1808SOL    HW116886   1.880   1.028   6.756  1.5128  1.2470  0.5233
 1808SOL    HW216887   1.932   0.992   6.620  2.0966  1.7032  1.2142
 1809SOL     OW16888   3.222   0.345   4.761  0.1341  0.2177  0.1386
 1809SOL    HW116889   3.167   0.272   4.788 -0.4114  0.3822 -0.5303
 1809SOL    HW216890   3.204   0.339   4.667  1.1365 -0.3343 -0.0164
 1810SOL     OW16891   1.340   2.736   1.978  0.1113  0.7240  0.0721
 1810SOL    HW116892   1.304   2.656   2.014  0.7495 -0.2924 -1.5661
 1810SOL    HW216893   1.279   2.808   1.993 -0.5722  0.7620 -2.8128
 1811SOL     OW16894   1.064   0.486   1.051  1.0277  0.4836 -0.1245
 1811SOL    HW116895   1.018   0.570   1.061  0.7843  0.7275 -3.3500
 1811SOL    HW216896   1.024   0.453   0.971  0.6138  0.4292  0.1047
 1812SOL     OW16897   1.783   3.523   5.869  0.2303  0.0214  0.0595
 1812SOL    HW116898   1.816   3.443   5.909 -0.5416 -1.2240 -1.8206
 1812SOL    HW216899   1.702   3.490   5.831  0.2579  0.7373 -0.6176
 1813SOL     OW16900   0.616   1.468   2.902 -0.3665  0.0290  0.7798
 1813SOL    HW116901   0.707   1.496   2.895 -0.0831 -1.2128 -0.5905
 1813SOL    HW216902   0.565   1.547   2.881  0.6804  0.5892  0.2949
 1814SOL     OW16903   3.326   1.106   8.947 -0.0529 -0.1202  0.8149
 1814SOL    HW116904   3.255   1.066   8.999 -1.2268  0.9989  0.0499
 1814SOL    HW216905   3.393   1.107   9.015  0.8455  1.8378 -0.1149
 1815SOL     OW16906   2.463   2.469  14.967  0.4087 -0.1738 -0.3035
 1815SOL    HW116907   2.552   2.496  14.944  1.3797 -1.4035  2.0092
 1815SOL    HW216908   2.468   2.374  14.958 -0.0750 -0.1355 -0.9648
 1816SOL     OW16909   1.195   0.921   8.286  0.1021  0.1983  0.5348
 1816SOL    HW116910   1.109   0.880   8.269 -0.1879  0.9077  0.3020
 1816SOL    HW216911   1.160   1.010   8.294 -2.0284 -0.4438 -1.5661
 1817SOL     OW16912   3.257   1.597   0.715 -0.0621 -0.0786  0.2276
 1817SOL    HW116913   3.312   1.523   0.740  1.7542  1.7492  1.5876
 1817SOL    HW216914   3.191   1.595   0.784 -2.8751  0.0688 -2.4375
 1818SOL     OW16915   2.768   0.960   2.578 -0.0187  0.0494  0.4309
 1818SOL    HW116916   2.810   1.036   2.538  0.0914  0.1591  0.7575
 1818SOL    HW216917   2.756   0.901   2.503 -1.5432  0.7086  0.1485
 1819SOL     OW16918   1.020   2.217   1.758 -0.1657  0.0444 -0.3934
 1819SOL    HW116919   1.073   2.140   1.779 -0.0204  0.4888  0.8953
 1819SOL    HW216920   1.035   2.228   1.664  1.9833  2.9648  0.2942
 1820SOL     OW16921   0.177   0.357  15.151 -0.2352 -0.3480 -0.2030
 1820SOL    HW116922   0.165   0.424  15.218  1.4590  2.7169 -2.9405
 1820SOL    HW216923   0.189   0.412  15.073 -1.1332 -2.8764 -2.1549
 1821SOL     OW16924   0.000   3.289   3.135  0.6747 -0.1488  0.2425
 1821SOL    HW116925   0.043   3.210   3.168  0.0509 -0.0612  1.2337
 1821SOL    HW216926   4.632   3.264   3.141  0.5520  0.5119  1.0838
 1822SOL     OW16927   2.378   4.119  16.971 -0.2182 -0.0722  0.5208
 1822SOL    HW116928   2.447   4.157  17.027 -1.8727  2.2165  1.0136
 1822SOL    HW216929   2.406   4.029  16.985  2.6796  0.7074 -0.2441
 1823SOL     OW16930   2.230   2.019   4.956 -0.3073  0.7307  0.0846
 1823SOL    HW116931   2.233   1.978   5.042 -2.9475 -1.2769 -0.7946
 1823SOL    HW216932   2.324   2.035   4.956  0.0502 -1.5552 -1.6734
 1824SOL     OW16933   2.066   0.165   9.464  0.0724 -0.1690 -0.4756
 1824SOL    HW116934   2.138   0.207   9.511 -0.3276  0.9695 -0.8883
 1824SOL    HW216935   1.994   0.208   9.509  0.3888  1.3780 -1.4572
 1825SOL     OW16936   2.167   2.801   4.560  0.5516  0.0608  0.1411
 1825SOL    HW116937   2.159   2.711   4.528 -2.3303  1.1346 -2.1277
 1825SOL    HW216938   2.229   2.835   4.495 -0.3035  1.0663 -0.1360
 1826SOL     OW16939   2.281   1.569   0.159 -0.3023 -0.3100 -0.0963
 1826SOL    HW116940   2.351   1.508   0.134 -0.7950 -0.5614 -0.8986
 1826SOL    HW216941   2.243   1.595   0.075  0.9111  4.4734  0.8827
 1827SOL     OW16942   0.890   3.030   5.965 -0.4367 -0.3438 -0.0195
 1827SOL    HW116943   0.885   2.963   6.034  2.2430 -0.0106  0.5043
 1827SOL    HW216944   0.982   3.045   5.941 -0.4584 -1.1195 -0.5936
 1828SOL     OW16945   4.496   4.477   2.976  0.0130  0.9660 -0.8851
 1828SOL    HW116946   4.558   4.423   2.928 -0.2222 -0.2655  0.2030
 1828SOL    HW216947   4.553   4.547   3.007  1.3854 -0.4080 -0.3058
 1829SOL     OW16948   2.634   1.893   0.749  0.2281  0.0125 -0.6938
 1829SOL    HW116949   2.641   1.800   0.767  1.6937 -0.0933 -1.8217
 1829SOL    HW216950   2.663   1.916   0.837 -0.7376 -2.2346  0.1981
 1830SOL     OW16951   2.250   2.905   6.921  0.0542 -0.0348 -0.0460
 1830SOL    HW116952   2.259   2.990   6.965  0.5573  0.1307 -0.4576
 1830SOL    HW216953   2.246   2.940   6.832  0.2811 -2.0651 -0.8471
 1831SOL     OW16954   3.321   1.206   2.542  0.3144  0.0591  0.7484
 1831SOL    HW116955   3.329   1.123   2.495 -1.0636  1.1498 -1.4054
 1831SOL    HW216956   3.284   1.169   2.623 -0.8509 -1.0125 -0.2695
 1832SOL     OW16957   1.271   3.138   2.972 -0.2421  0.6001 -0.5949
 1832SOL    HW116958   1.287   3.043   2.965  0.3870  0.5988  0.7757
 1832SOL    HW216959   1.330   3.180   2.910  1.9832  0.4455  1.4132
 1833SOL     OW16960   2.556   0.810  13.969 -0.9130 -0.4064  0.2984
 1833SOL    HW116961   2.617   0.773  14.032 -1.8289 -0.1956  1.3121
 1833SOL    HW216962   2.553   0.896  14.009 -2.6784  1.6452 -4.1881
 1834SOL     OW16963   0.788   0.161   1.282 -0.0576  0.1839  0.2819
 1834SOL    HW116964   0.872   0.120   1.260 -0.1103 -1.2411  2.7852
 1834SOL    HW216965   0.724   0.116   1.227  0.2171  0.2940 -0.1299
 1835SOL     OW16966   0.849   3.493   8.763  0.3530  0.5276 -0.1419
 1835SOL    HW116967   0.830   3.420   8.705 -1.5502  1.4936 -0.7373
 1835SOL    HW216968   0.861   3.439   8.841 -1.0629  1.2758  0.5988
 1836SOL     OW16969   3.449   2.897  16.577  0.2140  0.1212  0.2565
 1836SOL    HW116970   3.419   2.887  16.667  0.8893  0.8024  0.5671
 1836SOL    HW216971   3.429   2.987  16.549 -2.0911 -0.2310  0.7786
 1837SOL     OW16972   2.970   2.492   4.837  0.0057  0.2682  0.3588
 1837SOL    HW116973   2.960   2.551   4.762 -2.4748 -0.3786  0.1828
 1837SOL    HW216974   3.062   2.504   4.859 -0.0532  1.4912 -0.0148
 1838SOL     OW16975   3.951   3.009   8.954  0.1482  0.1358 -0.4131
 1838SOL    HW116976   3.946   2.955   9.033 -0.6229 -1.4345 -1.5185
 1838SOL    HW216977   3.868   2.989   8.911  0.3635  1.2199 -1.3085
 1839SOL     OW16978   3.804   1.415  17.116  0.0235 -0.3331  0.4038
 1839SOL    HW116979   3.740   1.465  17.166  2.3672 -0.7013  3.8268
 1839SOL    HW216980   3.889   1.457  17.131 -0.8441  0.6766  2.4128
 1840SOL     OW16981   4.273   3.308   4.081 -0.0718 -0.3705 -0.5329
 1840SOL    HW116982   4.316   3.358   4.150  0.1537 -0.9881 -0.2211
 1840SOL    HW216983   4.351   3.297   4.027  0.7991  0.4588  0.5455
 1841SOL     OW16984   0.868   2.413  15.003  0.2011  0.3131  0.6247
 1841SOL    HW116985   0.859   2.421  14.908  1.8313  1.0255  0.5228
 1841SOL    HW216986   0.844   2.501  15.032  0.8652  0.5228  0.5379
 1842SOL     OW16987   4.167   3.179   8.937  0.1999 -0.1613  0.1481
 1842SOL    HW116988   4.077   3.147   8.940  0.3382 -0.6811 -1.5473
 1842SOL    HW216989   4.220   3.099   8.942 -1.2981 -1.1786 -0.2091
 1843SOL     OW16990   2.842   0.539   6.171 -0.6561 -0.4405 -0.1908
 1843SOL    HW116991   2.830   0.494   6.087 -2.2469  0.6522 -0.5641
 1843SOL    HW216992   2.912   0.493   6.217 -0.3571  0.6179  0.4048
 1844SOL     OW16993   4.445   2.362  14.143 -0.0026 -0.2785 -0.3203
 1844SOL    HW116994   4.415   2.451  14.163 -1.6827 -0.5960 -1.3873
 1844SOL    HW216995   4.438   2.320  14.228 -1.8453  2.4575  0.8785
 1845SOL     OW16996   3.549   2.986   4.708  0.7576  0.3246 -0.1670
 1845SOL    HW116997   3.472   2.938   4.680 -1.0158  2.2300  1.5211
 1845SOL    HW216998   3.575   2.938   4.787 -0.5499  0.6616  0.4653
 1846SOL     OW16999   0.164   3.212   3.694 -0.4765  0.0484  0.2630
 1846SOL    HW117000   0.215   3.210   3.612  1.4385 -1.5483  1.4997
 1846SOL    HW217001   0.128   3.301   3.699 -2.4648 -0.7172 -0.4281
 1847SOL     OW17002   0.954   2.922   4.724  0.4702 -0.2461  0.3286
 1847SOL    HW117003   0.917   2.903   4.638  2.6904  1.1680 -0.9700
 1847SOL    HW217004   1.021   2.854   4.736  1.4976  0.5579 -0.8309
 1848SOL     OW17005   2.530   2.152  16.392 -0.0601  0.0318  0.3385
 1848SOL    HW117006   2.483   2.126  16.471 -2.1740  3.4241  0.1977
 1848SOL    HW217007   2.547   2.067  16.351  0.3631  0.1528  0.2546
 1849SOL     OW17008   1.549   1.251   1.710  0.3491 -0.5270  0.4214
 1849SOL    HW117009   1.544   1.193   1.787  1.4525 -1.3072 -0.0821
 1849SOL    HW217010   1.644   1.266   1.710  0.5311 -1.6477  1.4450
 1850SOL     OW17011   0.265   2.557   3.712 -0.5378 -0.3803 -0.0536
 1850SOL    HW117012   0.355   2.529   3.730 -0.7762 -0.6021  0.8086
 1850SOL    HW217013   0.220   2.476   3.735 -1.0041 -0.4434 -1.1772
 1851SOL     OW17014   4.491   1.411   3.286 -0.0031 -0.1472  0.1469
 1851SOL    HW117015   4.568   1.466   3.271 -1.5666  1.9656 -0.1116
 1851SOL    HW217016   4.487   1.345   3.217  0.8929 -2.8509  2.7174
 1852SOL     OW17017   1.916   0.785   8.026  0.2853 -0.1174  0.1624
 1852SOL    HW117018   1.855   0.716   8.051 -0.0217  0.8105  1.9204
 1852SOL    HW217019   2.001   0.741   8.018 -0.4485 -1.0983 -2.2885
 1853SOL     OW17020   2.647   4.668   3.354 -0.0817  0.3368 -0.7512
 1853SOL    HW117021   2.655   4.717   3.436 -2.8364 -0.2987 -0.1108
 1853SOL    HW217022   2.592   0.001   3.301 -0.0141  0.0546 -1.1234
 1854SOL     OW17023   0.136   3.516   3.154 -0.3620  0.4779 -0.2651
 1854SOL    HW117024   0.088   3.568   3.090 -0.5143 -0.5764 -1.0003
 1854SOL    HW217025   0.099   3.428   3.150  2.5264 -0.9301  4.1692
 1855SOL     OW17026   1.494   0.005   4.296  0.3969  0.6911  0.3512
 1855SOL    HW117027   1.583   4.696   4.284 -0.7296 -3.1479  2.7265
 1855SOL    HW217028   1.446   4.695   4.221 -0.1666  1.0666  0.5436
 1856SOL     OW17029   3.045   0.118   9.569  0.1050 -0.6975  0.4438
 1856SOL    HW117030   3.121   0.073   9.607  0.2006  0.1753  1.2985
 1856SOL    HW217031   2.978   0.100   9.636 -0.8321 -1.7415 -0.7705
 1857SOL     OW17032   1.502   1.448   6.501 -0.3577  0.0056 -1.0116
 1857SOL    HW117033   1.575   1.503   6.471  1.6678 -2.1259  0.0184
 1857SOL    HW217034   1.554   1.368   6.502  1.7236  1.3764 -0.2690
 1858SOL     OW17035   2.737   0.485   7.875  0.4209 -0.8383  0.3860
 1858SOL    HW117036   2.745   0.392   7.898 -0.1565 -1.1699 -0.7829
 1858SOL    HW217037   2.813   0.531   7.910 -1.8294  1.2852  2.4601
 1859SOL     OW17038   1.990   2.984  14.387  0.5217 -0.7440  0.5387
 1859SOL    HW117039   2.061   2.972  14.324 -0.9979 -0.1478 -1.3192
 1859SOL    HW217040   1.986   3.077  14.408  0.0326 -0.1287 -2.2120
 1860SOL     OW17041   0.158   1.527   1.073 -0.1246 -0.0431  0.4023
 1860SOL    HW117042   0.162   1.572   1.158 -1.7369 -1.7036  1.3565
 1860SOL    HW217043   0.145   1.596   1.008  0.3507 -0.1861  0.1554
 1861SOL     OW17044   0.289   1.678   9.177  0.5346  0.1753  0.4013
 1861SOL    HW117045   0.363   1.713   9.127  0.2969 -0.2759 -0.2661
 1861SOL    HW217046   0.302   1.718   9.263  1.2517  3.6546 -1.3046
 1862SOL     OW17047   3.676   4.446   0.492 -0.3311 -0.6306  0.5382
 1862SOL    HW117048   3.673   4.527   0.441 -0.1051 -1.4996 -0.8702
 1862SOL    HW217049   3.598   4.398   0.462 -0.3227  0.2520 -0.8844
 1863SOL     OW17050   2.504   1.467   7.979  0.2041  0.2034  0.1179
 1863SOL    HW117051   2.497   1.562   7.989  0.1988  0.2144  0.0130
 1863SOL    HW217052   2.447   1.454   7.903 -0.4867  1.5542  0.4045
 1864SOL     OW17053   3.738   4.483   1.811  0.5860  0.5784  0.1313
 1864SOL    HW117054   3.738   4.389   1.798  1.4088  0.2389  2.5659
 1864SOL    HW217055   3.668   4.490   1.876 -0.1181  0.3394 -0.6025
 1865SOL     OW17056   1.708   1.969   4.475 -0.4231  0.3169  0.1008
 1865SOL    HW117057   1.772   1.981   4.546 -0.0342  1.5653 -0.4644
 1865SOL    HW217058   1.710   2.054   4.431  0.7191 -0.6730 -1.7403
 1866SOL     OW17059   4.330   1.195   9.270 -0.2562  0.4409  0.1303
 1866SOL    HW117060   4.396   1.126   9.262 -0.5467  0.4043 -1.8741
 1866SOL    HW217061   4.252   1.140   9.273  0.8593 -1.0934  1.2040
 1867SOL     OW17062   3.568   3.643   9.622 -0.1117  0.8566  0.2212
 1867SOL    HW117063   3.529   3.561   9.653  2.6592 -0.7254 -0.4039
 1867SOL    HW217064   3.632   3.616   9.556 -1.4437 -1.1413 -0.2585
 1868SOL     OW17065   1.723   2.984   8.592  0.0154  0.4154  0.6497
 1868SOL    HW117066   1.660   2.952   8.656  1.7710 -0.9348  1.7330
 1868SOL    HW217067   1.794   2.925   8.619  2.3146  2.9243  0.1354
 1869SOL     OW17068   0.094   2.280   3.457  0.0405 -0.3595  0.5287
 1869SOL    HW117069   0.175   2.257   3.412 -1.0056  0.1933 -1.6471
 1869SOL    HW217070   0.029   2.251   3.393  1.0465 -1.5117  0.0263
 1870SOL     OW17071   0.541   4.616   1.490 -0.9275 -0.8424 -0.4679
 1870SOL    HW117072   0.606   4.596   1.423 -0.6548  0.1954 -0.5002
 1870SOL    HW217073   0.600   4.643   1.561 -1.7037 -1.7517  0.5251
 1871SOL     OW17074   2.135   2.940   1.529  0.7810  0.0149 -0.5771
 1871SOL    HW117075   2.193   3.000   1.575  0.2302 -0.5639  0.8786
 1871SOL    HW217076   2.167   2.962   1.442 -0.8681  0.1482 -1.1489
 1872SOL     OW17077   2.217   0.107   4.363  0.3706  0.2531 -0.3567
 1872SOL    HW117078   2.298   0.077   4.403 -0.3125  0.7254  1.3623
 1872SOL    HW217079   2.150   0.081   4.426  2.1829  3.8015  2.9920
 1873SOL     OW17080   0.655   4.715   3.103  0.0021  0.0567 -0.2180
 1873SOL    HW117081   0.680   0.047   3.177  0.1930  2.0332 -1.7765
 1873SOL    HW217082   0.570   4.679   3.129 -0.9277  1.9212 -0.6933
 1874SOL     OW17083   0.885   4.147   6.856  0.2501  0.3854  0.5960
 1874SOL    HW117084   0.850   4.072   6.903  0.2700  1.1449  1.8325
 1874SOL    HW217085   0.976   4.139   6.887 -0.2127 -0.5057  1.6966
 1875SOL     OW17086   0.172   3.223   6.116 -0.3789 -0.0580  0.1182
 1875SOL    HW117087   0.104   3.210   6.051  0.2592 -1.5007 -0.2519
 1875SOL    HW217088   0.205   3.135   6.134 -1.7260  0.0047  3.0191
 1876SOL     OW17089   2.154   1.017   0.336  0.2193 -0.1013  0.8689
 1876SOL    HW117090   2.183   1.046   0.249 -0.7756 -1.9938 -0.0816
 1876SOL    HW217091   2.060   1.036   0.325  0.5253  0.9161 -0.0020
 1877SOL     OW17092   3.258   3.001   7.643  0.5135 -0.7506 -0.0595
 1877SOL    HW117093   3.171   3.014   7.682  0.5477  0.7287 -0.4909
 1877SOL    HW217094   3.270   3.086   7.601 -0.4178  0.5135  2.2125
 1878SOL     OW17095   1.283   0.170  10.829  0.1103 -0.0315 -0.5926
 1878SOL    HW117096   1.321   0.258  10.823  1.0307 -0.3623  0.5000
 1878SOL    HW217097   1.360   0.114  10.835 -0.0375 -0.1391  0.3888
 1879SOL     OW17098   2.027   2.687   9.002 -0.1587  0.2632 -0.1394
 1879SOL    HW117099   2.006   2.595   9.016 -2.4082  1.0093  1.5654
 1879SOL    HW217100   2.091   2.681   8.932 -1.4769 -1.9073 -1.1404
 1880SOL     OW17101   4.048   3.773   5.792  0.1492  0.5460 -0.3769
 1880SOL    HW117102   4.088   3.859   5.803 -0.3623  0.5473  1.5023
 1880SOL    HW217103   4.119   3.729   5.745 -3.4555 -0.9531 -4.4474
 1881SOL     OW17104   4.584   4.452  13.850  0.2371  0.0614 -0.7547
 1881SOL    HW117105   4.616   4.443  13.760 -1.2641 -1.3434 -1.1551
 1881SOL    HW217106   4.516   4.516  13.825  1.9999  1.3338 -2.3346
 1882SOL     OW17107   2.606   1.908  13.577 -0.2707  0.3696  0.4372
 1882SOL    HW117108   2.618   1.863  13.661  0.4438 -0.0114  0.1355
 1882SOL    HW217109   2.661   1.986  13.586  2.4963 -1.7042  1.6624
 1883SOL     OW17110   2.770   1.192   8.749 -0.4349 -0.0347 -0.4633
 1883SOL    HW117111   2.679   1.192   8.721  0.0406 -1.8549 -2.0471
 1883SOL    HW217112   2.760   1.215   8.841  3.2062 -4.0729  0.9734
 1884SOL     OW17113   3.516   3.816   9.363  0.2337 -0.0604 -0.0702
 1884SOL    HW117114   3.590   3.760   9.385  2.1781  2.2539 -0.7193
 1884SOL    HW217115   3.458   3.793   9.436  1.0364  1.5677  1.0941
 1885SOL     OW17116   3.767   4.614   2.619  0.2847 -0.2451 -0.0612
 1885SOL    HW117117   3.762   4.644   2.528 -0.5074 -2.4158 -0.7267
 1885SOL    HW217118   3.789   4.524   2.595 -0.4317 -0.8494  1.5664
 1886SOL     OW17119   3.169   3.238   3.537  0.4781 -0.7340  0.4579
 1886SOL    HW117120   3.190   3.154   3.577 -1.0296 -0.8531  1.0035
 1886SOL    HW217121   3.117   3.213   3.460  1.0402 -2.7058  0.7223
 1887SOL     OW17122   2.102   4.455  15.330  0.0438  1.1847 -0.6185
 1887SOL    HW117123   2.019   4.466  15.284  0.4955  1.2173 -1.4321
 1887SOL    HW217124   2.087   4.371  15.373 -0.0049  1.5432  0.0634
 1888SOL     OW17125   4.301   4.491   4.519  0.0159 -0.6538  0.0234
 1888SOL    HW117126   4.307   4.396   4.526 -0.1794 -0.6177  0.6619
 1888SOL    HW217127   4.295   4.503   4.424 -0.3694  1.7784  0.3389
 1889SOL     OW17128   1.791   0.087   1.981  0.8094 -0.0643  0.6139
 1889SOL    HW117129   1.866   0.116   2.033 -0.1777  1.5251  1.1238
 1889SOL    HW217130   1.746   0.170   1.966 -0.2933 -0.8082 -0.2210
 1890SOL     OW17131   3.970   4.517   4.454  0.2222 -0.0559 -0.0065
 1890SOL    HW117132   4.021   4.527   4.534 -0.0874  0.4663  0.1223
 1890SOL    HW217133   3.954   4.608   4.431  0.0286  0.5326  2.5199
 1891SOL     OW17134   1.592   2.532   5.643  0.6405  0.1416  0.3866
 1891SOL    HW117135   1.639   2.467   5.695 -1.0037 -0.7800  0.7124
 1891SOL    HW217136   1.661   2.541   5.577 -1.5071 -0.1934 -1.8834
 1892SOL     OW17137   4.080   4.414   5.644 -0.6100  0.3362 -0.5715
 1892SOL    HW117138   4.076   4.425   5.739  1.6145  0.6896 -0.5003
 1892SOL    HW217139   4.060   4.498   5.602  1.0435 -0.2757 -2.6314
 1893SOL     OW17140   0.178   0.031   3.358  0.2640  0.3370 -0.7151
 1893SOL    HW117141   0.152   4.697   3.430  0.0783  1.4754  0.1346
 1893SOL    HW217142   0.096   0.077   3.343  0.5733  0.6767 -1.3467
 1894SOL     OW17143   4.512   3.652   3.366 -0.8871  0.2231  0.3119
 1894SOL    HW117144   4.505   3.743   3.394  0.6180  0.4119  0.0718
 1894SOL    HW217145   4.522   3.663   3.272  1.6707  0.2833  0.5876
 1895SOL     OW17146   0.563   2.465  14.797 -0.0226  0.1244  0.1042
 1895SOL    HW117147   0.600   2.405  14.862 -1.5212 -0.0305  0.8153
 1895SOL    HW217148   0.507   2.409  14.743  0.5886  0.7019 -1.1076
 1896SOL     OW17149   4.513   1.107  11.133  0.3484 -0.1005 -0.3106
 1896SOL    HW117150   4.470   1.094  11.048  0.3251 -0.2112 -0.2816
 1896SOL    HW217151   4.536   1.015  11.149 -0.5745 -0.5277 -1.4425
 1897SOL     OW17152   3.798   1.931  11.922 -0.6660 -0.0299  0.2276
 1897SOL    HW117153   3.730   1.998  11.912 -1.6789 -1.1928 -0.7007
 1897SOL    HW217154   3.845   1.944  11.839 -0.0510  0.4349  0.6477
 1898SOL     OW17155   4.005   3.327   4.141  0.4576 -0.8846 -0.3496
 1898SOL    HW117156   4.046   3.380   4.210  0.6051 -0.5685 -0.6828
 1898SOL    HW217157   4.086   3.297   4.102  1.2357  0.6903  0.0627
 1899SOL     OW17158   0.121   3.242   2.822 -0.2156  0.4312 -0.0014
 1899SOL    HW117159   0.151   3.298   2.893 -3.2008  2.6915 -0.4834
 1899SOL    HW217160   0.040   3.292   2.811 -1.6157 -1.9765 -0.6399
 1900SOL     OW17161   0.682   4.070   6.607 -0.2437  1.1101  0.1025
 1900SOL    HW117162   0.768   4.032   6.628 -0.4148  0.4147 -0.4799
 1900SOL    HW217163   0.694   4.094   6.515  2.4861 -4.8057 -1.0777
 1901SOL     OW17164   2.661   1.880  16.402  0.0175  0.2226  0.5582
 1901SOL    HW117165   2.590   1.881  16.339  0.1476 -0.3977  0.4022
 1901SOL    HW217166   2.734   1.850  16.347 -0.7152 -0.7084  0.0941
 1902SOL     OW17167   3.969   3.023   5.173 -0.4260 -0.1760 -0.0297
 1902SOL    HW117168   3.950   3.025   5.080 -0.6995  3.3047  0.1001
 1902SOL    HW217169   4.043   3.083   5.184 -0.7490  0.0449  0.9377
 1903SOL     OW17170   3.534   0.243  17.027 -0.4116 -0.0269 -0.4915
 1903SOL    HW117171   3.590   0.302  16.976  0.9656 -0.2327  0.7697
 1903SOL    HW217172   3.499   0.198  16.950 -2.1220 -0.5059  0.5756
 1904SOL     OW17173   2.437   4.187   6.884 -0.5145  0.0887  0.2006
 1904SOL    HW117174   2.343   4.193   6.903 -0.6477 -0.7958 -0.1755
 1904SOL    HW217175   2.466   4.214   6.971 -4.0096 -0.8361  1.6590
 1905SOL     OW17176   0.592   2.883  10.668 -0.5897  0.2450  0.1031
 1905SOL    HW117177   0.520   2.904  10.728 -0.0592  0.2696  0.7301
 1905SOL    HW217178   0.647   2.829  10.724 -0.8094 -0.2917 -0.1951
 1906SOL     OW17179   0.279   0.443   1.732  0.3141 -0.6276 -0.0478
 1906SOL    HW117180   0.286   0.476   1.643  0.8577 -0.0522  0.2103
 1906SOL    HW217181   0.338   0.368   1.724  0.3651 -0.7468  1.4676
 1907SOL     OW17182   4.647   3.514   0.231  0.0269  0.1415 -0.1779
 1907SOL    HW117183   0.017   3.503   0.245 -0.1015 -0.4825  0.2007
 1907SOL    HW217184   4.619   3.552   0.315  0.7201 -2.3971  1.2187
 1908SOL     OW17185   2.169   0.864   3.754  0.2819  0.1207  0.1406
 1908SOL    HW117186   2.180   0.911   3.671 -1.2431 -1.0704 -0.7352
 1908SOL    HW217187   2.144   0.773   3.737  1.4823  0.1773 -1.9563
 1909SOL     OW17188   3.389   4.292  13.496  0.0819  0.0995 -0.1594
 1909SOL    HW117189   3.298   4.324  13.492  0.4946  0.9256 -2.6493
 1909SOL    HW217190   3.412   4.271  13.406 -2.2174 -0.3694 -0.6403
 1910SOL     OW17191   2.861   4.174  10.119 -0.6367 -0.5610  0.4207
 1910SOL    HW117192   2.951   4.181  10.089 -1.6917  1.7404 -2.2261
 1910SOL    HW217193   2.841   4.265  10.097  0.6678 -0.5533 -0.7195
 1911SOL     OW17194   2.508   1.935  16.167 -0.2384  0.3175  0.2523
 1911SOL    HW117195   2.504   2.008  16.106  1.6522  0.1956 -0.0088
 1911SOL    HW217196   2.455   1.873  16.115 -2.6527  1.0251  1.8974
 1912SOL     OW17197   1.940   2.298   4.276  0.3948  0.3395 -0.1283
 1912SOL    HW117198   1.910   2.373   4.224 -2.8409 -0.5708  0.4115
 1912SOL    HW217199   1.851   2.264   4.287 -0.0124  1.5843  0.5618
 1913SOL     OW17200   2.228   4.721   9.019 -0.6529 -0.0506  0.4514
 1913SOL    HW117201   2.234   4.628   9.041 -0.6506 -0.2748 -0.4841
 1913SOL    HW217202   2.319   0.022   9.034  0.0187 -1.7622 -0.8145
 1914SOL     OW17203   2.090   1.311   0.844 -0.4426  0.1987 -0.0077
 1914SOL    HW117204   2.148   1.356   0.905 -0.6514  0.3162  0.1042
 1914SOL    HW217205   2.050   1.392   0.811  1.8328  0.2792 -2.4884
 1915SOL     OW17206   2.169   2.672   8.775 -0.6443 -0.1170  0.7535
 1915SOL    HW117207   2.262   2.674   8.750 -0.4881 -1.7397  1.2280
 1915SOL    HW217208   2.144   2.757   8.738 -1.1438 -0.7532 -0.3413
 1916SOL     OW17209   0.016   0.933  15.224  0.6359  0.4115 -0.0535
 1916SOL    HW117210   0.015   0.849  15.179 -0.4024  0.0435  0.6587
 1916SOL    HW217211   0.074   0.914  15.297 -3.2977 -0.0803  2.9113
 1917SOL     OW17212   4.001   4.676   0.897 -0.2284 -0.6528 -0.0182
 1917SOL    HW117213   3.953   4.598   0.925 -1.9241  0.0889 -0.8679
 1917SOL    HW217214   4.061   4.690   0.970 -1.3690 -0.5595  0.8956
 1918SOL     OW17215   1.075   0.646   8.096  0.2278  0.3196 -0.3600
 1918SOL    HW117216   1.122   0.724   8.068 -1.8256  1.6839 -0.0202
 1918SOL    HW217217   0.996   0.633   8.043 -1.0300  1.8099  1.1718
 1919SOL     OW17218   0.456   1.248  15.741  0.0940 -0.2829 -0.0168
 1919SOL    HW117219   0.496   1.310  15.680 -1.2418 -0.6010 -1.2211
 1919SOL    HW217220   0.535   1.230  15.792  2.1476  1.7018 -2.4873
 1920SOL     OW17221   3.924   2.476  11.336  0.4078  0.2076  0.2708
 1920SOL    HW117222   3.909   2.480  11.430 -2.6933 -2.7430 -0.1103
 1920SOL    HW217223   4.019   2.487  11.331  0.6914 -1.8198  1.3164
 1921SOL     OW17224   3.341   2.833  15.431 -0.0923  0.2277 -0.4422
 1921SOL    HW117225   3.307   2.749  15.460  0.8764 -0.4245 -1.1933
 1921SOL    HW217226   3.297   2.859  15.350 -0.3380  1.4441  0.0820
 1922SOL     OW17227   2.917   3.750   7.008 -0.2069  0.1468 -0.0567
 1922SOL    HW117228   2.869   3.759   6.925  0.1265  3.0553  0.0607
 1922SOL    HW217229   2.912   3.656   7.025  0.4367  0.1085 -0.0877
 1923SOL     OW17230   2.699   1.848   6.018  0.4268  0.4515  0.0639
 1923SOL    HW117231   2.701   1.802   6.101 -0.4736 -1.9459 -1.2393
 1923SOL    HW217232   2.756   1.801   5.957 -0.5108 -0.0938 -0.3799
 1924SOL     OW17233   1.308   2.926   0.194 -0.7806 -0.0697 -0.1702
 1924SOL    HW117234   1.346   2.838   0.194  2.3461  1.2834 -2.4527
 1924SOL    HW217235   1.327   2.961   0.281  0.8007 -2.9298  0.6636
 1925SOL     OW17236   4.127   0.505   2.043 -0.4614 -0.0185 -0.4150
 1925SOL    HW117237   4.108   0.551   1.961 -0.5557  0.1086 -0.3220
 1925SOL    HW217238   4.221   0.490   2.038 -0.5255 -0.4643 -0.2685
 1926SOL     OW17239   4.006   3.414   0.927  0.3609 -0.0919 -0.1866
 1926SOL    HW117240   4.072   3.379   0.987  0.8532  0.2234 -0.5400
 1926SOL    HW217241   3.942   3.344   0.936  0.6142 -0.1046  1.3820
 1927SOL     OW17242   3.604   1.343   7.767 -0.1719 -0.1793 -0.5356
 1927SOL    HW117243   3.557   1.425   7.782  0.8481  0.5292 -1.2393
 1927SOL    HW217244   3.685   1.378   7.732  1.0217 -0.2162  2.2688
 1928SOL     OW17245   4.212   2.322   5.556 -0.0282 -0.3855  0.2435
 1928SOL    HW117246   4.265   2.337   5.478 -0.5707  0.9352  0.1283
 1928SOL    HW217247   4.273   2.336   5.629  1.9295 -0.7325 -1.3250
 1929SOL     OW17248   3.183   4.471   6.318  0.3426 -0.1407 -0.3359
 1929SOL    HW117249   3.122   4.444   6.387 -0.9882  1.0292 -1.0612
 1929SOL    HW217250   3.133   4.474   6.237  0.8810 -0.2410 -0.6709
 1930SOL     OW17251   1.546   3.231  14.182 -0.2230 -0.1042  0.1329
 1930SOL    HW117252   1.579   3.193  14.100  1.0525 -0.0527  0.6242
 1930SOL    HW217253   1.615   3.211  14.245 -0.5648  0.6486  0.7454
 1931SOL     OW17254   3.569   2.171  11.002  0.4180  1.2483 -0.1048
 1931SOL    HW117255   3.538   2.259  10.983  0.1817  0.6975 -2.3357
 1931SOL    HW217256   3.591   2.179  11.095  0.8798 -1.4844  0.0242
 1932SOL     OW17257   3.938   2.285   5.577  0.4091 -0.4528  0.1665
 1932SOL    HW117258   3.902   2.298   5.490 -1.5652  0.5187  1.1314
 1932SOL    HW217259   4.031   2.305   5.563  0.2769 -0.7292 -1.0775
 1933SOL     OW17260   4.008   4.551   6.449 -0.0173 -0.4754  0.2211
 1933SOL    HW117261   4.011   4.581   6.540  1.2750  0.7635 -0.2294
 1933SOL    HW217262   3.924   4.585   6.418 -0.5810 -1.5756  0.5392
 1934SOL     OW17263   2.669   0.136   8.581  0.1107  0.2639  0.0309
 1934SOL    HW117264   2.640   0.183   8.658 -1.5214  0.6677 -0.8243
 1934SOL    HW217265   2.736   0.083   8.623  1.1124  1.3082 -0.2662
 1935SOL     OW17266   1.247   2.496   4.877  0.6425  0.0987  0.4990
 1935SOL    HW117267   1.184   2.434   4.914  1.6996 -2.3966 -1.9007
 1935SOL    HW217268   1.301   2.436   4.825  1.4699  2.4482 -1.3121
 1936SOL     OW17269   0.854   1.834   4.776 -0.0988  0.4732  0.2395
 1936SOL    HW117270   0.835   1.895   4.847  2.4931  0.6413  0.7883
 1936SOL    HW217271   0.780   1.849   4.717 -1.0501 -1.0448  1.0546
 1937SOL     OW17272   3.658   1.485   9.065 -0.5060 -0.0089 -0.1206
 1937SOL    HW117273   3.750   1.513   9.066  0.1797 -2.3582  2.6839
 1937SOL    HW217274   3.625   1.510   8.979  0.0220 -1.2240 -0.6698
 1938SOL     OW17275   0.609   0.766   6.201 -0.4920  0.6547 -0.2469
 1938SOL    HW117276   0.524   0.782   6.240  0.5389 -0.7205  2.5320
 1938SOL    HW217277   0.663   0.815   6.264  0.0359  2.8846 -2.4173
 1939SOL     OW17278   3.773   0.509   7.531 -0.6625 -0.5939  0.1849
 1939SOL    HW117279   3.732   0.425   7.552 -0.9665 -0.5009 -0.0398
 1939SOL    HW217280   3.797   0.490   7.441 -0.3487  0.4130  0.0554
 1940SOL     OW17281   2.340   3.836   2.033 -0.3083 -0.6944 -0.1690
 1940SOL    HW117282   2.334   3.789   1.950  0.6751  0.1613 -0.7224
 1940SOL    HW217283   2.318   3.924   2.001  2.0055 -0.3185 -0.7037
 1941SOL     OW17284   3.167   1.538   7.344 -0.3182 -0.2232 -0.2453
 1941SOL    HW117285   3.134   1.475   7.281 -0.5328  0.7607 -1.1171
 1941SOL    HW217286   3.257   1.554   7.315 -0.2582  1.2903  0.7048
 1942SOL     OW17287   2.529   0.318   3.290 -0.3764 -0.4665  0.5809
 1942SOL    HW117288   2.473   0.383   3.331 -1.8470 -0.3657 -1.5992
 1942SOL    HW217289   2.596   0.375   3.253  1.1734 -2.0598  0.8654
 1943SOL     OW17290   3.644   2.435   8.342  0.1443  0.4630  0.3207
 1943SOL    HW117291   3.713   2.379   8.378 -0.1229  0.2940  0.5695
 1943SOL    HW217292   3.575   2.430   8.408 -0.4083 -1.3996 -0.3977
 1944SOL     OW17293   1.664   0.027  13.644 -0.1119 -0.2047 -0.3222
 1944SOL    HW117294   1.657   0.123  13.642  0.4842 -0.1855 -1.3998
 1944SOL    HW217295   1.749   0.014  13.687 -0.6085  1.9757  1.3350
 1945SOL     OW17296   2.040   4.671   6.547 -0.0469  0.6000 -0.1333
 1945SOL    HW117297   2.050   4.684   6.642  2.3699 -0.3355 -0.2468
 1945SOL    HW217298   2.121   4.700   6.506 -2.3561  3.7755 -2.4590
 1946SOL     OW17299   2.850   3.939   7.195  0.3949 -0.2724  0.0019
 1946SOL    HW117300   2.900   3.881   7.137 -1.1155 -0.4540 -1.1336
 1946SOL    HW217301   2.768   3.889   7.186 -0.2174  0.5431  1.1418
 1947SOL     OW17302   1.748   2.518   4.164 -0.0525 -0.2164 -0.1629
 1947SOL    HW117303   1.683   2.588   4.173  0.5912  0.2085  1.1165
 1947SOL    HW217304   1.699   2.453   4.114  0.5080  1.0184 -2.3587
 1948SOL     OW17305   0.924   2.849   5.386 -0.0709 -0.4192 -0.2004
 1948SOL    HW117306   0.908   2.944   5.388  0.2654 -0.4166  2.8153
 1948SOL    HW217307   0.855   2.821   5.326  1.5202 -1.7181 -1.4107
 1949SOL     OW17308   3.103   1.708   4.750 -0.5340  0.8484 -0.0138
 1949SOL    HW117309   3.180   1.748   4.709  0.9834 -2.4819 -0.4308
 1949SOL    HW217310   3.137   1.648   4.816 -2.0654  0.5288  0.4968
 1950SOL     OW17311   0.218   3.650   2.820 -0.6285 -0.5356 -0.4463
 1950SOL    HW117312   0.241   3.743   2.809 -0.9920 -0.2714  1.0827
 1950SOL    HW217313   0.233   3.611   2.734 -2.4405 -0.3627 -0.8294
 1951SOL     OW17314   0.564   4.610  15.756 -0.4701 -0.0470 -0.3347
 1951SOL    HW117315   0.503   4.635  15.688  0.8204  0.6017 -1.2611
 1951SOL    HW217316   0.631   4.678  15.746 -0.4668  0.3132  2.0358
 1952SOL     OW17317   1.862   2.951  15.734  0.5444 -0.1149 -0.0580
 1952SOL    HW117318   1.954   2.978  15.732  0.0436  1.9786  3.3456
 1952SOL    HW217319   1.848   2.917  15.646  1.8028 -0.5145 -0.1009
 1953SOL     OW17320   1.126   3.353   8.244  0.1618  0.0397  0.0481
 1953SOL    HW117321   1.090   3.441   8.250 -1.2132 -0.3996 -1.5587
 1953SOL    HW217322   1.092   3.324   8.159 -3.0719 -1.2794  1.7731
 1954SOL     OW17323   3.528   4.139   8.633 -0.8564  0.1794  0.0474
 1954SOL    HW117324   3.619   4.121   8.611 -1.0637 -2.6350  1.5863
 1954SOL    HW217325   3.518   4.227   8.595  0.7415 -0.1536 -1.1427
 1955SOL     OW17326   0.035   0.059   7.759 -0.6115 -0.4702 -0.2431
 1955SOL    HW117327   0.018   0.153   7.768  0.3847 -0.2876 -0.2521
 1955SOL    HW217328   0.098   0.040   7.828  1.6749 -0.1537 -2.2300
 1956SOL     OW17329   1.332   0.821  11.964  0.0135  0.3439  0.1022
 1956SOL    HW117330   1.334   0.893  12.027  0.3286 -0.6477  1.2196
 1956SOL    HW217331   1.289   0.752  12.015  1.3135  1.5879  2.8752
 1957SOL     OW17332   0.845   4.325   6.618  0.1897 -0.7214 -0.3849
 1957SOL    HW117333   0.872   4.263   6.685  2.2440 -0.0633 -0.6141
 1957SOL    HW217334   0.868   4.284   6.535  0.9040  1.8861 -1.5001
 1958SOL     OW17335   2.512   2.949   4.658 -0.2395 -0.0897  0.4305
 1958SOL    HW117336   2.453   3.005   4.707  0.2122 -0.8788  1.8708
 1958SOL    HW217337   2.466   2.946   4.574  0.3278  0.0250  0.1164
 1959SOL     OW17338   3.582   3.273   7.351  0.3208 -0.1392  0.2115
 1959SOL    HW117339   3.644   3.315   7.411  2.5617 -1.3530 -1.2546
 1959SOL    HW217340   3.652   3.260   7.287  1.0804 -1.6312  1.3392
 1960SOL     OW17341   2.526   3.593   9.727 -0.3125  0.3312  0.0638
 1960SOL    HW117342   2.617   3.563   9.723 -0.4585  0.0578 -1.0896
 1960SOL    HW217343   2.541   3.685   9.753  0.8990 -0.3062  1.6620
 1961SOL     OW17344   3.779   0.777   7.548  0.2777  0.1828 -0.2853
 1961SOL    HW117345   3.798   0.683   7.541  3.3971  0.8562 -0.9982
 1961SOL    HW217346   3.865   0.810   7.575  1.7643 -3.1498 -0.8468
 1962SOL     OW17347   3.924   2.289   2.308 -0.4347 -0.4030  0.0115
 1962SOL    HW117348   3.986   2.225   2.342 -0.3164  0.6648  1.7834
 1962SOL    HW217349   3.892   2.349   2.376  1.5957  1.8121 -0.9872
 1963SOL     OW17350   1.203   2.574   2.294  0.7706 -0.5095 -0.7572
 1963SOL    HW117351   1.141   2.647   2.293  1.8712  0.4428  0.0124
 1963SOL    HW217352   1.238   2.590   2.382  0.8388 -1.4614 -0.6093
 1964SOL     OW17353   3.238   2.266   6.400  0.4727  0.1935  0.3456
 1964SOL    HW117354   3.225   2.289   6.492 -0.1997  0.6869  0.1319
 1964SOL    HW217355   3.281   2.181   6.410  0.7464  0.3331  0.3611
 1965SOL     OW17356   1.143   3.817  10.083 -0.8039 -0.1727 -0.3819
 1965SOL    HW117357   1.069   3.832  10.023 -2.0750  1.0355  1.4691
 1965SOL    HW217358   1.113   3.746  10.139 -0.7200 -0.5690 -0.8432
 1966SOL     OW17359   2.838   4.478   7.334  0.0957  0.7792  0.0100
 1966SOL    HW117360   2.920   4.483   7.383 -0.7596  3.4492  1.1581
 1966SOL    HW217361   2.845   4.542   7.263  0.3951  0.1560 -0.5338
 1967SOL     OW17362   0.986   0.844   8.845 -0.0378 -0.0109  0.5437
 1967SOL    HW117363   1.044   0.872   8.773 -2.3326  0.6908 -1.0179
 1967SOL    HW217364   0.972   0.754   8.815  1.3783  0.3612 -1.2878
 1968SOL     OW17365   1.525   2.564  11.779 -0.1811 -0.1635 -0.4960
 1968SOL    HW117366   1.609   2.582  11.821 -0.6313 -0.5887  0.5884
 1968SOL    HW217367   1.516   2.624  11.705 -0.9695 -0.3837 -0.5883
 1969SOL     OW17368   1.228   3.376   7.789  0.3032  0.0634  0.4344
 1969SOL    HW117369   1.240   3.432   7.865  2.1025  0.6408 -0.2751
 1969SOL    HW217370   1.306   3.320   7.784  1.2554  1.4546 -0.0120
 1970SOL     OW17371   1.155   2.023   4.714  0.1731 -0.1007  0.1720
 1970SOL    HW117372   1.068   2.023   4.755 -1.2380  0.2940 -2.8599
 1970SOL    HW217373   1.138   1.993   4.625  0.5729 -3.0824  1.0854
 1971SOL     OW17374   2.132   0.127   0.321  0.2685 -0.5607  0.0953
 1971SOL    HW117375   2.138   0.123   0.225  1.4418  1.0161  0.1076
 1971SOL    HW217376   2.184   0.207   0.332 -2.1425  0.9071  0.9291
 1972SOL     OW17377   2.662   2.683   6.368  0.3574 -0.0283  0.2133
 1972SOL    HW117378   2.603   2.750   6.403  0.5608 -0.0193  0.5438
 1972SOL    HW217379   2.744   2.703   6.415  0.9573  1.3859 -1.4372
 1973SOL     OW17380   3.494   0.786   7.776 -0.1623 -0.0312 -0.1736
 1973SOL    HW117381   3.497   0.864   7.831 -1.6728 -0.4929  0.5665
 1973SOL    HW217382   3.517   0.824   7.691  1.2817 -0.7563 -0.1003
 1974SOL     OW17383   1.177   3.849  17.546  0.1596 -0.1983  0.4124
 1974SOL    HW117384   1.161   3.935  17.584 -0.1170  0.1401 -0.4844
 1974SOL    HW217385   1.151   3.791  17.617  0.5629 -1.3756 -0.3979
 1975SOL     OW17386   1.112   1.447   4.747  0.6032 -0.1814 -0.1083
 1975SOL    HW117387   1.075   1.360   4.733  0.9092 -0.7468  2.4306
 1975SOL    HW217388   1.038   1.499   4.777  0.3272 -0.7406  0.1889
 1976SOL     OW17389   2.585   3.983   6.816 -0.3339  0.3165  0.0488
 1976SOL    HW117390   2.525   4.056   6.824  1.9601  2.0731  1.2907
 1976SOL    HW217391   2.522   3.919   6.783  2.3406 -1.3840 -1.7481
 1977SOL     OW17392   1.441   3.904   7.089 -0.0688  0.1390  0.3690
 1977SOL    HW117393   1.422   3.840   7.021 -2.6389 -1.0333  2.2390
 1977SOL    HW217394   1.424   3.847   7.164  1.2943 -0.4027  0.2611
 1978SOL     OW17395   3.363   0.942  15.501  0.3168  0.5687  0.4731
 1978SOL    HW117396   3.418   1.011  15.463 -0.4199  1.0968  0.3584
 1978SOL    HW217397   3.434   0.890  15.538 -0.6438 -0.2106  1.1872
 1979SOL     OW17398   0.482   2.053   6.351  0.1769  0.3153  0.4422
 1979SOL    HW117399   0.502   2.060   6.258 -1.2353  1.2346  0.2131
 1979SOL    HW217400   0.555   2.001   6.385  1.7848  1.2473 -1.6156
 1980SOL     OW17401   4.260   0.061  13.466  0.7944 -0.5779  0.2237
 1980SOL    HW117402   4.344   0.045  13.424 -0.1489 -3.2052 -0.6417
 1980SOL    HW217403   4.283   0.139  13.517 -0.6195 -0.8490  1.2640
 1981SOL     OW17404   4.166   3.467   7.742 -0.1216  0.2249  0.2674
 1981SOL    HW117405   4.097   3.433   7.684  0.2484 -1.6231  0.8912
 1981SOL    HW217406   4.239   3.479   7.682 -2.9267 -0.4090 -3.2540
 1982SOL     OW17407   4.111   4.078   3.100 -0.1833  0.2033 -0.1389
 1982SOL    HW117408   4.137   4.157   3.052  0.5381  0.4448  0.6427
 1982SOL    HW217409   4.016   4.081   3.088  0.0427  1.8347 -1.5564
 1983SOL     OW17410   3.083   1.895   5.707  0.2879  0.3417 -0.1457
 1983SOL    HW117411   3.129   1.978   5.708  3.5214 -1.4070 -3.0373
 1983SOL    HW217412   3.001   1.926   5.668  0.4805  1.4964  0.3761
 1984SOL     OW17413   3.552   1.709  12.643 -0.3514  0.1310  0.5127
 1984SOL    HW117414   3.578   1.680  12.730  0.6398 -0.1341  0.1348
 1984SOL    HW217415   3.468   1.664  12.636  0.8953 -2.0617 -0.1454
 1985SOL     OW17416   2.411   4.425   6.722 -0.7675  0.3408  0.0684
 1985SOL    HW117417   2.403   4.349   6.780  0.8581 -0.1904 -0.4197
 1985SOL    HW217418   2.373   4.394   6.641  0.7763 -1.4743  0.0442
 1986SOL     OW17419   0.469   0.032   0.224  0.3236  0.0940 -0.1540
 1986SOL    HW117420   0.414   0.072   0.291  0.6751  0.6238 -0.1781
 1986SOL    HW217421   0.529   0.105   0.206  0.5212 -0.4179 -1.5681
 1987SOL     OW17422   0.480   2.738  16.820  0.3859  0.2561  0.1442
 1987SOL    HW117423   0.498   2.832  16.823 -3.0924  0.9389 -0.2241
 1987SOL    HW217424   0.462   2.726  16.913 -0.0817 -0.4683 -0.0339
 1988SOL     OW17425   0.133   4.364   6.205  0.7606 -0.0790 -1.0751
 1988SOL    HW117426   0.086   4.373   6.288 -0.2375  0.5713 -1.7077
 1988SOL    HW217427   0.057   4.356   6.147  2.1601 -1.3673 -2.7453
 1989SOL     OW17428   1.265   2.167   7.340  0.3640  0.6806  0.4458
 1989SOL    HW117429   1.171   2.175   7.329  0.3295 -0.6589 -0.2454
 1989SOL    HW217430   1.268   2.240   7.402 -0.5083 -0.3945  1.7552
 1990SOL     OW17431   1.783   2.871   5.420  0.3323  0.2995 -0.3097
 1990SOL    HW117432   1.795   2.814   5.343  1.5224 -1.3739  1.1189
 1990SOL    HW217433   1.869   2.849   5.456  0.1356  0.4109  0.2153
 1991SOL     OW17434   2.209   1.707   4.964  0.5115  0.0501  0.2326
 1991SOL    HW117435   2.208   1.691   4.870 -0.2452  0.4136  0.1745
 1991SOL    HW217436   2.122   1.741   4.986  0.0756 -1.8844  1.5264
 1992SOL     OW17437   3.654   2.172   7.755  0.2594 -0.3634  0.0411
 1992SOL    HW117438   3.561   2.163   7.737 -0.0112  1.4962  0.4583
 1992SOL    HW217439   3.662   2.263   7.728  1.7187 -0.5615 -0.1948
 1993SOL     OW17440   2.553   4.556   1.128  0.7832 -0.2713 -0.2743
 1993SOL    HW117441   2.534   4.555   1.222  1.1383  1.9629 -0.1691
 1993SOL    HW217442   2.537   4.650   1.114 -0.9080 -0.6874 -1.2013
 1994SOL     OW17443   2.447   3.476   6.599 -0.0928 -0.1005  0.1370
 1994SOL    HW117444   2.524   3.421   6.593 -1.0707 -1.3027 -1.3762
 1994SOL    HW217445   2.432   3.495   6.506  0.8403  1.7159  0.3582
 1995SOL     OW17446   1.288   1.927   8.048 -0.4496 -0.4107 -0.0735
 1995SOL    HW117447   1.291   2.003   7.989  2.0813  0.0433  0.6166
 1995SOL    HW217448   1.237   1.959   8.122 -0.0405 -1.8889  0.8412
 1996SOL     OW17449   0.021   4.338   2.186 -0.2285 -0.0085  0.1795
 1996SOL    HW117450   0.038   4.363   2.277  0.1733 -0.6076  0.2713
 1996SOL    HW217451   4.703   4.417   2.154  0.2382  0.0510 -0.2765
 1997SOL     OW17452   3.284   2.921  13.145 -0.3892  0.3365 -0.3038
 1997SOL    HW117453   3.212   2.859  13.159  0.8867 -1.0213  0.1923
 1997SOL    HW217454   3.254   3.001  13.188  3.1807  0.0664  2.7060
 1998SOL     OW17455   0.351   0.299  17.681 -0.0459  0.5859 -0.3181
 1998SOL    HW117456   0.276   0.345   0.020 -0.6827 -0.4992 -0.2579
 1998SOL    HW217457   0.413   0.296   0.058 -1.7073  0.6292  1.0922
 1999SOL     OW17458   4.653   0.382   3.160  0.7429  0.1596  0.1761
 1999SOL    HW117459   4.569   0.368   3.118  1.6205 -2.0364 -0.8355
 1999SOL    HW217460   4.723   0.372   3.095  0.1527 -1.0942 -0.2589
 2000SOL     OW17461   3.287   0.446  13.100 -0.0608  0.0242  0.0731
 2000SOL    HW117462   3.227   0.378  13.067  1.0036 -0.3794 -1.0330
 2000SOL    HW217463   3.260   0.526  13.055 -0.1653  0.7581  1.4609
 2001SOL     OW17464   0.221   0.828  14.908 -0.2652 -0.1973 -0.3021
 2001SOL    HW117465   0.208   0.772  14.985 -0.2252 -1.3314 -1.1177
 2001SOL    HW217466   0.132   0.810  14.877  1.7189 -1.5773 -5.2608
 2002SOL     OW17467   2.974   0.353   0.628 -0.2252  0.3853 -0.6134
 2002SOL    HW117468   3.033   0.391   0.563  1.6608 -2.0034 -0.3161
 2002SOL    HW217469   2.925   0.281   0.589 -0.4573  1.1963 -1.8169
 2003SOL     OW17470   3.529   1.244   5.076  0.3314  0.6097 -0.2967
 2003SOL    HW117471   3.508   1.336   5.058  2.6037  1.0576 -0.6040
 2003SOL    HW217472   3.443   1.204   5.063  1.3761 -1.0368 -2.0986
 2004SOL     OW17473   0.328   4.623   8.850 -0.2380 -0.0008  0.1099
 2004SOL    HW117474   0.265   4.584   8.788  0.8762 -0.4237 -0.7513
 2004SOL    HW217475   0.302   4.714   8.834 -0.5463  0.1838  1.6619
 2005SOL     OW17476   0.581   4.720   6.853 -0.4147  0.4584 -0.3364
 2005SOL    HW117477   0.617   4.661   6.786  2.8891  0.8646  1.1047
 2005SOL    HW217478   0.610   4.666   6.926 -1.5123 -1.3048 -1.1895
 2006SOL     OW17479   1.129   2.050   8.821  0.0493 -0.0945  0.0352
 2006SOL    HW117480   1.187   2.125   8.827  1.4924 -1.0943 -1.4987
 2006SOL    HW217481   1.041   2.088   8.811  1.2837  2.5278 -0.9349
 2007SOL     OW17482   4.451   1.964   7.887 -0.3034  0.2291  0.2264
 2007SOL    HW117483   4.417   1.881   7.919 -0.9559  0.3936 -0.0202
 2007SOL    HW217484   4.413   2.036   7.937 -2.2378  0.8388 -2.0821
 2008SOL     OW17485   0.820   1.420   3.778  0.1461  0.0105  0.2275
 2008SOL    HW117486   0.850   1.378   3.859 -0.6302 -0.7291  0.1263
 2008SOL    HW217487   0.781   1.503   3.804 -0.4050  0.2241 -1.2833
 2009SOL     OW17488   2.906   0.569   4.241 -0.0660 -0.3804  0.8981
 2009SOL    HW117489   2.898   0.606   4.329 -1.5691  1.5594 -0.0459
 2009SOL    HW217490   2.943   0.648   4.203  1.5924 -1.6313 -0.0905
 2010SOL     OW17491   3.367   4.035   3.018  0.1641 -0.0823 -0.7435
 2010SOL    HW117492   3.308   4.018   2.945 -3.6694  0.0663  2.3666
 2010SOL    HW217493   3.419   3.955   3.017  3.5832  2.1313 -0.1982
 2011SOL     OW17494   2.515   1.372  13.058 -0.4012  0.0139 -0.3936
 2011SOL    HW117495   2.542   1.333  13.141 -1.5755  2.3318  1.0605
 2011SOL    HW217496   2.492   1.459  13.091 -1.9264 -0.2146 -0.8707
 2012SOL     OW17497   3.710   4.337  11.773  0.0883  0.2345  0.3491
 2012SOL    HW117498   3.717   4.287  11.692 -3.5005 -0.7999  0.6399
 2012SOL    HW217499   3.621   4.308  11.793 -0.9367  3.0097 -0.2034
 2013SOL     OW17500   0.229   2.380  16.431 -0.2196 -0.1558  0.2896
 2013SOL    HW117501   0.134   2.390  16.417  0.0098 -0.7895 -1.7197
 2013SOL    HW217502   0.235   2.288  16.456  1.4693 -0.3910 -1.0008
 2014SOL     OW17503   3.697   0.051   8.996  0.5012  0.0090 -0.1429
 2014SOL    HW117504   3.658   0.136   9.018 -1.3216 -1.6549  3.0611
 2014SOL    HW217505   3.731   0.065   8.908  1.2368 -0.5050  0.0613
 2015SOL     OW17506   2.307   3.280   1.408  0.5860 -0.3318  0.2098
 2015SOL    HW117507   2.327   3.360   1.459  1.3204 -0.3279 -0.0788
 2015SOL    HW217508   2.324   3.211   1.472  1.1195 -1.1586 -0.8255
 2016SOL     OW17509   3.290   2.986  12.859  0.3982  0.8779  0.1206
 2016SOL    HW117510   3.284   3.016  12.950  0.8067 -0.5229  0.5984
 2016SOL    HW217511   3.355   3.051  12.832  1.6745 -1.6926 -2.8529
 2017SOL     OW17512   2.757   3.360  16.533  0.5016  0.2335  0.7947
 2017SOL    HW117513   2.755   3.399  16.620  1.2900 -2.5223  2.0577
 2017SOL    HW217514   2.791   3.437  16.489  0.6418 -0.9161 -1.0881
 2018SOL     OW17515   2.902   1.976  15.488  0.1668  0.8354  0.4309
 2018SOL    HW117516   2.835   1.923  15.444  0.1922  1.5691 -0.4920
 2018SOL    HW217517   2.984   1.934  15.461  1.6597  2.9062  1.7849
 2019SOL     OW17518   3.735   1.086   8.852 -0.1758 -0.2147 -0.1361
 2019SOL    HW117519   3.674   1.129   8.911  0.9476 -0.0553  0.9233
 2019SOL    HW217520   3.731   0.999   8.892 -1.0945 -0.2893 -0.3985
 2020SOL     OW17521   2.145   3.272   4.730 -0.1597  0.2749  0.0552
 2020SOL    HW117522   2.210   3.212   4.766 -0.1957  0.1756 -0.0451
 2020SOL    HW217523   2.119   3.217   4.656 -1.3067  1.1689 -0.2122
 2021SOL     OW17524   2.240   3.366   6.728 -0.2977  0.2333  0.7593
 2021SOL    HW117525   2.191   3.446   6.708  0.2040  0.0317 -1.3459
 2021SOL    HW217526   2.317   3.390   6.676  1.8144 -1.6655  3.0363
 2022SOL     OW17527   1.469   1.442   5.316  0.3070 -0.2729  0.1514
 2022SOL    HW117528   1.422   1.385   5.377 -0.7027 -0.0785 -0.4359
 2022SOL    HW217529   1.409   1.446   5.242 -1.3255  1.0206  1.5369
 2023SOL     OW17530   3.241   2.715  12.896 -0.0209  0.5491  0.0740
 2023SOL    HW117531   3.248   2.802  12.856  0.4890  0.5178  0.0986
 2023SOL    HW217532   3.249   2.735  12.989 -2.3422  1.0577  0.1688
 2024SOL     OW17533   1.145   3.333   9.410  0.5305 -0.0045  0.3812
 2024SOL    HW117534   1.206   3.273   9.366  0.3782 -0.8673  1.3366
 2024SOL    HW217535   1.181   3.416   9.378 -0.2685 -0.1720 -0.9113
 2025SOL     OW17536   2.960   4.143   7.308 -0.0583  0.1292 -0.6228
 2025SOL    HW117537   2.901   4.175   7.376 -1.0874  0.6869 -1.7820
 2025SOL    HW217538   2.908   4.074   7.265  0.3366  0.7912 -2.1532
 2026SOL     OW17539   0.764   3.863   6.955  0.4411  0.0018  0.1134
 2026SOL    HW117540   0.733   3.832   7.040 -0.5670 -1.4367 -0.7791
 2026SOL    HW217541   0.681   3.880   6.908  0.8464 -0.6155 -0.8271
 2027SOL     OW17542   3.383   3.770  16.711  0.0367  0.5582  0.0664
 2027SOL    HW117543   3.351   3.687  16.747  2.0351 -0.4071 -0.3347
 2027SOL    HW217544   3.404   3.742  16.622 -0.3948  0.5101 -0.0211
 2028SOL     OW17545   2.016   0.557  12.638  0.4753  0.3445  0.6133
 2028SOL    HW117546   2.089   0.513  12.681  2.8706  1.3001 -2.5021
 2028SOL    HW217547   1.949   0.554  12.706  1.2352  1.4576  1.4108
 2029SOL     OW17548   1.617   4.142   4.046 -0.1114  0.1455  0.2082
 2029SOL    HW117549   1.583   4.151   3.957 -2.4393  1.9632  1.2798
 2029SOL    HW217550   1.554   4.080   4.083 -1.0836 -0.0888 -1.8064
 2030SOL     OW17551   3.183   4.654   9.030  0.4444  0.2245  0.2701
 2030SOL    HW117552   3.115   4.697   8.978  1.7021  2.1111  0.1804
 2030SOL    HW217553   3.250   4.678   8.965  1.9359 -0.9415  1.3585
 2031SOL     OW17554   4.687   0.458   5.936  0.6395 -0.3175  0.1870
 2031SOL    HW117555   4.640   0.529   5.895  0.6719 -1.3275 -1.6018
 2031SOL    HW217556   0.044   0.496   5.971  0.9054 -1.3974  0.7603
 2032SOL     OW17557   3.465   3.288  16.713  0.0801  0.2318  0.2266
 2032SOL    HW117558   3.447   3.226  16.783 -1.7483  0.9486  0.3900
 2032SOL    HW217559   3.469   3.233  16.635  0.6379 -1.4556  1.4507
 2033SOL     OW17560   2.906   0.938   4.480 -0.6425  0.2902  0.1507
 2033SOL    HW117561   2.958   0.912   4.557 -0.7339  0.9952  0.4531
 2033SOL    HW217562   2.862   0.855   4.463  0.5396 -0.2064 -0.4684
 2034SOL     OW17563   2.832   1.050   2.883 -0.0196  0.0142 -0.1745
 2034SOL    HW117564   2.805   1.077   2.796  2.1028 -0.0921 -0.8710
 2034SOL    HW217565   2.915   1.094   2.905  1.5400 -2.7353 -0.5496
 2035SOL     OW17566   1.787   2.993   7.566 -0.1127  0.1266  0.4261
 2035SOL    HW117567   1.776   3.080   7.606 -3.0831  0.3109 -0.8124
 2035SOL    HW217568   1.819   2.943   7.641 -2.1249 -1.6646  0.0616
 2036SOL     OW17569   1.984   0.401   4.673  0.1622 -0.0257  0.0847
 2036SOL    HW117570   1.996   0.487   4.633  1.0219 -0.4083 -0.4935
 2036SOL    HW217571   2.070   0.390   4.713  0.6257  1.9269 -0.4073
 2037SOL     OW17572   2.759   3.202  12.641  0.3742  0.2749  0.3087
 2037SOL    HW117573   2.825   3.202  12.572 -2.1555  0.6189 -2.1126
 2037SOL    HW217574   2.817   3.234  12.711 -0.2854  2.5845 -0.1991
 2038SOL     OW17575   1.973   3.882  17.651 -0.3237 -0.5820 -0.1803
 2038SOL    HW117576   1.982   3.975  17.632 -0.9614 -0.8297 -1.7378
 2038SOL    HW217577   1.888   3.857  17.613 -0.3528 -0.5777 -0.1185
 2039SOL     OW17578   1.290   4.491  17.511 -0.3803 -0.3500 -0.3195
 2039SOL    HW117579   1.264   4.414  17.562  0.8288 -0.9758 -0.6419
 2039SOL    HW217580   1.219   4.553  17.523  0.7801  1.3738 -2.3053
 2040SOL     OW17581   4.411   3.649   1.300 -0.5946 -0.0299  0.7475
 2040SOL    HW117582   4.434   3.661   1.207 -1.3035 -0.5222  0.5132
 2040SOL    HW217583   4.500   3.649   1.335 -0.4306 -0.3805  0.3296
 2041SOL     OW17584   3.134   4.025  12.582  0.5866  1.0587 -0.6670
 2041SOL    HW117585   3.147   4.010  12.488  0.0350 -2.8772 -0.1026
 2041SOL    HW217586   3.096   3.941  12.607 -0.0513  1.6641  0.4216
 2042SOL     OW17587   3.675   1.991   9.696  0.3249 -0.0479 -0.1698
 2042SOL    HW117588   3.722   1.978   9.778  1.1022  0.0849 -0.5937
 2042SOL    HW217589   3.706   1.907   9.662  0.5567  0.1808 -0.5302
 2043SOL     OW17590   1.367   0.919   2.033 -0.2447  0.3736 -0.1414
 2043SOL    HW117591   1.349   0.867   2.112 -0.6804  2.1665  0.9362
 2043SOL    HW217592   1.336   0.856   1.968  1.8858 -0.3112 -0.4939
 2044SOL     OW17593   0.902   4.425   5.913  0.1367 -0.2456 -0.6939
 2044SOL    HW117594   0.873   4.359   5.976  2.5972 -1.0838 -0.4324
 2044SOL    HW217595   0.839   4.400   5.844 -0.7986  0.4076 -0.0728
 2045SOL     OW17596   4.338   1.495   5.421 -0.2083  0.5262 -0.2190
 2045SOL    HW117597   4.348   1.464   5.511 -0.7100 -1.5844 -0.9108
 2045SOL    HW217598   4.297   1.578   5.446 -2.2608 -0.5215 -0.0908
 2046SOL     OW17599   1.622   4.376   7.859 -0.0915  0.1372 -0.1959
 2046SOL    HW117600   1.574   4.444   7.810 -1.7672  0.5338  1.9824
 2046SOL    HW217601   1.632   4.318   7.783  3.3041 -2.2866  2.1481
 2047SOL     OW17602   3.095   0.556  10.843 -0.2831 -0.0916 -0.5136
 2047SOL    HW117603   3.120   0.486  10.783 -0.5066 -2.1258  1.7591
 2047SOL    HW217604   3.161   0.556  10.912  0.4203 -0.5185 -1.1894
 2048SOL     OW17605   2.967   1.819  17.232  0.1770 -0.5287  0.1222
 2048SOL    HW117606   2.944   1.873  17.308 -1.1865  1.3052 -1.5990
 2048SOL    HW217607   2.999   1.879  17.164  1.5118 -1.2263  0.1288
 2049SOL     OW17608   1.865   3.135   9.640 -0.3139 -0.0825  0.5105
 2049SOL    HW117609   1.903   3.083   9.570  0.8665 -0.1281  1.1802
 2049SOL    HW217610   1.839   3.208   9.584 -2.1014 -1.2882 -0.2126
 2050SOL     OW17611   0.897   1.667   8.577 -0.3853 -0.4009 -0.1907
 2050SOL    HW117612   0.988   1.669   8.605  0.2511 -1.0382 -2.2110
 2050SOL    HW217613   0.863   1.593   8.627  2.9587 -2.4298 -0.9358
 2051SOL     OW17614   3.785   4.387   4.235  0.4324 -0.1156 -0.2001
 2051SOL    HW117615   3.697   4.380   4.273  1.1388  1.2003  1.6843
 2051SOL    HW217616   3.817   4.468   4.275 -0.2980  0.4052 -0.6632
 2052SOL     OW17617   3.688   3.491   1.725 -0.2321 -0.3272  0.3107
 2052SOL    HW117618   3.759   3.473   1.786  0.1993  3.3635  0.8905
 2052SOL    HW217619   3.645   3.552   1.785 -1.9836 -1.2804  0.0032
 2053SOL     OW17620   0.577   1.484   2.556  0.1250 -0.5844  0.4589
 2053SOL    HW117621   0.610   1.418   2.618 -0.0719 -0.3037  0.8635
 2053SOL    HW217622   0.638   1.481   2.483  1.5789  0.8452  1.6381
 2054SOL     OW17623   1.873   4.480   5.050  0.1666 -0.1257 -0.3824
 2054SOL    HW117624   1.801   4.470   5.112 -1.0073 -0.1933 -1.7596
 2054SOL    HW217625   1.933   4.407   5.069 -1.8619 -0.6654  3.8268
 2055SOL     OW17626   4.338   3.778   6.048 -0.2329  0.4779 -0.3094
 2055SOL    HW117627   4.356   3.685   6.060 -4.5518 -0.4733 -1.0217
 2055SOL    HW217628   4.402   3.817   5.989 -0.0940  0.3811 -0.2211
 2056SOL     OW17629   2.200   1.263   3.103 -0.4111 -0.4031 -0.3946
 2056SOL    HW117630   2.112   1.256   3.139  0.8499 -0.0032  2.7244
 2056SOL    HW217631   2.232   1.343   3.145 -0.8043 -1.1616  1.3698
 2057SOL     OW17632   1.527   0.997  13.564  0.0353 -0.2804  0.1421
 2057SOL    HW117633   1.575   0.915  13.566 -1.0219 -0.8944  0.1123
 2057SOL    HW217634   1.462   0.985  13.633  0.0552  0.2177  0.2501
 2058SOL     OW17635   2.596   3.903   8.577  0.0520 -0.0538 -0.2030
 2058SOL    HW117636   2.502   3.906   8.562 -0.0323  0.7175  0.4749
 2058SOL    HW217637   2.602   3.827   8.634  2.4099 -1.1210 -1.8549
 2059SOL     OW17638   3.818   0.895   2.466  0.2528 -0.4691 -0.3383
 2059SOL    HW117639   3.835   0.922   2.376  1.2894  1.1455  0.3518
 2059SOL    HW217640   3.857   0.808   2.466 -2.9591 -1.9476 -3.8828
 2060SOL     OW17641   1.327   1.786  15.790  0.1352 -0.6839  0.1860
 2060SOL    HW117642   1.281   1.778  15.706  0.4224  1.5219 -0.1701
 2060SOL    HW217643   1.282   1.716  15.838  1.2476  0.0265  2.2534
 2061SOL     OW17644   0.786   2.105  15.081 -0.5686  0.2117 -0.1968
 2061SOL    HW117645   0.849   2.173  15.059 -0.6761 -0.6151 -3.0785
 2061SOL    HW217646   0.847   2.036  15.108 -0.3506  0.2588 -0.5663
 2062SOL     OW17647   3.052   0.499   3.732 -0.2205 -0.1897 -0.0532
 2062SOL    HW117648   2.970   0.451   3.729  0.1149 -0.7378 -0.4074
 2062SOL    HW217649   3.067   0.495   3.826 -0.6387 -0.9867 -0.0247
 2063SOL     OW17650   2.383   4.311   5.953  0.0525 -0.1145  0.0728
 2063SOL    HW117651   2.432   4.391   5.974 -1.6354  0.4935  1.6495
 2063SOL    HW217652   2.308   4.356   5.915  0.0481  0.3330  0.6132
 2064SOL     OW17653   3.556   0.994   4.543 -0.6098  0.3364 -0.5493
 2064SOL    HW117654   3.561   0.919   4.603  2.0512  0.9461 -0.0272
 2064SOL    HW217655   3.640   0.991   4.499 -0.8678 -2.9287 -0.8042
 2065SOL     OW17656   4.517   1.379   6.191  0.0057 -0.1422 -0.2778
 2065SOL    HW117657   4.519   1.470   6.163 -1.0914  0.4432  1.5063
 2065SOL    HW217658   4.556   1.394   6.277  1.7607 -1.2056 -0.8836
 2066SOL     OW17659   3.917   4.091   1.047  0.2885  0.7793  0.0578
 2066SOL    HW117660   3.977   4.090   0.973 -0.0217 -0.9466 -0.1808
 2066SOL    HW217661   3.967   4.037   1.108  0.7972 -0.7434 -1.6908
 2067SOL     OW17662   0.058   2.103   2.754 -0.0369 -0.3246  0.7364
 2067SOL    HW117663   4.696   2.061   2.766 -0.2256 -0.3544 -0.7628
 2067SOL    HW217664   0.073   2.135   2.843  0.3895  2.1396 -0.2228
 2068SOL     OW17665   0.353   4.231   6.945  0.2389 -0.4684 -0.5204
 2068SOL    HW117666   0.439   4.246   6.906  0.9324  0.9575  1.5265
 2068SOL    HW217667   0.346   4.136   6.938 -2.4497 -0.1923 -1.4823
 2069SOL     OW17668   1.894   4.708  16.429  0.3873 -0.6561 -0.3762
 2069SOL    HW117669   1.815   0.004  16.480  0.5816  0.7297 -0.6286
 2069SOL    HW217670   1.865   4.637  16.372  0.4785 -1.1644  0.2087
 2070SOL     OW17671   1.154   2.964   1.765  0.3558  0.1523  0.1787
 2070SOL    HW117672   1.182   3.056   1.758  2.0761 -0.4137 -0.5247
 2070SOL    HW217673   1.098   2.959   1.842  0.6029 -0.5026  0.3161
 2071SOL     OW17674   2.554   0.674   9.090  0.4637 -0.3376  0.0944
 2071SOL    HW117675   2.617   0.629   9.148 -2.7019 -2.0776  2.1869
 2071SOL    HW217676   2.475   0.679   9.143  0.6680  1.0685  0.2640
 2072SOL     OW17677   0.853   2.883   0.145 -0.1117 -0.1161  0.2031
 2072SOL    HW117678   0.937   2.924   0.127  1.7586 -3.0923  2.2788
 2072SOL    HW217679   0.822   2.951   0.206  2.7909  0.2920  1.2392
 2073SOL     OW17680   3.967   2.928   5.822  0.0182 -0.0690  0.1281
 2073SOL    HW117681   4.042   2.928   5.881  0.2702 -3.9507 -0.1951
 2073SOL    HW217682   3.914   2.858   5.858  1.3373 -1.6758 -1.0512
 2074SOL     OW17683   4.133   1.394   1.942  0.4113 -0.0998  0.3487
 2074SOL    HW117684   4.181   1.431   2.017  0.8763  0.3626 -0.1745
 2074SOL    HW217685   4.089   1.476   1.919  1.5121 -0.0357 -1.5457
 2075SOL     OW17686   0.414   1.360   9.756 -0.0623  0.4281 -1.1373
 2075SOL    HW117687   0.461   1.425   9.807  0.9701 -0.2405 -1.2348
 2075SOL    HW217688   0.360   1.313   9.820  0.6278  1.0335 -0.1150
 2076SOL     OW17689   0.081   2.998   5.808  0.8726  0.4859 -0.1224
 2076SOL    HW117690   0.125   3.081   5.792  0.2202  1.0860  1.1723
 2076SOL    HW217691   0.074   2.960   5.720  0.9864  0.1038  0.0305
 2077SOL     OW17692   1.895   0.251   5.355 -0.2983  0.1522  0.1332
 2077SOL    HW117693   1.875   0.309   5.282  1.4962  1.9328  1.0354
 2077SOL    HW217694   1.981   0.283   5.383 -0.1819  0.3509 -0.4474
 2078SOL     OW17695   1.681   2.066  14.070  0.1866 -0.4896  0.5752
 2078SOL    HW117696   1.719   2.146  14.105 -1.6167  0.5481  0.1627
 2078SOL    HW217697   1.680   2.077  13.975 -0.2188 -1.1113  0.5089
 2079SOL     OW17698   1.166   3.918   4.299 -0.4999 -0.6381  0.1836
 2079SOL    HW117699   1.116   3.990   4.338 -0.2405 -0.5800  0.4112
 2079SOL    HW217700   1.127   3.840   4.339  0.6075 -1.0782  0.3893
 2080SOL     OW17701   0.276   0.612  11.186  0.7038  0.8899  0.0975
 2080SOL    HW117702   0.216   0.615  11.112 -0.9428 -0.6872  1.3450
 2080SOL    HW217703   0.339   0.548  11.153 -0.1378 -0.4686  1.1275
 2081SOL     OW17704   4.664   1.868   7.364  0.3644  0.5602 -0.8046
 2081SOL    HW117705   4.686   1.869   7.457 -1.8547  0.5252 -0.2726
 2081SOL    HW217706   4.691   1.959   7.350  0.9658  0.5811  0.4831
 2082SOL     OW17707   3.111   3.822  10.966  0.7799 -0.0870 -0.4923
 2082SOL    HW117708   3.091   3.744  11.017  1.9752  0.7573  1.2795
 2082SOL    HW217709   3.059   3.805  10.888 -0.3608 -0.0633  0.2507
 2083SOL     OW17710   3.806   0.672  13.049  0.2037 -0.2390  0.3650
 2083SOL    HW117711   3.793   0.676  12.954 -3.0291 -0.7053  0.7758
 2083SOL    HW217712   3.840   0.760  13.067 -1.2401  0.1415  1.2722
 2084SOL     OW17713   2.286   4.416  13.363 -0.0296  0.0589  0.3899
 2084SOL    HW117714   2.291   4.474  13.439 -1.6478 -0.0202  0.5405
 2084SOL    HW217715   2.346   4.457  13.301 -0.0057  1.2082  1.1691
 2085SOL     OW17716   1.506   4.391   5.490  0.0620 -0.2057  0.2990
 2085SOL    HW117717   1.561   4.464   5.461 -0.3729 -0.7717 -1.9899
 2085SOL    HW217718   1.467   4.427   5.570  1.0793 -1.3317  1.2968
 2086SOL     OW17719   2.081   3.684   6.383  0.0112  0.4825 -0.4080
 2086SOL    HW117720   2.089   3.634   6.302  1.5714  1.6197 -0.9575
 2086SOL    HW217721   2.154   3.745   6.368  0.0054  0.8347  0.9850
 2087SOL     OW17722   1.387   0.711   8.319  0.1658 -0.5278 -0.2986
 2087SOL    HW117723   1.319   0.778   8.307 -0.7146 -1.3529  0.0505
 2087SOL    HW217724   1.452   0.735   8.253 -0.3327  0.2270 -0.5256
 2088SOL     OW17725   2.589   2.850   2.573 -0.3122 -0.4150  0.0473
 2088SOL    HW117726   2.625   2.905   2.643  0.6840 -0.9826 -0.0200
 2088SOL    HW217727   2.648   2.845   2.498  0.9843  2.4297  0.8741
 2089SOL     OW17728   2.432   1.563  11.268 -0.7091  0.1835 -0.4273
 2089SOL    HW117729   2.507   1.504  11.269 -2.0455 -1.5154 -1.1363
 2089SOL    HW217730   2.429   1.594  11.359  0.1069  1.9547 -1.0152
 2090SOL     OW17731   0.604   2.015   8.722  0.6313 -0.3740 -0.4392
 2090SOL    HW117732   0.674   1.993   8.661  0.3264  0.1148 -0.9650
 2090SOL    HW217733   0.558   2.089   8.682 -0.5432  0.3255  2.1738
 2091SOL     OW17734   4.437   2.032   3.918  0.2133  0.3220 -0.6852
 2091SOL    HW117735   4.364   1.984   3.957  1.0524 -1.7016 -1.5976
 2091SOL    HW217736   4.402   2.110   3.874  2.3781  1.1620 -0.9629
 2092SOL     OW17737   3.902   3.096   4.016  0.3049  0.0903  0.8736
 2092SOL    HW117738   3.916   3.171   4.073  0.1598  0.3984  0.5054
 2092SOL    HW217739   3.807   3.087   4.020  0.4313 -1.5026  0.2105
 2093SOL     OW17740   1.273   1.345   8.633 -0.0507 -0.1664 -0.6235
 2093SOL    HW117741   1.255   1.388   8.550 -1.0623  0.1333 -0.2495
 2093SOL    HW217742   1.346   1.403   8.656 -0.9744 -0.0188  1.9083
 2094SOL     OW17743   1.462   1.494   7.333  0.2260 -0.5749 -0.5661
 2094SOL    HW117744   1.449   1.421   7.394  0.3136  0.5960  0.8504
 2094SOL    HW217745   1.553   1.515   7.355  0.9705 -0.2160 -4.0454
 2095SOL     OW17746   4.586   2.622   7.178  0.1238 -0.4760  0.1736
 2095SOL    HW117747   4.575   2.692   7.243 -0.4473 -0.4080  0.0049
 2095SOL    HW217748   4.675   2.640   7.148 -0.3762  1.2162 -0.2880
 2096SOL     OW17749   1.577   0.371  11.017  0.0656  0.2783 -0.0021
 2096SOL    HW117750   1.618   0.285  11.013  0.6161  0.5462 -0.1453
 2096SOL    HW217751   1.596   0.408  11.103  0.6550  0.8428 -0.3686
 2097SOL     OW17752   4.298   2.540  16.021  0.2145  0.0333 -0.6184
 2097SOL    HW117753   4.244   2.586  16.085  0.2678  1.1353 -1.3675
 2097SOL    HW217754   4.327   2.610  15.963 -1.1242  1.9930  1.0896
 2098SOL     OW17755   0.777   0.550   1.307 -0.3585 -0.2711  0.4538
 2098SOL    HW117756   0.786   0.587   1.395  1.2593  0.2503  0.0658
 2098SOL    HW217757   0.852   0.490   1.312 -0.2595 -0.2913 -1.1487
 2099SOL     OW17758   4.476   4.705  10.648 -0.9037 -0.0439 -0.9988
 2099SOL    HW117759   4.434   0.059  10.683 -1.1540 -0.7808  0.3202
 2099SOL    HW217760   4.563   0.017  10.626 -0.5264  0.5460  1.5053
 2100SOL     OW17761   3.197   4.540   8.460 -1.0955 -0.5601 -0.4145
 2100SOL    HW117762   3.264   4.535   8.528 -0.4530 -0.5933 -1.0496
 2100SOL    HW217763   3.226   4.619   8.415 -1.5187  0.9756  1.9839
 2101SOL     OW17764   2.727   3.703   2.468  0.3963  0.3154  0.2170
 2101SOL    HW117765   2.682   3.767   2.523 -1.8678  0.0619 -1.3640
 2101SOL    HW217766   2.818   3.716   2.495 -0.3349  4.2170  0.8645
 2102SOL     OW17767   0.087   1.905   9.328  0.3887 -0.3903  0.1328
 2102SOL    HW117768   0.094   1.942   9.416  1.3309  0.1514 -0.1696
 2102SOL    HW217769   0.134   1.972   9.279  1.6078 -1.1361  0.2641
 2103SOL     OW17770   3.612   4.647   7.219  0.1674  0.0708 -0.2048
 2103SOL    HW117771   3.687   4.638   7.159  0.0319 -0.6821 -0.2543
 2103SOL    HW217772   3.620   4.559   7.254  3.1296 -1.2447 -4.1651
 2104SOL     OW17773   3.257   1.315   8.781 -0.1377 -0.7045  0.1579
 2104SOL    HW117774   3.201   1.361   8.843  1.2159 -3.1381  3.2362
 2104SOL    HW217775   3.293   1.241   8.831 -0.4391  0.7904  2.5943
 2105SOL     OW17776   3.060   3.480   2.950 -0.2047  0.5737 -0.1397
 2105SOL    HW117777   3.017   3.467   2.866 -1.0434 -1.3969  0.6129
 2105SOL    HW217778   3.104   3.563   2.930  1.3948 -0.0911  0.5869
 2106SOL     OW17779   0.568   0.765  16.318 -0.2009  0.3294 -0.2061
 2106SOL    HW117780   0.557   0.671  16.305 -0.4171  0.2573  0.4997
 2106SOL    HW217781   0.510   0.791  16.247  0.2369  0.4471 -0.5208
 2107SOL     OW17782   2.267   2.251   2.871  0.5356  0.7035  0.2229
 2107SOL    HW117783   2.245   2.251   2.778 -2.1307 -3.5336  0.8350
 2107SOL    HW217784   2.344   2.306   2.882  0.7133  0.4127  0.4188
 2108SOL     OW17785   2.915   4.692  15.100  0.1975 -0.0229  0.1746
 2108SOL    HW117786   2.823   4.684  15.125  0.3783 -0.5046  0.6759
 2108SOL    HW217787   2.918   0.064  15.095 -2.0746  0.1379  1.9578
 2109SOL     OW17788   4.600   3.933   2.930 -0.3872 -0.3189  0.6561
 2109SOL    HW117789   4.516   3.947   2.974 -0.1636  1.5396  0.5137
 2109SOL    HW217790   4.648   4.001   2.978  0.6733 -1.2463  0.9106
 2110SOL     OW17791   0.292   1.643   3.102 -0.4492  0.0311  0.0103
 2110SOL    HW117792   0.263   1.585   3.172  0.2132  1.7480  1.7104
 2110SOL    HW217793   0.230   1.716   3.102 -1.3547 -0.7320 -0.7693
 2111SOL     OW17794   4.661   3.578  16.844 -0.2355  0.5291  0.2471
 2111SOL    HW117795   4.660   3.601  16.751  1.2582 -2.0470 -0.4128
 2111SOL    HW217796   4.594   3.509  16.841  0.6127 -0.2290 -1.7957
 2112SOL     OW17797   1.623   0.251   3.579  0.6835 -0.3611  0.4635
 2112SOL    HW117798   1.635   0.340   3.544  0.0443  0.1957  1.6553
 2112SOL    HW217799   1.710   0.213   3.563  0.4981 -0.7052  0.2968
 2113SOL     OW17800   0.807   3.476   3.389  0.4695  0.2255 -0.9508
 2113SOL    HW117801   0.843   3.501   3.474 -0.1310  2.0173 -1.2372
 2113SOL    HW217802   0.754   3.402   3.420 -1.2933  2.0293  0.2865
 2114SOL     OW17803   3.847   2.974   9.678  0.5040  0.1830  0.1907
 2114SOL    HW117804   3.894   3.017   9.607 -0.5344  1.0296  0.0305
 2114SOL    HW217805   3.874   2.883   9.665 -1.5736  0.0338 -2.9160
 2115SOL     OW17806   4.228   4.334   3.966  0.0856  0.2193  0.6199
 2115SOL    HW117807   4.287   4.260   3.977  1.2399  1.0030 -0.3443
 2115SOL    HW217808   4.194   4.330   3.876 -1.8805 -2.0524  1.4404
 2116SOL     OW17809   2.470   2.527   5.496  0.1647  0.1464 -0.1286
 2116SOL    HW117810   2.384   2.538   5.457  0.5205  0.2882 -0.8722
 2116SOL    HW217811   2.474   2.431   5.488  1.3817  0.1693  0.1798
 2117SOL     OW17812   4.651   1.028  10.580 -0.1344 -0.1654 -0.2857
 2117SOL    HW117813   0.008   1.066  10.545  0.2678 -0.9353 -0.2184
 2117SOL    HW217814   4.582   1.072  10.531  0.0162 -0.4700 -0.7723
 2118SOL     OW17815   1.513   3.255  13.258  0.2794  0.2702  0.3980
 2118SOL    HW117816   1.474   3.338  13.284 -1.5961  0.0980 -1.9868
 2118SOL    HW217817   1.574   3.297  13.197 -0.1181  1.1511  0.6115
 2119SOL     OW17818   2.414   4.039   1.535  0.2416  0.0825  0.1862
 2119SOL    HW117819   2.441   4.131   1.535 -2.4553  0.8800  0.1049
 2119SOL    HW217820   2.343   4.038   1.471  1.1889 -2.2697 -0.8393
 2120SOL     OW17821   0.062   1.508  11.909  0.2172 -0.0105  0.0888
 2120SOL    HW117822   0.011   1.587  11.891 -0.8975 -0.7344  0.0449
 2120SOL    HW217823   0.096   1.488  11.822 -1.6210  1.5978 -0.9841
 2121SOL     OW17824   1.947   0.809   6.769 -0.4179  0.2976  0.0327
 2121SOL    HW117825   2.017   0.743   6.762  0.1839  1.0447 -1.0632
 2121SOL    HW217826   1.875   0.763   6.725  0.5860 -1.9482  0.7031
 2122SOL     OW17827   3.145   4.005   7.462 -0.1914 -0.6511  0.2524
 2122SOL    HW117828   3.079   4.055   7.415 -0.0580 -2.7565 -2.1698
 2122SOL    HW217829   3.089   3.962   7.526 -0.2103  0.0163  0.6879
 2123SOL     OW17830   3.131   2.539  15.528  0.1377  0.3188  0.0181
 2123SOL    HW117831   3.111   2.466  15.585  1.0749 -0.4136 -0.5873
 2123SOL    HW217832   3.094   2.612  15.577 -0.4229 -0.4076  0.6636
 2124SOL     OW17833   0.174   3.415   2.040 -0.0083 -0.2865 -0.3818
 2124SOL    HW117834   0.255   3.370   2.065 -1.4870 -1.6549  1.9412
 2124SOL    HW217835   0.194   3.494   2.090  1.3490 -0.9011  0.0683
 2125SOL     OW17836   1.720   0.276   2.709  0.3052 -0.4288  0.4431
 2125SOL    HW117837   1.692   0.338   2.776  1.5895  0.8263 -0.1947
 2125SOL    HW217838   1.803   0.322   2.694  0.4256 -0.5757  0.6525
 2126SOL     OW17839   2.457   0.430   7.163  0.0590 -0.6049 -0.2177
 2126SOL    HW117840   2.427   0.494   7.098  1.0947 -0.5911 -0.6756
 2126SOL    HW217841   2.453   0.479   7.245  3.0119  0.4218 -0.6823
 2127SOL     OW17842   1.812   1.969  16.984 -0.9023 -0.3568  0.2168
 2127SOL    HW117843   1.754   2.041  17.012 -0.9799 -0.1970 -0.3508
 2127SOL    HW217844   1.827   1.986  16.891 -0.0519 -1.8613  0.0840
 2128SOL     OW17845   3.384   2.286  10.148 -0.2778  0.2442  0.8877
 2128SOL    HW117846   3.434   2.359  10.111 -1.3355  0.2083 -0.6213
 2128SOL    HW217847   3.335   2.331  10.217 -1.1003  0.5688  0.0958
 2129SOL     OW17848   2.572   1.163  11.333 -1.0463  0.2514 -0.0471
 2129SOL    HW117849   2.497   1.181  11.390 -0.7364 -1.3127  0.8768
 2129SOL    HW217850   2.538   1.101  11.269 -0.6243  0.9726 -0.9688
 2130SOL     OW17851   1.539   3.570  10.270  0.2303 -0.5130  0.0423
 2130SOL    HW117852   1.544   3.518  10.350 -1.7434 -1.0389 -0.1643
 2130SOL    HW217853   1.599   3.643  10.278 -0.8642  0.2166  1.5409
 2131SOL     OW17854   1.718   3.548  16.773  0.6114  0.0107  0.2421
 2131SOL    HW117855   1.701   3.641  16.761 -1.5406 -0.5291 -0.8385
 2131SOL    HW217856   1.643   3.502  16.735  0.6309 -0.8056  1.1970
 2132SOL     OW17857   4.449   1.342   1.514  0.0221 -0.4088  0.2823
 2132SOL    HW117858   4.471   1.341   1.607  0.0091 -1.0669  0.2744
 2132SOL    HW217859   4.428   1.251   1.493 -1.4955 -0.5138  2.2328
 2133SOL     OW17860   2.451   3.679   0.890 -0.2533 -0.4898  0.0910
 2133SOL    HW117861   2.489   3.631   0.816 -1.8713 -2.6542  0.6504
 2133SOL    HW217862   2.405   3.742   0.836  1.3850  0.0250 -0.6718
 2134SOL     OW17863   3.319   2.115  13.670 -0.2860  0.0925  0.3217
 2134SOL    HW117864   3.346   2.198  13.631  0.1905 -0.1560  0.1401
 2134SOL    HW217865   3.273   2.075  13.597  0.6928 -0.5560  0.0638
 2135SOL     OW17866   2.510   3.452   9.322  0.1792 -0.1189  0.8777
 2135SOL    HW117867   2.466   3.530   9.357 -0.7406 -1.0596  1.8424
 2135SOL    HW217868   2.592   3.453   9.371  0.5105  0.3232  0.3093
 2136SOL     OW17869   0.536   1.421   3.182  0.0446 -0.2734  0.4958
 2136SOL    HW117870   0.563   1.418   3.090 -1.0805 -1.5160  0.2028
 2136SOL    HW217871   0.560   1.506   3.218  1.0216  0.0330 -0.8682
 2137SOL     OW17872   0.838   4.629   4.415  0.1126  0.1765 -0.4644
 2137SOL    HW117873   0.788   4.562   4.369  2.3781  0.1325 -2.8577
 2137SOL    HW217874   0.924   4.619   4.374 -1.0152 -1.0873 -2.5187
 2138SOL     OW17875   4.088   0.726   5.718  0.3228  0.0470  0.0435
 2138SOL    HW117876   4.084   0.674   5.638  2.9416  1.0358 -0.7361
 2138SOL    HW217877   4.109   0.664   5.787  0.3618  2.6795  2.4021
 2139SOL     OW17878   0.239   2.103   4.105  0.4876 -0.1577 -0.1917
 2139SOL    HW117879   0.203   2.036   4.163 -0.4687  0.7291  0.2351
 2139SOL    HW217880   0.333   2.089   4.095  0.1561  0.1078 -3.7256
 2140SOL     OW17881   3.262   3.835  12.157  0.1918  0.0202  0.8147
 2140SOL    HW117882   3.240   3.817  12.248 -2.0394  3.2557  0.8939
 2140SOL    HW217883   3.338   3.894  12.164  0.5620  0.0032 -2.8585
 2141SOL     OW17884   1.299   4.447   5.256 -0.1825 -0.0960  0.2142
 2141SOL    HW117885   1.268   4.482   5.339  0.2671 -0.2518  0.4530
 2141SOL    HW217886   1.244   4.383   5.211 -2.9170  0.7400  2.4020
 2142SOL     OW17887   2.383   1.716   4.419 -0.2605  0.1898 -0.2933
 2142SOL    HW117888   2.376   1.774   4.344 -0.7462  0.1213 -0.2955
 2142SOL    HW217889   2.460   1.754   4.462 -0.6297 -0.4232  0.9365
 2143SOL     OW17890   1.283   1.092  16.605 -0.0472 -0.2269  0.0370
 2143SOL    HW117891   1.356   1.146  16.575 -0.0816 -0.9300 -1.3036
 2143SOL    HW217892   1.300   1.002  16.576  0.6029  0.5709 -2.0442
 2144SOL     OW17893   0.114   2.450   5.110  0.2681 -0.0807  0.7685
 2144SOL    HW117894   0.107   2.544   5.093 -0.0940 -0.2470  0.0407
 2144SOL    HW217895   0.095   2.445   5.204  0.1994  0.7479  0.8026
 2145SOL     OW17896   3.515   0.726  12.949  0.4427  0.3094  0.3472
 2145SOL    HW117897   3.535   0.724  13.043 -0.5568 -2.7996  0.4983
 2145SOL    HW217898   3.420   0.736  12.944  0.5874  1.3515 -0.3796
 2146SOL     OW17899   1.441   3.829  17.466 -0.1448  0.1426  0.6062
 2146SOL    HW117900   1.346   3.824  17.476 -0.2144  0.6381  0.1515
 2146SOL    HW217901   1.453   3.915  17.504 -1.1112 -0.3718  2.0648
 2147SOL     OW17902   3.716   2.175   7.227 -0.1479 -0.0305  0.3628
 2147SOL    HW117903   3.741   2.105   7.286 -1.2087 -2.5619 -2.1856
 2147SOL    HW217904   3.621   2.173   7.233 -0.3908 -0.1483 -3.2149
 2148SOL     OW17905   4.541   0.138  11.549  0.1592 -0.3182  0.3060
 2148SOL    HW117906   4.457   0.131  11.595 -1.3734  1.4383 -2.2005
 2148SOL    HW217907   4.605   0.153  11.619  0.4674  0.9447 -0.2462
 2149SOL     OW17908   4.191   2.453   8.860  0.2408 -0.1237 -0.2099
 2149SOL    HW117909   4.200   2.548   8.845  0.5997 -0.1994 -0.4915
 2149SOL    HW217910   4.096   2.449   8.854  0.1356  1.3581  0.2567
 2150SOL     OW17911   2.927   3.021   5.497  0.2320  0.0805 -1.0270
 2150SOL    HW117912   2.989   3.052   5.431 -0.2810 -1.1230 -2.0773
 2150SOL    HW217913   2.990   2.995   5.564 -1.1086 -1.4555 -0.3671
 2151SOL     OW17914   2.207   0.418  12.743  0.5090 -0.8519 -0.2728
 2151SOL    HW117915   2.185   0.379  12.827  0.0635  0.4548  0.2236
 2151SOL    HW217916   2.287   0.458  12.778 -0.7895  1.6346 -0.1149
 2152SOL     OW17917   0.532   1.961   5.265  0.0234  0.0308 -0.0613
 2152SOL    HW117918   0.583   1.961   5.185  1.1862 -0.4988  0.6855
 2152SOL    HW217919   0.597   1.957   5.336 -1.6897  0.7002  1.5566
 2153SOL     OW17920   3.433   3.629   8.202 -1.1472  1.0469 -0.3798
 2153SOL    HW117921   3.343   3.615   8.173 -1.7090  0.8718  1.4204
 2153SOL    HW217922   3.410   3.643   8.294 -1.5622  2.1260 -0.6429
 2154SOL     OW17923   2.310   4.557   3.171 -0.0625  0.0861  0.3761
 2154SOL    HW117924   2.395   4.584   3.138  0.4909  0.0380  1.7400
 2154SOL    HW217925   2.346   4.503   3.242 -1.2263 -0.4900  0.5318
 2155SOL     OW17926   0.031   3.867   9.945 -0.5048 -0.6862  0.3833
 2155SOL    HW117927   0.004   3.876  10.037  1.6053  0.7563  0.8654
 2155SOL    HW217928   0.050   3.773   9.948  0.2066 -0.4829  2.4432
 2156SOL     OW17929   2.054   4.249  13.452  0.4237 -0.2518  0.6998
 2156SOL    HW117930   2.100   4.201  13.522  1.5337 -0.4424 -0.1578
 2156SOL    HW217931   2.116   4.320  13.436 -1.1484  0.9496  0.0057
 2157SOL     OW17932   3.567   0.643   6.783  0.1307  0.1146  0.3451
 2157SOL    HW117933   3.594   0.594   6.860  0.8222 -1.7466 -1.0936
 2157SOL    HW217934   3.644   0.640   6.726 -1.0669 -2.6082 -1.1126
 2158SOL     OW17935   3.489   3.914   5.522  0.2434  0.0898 -0.3989
 2158SOL    HW117936   3.405   3.870   5.533  1.1381 -2.1510 -2.4227
 2158SOL    HW217937   3.557   3.846   5.525 -0.5728 -0.6689  0.9993
 2159SOL     OW17938   2.951   0.379   8.513  0.1238  0.1420  0.2660
 2159SOL    HW117939   2.921   0.393   8.423  1.1209 -1.1602 -0.2642
 2159SOL    HW217940   2.906   0.445   8.566 -0.8275 -0.5197  0.2960
 2160SOL     OW17941   2.050   1.010   8.666  0.4084  0.5612  0.4393
 2160SOL    HW117942   2.095   1.092   8.643  0.5348  1.1367  2.7206
 2160SOL    HW217943   2.108   0.982   8.737 -0.9829 -2.0508  0.5145
 2161SOL     OW17944   2.999   2.787   6.116 -0.4989 -0.1967 -0.3881
 2161SOL    HW117945   3.088   2.766   6.085 -1.3159 -2.4994 -1.2060
 2161SOL    HW217946   3.026   2.800   6.207 -0.2986  1.9329 -0.7614
 2162SOL     OW17947   2.421   1.673  14.230 -0.2285  0.2620  0.3788
 2162SOL    HW117948   2.421   1.583  14.196  3.4408  1.1861 -2.0188
 2162SOL    HW217949   2.474   1.662  14.309 -2.0523 -1.5100  1.3455
 2163SOL     OW17950   4.313   0.497   4.924  0.2481  0.1057 -0.8699
 2163SOL    HW117951   4.222   0.500   4.895  0.3759 -0.3064 -1.3367
 2163SOL    HW217952   4.315   0.570   4.985  3.1472  0.2188 -1.0813
 2164SOL     OW17953   0.195   2.264   2.568  0.7158 -0.6685 -0.8758
 2164SOL    HW117954   0.277   2.290   2.610 -0.8966  0.8558  1.3477
 2164SOL    HW217955   0.161   2.193   2.622 -0.4779  2.1304  2.0662
 2165SOL     OW17956   3.770   2.045   2.505  0.0778 -0.1820  0.1187
 2165SOL    HW117957   3.861   2.072   2.493  0.1791 -0.1428  0.9404
 2165SOL    HW217958   3.729   2.125   2.474  1.3128  0.7240  0.8253
 2166SOL     OW17959   2.739   4.571  16.825  0.5709  0.1175  0.4259
 2166SOL    HW117960   2.703   4.624  16.754  0.8882  1.3844  1.2129
 2166SOL    HW217961   2.819   4.566  16.773  0.8445  1.1941  0.7532
 2167SOL     OW17962   0.009   0.411  10.790  0.3365  0.3368 -0.1912
 2167SOL    HW117963   0.045   0.464  10.862 -3.0504  2.1939  0.1321
 2167SOL    HW217964   0.074   0.341  10.784  2.8863  2.9340 -2.7371
 2168SOL     OW17965   2.320   1.479   0.870 -0.0138  0.0330  0.1135
 2168SOL    HW117966   2.362   1.409   0.821 -0.1806  0.7231 -1.0384
 2168SOL    HW217967   2.320   1.445   0.959  0.0151 -1.3808 -0.4381
 2169SOL     OW17968   0.334   4.487   4.969  0.4573  0.6791  0.7798
 2169SOL    HW117969   0.379   4.535   5.039  1.5170  0.5350  0.2062
 2169SOL    HW217970   0.270   4.445   5.027  0.5441 -0.2770  0.1945
 2170SOL     OW17971   0.000   1.629   2.603  0.4182  0.0114  0.0983
 2170SOL    HW117972   4.655   1.646   2.666  1.7327  1.8149  1.0319
 2170SOL    HW217973   0.003   1.710   2.552  1.1420 -0.0030  0.1178
 2171SOL     OW17974   4.528   0.443   8.681  0.2619  0.3699 -0.7762
 2171SOL    HW117975   4.491   0.528   8.660 -1.7302 -0.6482 -1.3323
 2171SOL    HW217976   4.493   0.395   8.606  1.5069 -2.9616  0.7538
 2172SOL     OW17977   4.626   2.353   2.674 -0.2531 -0.2995  0.0746
 2172SOL    HW117978   4.694   2.300   2.631  0.1908  0.2750  0.0779
 2172SOL    HW217979   4.677   2.433   2.676  0.8201 -1.0352  1.9032
 2173SOL     OW17980   4.050   1.987   5.486  0.1021  0.8137  0.0975
 2173SOL    HW117981   4.010   2.068   5.518 -0.6443  0.5155 -0.0700
 2173SOL    HW217982   3.977   1.924   5.489  1.7847 -1.2163 -2.3041
 2174SOL     OW17983   4.291   3.739  10.274 -0.0130 -0.2240  0.3184
 2174SOL    HW117984   4.330   3.796  10.341 -2.7133  0.3477  1.4215
 2174SOL    HW217985   4.227   3.801  10.239 -0.2033 -0.6688 -0.1243
 2175SOL     OW17986   4.643   1.662   4.596 -0.1816  0.5740  0.4692
 2175SOL    HW117987   4.655   1.569   4.576  0.5104  0.7623  0.0259
 2175SOL    HW217988   0.008   1.675   4.629 -0.6846  0.2152  1.9476
 2176SOL     OW17989   4.510   4.011   2.702  0.1111 -0.0108 -0.1820
 2176SOL    HW117990   4.523   4.010   2.796  1.7433 -0.4813 -0.4153
 2176SOL    HW217991   4.553   3.928   2.681 -0.6142 -1.0419  2.5118
 2177SOL     OW17992   0.230   2.415  14.730  0.0217 -0.1718 -0.0175
 2177SOL    HW117993   0.313   2.367  14.732  0.1065 -0.1183 -2.1064
 2177SOL    HW217994   0.183   2.353  14.674 -0.5532  1.1024 -0.9381
 2178SOL     OW17995   3.425   2.400   0.891 -0.5180  0.1167 -0.0743
 2178SOL    HW117996   3.399   2.474   0.947 -1.8802 -1.0338  0.8200
 2178SOL    HW217997   3.453   2.337   0.957 -1.4488 -1.6306 -1.3602
 2179SOL     OW17998   0.949   1.590  14.107 -0.1858 -0.5842 -0.1567
 2179SOL    HW117999   1.011   1.587  14.035  1.0006 -1.0568  0.8917
 2179SOL    HW218000   1.014   1.601  14.176  1.4421 -1.4889 -1.5535
 2180SOL     OW18001   4.612   3.642  16.572  0.4520 -0.1705  0.0051
 2180SOL    HW118002   4.555   3.717  16.587  0.3190 -0.1936 -0.3941
 2180SOL    HW218003   4.673   3.674  16.505  0.8732  1.7515  1.3220
 2181SOL     OW18004   0.245   2.365  13.729 -0.0936  0.4219 -0.0790
 2181SOL    HW118005   0.268   2.457  13.712 -3.1812  0.7669 -2.3082
 2181SOL    HW218006   0.327   2.319  13.713  0.2370  0.7311  0.7323
 2182SOL     OW18007   2.662   2.810   8.613 -0.0091  0.0548  0.2149
 2182SOL    HW118008   2.720   2.743   8.578 -2.5505 -1.9885 -0.0603
 2182SOL    HW218009   2.612   2.833   8.535  0.9875 -1.5334 -0.8891
 2183SOL     OW18010   2.823   3.676   4.868  0.5135 -0.2633  0.0106
 2183SOL    HW118011   2.822   3.594   4.818  1.6349 -0.2568 -0.0214
 2183SOL    HW218012   2.744   3.719   4.835 -0.2459 -1.1294  0.6981
 2184SOL     OW18013   4.684   2.697   5.668  0.0554 -0.0785 -0.2942
 2184SOL    HW118014   0.039   2.711   5.721  0.1403  1.4845 -0.8479
 2184SOL    HW218015   4.668   2.605   5.691  1.5448 -0.4975 -0.9481
 2185SOL     OW18016   0.264   3.460   6.088 -0.4736 -0.2579  0.9247
 2185SOL    HW118017   0.218   3.376   6.095 -1.7015  0.4697  1.5808
 2185SOL    HW218018   0.189   3.517   6.070 -0.2236 -0.1536  0.2247
 2186SOL     OW18019   3.210   3.419   2.358 -0.5046 -0.3572  0.1201
 2186SOL    HW118020   3.215   3.449   2.448  0.8616 -1.1857  0.3126
 2186SOL    HW218021   3.299   3.430   2.324 -0.6327 -2.9820 -1.0302
 2187SOL     OW18022   3.338   0.848   3.598  0.2707 -0.4687 -0.3888
 2187SOL    HW118023   3.387   0.785   3.544 -3.2377 -2.0361 -1.7586
 2187SOL    HW218024   3.252   0.806   3.598 -0.0171  0.1254 -1.2439
 2188SOL     OW18025   1.477   3.987   8.110  0.2259 -0.6488 -0.3691
 2188SOL    HW118026   1.387   3.970   8.138  0.2106  1.2201  0.7167
 2188SOL    HW218027   1.515   3.960   8.193  0.0666  1.7835  0.4922
 2189SOL     OW18028   0.954   4.212  10.716  0.1833  0.0544  0.6318
 2189SOL    HW118029   1.006   4.292  10.726 -1.0594  0.9761 -0.3935
 2189SOL    HW218030   0.976   4.184  10.628 -0.7230 -1.3488  0.8557
 2190SOL     OW18031   2.769   1.440  15.349  0.0845 -0.1158 -0.0525
 2190SOL    HW118032   2.716   1.494  15.408 -0.1560 -0.2604 -0.1368
 2190SOL    HW218033   2.813   1.500  15.288 -2.3089  3.2321  1.4776
 2191SOL     OW18034   3.514   1.366   3.136 -0.2798 -0.5642 -0.6497
 2191SOL    HW118035   3.510   1.314   3.055 -1.1930 -1.0397 -0.2988
 2191SOL    HW218036   3.505   1.451   3.092 -1.4746 -0.4623 -0.2121
 2192SOL     OW18037   2.933   2.842   3.488 -0.4054 -0.5369  0.5309
 2192SOL    HW118038   2.888   2.926   3.493 -1.2028 -0.8793 -0.8245
 2192SOL    HW218039   2.855   2.791   3.466  1.5003 -2.7862 -1.0816
 2193SOL     OW18040   1.790   2.043   3.755 -0.2002  0.1706  0.3136
 2193SOL    HW118041   1.804   2.130   3.792 -0.2628  1.2566 -2.2739
 2193SOL    HW218042   1.858   2.037   3.688 -1.3318  1.6878 -0.9504
 2194SOL     OW18043   3.437   2.364  13.632  0.1057  0.8240 -0.2833
 2194SOL    HW118044   3.501   2.432  13.606  2.9310 -1.6051  0.3165
 2194SOL    HW218045   3.355   2.396  13.594 -1.3026 -0.0838  2.0746
 2195SOL     OW18046   1.758   0.785  12.995 -0.1874 -0.2021  0.3238
 2195SOL    HW118047   1.819   0.756  13.063 -1.2002 -1.2858  0.7848
 2195SOL    HW218048   1.743   0.877  13.015  1.8993  0.0625  0.6333
 2196SOL     OW18049   3.236   3.702   6.275  1.1340 -0.1946 -0.4561
 2196SOL    HW118050   3.251   3.796   6.272  3.7379 -0.5777  0.7679
 2196SOL    HW218051   3.280   3.682   6.192 -0.0492  2.1133 -1.6606
 2197SOL     OW18052   3.228   2.611   7.810 -0.0741  0.0577  0.4453
 2197SOL    HW118053   3.149   2.663   7.822 -1.0168 -1.6252  1.4280
 2197SOL    HW218054   3.293   2.682   7.810 -0.6453  0.5785 -1.7663
 2198SOL     OW18055   3.347   3.907   2.442  0.1686  0.2365 -0.3529
 2198SOL    HW118056   3.419   3.848   2.419 -2.4611 -3.0689 -0.0292
 2198SOL    HW218057   3.360   3.902   2.537  0.9717  1.4334 -0.3880
 2199SOL     OW18058   1.702   3.100   2.116 -0.0713 -0.1921 -0.3057
 2199SOL    HW118059   1.772   3.054   2.161  0.2627  0.3189 -0.3077
 2199SOL    HW218060   1.746   3.178   2.083  1.7690 -0.6879  1.0260
 2200SOL     OW18061   3.752   1.620   1.678 -0.0044 -0.1766  0.2081
 2200SOL    HW118062   3.758   1.700   1.627  2.5673  1.7727  3.6150
 2200SOL    HW218063   3.785   1.640   1.766 -1.9868 -2.5489  1.5205
 2201SOL     OW18064   2.215   3.221   6.398 -0.4830 -0.5836  0.6585
 2201SOL    HW118065   2.205   3.127   6.381 -1.0647 -0.5636  0.8897
 2201SOL    HW218066   2.307   3.225   6.425 -0.0324  2.0324 -1.2869
 2202SOL     OW18067   1.307   2.287   4.708  0.4476  1.0898  0.5388
 2202SOL    HW118068   1.262   2.203   4.716  1.3101  0.4387 -1.3484
 2202SOL    HW218069   1.391   2.262   4.667  0.4876 -0.6560  1.6769
 2203SOL     OW18070   2.117   0.629   3.347 -0.3122 -0.3010  0.2719
 2203SOL    HW118071   2.124   0.536   3.325  1.0862  0.1470 -1.2435
 2203SOL    HW218072   2.174   0.675   3.285 -0.5626 -1.2773 -0.6777
 2204SOL     OW18073   3.299   3.938   2.118  0.5394  0.5015 -0.2372
 2204SOL    HW118074   3.210   3.935   2.153  1.6985  2.2054  2.8976
 2204SOL    HW218075   3.329   4.016   2.164  0.2592 -0.0360  0.8715
 2205SOL     OW18076   2.632   0.446  12.581 -0.2608  0.1554 -0.9392
 2205SOL    HW118077   2.599   0.360  12.554 -2.1548  0.4492  0.4932
 2205SOL    HW218078   2.711   0.418  12.627 -0.5623  0.4056 -0.2726
 2206SOL     OW18079   3.001   3.285   7.774 -0.2636 -0.4485 -0.2680
 2206SOL    HW118080   3.005   3.378   7.750 -1.7723 -0.8502 -2.0500
 2206SOL    HW218081   3.026   3.295   7.866  0.1177 -0.3813 -0.3784
 2207SOL     OW18082   4.436   0.351   2.984  0.1441  0.2076  0.3199
 2207SOL    HW118083   4.467   0.299   2.910 -0.3505  1.2208 -0.6009
 2207SOL    HW218084   4.412   0.440   2.961  3.3747  1.4289  1.6250
 2208SOL     OW18085   4.125   0.284  11.102 -0.0045  0.1105 -0.5819
 2208SOL    HW118086   4.094   0.223  11.035 -0.0822 -0.1467 -0.3124
 2208SOL    HW218087   4.073   0.361  11.082 -1.8605 -0.2037  2.9600
 2209SOL     OW18088   4.060   1.853   7.691 -0.1649 -0.8983 -0.2729
 2209SOL    HW118089   4.150   1.822   7.684  0.3980 -0.1325  3.3815
 2209SOL    HW218090   4.074   1.906   7.769 -1.2790 -2.2079  0.8310
 2210SOL     OW18091   3.679   4.158   4.730 -0.5337  0.8126  0.2936
 2210SOL    HW118092   3.685   4.088   4.665  3.6267  1.7818 -0.3412
 2210SOL    HW218093   3.711   4.236   4.685  0.2134 -0.1492 -0.8466
 2211SOL     OW18094   3.881   2.850   6.278  0.2052 -0.1377  0.0002
 2211SOL    HW118095   3.842   2.924   6.230 -1.5604 -0.6515  0.6421
 2211SOL    HW218096   3.797   2.807   6.296 -1.7945  3.7947  0.2547
 2212SOL     OW18097   0.733   3.741   6.613  0.0327 -0.3042 -0.2961
 2212SOL    HW118098   0.813   3.792   6.627 -0.8157  0.7658  0.6348
 2212SOL    HW218099   0.771   3.657   6.638  0.7935 -0.3685 -1.6500
 2213SOL     OW18100   3.394   1.782   7.309 -0.0060 -0.8067  0.4853
 2213SOL    HW118101   3.428   1.769   7.398  0.1573 -0.1282  0.5199
 2213SOL    HW218102   3.407   1.691   7.283 -1.2100 -0.7604 -0.2394
 2214SOL     OW18103   1.018   0.140   3.144  0.5573  0.0878 -0.5142
 2214SOL    HW118104   0.992   0.079   3.213  0.3678  1.3761  0.5493
 2214SOL    HW218105   1.009   0.080   3.070 -0.3856 -2.0944  1.3627
 2215SOL     OW18106   3.245   2.554   4.941 -0.0093  0.3002  0.2622
 2215SOL    HW118107   3.245   2.486   5.008  0.4394  1.1219  1.1135
 2215SOL    HW218108   3.317   2.519   4.888  0.0379 -0.6512  0.9684
 2216SOL     OW18109   0.332   2.786  14.693 -0.0610  0.4805  0.8093
 2216SOL    HW118110   0.408   2.774  14.750 -1.4329  0.1619  2.5495
 2216SOL    HW218111   0.270   2.731  14.740 -0.1723 -0.2701 -0.2231
 2217SOL     OW18112   1.233   1.154   2.698 -0.2686  0.0251 -0.2943
 2217SOL    HW118113   1.298   1.085   2.711 -1.3276 -1.1839 -1.3058
 2217SOL    HW218114   1.152   1.120   2.736  0.3900 -2.7093 -1.3534
 2218SOL     OW18115   2.046   0.344   8.310  0.1228  0.3496  0.7709
 2218SOL    HW118116   2.041   0.418   8.370 -0.3532 -0.1602  1.3510
 2218SOL    HW218117   2.117   0.365   8.249 -1.0980  0.8304 -0.4752
 2219SOL     OW18118   2.308   1.824   0.249 -0.3506  0.2630  0.4217
 2219SOL    HW118119   2.242   1.818   0.317 -1.5779  1.2028 -0.6910
 2219SOL    HW218120   2.317   1.732   0.225  0.8864  0.8612 -1.3927
 2220SOL     OW18121   0.301   2.952  17.273 -0.0559  0.2906 -0.0228
 2220SOL    HW118122   0.221   2.938  17.223 -0.4818  0.1844  0.6910
 2220SOL    HW218123   0.361   2.882  17.246  2.2537  2.3235 -0.2226
 2221SOL     OW18124   0.872   2.148   6.832 -0.0530  0.3837  0.0185
 2221SOL    HW118125   0.922   2.097   6.896  0.8002  1.2534  0.0497
 2221SOL    HW218126   0.841   2.224   6.881  2.5978  1.2526  0.3390
 2222SOL     OW18127   1.365   4.061   4.191 -0.0183  0.5691  0.0404
 2222SOL    HW118128   1.389   4.040   4.281  1.0230 -1.2597 -0.6586
 2222SOL    HW218129   1.277   4.024   4.197  0.2233 -0.1411 -0.7293
 2223SOL     OW18130   1.485   1.817   5.130 -0.4433 -0.2098 -0.3886
 2223SOL    HW118131   1.430   1.739   5.136 -0.8100 -0.1064 -2.3238
 2223SOL    HW218132   1.429   1.882   5.172  1.8962 -0.4984  3.1961
 2224SOL     OW18133   4.605   3.507  14.296 -0.4104 -0.2157  0.3285
 2224SOL    HW118134   4.689   3.553  14.299  0.4904 -1.8723  0.5514
 2224SOL    HW218135   4.554   3.548  14.227  2.2178  0.4418 -1.2008
 2225SOL     OW18136   4.262   2.636   5.623 -0.0428 -0.6154  0.1600
 2225SOL    HW118137   4.200   2.663   5.691 -1.7575  2.5182 -2.6426
 2225SOL    HW218138   4.292   2.551   5.656  2.6093  0.4490  0.4786
 2226SOL     OW18139   1.569   3.210  17.329  0.3551  0.0768  0.1661
 2226SOL    HW118140   1.646   3.159  17.352 -1.1163 -1.3705  1.9356
 2226SOL    HW218141   1.603   3.248  17.248 -1.8069  0.2785 -0.6594
 2227SOL     OW18142   3.050   2.343   4.206 -0.0325  0.2881 -0.1714
 2227SOL    HW118143   3.000   2.265   4.234 -2.6603  2.2633  0.6267
 2227SOL    HW218144   3.044   2.336   4.111  3.6413 -3.0482 -0.1505
 2228SOL     OW18145   0.801   3.129   1.901 -0.5108 -0.2333  0.2856
 2228SOL    HW118146   0.883   3.176   1.885 -0.5052 -0.7282 -1.1164
 2228SOL    HW218147   0.783   3.107   1.810 -0.4640  3.6591 -0.6557
 2229SOL     OW18148   3.959   0.514   7.307 -0.5770  0.3204 -0.1394
 2229SOL    HW118149   4.016   0.493   7.233 -1.9498 -1.3860 -0.6945
 2229SOL    HW218150   3.893   0.570   7.266  1.2675  1.9292 -0.9401
 2230SOL     OW18151   4.067   1.610   4.847 -0.4121 -0.2595 -0.5931
 2230SOL    HW118152   3.999   1.558   4.889 -0.6325 -0.5301 -1.2768
 2230SOL    HW218153   4.138   1.546   4.859 -0.1869  0.3096  1.0254
 2231SOL     OW18154   2.797   4.547   8.031  0.1210 -0.1901 -0.4359
 2231SOL    HW118155   2.859   4.578   8.097 -1.0341  0.9928  0.0808
 2231SOL    HW218156   2.713   4.544   8.077 -0.1918  0.4976 -0.9717
 2232SOL     OW18157   0.737   4.640   2.377 -0.0581  0.5844  0.3150
 2232SOL    HW118158   0.768   4.669   2.291  0.2120 -0.1052  0.1799
 2232SOL    HW218159   0.791   4.563   2.394 -2.2707 -0.6971  1.5073
 2233SOL     OW18160   3.276   1.257   3.429 -0.4697 -0.4737  0.3466
 2233SOL    HW118161   3.258   1.212   3.346 -1.5250  0.2002  0.2073
 2233SOL    HW218162   3.203   1.240   3.489  0.5750  1.4281  2.1353
 2234SOL     OW18163   1.282   0.448   5.509 -0.1488  0.4478  0.0193
 2234SOL    HW118164   1.364   0.494   5.490 -0.2025  0.8516  0.7796
 2234SOL    HW218165   1.312   0.357   5.502 -1.4845  0.2856 -3.3780
 2235SOL     OW18166   2.030   0.596   0.095 -0.9814 -0.0760 -0.0412
 2235SOL    HW118167   2.028   0.677   0.045  1.6166 -0.6503 -1.0608
 2235SOL    HW218168   2.125   0.585   0.105 -1.0458 -0.1354  0.4999
 2236SOL     OW18169   0.858   2.523  14.765  0.2163 -0.9929 -0.4554
 2236SOL    HW118170   0.821   2.570  14.690  1.7986  0.6365 -0.2367
 2236SOL    HW218171   0.903   2.594  14.812 -1.9561 -0.6956  1.2343
 2237SOL     OW18172   2.034   3.055   9.926 -0.3706  0.9966 -0.0266
 2237SOL    HW118173   1.958   2.997   9.921  0.6366 -0.2834 -0.5577
 2237SOL    HW218174   2.057   3.041  10.018  2.9442  0.4926 -0.9140
 2238SOL     OW18175   3.581   3.236   3.600 -0.5198  0.2594 -0.1951
 2238SOL    HW118176   3.610   3.253   3.510  0.9018 -1.5780 -0.0817
 2238SOL    HW218177   3.560   3.325   3.627  0.1086 -0.2439  1.9410
 2239SOL     OW18178   1.064   3.309   8.530 -0.3690  0.2500  0.0736
 2239SOL    HW118179   1.095   3.307   8.439  0.5549 -2.6265  0.4299
 2239SOL    HW218180   1.014   3.228   8.524 -0.8559  0.5903 -0.3974
 2240SOL     OW18181   1.244   3.986   8.273  0.5871 -0.2181 -0.1344
 2240SOL    HW118182   1.158   4.020   8.251  1.0646  3.1257  3.3037
 2240SOL    HW218183   1.234   3.900   8.314  1.5838 -0.6281 -0.7275
 2241SOL     OW18184   0.254   4.344   8.453  0.7676  0.2062 -0.7833
 2241SOL    HW118185   0.307   4.292   8.513  0.8733  1.0729 -0.1241
 2241SOL    HW218186   0.164   4.331   8.482  1.2517 -2.8887 -0.6260
 2242SOL     OW18187   0.591   3.527  12.175  0.1093  0.2257 -0.4422
 2242SOL    HW118188   0.596   3.452  12.116 -0.7710 -1.4544  1.6459
 2242SOL    HW218189   0.660   3.497  12.234 -0.2502  0.7770  0.2487
 2243SOL     OW18190   4.511   2.460   3.366 -0.0410 -0.5011  0.2322
 2243SOL    HW118191   4.586   2.492   3.415  0.0765  1.2276 -1.0789
 2243SOL    HW218192   4.473   2.546   3.346 -1.2593 -0.8879  0.8755
 2244SOL     OW18193   4.158   3.317  11.229  0.7792  0.2009 -0.4162
 2244SOL    HW118194   4.180   3.224  11.239 -1.8944 -0.4967 -1.0296
 2244SOL    HW218195   4.241   3.348  11.264 -0.5649  0.2519  2.6931
 2245SOL     OW18196   4.529   2.500   4.327  0.1328 -0.3606 -0.0440
 2245SOL    HW118197   4.593   2.430   4.330 -0.8344 -1.2137  0.4700
 2245SOL    HW218198   4.452   2.471   4.377  1.5544 -2.3318  0.9867
 2246SOL     OW18199   3.308   2.903   1.389 -0.0036  0.2063  0.2528
 2246SOL    HW118200   3.314   2.844   1.464  0.0918 -1.4412 -1.0718
 2246SOL    HW218201   3.401   2.917   1.369 -0.1398  1.4767  0.5048
 2247SOL     OW18202   1.762   3.418   7.758 -0.1688 -0.5365 -0.5725
 2247SOL    HW118203   1.769   3.470   7.838 -0.4076 -1.2607 -0.0757
 2247SOL    HW218204   1.737   3.482   7.692  0.9911 -0.3079 -0.7847
 2248SOL     OW18205   1.534   0.266   1.031 -0.0347  0.2741  0.1385
 2248SOL    HW118206   1.440   0.274   1.048  0.3755  1.1780  2.0536
 2248SOL    HW218207   1.560   0.237   1.118 -1.9970  0.3992  0.7809
 2249SOL     OW18208   2.930   3.512   7.119 -0.0294 -0.3488 -0.1093
 2249SOL    HW118209   3.023   3.527   7.137  0.8548 -2.7288 -2.7810
 2249SOL    HW218210   2.930   3.417   7.130 -1.1041 -0.3827 -0.4347
 2250SOL     OW18211   3.426   0.838   3.255  0.2452  0.0790  0.3327
 2250SOL    HW118212   3.419   0.922   3.300 -1.8020  1.6073 -2.7769
 2250SOL    HW218213   3.420   0.773   3.325 -0.5015  1.1064  1.2214
 2251SOL     OW18214   3.665   4.523  13.551 -0.1336  0.2313  0.4242
 2251SOL    HW118215   3.653   4.616  13.571 -0.8858  0.4502 -1.0446
 2251SOL    HW218216   3.708   4.490  13.630  1.1655  0.7988 -0.0437
 2252SOL     OW18217   4.349   2.424   5.770 -0.1209  0.1746 -0.4036
 2252SOL    HW118218   4.330   2.436   5.863  0.7312 -1.0865 -0.0701
 2252SOL    HW218219   4.444   2.417   5.781 -0.2089  1.7167  1.4127
 2253SOL     OW18220   3.406   1.752   6.564 -0.3402  0.1482 -0.0287
 2253SOL    HW118221   3.421   1.746   6.659 -1.6177  1.1303  0.2424
 2253SOL    HW218222   3.322   1.799   6.563 -0.2622  0.2934  0.1690
 2254SOL     OW18223   3.778   1.270   0.086 -0.1294 -0.2437 -0.3478
 2254SOL    HW118224   3.742   1.228   0.007  2.1806  0.0962 -1.5675
 2254SOL    HW218225   3.752   1.355   0.052 -1.2499 -0.5486 -0.2869
 2255SOL     OW18226   4.277   4.312   2.967 -0.3962 -0.6046  0.3840
 2255SOL    HW118227   4.318   4.271   3.043  0.7899 -0.3347 -0.1067
 2255SOL    HW218228   4.319   4.397   2.978  0.8081 -0.7972 -2.5817
 2256SOL     OW18229   4.591   4.585  12.908 -0.4210 -0.2261 -0.1890
 2256SOL    HW118230   4.659   4.541  12.857  1.3724  0.8097  1.3257
 2256SOL    HW218231   4.539   4.514  12.946 -0.0886  0.3293  1.2945
 2257SOL     OW18232   2.699   1.672   9.050 -0.5156  0.0549  0.6286
 2257SOL    HW118233   2.738   1.754   9.081  0.6477 -0.1249 -0.3372
 2257SOL    HW218234   2.674   1.623   9.128 -1.6793 -1.1826 -0.5239
 2258SOL     OW18235   0.794   0.802   5.334 -0.0527 -0.3068 -0.4450
 2258SOL    HW118236   0.714   0.800   5.387  0.5275  1.9624  0.5015
 2258SOL    HW218237   0.834   0.720   5.364 -2.9339 -1.7634 -0.6148
 2259SOL     OW18238   3.640   1.055   8.588 -0.4035 -0.1438 -0.0384
 2259SOL    HW118239   3.686   1.083   8.667 -0.7489  1.0165 -0.2488
 2259SOL    HW218240   3.551   1.042   8.621 -0.7547  1.7473 -0.2433
 2260SOL     OW18241   1.581   3.775   2.714 -0.3883  0.1030 -0.4677
 2260SOL    HW118242   1.530   3.826   2.651  2.7778  1.9725 -1.4773
 2260SOL    HW218243   1.619   3.853   2.753 -2.6558  2.4317 -2.8851
 2261SOL     OW18244   0.504   3.925   4.828  0.2623  0.0307  0.3425
 2261SOL    HW118245   0.420   3.971   4.826  0.1327 -0.2490 -0.5296
 2261SOL    HW218246   0.536   3.932   4.738  2.8346 -1.0459  1.1644
 2262SOL     OW18247   1.410   3.194   2.046 -0.1665 -0.3144 -0.4519
 2262SOL    HW118248   1.411   3.197   1.950 -0.2756 -0.1515 -0.4485
 2262SOL    HW218249   1.503   3.180   2.062 -0.1067  1.1317  0.4722
 2263SOL     OW18250   1.205   4.379   3.253 -0.6724 -0.0380 -0.6187
 2263SOL    HW118251   1.230   4.378   3.345 -0.1291 -1.7554 -0.7825
 2263SOL    HW218252   1.153   4.302   3.229  1.0539 -1.2628 -0.4634
 2264SOL     OW18253   1.864   1.322   4.108  0.1175 -0.0961  0.3967
 2264SOL    HW118254   1.848   1.414   4.129  0.6536 -0.1115  0.8724
 2264SOL    HW218255   1.803   1.306   4.036 -0.6100  2.4720  0.4590
 2265SOL     OW18256   3.004   3.647  15.525  0.0816 -0.6264  1.0244
 2265SOL    HW118257   3.021   3.741  15.527  0.6519 -0.7181  0.4851
 2265SOL    HW218258   3.085   3.621  15.481  0.8321  1.3914  1.2277
 2266SOL     OW18259   1.666   3.524   2.587  0.4799  0.1781  0.3046
 2266SOL    HW118260   1.747   3.562   2.621  0.6397  1.5248 -1.5493
 2266SOL    HW218261   1.600   3.587   2.616  1.8617  1.5280  0.5535
 2267SOL     OW18262   2.305   3.593   2.183  0.2822 -0.0483 -0.0042
 2267SOL    HW118263   2.273   3.667   2.131  1.8750  1.3705  1.0288
 2267SOL    HW218264   2.395   3.598   2.151  0.3369 -0.1300  0.1354
 2268SOL     OW18265   1.003   3.567  13.532 -0.0118 -0.2415 -0.3297
 2268SOL    HW118266   1.098   3.575  13.530 -0.1095  0.6788 -1.1514
 2268SOL    HW218267   0.992   3.481  13.492 -1.7398  0.5045 -1.4750
 2269SOL     OW18268   0.441   2.593  14.195  0.2750  0.0103  0.0982
 2269SOL    HW118269   0.358   2.621  14.233  0.1869  0.3695 -0.3476
 2269SOL    HW218270   0.418   2.510  14.153 -0.2599  0.4639 -0.5047
 2270SOL     OW18271   0.748   3.215   5.259  0.8457 -0.1380 -0.2444
 2270SOL    HW118272   0.689   3.145   5.287 -0.8465  1.1635 -0.5494
 2270SOL    HW218273   0.829   3.171   5.235  0.7201 -0.1846 -0.5786
 2271SOL     OW18274   3.626   4.035   2.497 -0.4034  0.4176 -0.6564
 2271SOL    HW118275   3.717   4.037   2.526 -0.2066 -0.8960 -1.1973
 2271SOL    HW218276   3.633   3.955   2.445  1.8854  0.1267  0.1107
 2272SOL     OW18277   2.789   1.679   4.909  0.9428 -0.0085  0.1783
 2272SOL    HW118278   2.695   1.665   4.909  0.6427  2.0737 -0.1438
 2272SOL    HW218279   2.795   1.735   4.831  0.5496 -0.2005  0.0143
 2273SOL     OW18280   2.832   3.240   4.611  0.1902  0.5210  0.1190
 2273SOL    HW118281   2.751   3.190   4.617  0.7897 -1.0472 -4.8939
 2273SOL    HW218282   2.886   3.196   4.546  0.9072  0.7469  0.5577
 2274SOL     OW18283   4.099   3.689   6.377  0.1180 -0.6896  0.1967
 2274SOL    HW118284   4.130   3.763   6.324 -0.6566 -0.5795 -0.1038
 2274SOL    HW218285   4.157   3.619   6.346  0.6281 -0.3338  0.3426
 2275SOL     OW18286   2.220   0.263  14.067 -0.3968 -0.3242 -0.0063
 2275SOL    HW118287   2.280   0.282  13.995 -1.1635  2.9435  0.1861
 2275SOL    HW218288   2.265   0.195  14.117 -1.5956 -0.8567  0.3204
 2276SOL     OW18289   1.873   3.038  12.997 -0.2732  0.2270  0.1556
 2276SOL    HW118290   1.789   3.071  13.028 -0.6384  0.4987 -1.1256
 2276SOL    HW218291   1.914   3.121  12.972  1.5494 -0.7987 -0.2371
 2277SOL     OW18292   3.730   0.991  12.475 -0.2960  0.2255  0.1589
 2277SOL    HW118293   3.774   0.916  12.435 -1.3000 -0.4558  0.3389
 2277SOL    HW218294   3.722   0.958  12.565  2.0972 -0.9980 -0.0625
 2278SOL     OW18295   3.318   2.013   5.340 -0.4476 -0.1718  0.0967
 2278SOL    HW118296   3.294   2.106   5.348  1.5142  0.4173 -0.9403
 2278SOL    HW218297   3.246   1.959   5.374  1.9011 -3.2964  0.0837
 2279SOL     OW18298   0.021   1.906  12.201 -0.4589 -0.2301 -0.1736
 2279SOL    HW118299   0.060   1.857  12.273 -1.6644 -0.5417  0.2702
 2279SOL    HW218300   0.084   1.901  12.128  3.2697 -0.8566  3.0917
 2280SOL     OW18301   2.438   4.708  13.073  0.5453 -0.1956 -0.0891
 2280SOL    HW118302   2.437   4.679  13.164 -3.3687 -1.3066 -0.4694
 2280SOL    HW218303   2.505   0.053  13.072 -0.4332  0.7786 -0.1164
 2281SOL     OW18304   0.086   2.161   5.922  0.0582  0.4842  0.3336
 2281SOL    HW118305   0.091   2.068   5.901 -0.0694  0.1977  1.5343
 2281SOL    HW218306   4.719   2.166   5.954  0.2293 -0.7285  0.9973
 2282SOL     OW18307   4.560   2.034  12.025 -0.3688 -0.3885 -0.2119
 2282SOL    HW118308   4.599   1.991  12.102 -1.9698 -1.7825 -0.1920
 2282SOL    HW218309   4.620   2.023  11.952  0.9036  1.3242  0.5726
 2283SOL     OW18310   2.494   1.356  15.168  0.1852  0.2969 -0.0283
 2283SOL    HW118311   2.480   1.438  15.214 -0.2196  0.9820 -1.3663
 2283SOL    HW218312   2.583   1.335  15.199 -0.5374  0.4033  2.0809
 2284SOL     OW18313   1.948   3.944   3.607  0.1945  0.2867  0.1198
 2284SOL    HW118314   1.875   3.894   3.570  0.4796 -0.1704  0.1736
 2284SOL    HW218315   2.017   3.881   3.626 -0.3419 -0.1292  0.6989
 2285SOL     OW18316   0.883   4.132   4.140  0.3460 -0.3521  0.0621
 2285SOL    HW118317   0.954   4.178   4.184  1.0871 -1.5758  0.1112
 2285SOL    HW218318   0.872   4.059   4.201 -1.1670  0.3328  0.6380
 2286SOL     OW18319   0.657   0.125   7.837 -0.5918  0.5702  0.0374
 2286SOL    HW118320   0.638   0.208   7.792 -2.3574  0.3915  0.4571
 2286SOL    HW218321   0.576   0.074   7.829  0.2763 -0.3452 -2.7849
 2287SOL     OW18322   1.618   1.094  13.331  0.6687  0.2860  0.5732
 2287SOL    HW118323   1.644   1.002  13.333  0.0852  0.1015 -0.7513
 2287SOL    HW218324   1.589   1.096  13.423  0.6074 -0.9900  0.5816
 2288SOL     OW18325   1.531   1.303   4.859  0.3098 -0.3700 -0.5623
 2288SOL    HW118326   1.512   1.213   4.835  1.6409 -1.1666  1.3607
 2288SOL    HW218327   1.439   1.321   4.878  0.8769 -0.1554  1.9695
 2289SOL     OW18328   0.709   4.506  16.321  0.2599  0.3132 -0.4404
 2289SOL    HW118329   0.760   4.555  16.256  1.2687  0.9790  0.8575
 2289SOL    HW218330   0.776   4.485  16.385 -1.4823  1.8037  1.8640
 2290SOL     OW18331   0.697   3.598   4.728 -0.1192 -0.0783 -0.5345
 2290SOL    HW118332   0.752   3.525   4.700  1.9383  1.6489 -1.0296
 2290SOL    HW218333   0.684   3.577   4.820 -1.0308 -0.3586 -0.7286
 2291SOL     OW18334   2.600   1.307  12.510  0.0461 -0.4239 -0.4690
 2291SOL    HW118335   2.561   1.333  12.594  0.3823 -0.2198 -0.3773
 2291SOL    HW218336   2.568   1.371  12.446 -0.4215 -1.4707 -1.2846
 2292SOL     OW18337   0.653   3.089  12.405 -0.5589 -0.0201  0.1684
 2292SOL    HW118338   0.676   3.008  12.452 -2.5018 -0.7756 -0.1965
 2292SOL    HW218339   0.733   3.139  12.423 -1.0644  0.4280  1.1958
 2293SOL     OW18340   1.985   1.223  14.545 -0.1715 -0.4240 -0.1509
 2293SOL    HW118341   2.001   1.308  14.504 -0.4554  0.3268  1.2848
 2293SOL    HW218342   2.005   1.165  14.471  0.3843 -0.0764 -0.2705
 2294SOL     OW18343   0.017   4.038   3.898  0.5754 -0.8585 -0.3733
 2294SOL    HW118344   0.092   4.068   3.846  0.2653 -0.9732 -0.8875
 2294SOL    HW218345   0.063   3.982   3.961  0.5264  1.0382  1.3461
 2295SOL     OW18346   0.438   0.779   8.488 -0.0907  0.3197 -0.4016
 2295SOL    HW118347   0.417   0.868   8.458  0.0777  0.1091 -1.1649
 2295SOL    HW218348   0.348   0.746   8.489  0.5417 -1.4219 -0.5854
 2296SOL     OW18349   4.457   0.591   1.866  0.2106  0.2148  0.4667
 2296SOL    HW118350   4.474   0.644   1.944  0.7070  0.1700  0.3908
 2296SOL    HW218351   4.541   0.552   1.839  0.1452 -1.3282  2.5326
 2297SOL     OW18352   1.753   4.625   8.109 -0.9066  0.0905  0.0232
 2297SOL    HW118353   1.686   4.661   8.167 -3.8309  0.3947 -3.5658
 2297SOL    HW218354   1.831   4.642   8.163 -0.3776 -1.0010 -0.4015
 2298SOL     OW18355   4.651   2.912  11.483 -0.1825 -0.1816  0.6982
 2298SOL    HW118356   0.012   2.888  11.444  0.4758  2.7083  0.3292
 2298SOL    HW218357   4.652   2.859  11.563 -1.2122 -0.9703  0.1836
 2299SOL     OW18358   0.453   2.826   6.333 -0.3760 -0.0748 -0.0623
 2299SOL    HW118359   0.537   2.802   6.371  1.1835  1.8844 -2.2349
 2299SOL    HW218360   0.409   2.872   6.405 -2.0533  0.8153 -1.6527
 2300SOL     OW18361   0.774   0.528   6.574 -0.1346 -0.1009 -0.0527
 2300SOL    HW118362   0.870   0.525   6.572 -0.1661 -1.1434  0.1310
 2300SOL    HW218363   0.743   0.500   6.488  0.6503  0.2565 -0.4594
 2301SOL     OW18364   4.654   0.491   6.377  0.0812  0.4656  0.1996
 2301SOL    HW118365   4.668   0.402   6.344 -1.1242 -0.8203  3.2233
 2301SOL    HW218366   0.002   0.485   6.440  1.8767  0.5279 -1.8056
 2302SOL     OW18367   3.580   2.336  14.615 -0.0204  0.5279  0.6922
 2302SOL    HW118368   3.642   2.304  14.681 -0.6500 -1.1496  0.4774
 2302SOL    HW218369   3.628   2.410  14.580  0.4618 -1.0218 -1.8814
 2303SOL     OW18370   3.097   4.674   5.035 -0.7225 -0.5292  0.2441
 2303SOL    HW118371   3.073   4.646   4.947 -0.2140 -1.6640  0.4691
 2303SOL    HW218372   3.122   0.040   5.014 -2.9070  0.2439  0.9694
 2304SOL     OW18373   1.468   0.043   4.560 -0.3247  0.5255  0.3175
 2304SOL    HW118374   1.458   0.033   4.466 -0.5362  0.3371  0.3606
 2304SOL    HW218375   1.441   0.135   4.566  0.0811  0.5575  1.6845
 2305SOL     OW18376   4.659   0.852   9.285  0.7379  0.0145  0.0212
 2305SOL    HW118377   4.572   0.868   9.319  1.1215  0.4643  0.7920
 2305SOL    HW218378   4.652   0.759   9.264 -2.0194 -0.2224  1.9599
 2306SOL     OW18379   3.691   4.499   8.914 -0.3789  0.2781  0.1650
 2306SOL    HW118380   3.781   4.511   8.885  0.0915 -3.3243  0.1330
 2306SOL    HW218381   3.675   4.592   8.934  0.6438  0.4636  0.1362
 2307SOL     OW18382   4.354   2.700   3.408 -0.0455  0.0677 -0.5023
 2307SOL    HW118383   4.424   2.764   3.420  1.1305 -1.6951  1.9563
 2307SOL    HW218384   4.350   2.674   3.500 -1.7080  2.7093  0.1676
 2308SOL     OW18385   3.050   2.316   3.551 -0.5520 -0.6498  0.5611
 2308SOL    HW118386   3.070   2.279   3.637 -0.2063  2.5892  1.8460
 2308SOL    HW218387   3.053   2.410   3.568  3.9731 -0.4353 -1.4032
 2309SOL     OW18388   4.275   2.444  11.934  0.0898 -0.0868 -0.6274
 2309SOL    HW118389   4.297   2.383  12.004  2.5210  0.4664 -0.8926
 2309SOL    HW218390   4.338   2.413  11.869 -0.5870  2.5173 -2.5466
 2310SOL     OW18391   3.634   2.514  16.729  0.0019 -0.1778  0.3264
 2310SOL    HW118392   3.562   2.457  16.756 -0.2429  0.3703  0.8250
 2310SOL    HW218393   3.657   2.556  16.812  0.4131  0.2905 -0.0202
 2311SOL     OW18394   2.246   4.711   5.407  0.0443 -0.0081  0.2951
 2311SOL    HW118395   2.289   0.067   5.439  0.2927 -0.1476  0.3135
 2311SOL    HW218396   2.213   0.019   5.323  1.2860 -0.4633 -0.3599
 2312SOL     OW18397   3.930   1.127   4.951 -0.3129 -0.1456 -0.1279
 2312SOL    HW118398   4.004   1.167   4.997  0.8073  0.5932 -2.6191
 2312SOL    HW218399   3.864   1.140   5.020 -1.0377 -1.1336 -0.6462
 2313SOL     OW18400   0.943   0.378   3.038 -0.8851  0.0135  0.2831
 2313SOL    HW118401   1.031   0.404   3.064 -0.1667 -1.1860 -0.9151
 2313SOL    HW218402   0.941   0.287   3.070  0.3403  0.1786  0.8114
 2314SOL     OW18403   4.551   4.389   3.302 -0.4693  0.0206 -0.0192
 2314SOL    HW118404   4.532   4.429   3.387 -0.1268 -1.9374  0.9760
 2314SOL    HW218405   4.570   4.459   3.240  0.6809  1.1414  1.5911
 2315SOL     OW18406   3.143   0.404  11.845 -0.3468  0.0547  0.0144
 2315SOL    HW118407   3.122   0.361  11.762  0.4789 -0.3111 -0.0079
 2315SOL    HW218408   3.063   0.455  11.852  1.3293  2.5860  0.8110
 2316SOL     OW18409   0.420   3.073   6.946  0.7617  0.3587  0.0610
 2316SOL    HW118410   0.346   3.017   6.923  1.1397  0.9105 -2.4164
 2316SOL    HW218411   0.495   3.018   6.925 -1.2892 -1.7765 -1.6834
 2317SOL     OW18412   4.349   4.723   1.777 -0.4806  0.6559  0.4509
 2317SOL    HW118413   4.260   4.706   1.746 -0.2351 -0.3946  0.3161
 2317SOL    HW218414   4.345   0.094   1.791 -0.7119  0.2582  2.9814
 2318SOL     OW18415   0.981   1.359   6.896 -0.1503  0.2082  0.3283
 2318SOL    HW118416   0.962   1.268   6.872  0.6622 -0.1951  1.2545
 2318SOL    HW218417   1.042   1.357   6.969  0.7822 -0.9870 -0.4852
 2319SOL     OW18418   0.543   1.618   9.420 -0.3217  0.0394 -0.2536
 2319SOL    HW118419   0.496   1.696   9.390  0.3819  0.6725  0.2604
 2319SOL    HW218420   0.611   1.617   9.352 -1.0923  2.6474 -1.0492
 2320SOL     OW18421   3.781   2.409   6.604  0.3890 -0.3819  0.5285
 2320SOL    HW118422   3.843   2.348   6.644 -0.7809 -1.2574  0.9985
 2320SOL    HW218423   3.700   2.359   6.592  0.1957  0.3551 -1.2079
 2321SOL     OW18424   3.816   1.078   4.705 -0.3044  0.0553  0.2479
 2321SOL    HW118425   3.740   1.047   4.754  0.4297 -0.9491  0.7445
 2321SOL    HW218426   3.875   1.102   4.776  1.8896  0.6538 -1.7572
 2322SOL     OW18427   2.093   2.842   0.480  0.0747 -0.1336 -0.1676
 2322SOL    HW118428   2.047   2.925   0.493  0.6126  0.4758 -2.1313
 2322SOL    HW218429   2.179   2.872   0.510  0.7564 -1.3162 -0.9456
 2323SOL     OW18430   0.380   1.852   6.816  0.0611 -0.0665  0.3417
 2323SOL    HW118431   0.405   1.940   6.845  0.7191  1.5554 -5.1398
 2323SOL    HW218432   0.433   1.802   6.879  0.0054 -2.1377 -1.2562
 2324SOL     OW18433   3.012   3.783  12.566 -0.1605  0.4106 -0.3094
 2324SOL    HW118434   3.064   3.759  12.643  0.3559  1.3141 -0.3858
 2324SOL    HW218435   2.948   3.712  12.558 -2.4307  2.2489  1.5481
 2325SOL     OW18436   0.855   3.072  17.580  0.0540 -0.1006 -0.9585
 2325SOL    HW118437   0.836   3.101  17.669 -3.9520 -2.1664 -1.1069
 2325SOL    HW218438   0.931   3.019  17.601  1.3550  1.1852 -2.4195
 2326SOL     OW18439   3.650   2.130   3.057 -0.0669 -0.0329 -0.1008
 2326SOL    HW118440   3.650   2.111   3.150 -0.9703  2.2217  0.3608
 2326SOL    HW218441   3.578   2.193   3.055 -0.4703 -0.4739  0.5888
 2327SOL     OW18442   1.279   4.576   4.133  0.1228  0.3517  0.2127
 2327SOL    HW118443   1.272   4.618   4.048 -0.9560  0.4273  0.3413
 2327SOL    HW218444   1.308   4.485   4.123  0.0927  0.2252  1.2612
 2328SOL     OW18445   4.559   4.694   7.080 -0.0594  0.8766  0.3549
 2328SOL    HW118446   4.647   4.696   7.042  0.6917 -0.7458  1.9905
 2328SOL    HW218447   4.565   0.054   7.126  0.4186  1.9595 -1.6816
 2329SOL     OW18448   0.391   3.015   6.520 -0.3616  0.5045 -0.5734
 2329SOL    HW118449   0.397   3.103   6.483  0.7217  0.2138 -1.0961
 2329SOL    HW218450   0.300   3.024   6.548  0.1381  1.8000  0.6087
 2330SOL     OW18451   4.252   3.452   3.777  0.3599 -0.5603  0.1949
 2330SOL    HW118452   4.318   3.386   3.798  2.2282  1.0233 -0.6235
 2330SOL    HW218453   4.186   3.392   3.744  2.2900 -2.0425 -1.0100
 2331SOL     OW18454   1.143   2.932   9.462 -0.1115  0.2167  0.6622
 2331SOL    HW118455   1.237   2.935   9.444 -0.2969 -2.6894 -0.8636
 2331SOL    HW218456   1.133   2.925   9.556 -1.5219 -2.2181  0.3345
 2332SOL     OW18457   4.236   2.848   5.082  0.5575 -0.0936  0.5485
 2332SOL    HW118458   4.194   2.767   5.054  0.8259 -0.5325  1.4200
 2332SOL    HW218459   4.245   2.844   5.178 -0.3127  0.8624  0.6856
 2333SOL     OW18460   1.284   3.580   3.205  0.0757 -0.0838 -0.4676
 2333SOL    HW118461   1.281   3.619   3.292 -2.6133 -0.2081 -0.4986
 2333SOL    HW218462   1.349   3.633   3.159  0.3471 -0.7160 -0.8252
 2334SOL     OW18463   2.552   1.724   6.723  0.2833  0.3551  0.1571
 2334SOL    HW118464   2.558   1.710   6.629 -0.5750  1.4106 -0.0497
 2334SOL    HW218465   2.459   1.737   6.737  0.5838  1.4768  1.1015
 2335SOL     OW18466   1.641   3.895  11.807 -0.7282  0.1402  0.0139
 2335SOL    HW118467   1.569   3.952  11.836 -0.0795  0.8775  0.2005
 2335SOL    HW218468   1.598   3.812  11.825  0.0369 -0.0061  1.1505
 2336SOL     OW18469   3.279   0.266   1.695  0.0277  0.2805 -0.1936
 2336SOL    HW118470   3.346   0.214   1.740 -0.7756  0.4609  1.2172
 2336SOL    HW218471   3.311   0.355   1.711 -0.3867  0.2810  0.6799
 2337SOL     OW18472   0.117   4.116  16.025  0.1489 -0.4808  0.2124
 2337SOL    HW118473   0.193   4.059  16.020 -0.3751 -1.2739  1.1713
 2337SOL    HW218474   0.153   4.195  15.985 -0.1334 -0.8183 -0.7011
 2338SOL     OW18475   0.942   4.056   8.208 -0.3554  0.0839  0.1477
 2338SOL    HW118476   0.894   4.106   8.143  0.4680  0.9302  0.1825
 2338SOL    HW218477   0.892   3.975   8.200  1.6763 -1.2389  0.6526
 2339SOL     OW18478   0.769   2.690   4.938  0.0352 -0.7762 -0.1679
 2339SOL    HW118479   0.684   2.660   4.969 -0.2606  0.5221  0.2579
 2339SOL    HW218480   0.788   2.777   4.973  0.6736 -0.3834 -1.4859
 2340SOL     OW18481   2.925   1.151   7.516  0.3017 -0.9266 -0.0763
 2340SOL    HW118482   2.930   1.108   7.430 -3.3407  3.2840 -2.3976
 2340SOL    HW218483   2.925   1.245   7.497  1.0396 -0.5000  2.0868
 2341SOL     OW18484   3.547   1.705   6.941  0.1153 -0.1422  0.2054
 2341SOL    HW118485   3.503   1.641   6.885 -0.7684  0.2796  0.4347
 2341SOL    HW218486   3.474   1.746   6.986 -0.0479  1.3254 -1.3982
 2342SOL     OW18487   0.981   2.194   7.343 -0.0762  0.1844  0.0674
 2342SOL    HW118488   0.960   2.262   7.407  0.6444  3.1678 -2.8803
 2342SOL    HW218489   0.925   2.119   7.364  0.1609 -0.9734 -3.3517
 2343SOL     OW18490   3.378   1.476   2.808  0.2164  0.3866 -0.2838
 2343SOL    HW118491   3.445   1.407   2.807  0.9996  1.1348 -0.2476
 2343SOL    HW218492   3.425   1.548   2.764 -0.8263  0.6715 -0.9203
 2344SOL     OW18493   2.011   4.233   9.823  0.3424  0.6369  0.0706
 2344SOL    HW118494   2.087   4.292   9.827 -0.6658  2.0014 -0.7492
 2344SOL    HW218495   1.993   4.220   9.730 -1.0084  0.8617  0.3061
 2345SOL     OW18496   2.785   2.275   6.812  0.1367  0.2373  0.1092
 2345SOL    HW118497   2.808   2.327   6.735  0.3168  0.4097  0.2770
 2345SOL    HW218498   2.703   2.319   6.835  0.2189  0.0282  0.8130
 2346SOL     OW18499   3.521   1.124  12.353 -0.1575  0.5167  0.3204
 2346SOL    HW118500   3.569   1.086  12.426 -2.5363 -1.8491  0.6161
 2346SOL    HW218501   3.443   1.154  12.400  0.2667  1.7134  0.2719
 2347SOL     OW18502   4.418   0.615   7.010 -0.4576  0.2969 -0.5614
 2347SOL    HW118503   4.424   0.573   7.096  0.9434  0.9344 -0.3605
 2347SOL    HW218504   4.509   0.628   6.983 -0.7263  1.7203 -0.7711
 2348SOL     OW18505   1.381   1.695   9.231 -0.6912  0.6355 -0.6539
 2348SOL    HW118506   1.454   1.727   9.283 -1.0344 -0.0756  0.2699
 2348SOL    HW218507   1.363   1.772   9.177 -1.0560 -0.0910 -1.5735
 2349SOL     OW18508   0.210   2.038   4.611  0.5039  0.2104 -0.1745
 2349SOL    HW118509   0.151   2.000   4.546 -0.2332  2.5346 -0.8785
 2349SOL    HW218510   0.169   2.029   4.696  1.2119  2.1900  0.3666
 2350SOL     OW18511   1.380   0.293   1.366 -0.1740 -0.1661 -0.1826
 2350SOL    HW118512   1.363   0.210   1.322  1.5125  0.3177 -1.7825
 2350SOL    HW218513   1.325   0.285   1.444  0.5200 -1.8544  0.1185
 2351SOL     OW18514   2.255   2.152  11.733  1.0028 -0.0953 -0.1362
 2351SOL    HW118515   2.276   2.059  11.743 -1.7072 -0.4365  2.4264
 2351SOL    HW218516   2.319   2.187  11.796  0.2458  1.7131 -0.3718
 2352SOL     OW18517   1.651   3.640   9.367  0.3137 -0.5104 -0.3423
 2352SOL    HW118518   1.719   3.667   9.306  0.4584  0.8836  0.4264
 2352SOL    HW218519   1.575   3.694   9.343  0.0687  0.1872  2.0080
 2353SOL     OW18520   2.818   3.167   9.607  0.2648 -0.0821 -0.3199
 2353SOL    HW118521   2.834   3.104   9.677  1.1011  1.0061  0.4641
 2353SOL    HW218522   2.901   3.214   9.606  0.2548 -0.0545  1.4181
 2354SOL     OW18523   0.878   0.388   3.962 -0.4104 -0.0072 -0.3107
 2354SOL    HW118524   0.809   0.452   3.946  0.9911  1.0911 -1.9354
 2354SOL    HW218525   0.953   0.440   3.935 -0.9685 -0.5326 -2.8107
 2355SOL     OW18526   4.623   0.079   5.336 -0.0214 -0.0170  0.6830
 2355SOL    HW118527   4.654   0.150   5.279 -0.4513 -0.4523 -0.0871
 2355SOL    HW218528   4.704   0.030   5.322 -1.8450 -2.3974 -1.6149
 2356SOL     OW18529   0.071   3.467   4.873  1.1561  0.5291  0.5611
 2356SOL    HW118530   0.004   3.533   4.855  0.4482 -0.5218 -0.7287
 2356SOL    HW218531   0.135   3.526   4.912  1.5868  1.1736 -1.0903
 2357SOL     OW18532   3.504   0.210  14.534  0.2412 -0.1748  0.2935
 2357SOL    HW118533   3.540   0.295  14.559 -0.0047 -0.1294  0.5001
 2357SOL    HW218534   3.589   0.171  14.516  0.9608  1.7201 -0.3704
 2358SOL     OW18535   4.445   1.416   5.721 -0.1918  0.2074  0.0249
 2358SOL    HW118536   4.430   1.407   5.815  1.5235 -0.2379  0.2471
 2358SOL    HW218537   4.469   1.324   5.707 -1.5574 -0.4016  1.6906
 2359SOL     OW18538   1.499   3.211   5.455  0.6501  0.0454 -0.1559
 2359SOL    HW118539   1.557   3.153   5.405 -0.1851  0.4587 -1.6058
 2359SOL    HW218540   1.478   3.161   5.534 -1.7943  1.8579  0.3366
 2360SOL     OW18541   0.423   4.709   6.059 -0.0497 -1.1857  0.3602
 2360SOL    HW118542   0.509   0.014   6.090 -0.6699  1.3240 -0.2488
 2360SOL    HW218543   0.375   0.057   6.101 -0.4211 -0.8003 -0.7159
 2361SOL     OW18544   2.229   0.820  12.770 -0.3498 -0.3549 -0.2386
 2361SOL    HW118545   2.173   0.748  12.800 -0.6962 -1.2909 -3.1709
 2361SOL    HW218546   2.288   0.838  12.844  0.1538 -0.8390 -0.5167
 2362SOL     OW18547   1.352   1.542  12.982 -0.0010  0.2683 -0.1728
 2362SOL    HW118548   1.361   1.601  13.057  1.2233 -1.1450  0.7888
 2362SOL    HW218549   1.261   1.543  12.953  0.2541 -0.4052 -0.9908
 2363SOL     OW18550   3.070   4.296   4.754 -0.3532 -0.4491 -0.2482
 2363SOL    HW118551   3.130   4.233   4.794  0.8734  0.3038 -0.9188
 2363SOL    HW218552   3.040   4.341   4.832  1.2367 -0.0000  0.0970
 2364SOL     OW18553   2.385   3.248  17.412 -0.2356  0.1966  0.1102
 2364SOL    HW118554   2.430   3.196  17.478 -0.8080 -0.5710 -0.1125
 2364SOL    HW218555   2.441   3.325  17.403  0.4324  0.1449  3.6820
 2365SOL     OW18556   1.902   0.774   3.399 -0.6160  0.3561 -0.1119
 2365SOL    HW118557   1.973   0.714   3.377 -0.9506 -0.4750  1.0750
 2365SOL    HW218558   1.829   0.717   3.376 -0.9389  1.0697 -0.8734
 2366SOL     OW18559   1.903   1.816  12.897 -0.5657 -0.0329  0.3744
 2366SOL    HW118560   1.924   1.886  12.836  0.8100 -0.3177  0.5145
 2366SOL    HW218561   1.811   1.794  12.891 -0.8245  2.0084 -3.3342
 2367SOL     OW18562   4.495   4.367  14.329  0.0628 -0.4081  0.5679
 2367SOL    HW118563   4.469   4.416  14.251  0.8231 -1.6643 -0.4813
 2367SOL    HW218564   4.580   4.325  14.317 -0.6999 -1.2544 -1.9160
 2368SOL     OW18565   0.539   0.389   1.432 -0.1088 -0.2888  0.0202
 2368SOL    HW118566   0.605   0.325   1.459  0.0300  0.6354  1.9140
 2368SOL    HW218567   0.536   0.372   1.338 -1.6885 -0.4776  0.1066
 2369SOL     OW18568   1.580   0.315  15.000  0.4127  0.0289  0.0047
 2369SOL    HW118569   1.544   0.337  15.085 -1.9438  2.1411 -1.5431
 2369SOL    HW218570   1.587   0.405  14.967 -0.6949 -0.0919 -0.5428
 2370SOL     OW18571   1.250   3.461   7.330  0.2441 -0.5984  0.0844
 2370SOL    HW118572   1.209   3.386   7.288  1.0490 -0.9239 -0.1335
 2370SOL    HW218573   1.197   3.527   7.285  2.2178  0.1178 -1.1740
 2371SOL     OW18574   0.711   3.176  14.868  0.4094  0.2648 -0.2776
 2371SOL    HW118575   0.650   3.243  14.901 -0.2570 -0.5307  0.1132
 2371SOL    HW218576   0.796   3.213  14.892  1.2391 -0.6568 -1.8411
 2372SOL     OW18577   1.358   2.962  14.873  0.4028 -0.7815 -1.2272
 2372SOL    HW118578   1.429   2.991  14.930  0.2633  1.1188 -2.0052
 2372SOL    HW218579   1.394   2.882  14.835  1.0494 -1.9524  1.8147
 2373SOL     OW18580   1.268   2.095   0.402  0.1149  0.4373 -0.7673
 2373SOL    HW118581   1.223   2.040   0.467  0.0711  3.1277  1.4719
 2373SOL    HW218582   1.350   2.047   0.389  0.5706  1.7962 -2.7559
 2374SOL     OW18583   1.465   1.165   7.184 -0.1901 -0.1371 -0.0057
 2374SOL    HW118584   1.484   1.257   7.166  0.8802 -0.3022  0.3263
 2374SOL    HW218585   1.375   1.171   7.216 -0.2839 -1.5297 -0.0145
 2375SOL     OW18586   0.450   2.331   4.163 -0.1228 -0.1400 -0.0263
 2375SOL    HW118587   0.359   2.327   4.133  0.0420 -0.2450 -0.5225
 2375SOL    HW218588   0.494   2.310   4.080 -0.4914  1.0975 -0.5384
 2376SOL     OW18589   1.867   3.709   5.597 -0.2362 -0.1769 -0.3990
 2376SOL    HW118590   1.781   3.699   5.637 -0.0663 -1.5044 -0.3362
 2376SOL    HW218591   1.920   3.636   5.629  0.9324  0.3194 -1.2056
 2377SOL     OW18592   3.562   3.150   7.884  0.4683  0.2235  0.0250
 2377SOL    HW118593   3.598   3.113   7.803 -0.4441  3.6876 -1.9453
 2377SOL    HW218594   3.599   3.238   7.890  2.7683 -0.8185  1.1122
 2378SOL     OW18595   1.668   0.331  17.347 -0.0294 -0.5021  0.7132
 2378SOL    HW118596   1.663   0.299  17.437  0.7061 -2.8744 -0.0920
 2378SOL    HW218597   1.625   0.256  17.306 -1.4253 -0.4350  2.0579
 2379SOL     OW18598   1.399   0.269   4.015  0.4935 -0.4707 -0.0222
 2379SOL    HW118599   1.455   0.214   3.960 -1.0612 -2.0142 -0.0632
 2379SOL    HW218600   1.442   0.285   4.099 -1.2305  0.0678  0.7416
 2380SOL     OW18601   0.475   0.282   1.963 -0.0976 -0.4921  0.0194
 2380SOL    HW118602   0.480   0.246   1.875  1.2512 -0.3950  0.0608
 2380SOL    HW218603   0.443   0.204   2.008 -0.1355 -0.1552  0.5799
 2381SOL     OW18604   2.233   4.686   8.492 -0.4162 -0.0333  0.4985
 2381SOL    HW118605   2.158   0.023   8.495 -0.0411  0.4657 -0.4847
 2381SOL    HW218606   2.298   0.018   8.534  0.6169 -2.6503  2.3241
 2382SOL     OW18607   3.086   1.431   9.255  0.3315  0.0871 -0.6371
 2382SOL    HW118608   3.117   1.370   9.322  0.4163  2.2856  1.3234
 2382SOL    HW218609   3.038   1.495   9.308 -0.9383 -1.4930  0.1213
 2383SOL     OW18610   3.186   2.171  15.380  0.3638  0.2116  0.2716
 2383SOL    HW118611   3.092   2.188  15.380  0.3534  0.1533  0.0811
 2383SOL    HW218612   3.183   2.075  15.378 -1.6180  0.3042 -0.8288
 2384SOL     OW18613   0.039   2.938   4.616  0.0712 -0.2863  0.0992
 2384SOL    HW118614   0.082   2.971   4.695  0.8979 -1.6713  0.2422
 2384SOL    HW218615   4.691   2.892   4.659 -2.2116  2.7061 -0.5126
 2385SOL     OW18616   2.865   4.025   6.682 -0.1994 -0.0695  0.4730
 2385SOL    HW118617   2.824   3.939   6.672  0.2850 -0.1594 -0.7449
 2385SOL    HW218618   2.932   4.007   6.748  1.7902  0.8202 -1.3212
 2386SOL     OW18619   1.447   4.528   7.720  0.5887  0.7104  0.4155
 2386SOL    HW118620   1.389   4.505   7.647 -1.0134 -1.1685  2.2998
 2386SOL    HW218621   1.476   4.612   7.685  2.8015 -0.4025 -0.4565
 2387SOL     OW18622   0.308   3.286   6.655  0.2861  0.8592 -0.1232
 2387SOL    HW118623   0.253   3.358   6.625  0.3172 -0.0605 -2.3617
 2387SOL    HW218624   0.369   3.290   6.582  0.3846 -2.3939 -0.2422
 2388SOL     OW18625   3.164   0.094   0.594 -0.3186  0.0068 -0.0566
 2388SOL    HW118626   3.202   0.177   0.623  0.5057  0.0440 -1.2649
 2388SOL    HW218627   3.109   0.075   0.670  0.9440 -3.1511  0.0563
 2389SOL     OW18628   3.446   4.518   3.617  0.4712 -0.0540  0.1801
 2389SOL    HW118629   3.468   4.432   3.580 -3.0576 -0.9438  0.1720
 2389SOL    HW218630   3.351   4.529   3.615  0.6116  1.0127 -0.4001
 2390SOL     OW18631   2.333   1.740   5.231 -0.6174 -0.0621  0.2414
 2390SOL    HW118632   2.334   1.689   5.150  2.6600  0.4230 -0.0666
 2390SOL    HW218633   2.257   1.797   5.221 -0.1094  0.8000  1.2248
 2391SOL     OW18634   3.944   1.535  13.177 -0.4944 -0.2120 -0.2258
 2391SOL    HW118635   3.963   1.454  13.128 -2.0762 -1.0712  0.5825
 2391SOL    HW218636   4.022   1.590  13.174 -1.8323  1.6997  0.4606
 2392SOL     OW18637   2.423   1.597   1.766  0.5360  0.0705  0.6763
 2392SOL    HW118638   2.433   1.597   1.671 -1.1561  0.9805  0.5097
 2392SOL    HW218639   2.495   1.542   1.797  0.1210  0.3370  2.1377
 2393SOL     OW18640   3.050   4.290  12.652  0.3215 -0.1385 -0.7041
 2393SOL    HW118641   3.092   4.218  12.605 -0.7904 -0.8055 -0.6793
 2393SOL    HW218642   3.038   4.352  12.580 -3.2612 -0.5248 -0.4419
 2394SOL     OW18643   3.323   1.406  13.526 -0.1889 -0.1008 -0.0966
 2394SOL    HW118644   3.320   1.409  13.430 -2.1756 -0.1910 -0.0228
 2394SOL    HW218645   3.412   1.373  13.537 -0.8427 -1.0389  2.2507
 2395SOL     OW18646   1.950   3.706  10.028  0.3722 -0.2946  0.0269
 2395SOL    HW118647   1.909   3.620  10.018  0.6060 -0.4263  0.1868
 2395SOL    HW218648   1.902   3.766   9.971 -0.0999 -1.4789 -0.8273
 2396SOL     OW18649   1.301   3.648   5.557  0.2379 -0.0283  0.5768
 2396SOL    HW118650   1.253   3.610   5.483  0.3760  0.2107  0.3617
 2396SOL    HW218651   1.261   3.735   5.561 -2.0001 -1.0050 -0.5335
 2397SOL     OW18652   3.020   0.770   5.076  0.0419 -0.5599  0.1903
 2397SOL    HW118653   3.099   0.814   5.108 -1.1195  0.2777  1.8900
 2397SOL    HW218654   3.051   0.726   4.996 -1.8201 -0.4058 -0.6173
 2398SOL     OW18655   2.007   4.667   2.435  0.8076 -0.2966  0.2833
 2398SOL    HW118656   1.991   4.715   2.516 -0.5813  0.4830 -0.4454
 2398SOL    HW218657   2.076   4.715   2.390  0.0929 -0.8848 -1.4704
 2399SOL     OW18658   3.107   1.636   6.428 -0.2381  0.3535  0.3479
 2399SOL    HW118659   3.056   1.651   6.348 -2.4437 -0.0847  1.6903
 2399SOL    HW218660   3.060   1.699   6.483 -0.1231  0.2754  0.5370
 2400SOL     OW18661   3.407   2.222   7.337  0.4416  0.0328  0.3945
 2400SOL    HW118662   3.450   2.271   7.407  2.7945  0.2130 -1.1695
 2400SOL    HW218663   3.317   2.253   7.347  0.1438 -0.2091 -1.4727
 2401SOL     OW18664   3.548   3.592  13.916  0.2591 -0.4526  0.0080
 2401SOL    HW118665   3.641   3.587  13.893  0.6378  1.1474  1.1482
 2401SOL    HW218666   3.547   3.565  14.008 -2.5373 -2.0149 -0.5088
 2402SOL     OW18667   2.350   3.810   4.119 -0.1604  0.1210 -0.2491
 2402SOL    HW118668   2.315   3.891   4.083 -3.7200 -0.5599  1.7370
 2402SOL    HW218669   2.334   3.748   4.048  1.7308  0.2717 -0.8088
 2403SOL     OW18670   0.723   2.893   8.723 -0.1832 -0.0547  0.2708
 2403SOL    HW118671   0.650   2.832   8.733 -1.2953  1.1731 -0.3611
 2403SOL    HW218672   0.738   2.891   8.628  1.8790 -0.7051  0.6075
 2404SOL     OW18673   0.947   3.544   1.804  0.7458  0.7234 -0.1694
 2404SOL    HW118674   0.967   3.540   1.710  0.6175 -1.0633 -0.1260
 2404SOL    HW218675   0.905   3.630   1.810 -4.2894 -1.6617 -1.9243
 2405SOL     OW18676   3.745   1.586  12.042  0.0000 -0.5298  0.0030
 2405SOL    HW118677   3.797   1.653  12.087  0.1374  0.5264 -1.7340
 2405SOL    HW218678   3.747   1.510  12.101 -0.0024 -1.3210 -1.0186
 2406SOL     OW18679   3.883   3.964   5.460  0.4963 -0.0031  0.4282
 2406SOL    HW118680   3.896   4.040   5.404  0.2683  0.9786  1.7244
 2406SOL    HW218681   3.907   4.004   5.543  0.5893 -1.2341  0.9943
 2407SOL     OW18682   0.220   2.718   2.843  0.3260 -0.0209  0.0934
 2407SOL    HW118683   0.172   2.796   2.871  1.0158  1.4797 -2.9380
 2407SOL    HW218684   0.289   2.759   2.790  0.6002 -1.6457 -0.8045
 2408SOL     OW18685   3.727   1.557   3.052 -0.6726  0.5265  0.0904
 2408SOL    HW118686   3.637   1.573   3.024 -0.4244 -1.1994 -1.6941
 2408SOL    HW218687   3.774   1.640   3.055 -0.6426  0.4809  0.8786
 2409SOL     OW18688   1.653   2.638   3.554  0.0398  0.3414 -0.4736
 2409SOL    HW118689   1.714   2.628   3.627  0.4752 -0.3726 -0.9378
 2409SOL    HW218690   1.572   2.672   3.591 -0.2179  0.7228 -1.3772
 2410SOL     OW18691   1.805   4.637   1.756 -0.2250 -0.4251  0.0283
 2410SOL    HW118692   1.717   4.643   1.718 -0.2197  2.0387  0.4057
 2410SOL    HW218693   1.799   4.692   1.833 -0.8269 -0.4690  0.0162
 2411SOL     OW18694   0.905   2.799  11.298  0.7755 -0.6682  0.2009
 2411SOL    HW118695   0.860   2.744  11.362 -0.7907  0.1073 -0.2241
 2411SOL    HW218696   0.868   2.883  11.326  1.9851 -0.4710  1.1978
 2412SOL     OW18697   4.238   0.282   0.742 -0.1703 -0.2990  0.0923
 2412SOL    HW118698   4.291   0.323   0.674  1.9692 -2.1379  0.6417
 2412SOL    HW218699   4.225   0.190   0.723  1.9548 -0.5958  0.0641
 2413SOL     OW18700   2.700   2.094   2.386 -0.3139  0.3026 -0.1908
 2413SOL    HW118701   2.784   2.084   2.342  0.3082 -0.8861  1.2786
 2413SOL    HW218702   2.641   2.118   2.315  1.3708  0.6236 -1.4765
 2414SOL     OW18703   0.759   3.507   2.390  0.1994  0.4088 -0.0697
 2414SOL    HW118704   0.709   3.462   2.457  0.6095  0.3022  0.1629
 2414SOL    HW218705   0.815   3.435   2.360 -2.1319 -1.1752 -0.6249
 2415SOL     OW18706   4.006   0.765   9.416 -0.7329  0.1706  0.2765
 2415SOL    HW118707   4.083   0.819   9.436 -2.0206  1.8884  0.5859
 2415SOL    HW218708   3.993   0.719   9.499 -1.6504 -1.6925 -0.9095
 2416SOL     OW18709   0.741   3.185  11.072  0.4214 -0.0586  0.1616
 2416SOL    HW118710   0.765   3.166  10.981 -2.1774  0.1695 -0.5658
 2416SOL    HW218711   0.646   3.193  11.067  0.4556 -1.3537 -2.6456
 2417SOL     OW18712   1.617   4.186   9.212 -0.1512 -0.1381  0.0689
 2417SOL    HW118713   1.546   4.145   9.262  0.0246 -0.1942  0.2713
 2417SOL    HW218714   1.693   4.155   9.261  0.5861 -1.8224 -2.1166
 2418SOL     OW18715   3.551   3.486  15.463 -0.8826  0.3432  0.5676
 2418SOL    HW118716   3.632   3.444  15.433 -0.8273  2.8768 -2.8545
 2418SOL    HW218717   3.515   3.531  15.387 -1.2342 -0.6998  0.1294
 2419SOL     OW18718   3.729   0.826   1.854  0.5890  0.0805  0.1180
 2419SOL    HW118719   3.680   0.827   1.772 -1.1724  3.5606  1.2214
 2419SOL    HW218720   3.652   0.837   1.910  0.8361 -1.3674  0.7334
 2420SOL     OW18721   1.284   1.916   9.032  0.4532  0.7456  0.4502
 2420SOL    HW118722   1.263   1.983   9.098 -1.7405 -1.6649  2.1552
 2420SOL    HW218723   1.220   1.937   8.964 -1.4821 -0.4050  1.9075
 2421SOL     OW18724   3.512   4.470   2.346  0.8662 -0.8553  0.1249
 2421SOL    HW118725   3.470   4.553   2.366  0.7624 -1.0175  0.5858
 2421SOL    HW218726   3.483   4.415   2.419  1.6504 -0.9149  0.3837
 2422SOL     OW18727   3.168   3.872   9.240  0.1438  0.1393  0.1909
 2422SOL    HW118728   3.205   3.918   9.165  2.0807  1.4721  1.9537
 2422SOL    HW218729   3.085   3.838   9.206  0.9576 -1.8124  0.1001
 2423SOL     OW18730   2.898   1.725   8.684  0.3869  0.6118 -0.1609
 2423SOL    HW118731   2.803   1.732   8.676  0.2515  0.1377  0.9459
 2423SOL    HW218732   2.918   1.704   8.593  3.1016  0.1185  0.5460
 2424SOL     OW18733   4.133   2.916   2.825 -0.2357 -0.4524 -0.1537
 2424SOL    HW118734   4.190   2.918   2.901 -0.1472 -0.0551 -0.2325
 2424SOL    HW218735   4.182   2.973   2.766 -1.1240  0.7737  0.3132
 2425SOL     OW18736   2.193   0.481   5.670 -0.2410 -0.1270  0.3090
 2425SOL    HW118737   2.261   0.548   5.679 -1.6684  1.0610  2.0957
 2425SOL    HW218738   2.215   0.413   5.734  0.1463 -0.9154 -0.6622
 2426SOL     OW18739   4.192   0.306   5.260  0.4418 -0.2924  0.7675
 2426SOL    HW118740   4.273   0.357   5.271 -0.2295  1.2552 -1.5827
 2426SOL    HW218741   4.123   0.372   5.264  1.0704  0.3820  0.6200
 2427SOL     OW18742   0.027   4.680   9.626 -0.0755  0.2063 -0.0654
 2427SOL    HW118743   0.088   0.011   9.674  0.0406 -0.5960  0.7048
 2427SOL    HW218744   0.087   4.624   9.577 -0.6325 -0.3051 -0.1666
 2428SOL     OW18745   0.517   1.627  13.456 -0.0284  0.4767  0.4318
 2428SOL    HW118746   0.470   1.589  13.382  1.8486 -0.3945 -0.3270
 2428SOL    HW218747   0.575   1.555  13.479 -1.6361 -0.7306  0.6838
 2429SOL     OW18748   1.035   3.429   5.502 -0.2221 -0.0446 -0.2572
 2429SOL    HW118749   0.958   3.405   5.553 -0.9777 -1.2311 -1.9786
 2429SOL    HW218750   0.991   3.446   5.419 -0.5315 -1.9920 -0.4883
 2430SOL     OW18751   3.244   1.365   2.075 -0.1586  0.3643  0.2473
 2430SOL    HW118752   3.326   1.362   2.125 -1.2419  0.1943  2.0019
 2430SOL    HW218753   3.276   1.335   1.990 -1.5913 -1.7399  0.4659
 2431SOL     OW18754   1.106   4.537   6.611 -0.1600  0.6352  0.1917
 2431SOL    HW118755   1.021   4.531   6.655  0.2681  0.4036  1.0000
 2431SOL    HW218756   1.098   4.597   6.538 -1.0909  1.4771  0.9898
 2432SOL     OW18757   2.201   2.534   4.132 -0.5036 -0.6534  0.1373
 2432SOL    HW118758   2.207   2.440   4.151  0.7901 -0.5648  0.1614
 2432SOL    HW218759   2.286   2.554   4.095 -0.1705  0.6382  1.5914
 2433SOL     OW18760   3.967   2.826   7.336  0.0813 -0.2464  0.4268
 2433SOL    HW118761   4.010   2.912   7.332 -2.5232  1.0214 -0.4052
 2433SOL    HW218762   4.032   2.777   7.285 -1.0807 -1.2579 -0.0576
 2434SOL     OW18763   4.502   3.042  17.290 -0.7419  0.3319  0.4682
 2434SOL    HW118764   4.426   3.011  17.338 -1.6904 -1.0957 -1.9315
 2434SOL    HW218765   4.553   2.961  17.302 -2.3868 -0.6765  0.6766
 2435SOL     OW18766   4.437   3.399   3.511 -0.1959  0.4187 -0.1412
 2435SOL    HW118767   4.508   3.382   3.574  0.3238  1.8104 -0.3517
 2435SOL    HW218768   4.466   3.479   3.467 -0.0560 -0.2103 -1.2066
 2436SOL     OW18769   3.869   4.641  11.480  0.4101 -0.0839 -0.1276
 2436SOL    HW118770   3.797   4.578  11.488  0.2855 -0.0251 -0.7761
 2436SOL    HW218771   3.855   4.688  11.562 -4.1984 -0.7695 -0.5247
 2437SOL     OW18772   1.980   2.066   6.991  0.1916 -0.7005  0.5201
 2437SOL    HW118773   1.970   2.151   7.035 -1.3488 -0.2240 -0.7475
 2437SOL    HW218774   2.070   2.044   7.016  0.0826 -0.8809  0.7572
 2438SOL     OW18775   4.229   4.622   6.817 -0.5636  0.1971 -0.6299
 2438SOL    HW118776   4.247   4.642   6.725  2.8720  0.4012  0.0854
 2438SOL    HW218777   4.202   4.530   6.812 -2.7829  0.7539  1.4866
 2439SOL     OW18778   1.430   0.591   8.548 -0.6435  0.0591 -0.2399
 2439SOL    HW118779   1.415   0.652   8.476  0.0336  1.3143  0.6894
 2439SOL    HW218780   1.510   0.627   8.585 -1.4167  2.1953 -0.6648
 2440SOL     OW18781   2.719   2.500   2.223  0.3105 -0.6963 -0.2886
 2440SOL    HW118782   2.808   2.479   2.194 -0.1328 -1.2242 -1.2523
 2440SOL    HW218783   2.671   2.501   2.140  1.4395 -1.3871 -0.9576
 2441SOL     OW18784   2.349   2.592   3.025 -0.2548 -0.1990  0.3958
 2441SOL    HW118785   2.326   2.518   3.080  1.4346  1.0664  2.8163
 2441SOL    HW218786   2.409   2.549   2.964  1.7014  0.5808  1.7418
 2442SOL     OW18787   3.594   3.943  15.939 -0.1765 -0.0168 -0.3495
 2442SOL    HW118788   3.517   3.949  15.881 -0.8340  1.4388  0.6678
 2442SOL    HW218789   3.637   3.859  15.925 -0.2583 -0.1835  0.4111
 2443SOL     OW18790   0.550   2.824  14.393 -0.0465  0.2157 -0.0828
 2443SOL    HW118791   0.506   2.743  14.367 -0.0861  0.0572  0.4896
 2443SOL    HW218792   0.583   2.792  14.477 -0.9777  0.8243  0.5127
 2444SOL     OW18793   1.041   3.457  17.001  0.1224 -0.2832 -0.2079
 2444SOL    HW118794   1.083   3.468  17.087 -1.5997 -0.8005  0.7047
 2444SOL    HW218795   1.066   3.372  16.966 -2.5451 -0.3534 -1.8877
 2445SOL     OW18796   4.103   4.525   4.696 -0.3968  0.3100  0.1787
 2445SOL    HW118797   4.163   4.597   4.719 -1.0712  0.2170  2.2972
 2445SOL    HW218798   4.172   4.495   4.637  0.3954 -2.2187  2.3509
 2446SOL     OW18799   1.956   1.791   5.046  0.1769 -0.3648  0.1953
 2446SOL    HW118800   1.905   1.834   4.977 -1.3381  0.6635  1.9413
 2446SOL    HW218801   1.890   1.726   5.068 -1.5407  1.1065 -0.5930
 2447SOL     OW18802   1.660   4.388  10.277 -0.5037 -0.3306  0.2332
 2447SOL    HW118803   1.592   4.370  10.343 -0.7503  0.6134  0.2432
 2447SOL    HW218804   1.622   4.367  10.192 -0.5505  2.2078 -0.3642
 2448SOL     OW18805   3.028   3.914   5.769 -0.3936  0.0440  0.0588
 2448SOL    HW118806   3.057   3.829   5.736  0.3904  0.0686  0.7133
 2448SOL    HW218807   3.116   3.941   5.795 -0.1433 -0.2121 -0.5173
 2449SOL     OW18808   3.123   4.601   3.007 -0.1638  0.4499 -0.3480
 2449SOL    HW118809   3.079   4.568   3.086  1.0552 -2.7593 -0.9992
 2449SOL    HW218810   3.051   4.588   2.945  1.2103 -1.4371 -1.5317
 2450SOL     OW18811   3.018   2.628   0.424 -0.4080 -0.1930  0.1109
 2450SOL    HW118812   2.982   2.583   0.500 -0.1455  1.2442  1.0818
 2450SOL    HW218813   3.070   2.555   0.389 -0.9516 -0.1534 -0.7734
 2451SOL     OW18814   1.616   1.459   6.147 -0.6746  0.2911 -0.0349
 2451SOL    HW118815   1.621   1.402   6.070  3.1334  0.3022  0.2283
 2451SOL    HW218816   1.564   1.396   6.197  2.8454 -1.6815  1.1558
 2452SOL     OW18817   2.124   0.839   5.885  0.0765 -0.0896  0.2279
 2452SOL    HW118818   2.118   0.933   5.870 -1.9348 -0.3540 -0.6671
 2452SOL    HW218819   2.147   0.833   5.977  1.8441 -0.6523 -0.2511
 2453SOL     OW18820   1.014   4.310  10.083  0.3690  0.1418 -0.0652
 2453SOL    HW118821   0.942   4.317  10.020  1.1836 -1.2579 -1.1401
 2453SOL    HW218822   1.001   4.396  10.124 -1.1939 -0.2504  0.2633
 2454SOL     OW18823   2.843   0.132  16.822  0.6635 -0.1360 -0.1101
 2454SOL    HW118824   2.839   0.222  16.853  1.1550 -0.0762 -0.2268
 2454SOL    HW218825   2.820   0.080  16.900  0.4440  0.3711  0.1615
 2455SOL     OW18826   3.052   2.391   9.257 -0.7644 -0.7242 -0.0821
 2455SOL    HW118827   3.117   2.435   9.312 -0.2550  0.4993 -1.6652
 2455SOL    HW218828   2.971   2.419   9.300 -1.0308  0.4246 -1.3640
 2456SOL     OW18829   3.410   0.834   1.706 -0.5028 -0.0335  0.2333
 2456SOL    HW118830   3.335   0.887   1.682 -0.8283  0.1807  1.7204
 2456SOL    HW218831   3.408   0.857   1.799  1.3101  0.7078  0.1005
 2457SOL     OW18832   2.557   1.834   4.624  0.1248 -0.1933  0.5548
 2457SOL    HW118833   2.610   1.904   4.663 -3.5645  0.7871  3.7379
 2457SOL    HW218834   2.520   1.798   4.704 -0.5797 -0.0951  0.2684
 2458SOL     OW18835   4.269   2.980  17.428 -0.0909  0.0019  0.2911
 2458SOL    HW118836   4.299   2.936  17.507  2.1308  3.0702  1.1593
 2458SOL    HW218837   4.275   3.070  17.460 -0.3417 -0.9948  3.0845
 2459SOL     OW18838   0.737   4.432  15.206 -0.1495 -0.2850  0.1734
 2459SOL    HW118839   0.752   4.466  15.118  0.4259  1.4702  0.9488
 2459SOL    HW218840   0.778   4.490  15.270 -0.4072 -0.8019  0.7994
 2460SOL     OW18841   3.836   0.816   9.906  0.0242  0.2530  0.4175
 2460SOL    HW118842   3.930   0.800   9.915 -0.3627 -2.3217 -0.2330
 2460SOL    HW218843   3.828   0.909   9.925  0.5560 -0.0178  1.9418
 2461SOL     OW18844   0.572   1.455  17.268 -0.3169  0.0056 -0.7847
 2461SOL    HW118845   0.562   1.458  17.363 -1.4092 -0.5951 -0.8855
 2461SOL    HW218846   0.567   1.360  17.254 -0.4056  0.0130 -0.8045
 2462SOL     OW18847   2.752   2.663   5.974  0.0731  0.4698  0.2570
 2462SOL    HW118848   2.808   2.700   5.906  1.2314 -0.9876  0.4059
 2462SOL    HW218849   2.812   2.651   6.048  1.1832  0.4350 -0.6495
 2463SOL     OW18850   0.432   1.836   9.386  0.7533  0.1282  0.3286
 2463SOL    HW118851   0.382   1.917   9.395  1.1887  0.5080 -0.6776
 2463SOL    HW218852   0.515   1.881   9.372 -0.3070  2.2634  0.8451
 2464SOL     OW18853   4.713   3.039   0.387  0.1563  0.0427  0.1766
 2464SOL    HW118854   4.693   3.072   0.475 -2.1893 -0.8309 -0.0272
 2464SOL    HW218855   4.676   3.106   0.330 -0.2878 -0.7045 -0.4209
 2465SOL     OW18856   3.811   1.761   1.912  0.2507 -0.0268  0.1526
 2465SOL    HW118857   3.828   1.855   1.924  0.6007 -0.1188  0.3615
 2465SOL    HW218858   3.724   1.754   1.950 -0.1673  1.9021 -0.4551
 2466SOL     OW18859   2.411   0.851   9.589  0.6652 -0.1667  0.7149
 2466SOL    HW118860   2.320   0.821   9.591  0.2314  0.9864 -2.4462
 2466SOL    HW218861   2.425   0.858   9.684 -0.6622 -3.1052  1.1048
 2467SOL     OW18862   4.381   4.644   7.412  0.5776 -0.2601 -0.6480
 2467SOL    HW118863   4.361   0.008   7.380  0.7872 -0.4797 -1.3798
 2467SOL    HW218864   4.432   4.651   7.493  0.4020  0.6384 -0.6202
 2468SOL     OW18865   0.454   0.346   3.976  0.2106  0.2982  0.0152
 2468SOL    HW118866   0.504   0.391   3.908 -0.8806 -0.5218 -1.3379
 2468SOL    HW218867   0.381   0.407   3.989  0.8325  1.3292 -1.3938
 2469SOL     OW18868   4.156   3.784  11.988 -0.0803 -0.1795 -0.2882
 2469SOL    HW118869   4.167   3.731  12.067 -0.8825 -1.7125 -1.2084
 2469SOL    HW218870   4.206   3.862  12.014 -1.1829  0.0814  1.0443
 2470SOL     OW18871   1.270   4.520   7.530 -0.0548 -0.5521 -0.1654
 2470SOL    HW118872   1.245   4.446   7.474 -1.0623  0.8950 -1.6675
 2470SOL    HW218873   1.201   4.587   7.526  1.2106  0.8489  1.7939
 2471SOL     OW18874   2.838   0.799  17.654  0.2077  0.9232 -0.5529
 2471SOL    HW118875   2.851   0.839   0.043  1.6055  0.9699 -0.7838
 2471SOL    HW218876   2.923   0.795  17.612  0.3351  0.0690 -0.2155
 2472SOL     OW18877   0.459   0.008   4.068  0.1405  0.4017  0.0291
 2472SOL    HW118878   0.476   0.051   3.985  1.4410  0.2585  0.2320
 2472SOL    HW218879   0.390   0.065   4.103 -0.2615 -0.5784  0.8426
 2473SOL     OW18880   0.189   3.485   0.256 -0.2808  0.3876  0.0327
 2473SOL    HW118881   0.223   3.439   0.332  0.5400  0.3908 -0.3353
 2473SOL    HW218882   0.261   3.537   0.219  0.6822 -1.7055 -1.0500
 2474SOL     OW18883   0.045   1.268   9.060  0.9141  0.5440  0.1655
 2474SOL    HW118884   0.132   1.299   9.083  2.2105 -3.0636  0.2586
 2474SOL    HW218885   0.076   1.194   9.007  3.7906  0.1098  2.5400
 2475SOL     OW18886   0.924   2.155   4.840 -0.0152 -0.0480 -0.4366
 2475SOL    HW118887   0.858   2.211   4.880  1.5110  1.0442  0.5811
 2475SOL    HW218888   1.000   2.190   4.888 -0.7979 -0.9588  1.4600
 2476SOL     OW18889   1.316   1.594   7.146  0.4793 -0.2343  0.1545
 2476SOL    HW118890   1.340   1.540   7.071 -0.5538 -1.9249  1.0268
 2476SOL    HW218891   1.391   1.579   7.203 -0.0648  4.0290  2.0211
 2477SOL     OW18892   0.669   1.126   8.574  0.4585  0.1605 -0.2649
 2477SOL    HW118893   0.588   1.113   8.624  0.8193 -0.8682  0.0445
 2477SOL    HW218894   0.630   1.161   8.493 -0.1477 -2.1145 -0.9514
 2478SOL     OW18895   3.463   2.538  10.118  0.0627  0.1580  0.3478
 2478SOL    HW118896   3.435   2.629  10.130  0.7088  0.4243 -0.1943
 2478SOL    HW218897   3.524   2.528  10.190  1.3720  1.5360 -0.5732
 2479SOL     OW18898   0.778   3.900   7.269 -0.3603  0.1580  0.4090
 2479SOL    HW118899   0.777   3.941   7.355 -0.0946  1.7950 -0.3783
 2479SOL    HW218900   0.815   3.815   7.296 -1.8449 -0.5213  0.3027
 2480SOL     OW18901   2.609   3.571   8.546  0.5818  0.1796 -0.5510
 2480SOL    HW118902   2.587   3.576   8.453 -2.6595  3.0445  0.3502
 2480SOL    HW218903   2.699   3.539   8.546  0.1982 -0.8603  3.8067
 2481SOL     OW18904   4.453   1.455  15.942  0.1957  0.2833  0.3262
 2481SOL    HW118905   4.506   1.377  15.958  0.6309  0.4933 -0.1002
 2481SOL    HW218906   4.475   1.502  16.023  2.7944  0.5295 -0.5247
 2482SOL     OW18907   2.168   2.065   3.194 -0.7914 -0.1722 -0.2303
 2482SOL    HW118908   2.130   2.022   3.271 -2.0067  3.4983  1.2233
 2482SOL    HW218909   2.263   2.060   3.209 -0.2484 -0.2784 -3.6781
 2483SOL     OW18910   0.405   4.290  11.300  0.2158 -0.7463  0.4460
 2483SOL    HW118911   0.353   4.215  11.271 -0.6868  0.5735 -1.3369
 2483SOL    HW218912   0.483   4.281  11.245 -0.6060  1.4325 -1.0551
 2484SOL     OW18913   3.502   4.301   1.787  0.5106  0.2235 -0.2128
 2484SOL    HW118914   3.566   4.249   1.737  0.7291 -0.4851  0.7993
 2484SOL    HW218915   3.542   4.301   1.874  1.7042 -0.1169 -0.7454
 2485SOL     OW18916   0.718   2.073   7.979  0.0291 -0.2226  0.0913
 2485SOL    HW118917   0.663   2.028   7.915 -0.6726  0.5360  0.1598
 2485SOL    HW218918   0.723   2.011   8.052  3.0735 -1.0494 -0.8159
 2486SOL     OW18919   0.744   0.726   3.552 -0.1336  0.8657 -0.0441
 2486SOL    HW118920   0.656   0.699   3.577 -0.0942  0.9045  0.1383
 2486SOL    HW218921   0.730   0.802   3.496  0.0643  1.4927  0.7570
 2487SOL     OW18922   3.141   1.420   2.603 -0.6168  0.1971  1.0960
 2487SOL    HW118923   3.110   1.470   2.528  2.8738  0.4995 -0.1788
 2487SOL    HW218924   3.225   1.380   2.580 -1.2952 -0.1948 -0.6108
 2488SOL     OW18925   2.512   1.222   8.653  0.0097  0.1341  1.1686
 2488SOL    HW118926   2.455   1.223   8.576 -0.6229  0.4758  1.6510
 2488SOL    HW218927   2.502   1.314   8.675  1.0205  0.5636 -0.1579
 2489SOL     OW18928   2.111   0.344   7.377  0.1472  0.3062 -0.1839
 2489SOL    HW118929   2.125   0.311   7.288  0.1957 -2.1357  0.7187
 2489SOL    HW218930   2.132   0.263   7.424 -2.4886  0.4696  1.2695
 2490SOL     OW18931   4.558   0.356   5.652  0.1886 -0.7967  0.9266
 2490SOL    HW118932   4.639   0.407   5.648 -1.4727  1.7043 -0.4887
 2490SOL    HW218933   4.496   0.429   5.653  0.9363 -0.1224 -0.8872
 2491SOL     OW18934   0.748   0.984  13.189 -0.0624  0.1187 -0.8421
 2491SOL    HW118935   0.789   1.028  13.264 -0.1061 -0.9159 -0.2092
 2491SOL    HW218936   0.771   0.892  13.203 -0.8937 -0.0126 -0.3277
 2492SOL     OW18937   4.672   1.671   7.828 -0.0828  0.1986  0.4923
 2492SOL    HW118938   4.639   1.649   7.741  1.1435  1.3491 -0.2602
 2492SOL    HW218939   4.716   1.750   7.799  1.5627  0.1548  2.8826
 2493SOL     OW18940   2.970   1.982  13.027  0.2541  0.4661  0.1230
 2493SOL    HW118941   2.884   1.979  13.069  0.3880 -0.0353  0.3536
 2493SOL    HW218942   2.984   2.074  13.004  1.1881  0.7182  1.7409
 2494SOL     OW18943   4.291   3.006   7.096  0.6826  0.4243 -0.3855
 2494SOL    HW118944   4.312   3.003   7.003 -0.7349  3.5984 -0.7816
 2494SOL    HW218945   4.343   3.080   7.127 -0.4351  1.3222 -0.6508
 2495SOL     OW18946   4.367   1.074   3.499  0.7044 -0.4016  0.0330
 2495SOL    HW118947   4.379   0.997   3.553 -0.7874 -0.0276  0.8874
 2495SOL    HW218948   4.441   1.133   3.517 -1.5657  2.0843  1.3189
 2496SOL     OW18949   4.495   0.353  13.502 -0.0251  0.0552 -0.1265
 2496SOL    HW118950   4.424   0.319  13.557  0.3378 -1.6825 -0.7491
 2496SOL    HW218951   4.447   0.342  13.420 -2.9047 -0.6429  1.6812
 2497SOL     OW18952   2.379   3.404  17.650  1.2842 -0.2809  0.0941
 2497SOL    HW118953   2.295   3.445  17.667  0.9104 -0.8720 -0.3566
 2497SOL    HW218954   2.417   3.476  17.598  0.2918  1.7101  2.1561
 2498SOL     OW18955   2.181   3.788   1.721  0.0256 -0.3608 -0.3725
 2498SOL    HW118956   2.125   3.811   1.796 -0.4962  0.4372 -1.0119
 2498SOL    HW218957   2.121   3.789   1.646 -1.1019 -1.7730  0.5011
 2499SOL     OW18958   2.105   3.466   7.506 -0.0803 -0.1397 -0.5945
 2499SOL    HW118959   2.058   3.518   7.570 -0.9872 -0.6519 -0.8424
 2499SOL    HW218960   2.118   3.523   7.430  0.0136 -1.0354 -1.2559
 2500SOL     OW18961   2.269   2.840   0.734  0.5055 -0.4811 -0.2720
 2500SOL    HW118962   2.317   2.797   0.663 -1.6121  0.2115 -2.1247
 2500SOL    HW218963   2.334   2.901   0.769  2.8798 -3.4105  0.4690
 2501SOL     OW18964   4.218   4.309   0.326 -0.2176  0.6354 -0.0437
 2501SOL    HW118965   4.201   4.298   0.232 -1.0125 -1.4985  0.3526
 2501SOL    HW218966   4.154   4.363   0.371 -2.9603 -0.8083 -2.1816
 2502SOL     OW18967   3.161   0.185   8.118 -0.3617 -0.2344 -0.3722
 2502SOL    HW118968   3.198   0.217   8.036  0.3063 -0.7803 -0.2771
 2502SOL    HW218969   3.068   0.204   8.107 -0.1580  1.2274  0.5474
 2503SOL     OW18970   0.955   4.520   5.204  0.2039  0.1707  0.5511
 2503SOL    HW118971   1.005   4.592   5.242  0.1417  1.0621 -1.0575
 2503SOL    HW218972   0.975   4.523   5.110  0.7081 -3.3241  0.5507
 2504SOL     OW18973   1.306   0.664   4.342  0.6410  0.3483  0.3869
 2504SOL    HW118974   1.343   0.751   4.332  0.3936  0.3593 -0.4152
 2504SOL    HW218975   1.245   0.654   4.269 -0.0415  1.2417  0.8464
 2505SOL     OW18976   0.114   2.766   1.531  0.0939  0.3611 -0.4103
 2505SOL    HW118977   0.050   2.756   1.460  0.2024 -1.2681 -0.2883
 2505SOL    HW218978   0.063   2.828   1.583  0.0169  2.2935 -2.7609
 2506SOL     OW18979   1.723   1.784  17.445 -0.4472 -0.3757 -0.1427
 2506SOL    HW118980   1.674   1.755  17.369 -0.8329  0.6981 -0.3001
 2506SOL    HW218981   1.789   1.715  17.439  0.1147  0.2644 -1.3859
 2507SOL     OW18982   3.624   4.072   8.080  0.3974  0.4187 -0.4572
 2507SOL    HW118983   3.576   3.993   8.056 -2.6588  2.0696  0.2590
 2507SOL    HW218984   3.709   4.053   8.041  0.1836  0.1685 -0.7939
 2508SOL     OW18985   4.125   0.569   7.544 -0.0951 -0.2131 -0.8617
 2508SOL    HW118986   4.069   0.551   7.468  1.1072  0.1776 -1.8475
 2508SOL    HW218987   4.085   0.648   7.581 -0.4604  0.0870 -1.9047
 2509SOL     OW18988   2.025   2.629   5.985  0.4297  0.2349  0.7650
 2509SOL    HW118989   2.008   2.564   5.917 -0.7049  1.4125 -0.0797
 2509SOL    HW218990   2.079   2.698   5.949 -0.5305  0.3083 -0.5093
 2510SOL     OW18991   3.545   1.318   5.441  0.5601 -0.1652  0.3302
 2510SOL    HW118992   3.637   1.343   5.435  0.1039  1.1239 -0.9201
 2510SOL    HW218993   3.536   1.296   5.534 -1.6614 -0.3753  0.0717
 2511SOL     OW18994   0.785   2.959  12.113  0.3974 -0.2241  1.0625
 2511SOL    HW118995   0.862   2.970  12.169 -0.2289 -0.6631  2.0029
 2511SOL    HW218996   0.826   2.961  12.027  0.6155  0.6586  1.1922
 2512SOL     OW18997   3.998   0.750   1.791 -0.1233  0.4271 -0.2517
 2512SOL    HW118998   3.906   0.773   1.796 -0.2071  0.0752 -0.1747
 2512SOL    HW218999   3.994   0.671   1.737  2.0710 -0.2872  0.6243
 2513SOL     OW19000   3.739   3.126   4.369  0.4362 -0.3449  0.4060
 2513SOL    HW119001   3.665   3.126   4.308  0.3221 -0.7682  0.5470
 2513SOL    HW219002   3.783   3.196   4.320 -4.2298  1.7588 -0.8057
 2514SOL     OW19003   3.134   0.342   6.794  0.4439  0.5007 -0.0331
 2514SOL    HW119004   3.067   0.298   6.848 -0.8335  1.2275 -1.0439
 2514SOL    HW219005   3.162   0.415   6.848  0.9966  1.2614 -1.3702
 2515SOL     OW19006   1.991   0.086   2.142  0.1410  0.4813 -0.6810
 2515SOL    HW119007   2.080   0.108   2.171 -0.3438  1.1431  0.2982
 2515SOL    HW219008   1.948   0.066   2.225  1.3761 -0.0653 -0.1618
 2516SOL     OW19009   1.111   1.751   3.859 -0.5683 -0.3742  0.3903
 2516SOL    HW119010   1.079   1.837   3.886 -0.4411  0.2505 -1.4850
 2516SOL    HW219011   1.076   1.732   3.772  1.7176  0.1945 -0.6461
 2517SOL     OW19012   2.355   2.962   1.949  0.0477 -0.0018 -0.9980
 2517SOL    HW119013   2.374   2.895   2.015 -0.3656 -1.4297 -2.3337
 2517SOL    HW219014   2.361   3.048   1.992 -2.4418  0.2611 -1.1787
 2518SOL     OW19015   0.145   0.933   5.438 -0.1772 -0.6048 -0.3829
 2518SOL    HW119016   0.221   0.945   5.496  0.0022  0.9472 -0.9586
 2518SOL    HW219017   0.105   1.019   5.443  0.8470  0.0193 -3.4181
 2519SOL     OW19018   0.229   0.584   2.007 -0.3534  0.0089 -0.2206
 2519SOL    HW119019   0.268   0.523   1.944  0.3995  1.4756 -1.1526
 2519SOL    HW219020   0.241   0.662   1.954 -1.3248 -0.3865 -1.0273
 2520SOL     OW19021   2.525   1.986   9.294 -0.3469  0.2641 -0.1292
 2520SOL    HW119022   2.501   2.062   9.241 -1.2417 -0.1177 -0.2566
 2520SOL    HW219023   2.565   2.031   9.369  1.2174  2.0255 -2.0182
 2521SOL     OW19024   3.738   3.278   9.504 -0.4730 -0.1188 -0.3052
 2521SOL    HW119025   3.820   3.231   9.490 -0.3605  0.7199 -2.4320
 2521SOL    HW219026   3.745   3.283   9.600  0.3736  0.9348 -0.4147
 2522SOL     OW19027   4.698   1.795   1.167 -0.1755  0.0926 -0.2366
 2522SOL    HW119028   4.631   1.812   1.101 -0.2831 -0.0517 -0.1639
 2522SOL    HW219029   4.649   1.780   1.247 -0.7916  0.2437 -0.5863
 2523SOL     OW19030   2.686   0.283   7.125  0.4962 -0.1309 -0.0369
 2523SOL    HW119031   2.709   0.309   7.035  3.3231 -2.3710  0.0565
 2523SOL    HW219032   2.604   0.332   7.135  1.1360  1.0361 -0.4012
 2524SOL     OW19033   1.737   1.385   0.488  0.0640 -0.3209  0.3792
 2524SOL    HW119034   1.810   1.336   0.526  1.6312  2.9540  1.5255
 2524SOL    HW219035   1.677   1.311   0.479 -0.4008  0.2369 -1.1877
 2525SOL     OW19036   0.613   2.003   6.928  0.0230 -0.2304  0.4752
 2525SOL    HW119037   0.682   1.938   6.939 -0.1929 -0.5826 -0.2384
 2525SOL    HW219038   0.662   2.059   6.868 -1.3082  2.1229  1.5644
 2526SOL     OW19039   3.607   3.070   6.665 -0.1183 -0.0446  0.3023
 2526SOL    HW119040   3.525   3.117   6.647 -1.1119 -2.1248 -0.6415
 2526SOL    HW219041   3.579   3.000   6.724  0.8531  1.3828  2.4426
 2527SOL     OW19042   0.125   3.352   4.413  0.6333  0.4868  1.1376
 2527SOL    HW119043   0.194   3.319   4.472 -0.1462  1.7975  2.7729
 2527SOL    HW219044   0.046   3.298   4.421  0.5817  0.0407 -2.4174
 2528SOL     OW19045   1.530   1.146  16.529  0.4240  0.2058  0.7565
 2528SOL    HW119046   1.554   1.057  16.554 -0.0537 -0.0571  0.2906
 2528SOL    HW219047   1.610   1.198  16.529 -0.8754  2.2360  0.2194
 2529SOL     OW19048   1.930   4.347   2.213 -0.1756 -0.2007  0.1001
 2529SOL    HW119049   1.953   4.347   2.120 -2.1365 -1.5033 -0.3878
 2529SOL    HW219050   2.013   4.346   2.260 -1.6822 -2.0261  2.7462
 2530SOL     OW19051   3.576   0.020   3.513 -0.7326 -0.1401 -0.3816
 2530SOL    HW119052   3.524   0.088   3.469 -1.0368 -1.2766 -1.7755
 2530SOL    HW219053   3.511   4.682   3.547  2.2488 -3.2213 -0.3395
 2531SOL     OW19054   4.492   0.852   6.525 -0.1337  0.0722 -0.3218
 2531SOL    HW119055   4.402   0.883   6.514 -0.3805 -0.1935  0.9082
 2531SOL    HW219056   4.497   0.874   6.618  1.8198 -1.6832  0.0120
 2532SOL     OW19057   2.872   0.929   5.537  0.2245  0.4045 -0.1721
 2532SOL    HW119058   2.891   0.843   5.574  0.6714  0.1127 -1.0669
 2532SOL    HW219059   2.937   0.986   5.577  0.7486  0.3284 -0.9183
 2533SOL     OW19060   3.982   0.997  12.787  0.0728  0.4165  0.3908
 2533SOL    HW119061   3.897   0.958  12.765 -0.3636  1.6460 -0.0904
 2533SOL    HW219062   3.939   1.048  12.855  2.1714  0.3222  1.8026
 2534SOL     OW19063   2.522   0.064   7.119  0.0067  0.3844 -0.0853
 2534SOL    HW119064   2.540   0.035   7.209 -1.0162 -3.2865 -1.0710
 2534SOL    HW219065   2.572   0.145   7.114  0.8258 -0.0697  0.6829
 2535SOL     OW19066   2.441   3.612   5.556  0.7604 -0.6762 -0.4029
 2535SOL    HW119067   2.403   3.638   5.473 -1.4028 -2.2410  0.1066
 2535SOL    HW219068   2.377   3.557   5.601 -0.3256  1.1808  0.3058
 2536SOL     OW19069   0.151   4.010   9.726  0.1791  0.0698 -0.6052
 2536SOL    HW119070   0.076   3.973   9.679 -0.6293  0.8394  0.1021
 2536SOL    HW219071   0.132   3.984   9.816  1.5117 -2.7843 -1.1518
 2537SOL     OW19072   2.763   2.921   4.221  0.2224 -0.6404  0.1069
 2537SOL    HW119073   2.731   3.011   4.219  0.2722 -0.6086  0.7097
 2537SOL    HW219074   2.807   2.921   4.136 -2.2528  1.1771 -1.1767
 2538SOL     OW19075   0.133   4.580  10.356 -0.0296  0.3413  0.2512
 2538SOL    HW119076   0.108   4.645  10.422 -0.1277 -0.8436  1.3843
 2538SOL    HW219077   0.191   4.628  10.297  0.2302  1.7130  1.6259
 2539SOL     OW19078   3.504   3.570   2.640 -0.3943  0.3699 -0.2796
 2539SOL    HW119079   3.415   3.536   2.643 -0.2880  0.1273  0.2859
 2539SOL    HW219080   3.553   3.488   2.637 -2.0787 -0.6180 -1.0818
 2540SOL     OW19081   0.221   1.532  14.781 -0.4527 -0.2356  0.2903
 2540SOL    HW119082   0.156   1.466  14.757 -0.0619  0.1807 -1.9354
 2540SOL    HW219083   0.255   1.532  14.691  0.8520 -0.4698  0.7915
 2541SOL     OW19084   0.867   3.888   4.301  0.9141 -0.6990 -0.1899
 2541SOL    HW119085   0.897   3.806   4.339  0.1551 -0.4378  0.9344
 2541SOL    HW219086   0.802   3.849   4.243  0.7803 -1.5889  0.5698
 2542SOL     OW19087   1.356   2.047   2.262 -0.1288 -0.1520 -0.1872
 2542SOL    HW119088   1.342   1.954   2.280  0.3312  0.4199  3.1706
 2542SOL    HW219089   1.275   2.090   2.290  0.4887  0.3317  0.8557
 2543SOL     OW19090   1.283   0.559   3.490  0.2194 -0.5551  0.1851
 2543SOL    HW119091   1.335   0.572   3.411 -0.6229  0.6855 -0.1579
 2543SOL    HW219092   1.278   0.650   3.518  0.8285 -1.3904  2.9646
 2544SOL     OW19093   0.364   4.421   7.162  0.2887  0.4645  0.3921
 2544SOL    HW119094   0.363   4.336   7.205  0.0608 -0.6049 -1.7348
 2544SOL    HW219095   0.344   4.386   7.076  0.2104  2.2528 -0.3233
 2545SOL     OW19096   4.541   1.375  14.791 -0.3796  0.7694  0.5189
 2545SOL    HW119097   4.618   1.432  14.801  0.9219 -0.5879 -1.7121
 2545SOL    HW219098   4.523   1.371  14.885 -3.2625 -2.3753 -0.1824
 2546SOL     OW19099   3.290   1.307  17.430 -0.0933 -0.3909  0.0215
 2546SOL    HW119100   3.299   1.228  17.482 -0.5726 -0.9217 -0.6865
 2546SOL    HW219101   3.383   1.329  17.421 -0.2701  1.1127  1.9374
 2547SOL     OW19102   2.963   4.471   2.295 -0.0665 -0.4774 -0.4920
 2547SOL    HW119103   3.032   4.418   2.333 -1.2172 -0.8905  1.0167
 2547SOL    HW219104   3.017   4.533   2.246 -0.9080  0.8424  0.2375
 2548SOL     OW19105   0.491   4.577   4.609  0.4914  0.2089  0.5906
 2548SOL    HW119106   0.564   4.621   4.652  2.6510 -1.5605 -1.2542
 2548SOL    HW219107   0.516   4.567   4.517 -0.6129 -2.2582  0.5459
 2549SOL     OW19108   2.643   4.669  16.299  0.1970  0.3758 -0.6724
 2549SOL    HW119109   2.610   0.004  16.367  0.7625  0.0074 -0.0841
 2549SOL    HW219110   2.718   4.723  16.272  0.8989 -0.5169 -0.4840
 2550SOL     OW19111   1.892   0.076   0.680  0.2756 -0.1158  0.3806
 2550SOL    HW119112   1.956   0.145   0.696 -0.7017  0.3377  2.2835
 2550SOL    HW219113   1.814   0.095   0.732  1.9476  2.4091  1.9186
 2551SOL     OW19114   0.178   1.506   8.492  0.1002 -0.0526 -0.2955
 2551SOL    HW119115   0.101   1.482   8.441  0.3528 -1.5468  0.0159
 2551SOL    HW219116   0.230   1.426   8.492  0.6685  0.2875  4.1153
 2552SOL     OW19117   1.591   1.647   5.747 -0.0460  0.4041 -0.6013
 2552SOL    HW119118   1.628   1.722   5.796 -0.3103 -0.5806  1.1200
 2552SOL    HW219119   1.671   1.613   5.706 -0.8153 -1.9095 -0.1851
 2553SOL     OW19120   3.922   2.678   6.724 -0.6475 -0.0350  0.3610
 2553SOL    HW119121   3.931   2.585   6.703  1.9039 -0.1677  2.0671
 2553SOL    HW219122   3.913   2.690   6.818  1.6545 -0.3955  0.6240
 2554SOL     OW19123   3.602   4.443  12.985  0.4243 -0.0190 -0.1063
 2554SOL    HW119124   3.559   4.446  12.900  1.1078 -0.1853 -0.4630
 2554SOL    HW219125   3.531   4.452  13.048  1.0483  1.4230  0.3814
 2555SOL     OW19126   1.414   0.812   1.187  0.0032  0.3769 -0.1553
 2555SOL    HW119127   1.430   0.718   1.189 -0.1948  0.3233 -1.0471
 2555SOL    HW219128   1.411   0.824   1.282 -1.5750  0.0786 -0.1644
 2556SOL     OW19129   1.152   0.502   4.563 -0.0521 -0.5052 -0.3517
 2556SOL    HW119130   1.085   0.489   4.496  0.2564 -0.8377 -0.5966
 2556SOL    HW219131   1.227   0.529   4.509 -0.2269  1.0306  0.1602
 2557SOL     OW19132   2.925   3.236   7.088  0.5078  0.3244 -0.2260
 2557SOL    HW119133   2.941   3.156   7.138  0.7825  0.0957 -0.6837
 2557SOL    HW219134   2.996   3.231   7.024 -0.0743 -1.1292 -0.7504
 2558SOL     OW19135   4.401   3.039   8.601  0.1202 -0.4007 -0.0211
 2558SOL    HW119136   4.391   3.025   8.695 -1.5571  2.6927  0.2763
 2558SOL    HW219137   4.493   3.016   8.587  0.2832 -0.4911  1.2436
 2559SOL     OW19138   1.593   1.489  12.015  0.6313 -0.3681 -0.2085
 2559SOL    HW119139   1.580   1.486  12.110  1.9919  4.0554  0.1241
 2559SOL    HW219140   1.537   1.417  11.987  2.5891 -2.5433  1.5344
 2560SOL     OW19141   0.907   0.872   8.237  0.0178 -0.3662  0.3543
 2560SOL    HW119142   0.860   0.871   8.321  0.4893 -1.2447  0.6109
 2560SOL    HW219143   0.883   0.797   8.183 -1.9851 -1.8381  3.2810
 2561SOL     OW19144   4.189   3.896   2.756 -0.3717  0.0383  0.1599
 2561SOL    HW119145   4.117   3.932   2.809 -0.1974  1.6715 -0.7019
 2561SOL    HW219146   4.227   3.971   2.710  1.5920 -0.9767  0.1343
 2562SOL     OW19147   0.351   0.391  12.437 -0.6180 -0.3851 -0.1211
 2562SOL    HW119148   0.256   0.402  12.427 -0.5265 -0.3211 -0.9242
 2562SOL    HW219149   0.383   0.438  12.360 -2.4141 -0.9294 -1.1945
 2563SOL     OW19150   3.473   0.277   4.825  0.3485 -0.0386  0.1658
 2563SOL    HW119151   3.389   0.304   4.789  0.2153  0.6029  0.9679
 2563SOL    HW219152   3.536   0.322   4.768 -1.2281  0.7462 -0.9668
 2564SOL     OW19153   1.415   4.475   1.949 -0.2159  0.2192  0.1681
 2564SOL    HW119154   1.418   4.383   1.977 -2.3105 -0.3211 -1.3742
 2564SOL    HW219155   1.485   4.512   2.003  0.9809 -1.6747 -0.0869
 2565SOL     OW19156   1.094   2.466   6.536 -0.4266  0.2058  0.4526
 2565SOL    HW119157   1.101   2.374   6.562 -1.4405 -0.4128 -1.4852
 2565SOL    HW219158   1.126   2.460   6.446  3.5191 -0.3119  1.9207
 2566SOL     OW19159   2.945   0.330   2.111 -0.6769 -0.2835  0.3137
 2566SOL    HW119160   3.001   0.305   2.037 -3.2514 -0.0917 -1.7289
 2566SOL    HW219161   2.936   0.255   2.170 -1.2199 -0.4039  0.0775
 2567SOL     OW19162   3.227   4.354  11.014  0.5154  0.0475 -0.8731
 2567SOL    HW119163   3.171   4.429  10.993 -0.6332 -0.4450  0.3820
 2567SOL    HW219164   3.197   4.339  11.104 -1.9933 -1.7602 -2.0029
 2568SOL     OW19165   0.732   2.796   6.626 -0.1818  0.0520 -0.3056
 2568SOL    HW119166   0.751   2.775   6.535  0.3359  0.6905 -0.3494
 2568SOL    HW219167   0.798   2.863   6.648  0.4056 -0.0480 -1.7891
 2569SOL     OW19168   1.772   3.558   8.016 -0.6653 -0.0294  0.1752
 2569SOL    HW119169   1.789   3.615   8.091 -0.7134  0.5420 -0.2473
 2569SOL    HW219170   1.733   3.481   8.056  0.4658  0.2573  1.8602
 2570SOL     OW19171   1.171   1.246   4.279  0.0972  0.3349 -1.2229
 2570SOL    HW119172   1.181   1.262   4.373 -1.1189  2.5576 -1.4680
 2570SOL    HW219173   1.100   1.310   4.274  0.2187  0.6594  1.2557
 2571SOL     OW19174   3.358   2.828   4.451 -0.0162 -0.2912 -0.2501
 2571SOL    HW119175   3.449   2.799   4.441  0.0950 -0.0213 -0.0044
 2571SOL    HW219176   3.321   2.793   4.531 -1.7073  0.0930 -0.8702
 2572SOL     OW19177   1.724   0.096   5.218  0.0122 -0.1759 -0.0681
 2572SOL    HW119178   1.779   0.146   5.277  3.3710 -1.8313 -1.8010
 2572SOL    HW219179   1.725   0.010   5.260 -1.5489  0.3461  1.0464
 2573SOL     OW19180   1.486   1.362  16.800  0.3405 -0.6705 -0.5043
 2573SOL    HW119181   1.515   1.378  16.710  1.0688 -0.2777 -0.1998
 2573SOL    HW219182   1.535   1.433  16.841  0.1793 -0.6907 -0.2773
 2574SOL     OW19183   3.821   0.458   4.107 -0.1245  0.1712 -0.6223
 2574SOL    HW119184   3.812   0.371   4.068 -1.8324  1.0691 -2.2097
 2574SOL    HW219185   3.861   0.495   4.028 -2.2318  0.6489 -1.4757
 2575SOL     OW19186   4.444   3.308   2.555 -0.2816  0.3812  0.2253
 2575SOL    HW119187   4.502   3.383   2.544  0.6476 -0.6482 -2.1299
 2575SOL    HW219188   4.488   3.249   2.493 -0.5614  2.0806 -1.6054
 2576SOL     OW19189   4.637   3.629   0.507 -0.0484  0.6166  1.0106
 2576SOL    HW119190   0.001   3.662   0.526 -0.1962  2.4462 -1.4959
 2576SOL    HW219191   4.637   3.547   0.556 -1.8477 -1.2801 -2.1353
 2577SOL     OW19192   3.007   2.424   6.365 -0.0902  0.6943 -0.0056
 2577SOL    HW119193   3.000   2.427   6.270  2.3575 -0.6762 -0.2354
 2577SOL    HW219194   3.085   2.371   6.378 -0.7948 -0.5422 -0.8355
 2578SOL     OW19195   0.122   0.221   1.240 -0.2420  0.3955  0.2503
 2578SOL    HW119196   0.130   0.196   1.148 -1.5283 -0.0366  0.2488
 2578SOL    HW219197   0.051   0.287   1.244 -0.5277  0.1601 -0.9024
 2579SOL     OW19198   0.146   0.267  14.692  0.4169 -0.2251  0.1082
 2579SOL    HW119199   0.079   0.227  14.635  2.6494 -2.5633 -0.8546
 2579SOL    HW219200   0.231   0.261  14.649  1.0358 -0.6135  1.3991
 2580SOL     OW19201   0.177   3.724   5.108 -0.0388 -0.5390  0.0625
 2580SOL    HW119202   0.254   3.720   5.050  0.0058 -0.6205  0.1275
 2580SOL    HW219203   0.208   3.670   5.180 -2.0300 -1.0827  0.5060
 2581SOL     OW19204   4.312   3.939   0.520  0.4997 -0.2698  0.3382
 2581SOL    HW119205   4.279   4.024   0.550  1.0114  0.3496 -0.8701
 2581SOL    HW219206   4.357   3.964   0.439  0.0799 -1.2505 -0.1991
 2582SOL     OW19207   1.631   0.571   4.047 -0.1296  0.1788  0.1377
 2582SOL    HW119208   1.648   0.573   3.953  1.6990 -1.8351  0.4176
 2582SOL    HW219209   1.600   0.658   4.070  0.6422  0.4690  0.0795
 2583SOL     OW19210   0.709   1.985   7.565  0.3969 -0.0554  0.3857
 2583SOL    HW119211   0.741   1.896   7.552  0.1953  0.1205 -1.2677
 2583SOL    HW219212   0.616   1.964   7.575  0.2167  0.4679 -0.1947
 2584SOL     OW19213   3.074   1.867   2.461  0.3587  0.2289 -0.6392
 2584SOL    HW119214   3.044   1.847   2.372 -3.3302 -1.5387  1.0170
 2584SOL    HW219215   2.992   1.880   2.509  0.2429  1.2925 -1.1219
 2585SOL     OW19216   0.908   2.485   7.474 -0.0538  0.2513  0.9203
 2585SOL    HW119217   0.906   2.461   7.381 -0.8539  0.3263  0.9204
 2585SOL    HW219218   0.858   2.413   7.512 -0.8121  2.1010  3.4347
 2586SOL     OW19219   3.594   4.305   2.064  0.5129 -0.4242 -0.0285
 2586SOL    HW119220   3.665   4.241   2.063  0.5402 -0.4068  1.8679
 2586SOL    HW219221   3.633   4.371   2.122  0.5902 -0.9591  0.5259
 2587SOL     OW19222   0.630   2.266   3.497  0.1887  0.1065 -0.0531
 2587SOL    HW119223   0.557   2.213   3.532 -0.3820  0.5478 -0.5871
 2587SOL    HW219224   0.633   2.227   3.410 -1.0548 -2.9107  1.2255
 2588SOL     OW19225   0.187   1.776   2.372  0.0622 -0.0413  0.0389
 2588SOL    HW119226   0.112   1.799   2.427 -0.4604 -2.1119  0.2123
 2588SOL    HW219227   0.253   1.828   2.418 -0.1743 -0.8162  1.2575
 2589SOL     OW19228   4.415   2.975   2.170 -0.2919 -0.2949  0.3550
 2589SOL    HW119229   4.329   2.987   2.130  0.2579 -1.2473 -1.1198
 2589SOL    HW219230   4.398   2.886   2.203  0.1772  0.1238  1.7471
 2590SOL     OW19231   4.356   4.232   3.218  0.6809 -0.0965  0.0733
 2590SOL    HW119232   4.432   4.276   3.256  0.8972 -1.0802  0.7725
 2590SOL    HW219233   4.282   4.285   3.245 -0.4022 -1.3084 -0.5353
 2591SOL     OW19234   3.255   3.818  11.865 -0.2485  0.1066  0.1244
 2591SOL    HW119235   3.291   3.866  11.939  0.9333 -1.0011  0.2602
 2591SOL    HW219236   3.225   3.891  11.810  2.5674  1.0652 -0.0958
 2592SOL     OW19237   4.287   4.361   5.095 -0.4982 -0.0809  0.5732
 2592SOL    HW119238   4.205   4.316   5.074  1.7165 -3.3319 -1.1443
 2592SOL    HW219239   4.324   4.307   5.165 -0.2516  0.8782  1.1774
 2593SOL     OW19240   1.202   0.270   4.349 -0.0553  0.4385 -0.1141
 2593SOL    HW119241   1.196   0.306   4.260 -0.7361  1.0962  0.1970
 2593SOL    HW219242   1.116   0.246   4.383 -0.6535 -0.0690 -1.9450
 2594SOL     OW19243   4.094   0.456   8.018  0.8110 -0.7494 -0.3991
 2594SOL    HW119244   4.163   0.513   7.984  2.0063 -1.2660  1.1653
 2594SOL    HW219245   4.015   0.490   7.976  0.3268 -0.7528  0.4918
 2595SOL     OW19246   2.914   1.620   5.595 -0.1253  0.3748  0.4631
 2595SOL    HW119247   2.961   1.621   5.511  0.5032  1.3242  0.8272
 2595SOL    HW219248   2.909   1.525   5.602 -0.6070  0.2340 -1.7771
 2596SOL     OW19249   4.715   1.297   4.951  0.3884  0.8716 -0.9580
 2596SOL    HW119250   0.049   1.224   4.929  0.4421  0.8423 -0.7234
 2596SOL    HW219251   0.034   1.327   5.031 -0.2756 -0.7594  0.0057
 2597SOL     OW19252   0.189   3.261   5.778 -0.2603 -0.3506  0.0015
 2597SOL    HW119253   0.157   3.346   5.809  0.0826  0.0967 -0.8518
 2597SOL    HW219254   0.279   3.264   5.810  0.7753 -3.0520 -2.5892
 2598SOL     OW19255   3.322   0.503  10.618  0.0417 -0.0751  0.3845
 2598SOL    HW119256   3.313   0.577  10.558 -0.5322 -0.1906  0.3195
 2598SOL    HW219257   3.229   0.480  10.627 -0.1338  0.0259 -1.2646
 2599SOL     OW19258   3.501   0.921  13.363  0.2396  0.2224 -0.0848
 2599SOL    HW119259   3.436   0.955  13.301 -0.0435 -3.4701 -1.8212
 2599SOL    HW219260   3.454   0.860  13.419  1.4687  0.2130  0.9355
 2600SOL     OW19261   4.345   2.632   3.968  0.2138  0.1749 -0.0929
 2600SOL    HW119262   4.288   2.634   4.045 -0.5888 -1.6528 -0.6743
 2600SOL    HW219263   4.430   2.608   4.006 -0.4710  1.2988  2.1778
 2601SOL     OW19264   4.272   0.831   6.931 -0.0254  0.1299 -0.0799
 2601SOL    HW119265   4.336   0.773   6.974  0.2814  1.8555  1.8032
 2601SOL    HW219266   4.337   0.888   6.889 -0.7318  0.6721 -0.4375
 2602SOL     OW19267   0.774   3.037   2.660  0.2862  0.3208  0.4011
 2602SOL    HW119268   0.835   3.111   2.658  0.4645  0.1448 -0.5589
 2602SOL    HW219269   0.761   3.017   2.753  1.4918  1.1936  0.7635
 2603SOL     OW19270   2.961   4.066  17.145 -0.1220  0.0719  0.0492
 2603SOL    HW119271   3.041   4.015  17.157  0.2610  0.8180  0.6963
 2603SOL    HW219272   2.978   4.141  17.203  0.9652 -0.2466  0.1352
 2604SOL     OW19273   2.465   2.418  14.584  0.5558 -0.3443  0.0894
 2604SOL    HW119274   2.407   2.356  14.626 -1.5384  1.2746 -0.4380
 2604SOL    HW219275   2.401   2.487  14.571 -0.2635 -1.4615 -1.8438
 2605SOL     OW19276   2.091   4.673   3.082 -0.2278 -0.1026 -0.0649
 2605SOL    HW119277   2.088   4.641   3.172 -1.2020 -0.4500 -0.2212
 2605SOL    HW219278   2.181   4.646   3.060 -0.8237 -1.4179 -0.9031
 2606SOL     OW19279   1.541   2.216   6.501  0.4512  0.4950  0.2231
 2606SOL    HW119280   1.611   2.280   6.508  0.7524  0.4793 -2.6849
 2606SOL    HW219281   1.484   2.243   6.573 -2.2084  3.0462 -2.8835
 2607SOL     OW19282   2.135   4.542   3.708 -0.3913 -0.0133 -0.4767
 2607SOL    HW119283   2.196   4.469   3.705  0.9291  1.0519  0.8170
 2607SOL    HW219284   2.151   4.592   3.788  0.8173 -1.8507  0.4300
 2608SOL     OW19285   2.349   2.492   9.037 -0.4746  0.5335 -0.0395
 2608SOL    HW119286   2.412   2.482   9.109  0.2076 -0.9077 -0.8379
 2608SOL    HW219287   2.271   2.447   9.068 -0.1079  0.4975  0.8532
 2609SOL     OW19288   3.384   1.358  15.855 -0.0686  0.5494 -0.2625
 2609SOL    HW119289   3.441   1.423  15.897 -0.2227  1.6037 -1.6621
 2609SOL    HW219290   3.391   1.388  15.764  2.8703 -2.6462 -1.0905
 2610SOL     OW19291   3.879   0.992  16.941  0.0700 -0.3395 -0.3468
 2610SOL    HW119292   3.897   1.032  16.856 -0.6534 -3.2133 -1.8646
 2610SOL    HW219293   3.861   0.903  16.909 -1.6676  0.2070 -0.8979
 2611SOL     OW19294   2.119   4.681   7.833  0.2461 -0.5629  0.3743
 2611SOL    HW119295   2.024   4.691   7.833  0.8100  4.5175 -0.1038
 2611SOL    HW219296   2.133   4.588   7.815 -0.0138  0.0551 -2.9869
 2612SOL     OW19297   2.560   4.565   3.607 -0.0841 -0.1678 -0.1204
 2612SOL    HW119298   2.653   4.566   3.632 -1.1321  0.2355  3.6543
 2612SOL    HW219299   2.538   4.656   3.587  2.1916  0.8265  1.8212
 2613SOL     OW19300   0.586   3.004  16.908  0.5703  0.2459 -0.0375
 2613SOL    HW119301   0.575   3.038  16.997 -2.2092 -0.2947 -0.1668
 2613SOL    HW219302   0.681   3.009  16.903  0.5101  1.8197  0.5565
 2614SOL     OW19303   4.505   1.149   7.391 -0.2377  0.3292  0.2615
 2614SOL    HW119304   4.595   1.171   7.417  0.1546 -1.6596  0.6118
 2614SOL    HW219305   4.476   1.104   7.470  0.1038 -1.1973 -0.4710
 2615SOL     OW19306   0.558   3.585   8.293 -0.5044  0.1285  0.6713
 2615SOL    HW119307   0.596   3.497   8.287 -2.5359 -0.5724 -1.9836
 2615SOL    HW219308   0.483   3.565   8.237  0.2132  0.6634 -0.4726
 2616SOL     OW19309   2.625   1.281   0.544 -0.1682  0.1777 -0.1809
 2616SOL    HW119310   2.572   1.228   0.485  0.7056  0.2288 -1.0152
 2616SOL    HW219311   2.604   1.372   0.524 -0.0249  0.3220  0.3132
 2617SOL     OW19312   4.699   0.835  10.907  0.2569  0.2772  0.0365
 2617SOL    HW119313   0.039   0.906  10.918 -0.4704  1.0055 -0.4964
 2617SOL    HW219314   4.636   0.855  10.976 -0.2053  0.5245 -0.4580
 2618SOL     OW19315   1.333   3.326   3.783  0.3732 -0.0579 -0.9339
 2618SOL    HW119316   1.348   3.262   3.714  3.3312  2.5449 -2.7328
 2618SOL    HW219317   1.272   3.279   3.838  1.5359  0.8101  1.1090
 2619SOL     OW19318   2.225   0.379  17.623  0.4477  0.1927  0.3136
 2619SOL    HW119319   2.154   0.407  17.565 -0.3395  1.9130  2.1003
 2619SOL    HW219320   2.307   0.393  17.575  0.9550  0.4211  1.2374
 2620SOL     OW19321   4.364   2.225  12.103 -0.1107 -0.1004 -0.1130
 2620SOL    HW119322   4.428   2.159  12.079 -0.2339 -0.8442  1.5887
 2620SOL    HW219323   4.288   2.172  12.081 -0.4279  0.0866  0.5224
 2621SOL     OW19324   0.866   4.368   4.347 -0.1837  0.6655 -0.5493
 2621SOL    HW119325   0.953   4.341   4.319  0.2870  1.0384  0.5525
 2621SOL    HW219326   0.851   4.326   4.432  0.0728  1.1950 -0.2457
 2622SOL     OW19327   4.199   4.609   8.954 -0.3732 -0.1771  0.0714
 2622SOL    HW119328   4.152   4.677   9.002  1.2907  0.9828  0.0662
 2622SOL    HW219329   4.148   4.603   8.873 -1.9902  0.9064  0.9974
 2623SOL     OW19330   2.375   2.190   9.206  0.1845 -0.2213  0.4576
 2623SOL    HW119331   2.291   2.175   9.249 -0.6462 -1.8798 -1.7819
 2623SOL    HW219332   2.345   2.188   9.116  1.7459 -1.5877 -0.0332
 2624SOL     OW19333   4.148   4.273   9.510 -0.3398  0.1512 -0.0212
 2624SOL    HW119334   4.157   4.334   9.583 -0.1821  0.6997 -0.5023
 2624SOL    HW219335   4.178   4.325   9.436  4.0734 -0.6385  1.2093
 2625SOL     OW19336   2.339   4.404  12.295  0.0497 -0.3316  0.4338
 2625SOL    HW119337   2.433   4.419  12.281  0.3339 -1.6356  0.9139
 2625SOL    HW219338   2.340   4.318  12.337 -1.2462 -1.3354 -1.5733
 2626SOL     OW19339   1.789   1.077  10.137  0.0726 -0.2370  0.3871
 2626SOL    HW119340   1.806   1.152  10.194  1.1711 -0.7898  0.7818
 2626SOL    HW219341   1.877   1.069  10.100 -0.2138  1.5773 -0.7235
 2627SOL     OW19342   1.296   3.855   7.882  1.3765 -0.1865 -0.0089
 2627SOL    HW119343   1.251   3.939   7.893  1.3463 -0.4575  1.9582
 2627SOL    HW219344   1.380   3.870   7.927  0.2272 -0.2300  2.1437
 2628SOL     OW19345   0.988   1.448   1.108 -0.3006 -0.3679  1.0365
 2628SOL    HW119346   0.906   1.480   1.143 -0.8522 -0.1037 -0.4985
 2628SOL    HW219347   1.051   1.483   1.171 -0.2292 -1.2556  1.4581
 2629SOL     OW19348   0.951   2.399   5.518 -0.1681  0.0728  0.0893
 2629SOL    HW119349   0.883   2.351   5.565  0.3478  0.0348  0.7920
 2629SOL    HW219350   0.933   2.493   5.529  1.1175  0.6356 -2.6245
 2630SOL     OW19351   0.674   4.574   7.056 -0.0011  0.0675  0.8793
 2630SOL    HW119352   0.591   4.533   7.080 -0.3569  0.7237  0.7827
 2630SOL    HW219353   0.726   4.493   7.054  0.6030  0.5269 -3.2432
 2631SOL     OW19354   3.385   3.933  11.587 -0.3571 -0.0922  0.0947
 2631SOL    HW119355   3.439   3.855  11.577 -1.0528 -0.7349  1.2383
 2631SOL    HW219356   3.333   3.935  11.507 -1.1109  0.4230  0.5908
 2632SOL     OW19357   0.334   1.682   7.431 -0.5411 -0.3204  0.0910
 2632SOL    HW119358   0.306   1.728   7.352 -1.0611 -2.4195 -0.9438
 2632SOL    HW219359   0.252   1.643   7.462  0.0861 -2.4971 -1.0179
 2633SOL     OW19360   2.767   2.210   2.030  0.0152 -0.0302 -0.1700
 2633SOL    HW119361   2.703   2.194   2.099  0.4478 -0.1290  0.2096
 2633SOL    HW219362   2.729   2.176   1.950 -1.0408  2.5977 -0.7857
 2634SOL     OW19363   1.579   2.684   6.533 -0.0796  0.2992  0.0261
 2634SOL    HW119364   1.542   2.738   6.603 -1.7065  0.4717 -0.9491
 2634SOL    HW219365   1.629   2.624   6.588  0.1624  1.3264  0.9101
 2635SOL     OW19366   0.099   3.639   4.619  0.1428 -0.1227  0.6254
 2635SOL    HW119367   0.117   3.545   4.622  0.7724  0.0221  1.5036
 2635SOL    HW219368   0.166   3.666   4.555 -0.9957  0.1942 -0.4326
 2636SOL     OW19369   1.137   3.878   5.506 -0.1622 -0.1680  0.0530
 2636SOL    HW119370   1.067   3.907   5.448 -1.3121  0.9441  1.9615
 2636SOL    HW219371   1.171   3.957   5.549 -2.5063  2.2505 -2.5558
 2637SOL     OW19372   2.048   0.070  17.022 -0.2185  0.4200 -0.8876
 2637SOL    HW119373   2.141   0.075  17.002  0.2100 -0.9284  0.8660
 2637SOL    HW219374   2.050   0.103  17.111  0.6867 -0.8529 -0.4414
 2638SOL     OW19375   0.178   2.331   8.726 -0.3444 -0.8194 -0.3189
 2638SOL    HW119376   0.227   2.260   8.684  1.8028 -0.8307  2.1315
 2638SOL    HW219377   0.090   2.295   8.731  0.1368 -2.2375 -2.1127
 2639SOL     OW19378   1.716   1.488   7.409 -0.3409 -0.0435  0.3405
 2639SOL    HW119379   1.742   1.418   7.469  2.3163  0.2493 -0.4865
 2639SOL    HW219380   1.742   1.449   7.326  0.9272 -0.6557  1.0245
 2640SOL     OW19381   3.673   0.302  11.919  0.4022 -0.2725  0.0440
 2640SOL    HW119382   3.768   0.293  11.928  0.3593  0.4018  1.1705
 2640SOL    HW219383   3.670   0.385  11.871 -1.3992 -0.3475  0.0313
 2641SOL     OW19384   3.954   2.478   8.674  0.1867  0.4930 -0.1280
 2641SOL    HW119385   3.981   2.570   8.664  2.6868 -0.3267 -0.9750
 2641SOL    HW219386   3.863   2.495   8.697  0.8546  3.6068  0.2364
 2642SOL     OW19387   0.195   1.213  12.076 -0.1281 -0.4220 -0.2482
 2642SOL    HW119388   0.113   1.201  12.030 -0.2560 -0.2458 -0.0660
 2642SOL    HW219389   0.252   1.165  12.016  1.7452  0.5566  0.7211
 2643SOL     OW19390   3.335   3.700   3.377 -0.3212 -0.3085 -0.5592
 2643SOL    HW119391   3.295   3.780   3.343 -2.0333 -1.4832 -1.3170
 2643SOL    HW219392   3.393   3.742   3.441 -1.6901 -0.9852  1.1186
 2644SOL     OW19393   4.167   2.037   3.435  0.2196 -0.4198  0.4306
 2644SOL    HW119394   4.195   2.128   3.433 -0.6387 -0.2214 -2.3022
 2644SOL    HW219395   4.093   2.039   3.374  2.3585 -0.3737 -2.1530
 2645SOL     OW19396   4.264   1.747   8.440 -0.4556 -0.4389  0.2525
 2645SOL    HW119397   4.200   1.753   8.369 -0.8964 -3.6366  0.4135
 2645SOL    HW219398   4.256   1.652   8.444 -0.7619 -0.5124 -1.7465
 2646SOL     OW19399   3.485   2.070  16.802  0.1534  0.4617  0.2449
 2646SOL    HW119400   3.518   2.061  16.713  2.6854 -1.6354  1.4042
 2646SOL    HW219401   3.392   2.058  16.782  0.1621  1.5809 -0.4646
 2647SOL     OW19402   0.703   2.684  12.385 -0.1544 -0.1607 -0.1456
 2647SOL    HW119403   0.616   2.722  12.379 -0.4201 -0.0403  4.2780
 2647SOL    HW219404   0.736   2.740  12.456  1.6785  0.2361 -1.2985
 2648SOL     OW19405   1.383   0.318   6.221 -0.5461  0.2081 -0.0541
 2648SOL    HW119406   1.429   0.368   6.154  3.0563 -1.2319  1.3339
 2648SOL    HW219407   1.309   0.292   6.167  1.5344  0.9882 -3.3013
 2649SOL     OW19408   2.981   0.181  13.989 -0.0141 -0.4750  0.0316
 2649SOL    HW119409   3.022   0.178  14.076 -0.7112 -0.4129  0.3578
 2649SOL    HW219410   2.983   0.276  13.977  0.2128 -0.4821  0.0078
 2650SOL     OW19411   4.343   1.564   6.898  0.3558 -0.1852  0.3855
 2650SOL    HW119412   4.266   1.508   6.911 -1.0449  1.1959 -1.8791
 2650SOL    HW219413   4.297   1.648   6.891 -1.0558 -0.9211  0.7983
 2651SOL     OW19414   1.280   1.957   3.107 -0.6384  0.0875  0.4342
 2651SOL    HW119415   1.205   2.017   3.105  0.9265  1.9979 -0.4933
 2651SOL    HW219416   1.343   2.021   3.076 -2.1666  0.3886 -2.0851
 2652SOL     OW19417   0.032   0.789   8.229 -0.4488  0.3023  0.2907
 2652SOL    HW119418   4.686   0.845   8.262 -0.7049  0.1597 -0.0060
 2652SOL    HW219419   4.693   0.729   8.189  0.2474 -1.0718  1.2887
 2653SOL     OW19420   3.948   3.693   3.762 -0.3269 -0.3512 -0.2358
 2653SOL    HW119421   3.957   3.637   3.839 -0.0591 -0.1523 -0.1239
 2653SOL    HW219422   3.927   3.628   3.695  0.1868 -0.2361 -0.5069
 2654SOL     OW19423   0.486   3.605   6.170 -0.4866  0.1383 -0.0946
 2654SOL    HW119424   0.444   3.607   6.256 -1.2543  0.7740 -0.4788
 2654SOL    HW219425   0.420   3.557   6.120  1.0619 -2.4231  0.3117
 2655SOL     OW19426   0.142   1.103   6.252  0.2733  0.1666 -0.5813
 2655SOL    HW119427   0.179   1.192   6.252  1.1588 -0.2153  1.6125
 2655SOL    HW219428   0.081   1.117   6.324  2.6293 -0.0016  1.4305
 2656SOL     OW19429   2.502   2.072   7.199 -0.3693  0.2173  0.6817
 2656SOL    HW119430   2.587   2.052   7.237 -0.3161 -0.3347  0.2642
 2656SOL    HW219431   2.534   2.124   7.126  0.6193 -2.6926 -0.9503
 2657SOL     OW19432   4.297   0.960  13.745  0.2572 -0.1356 -0.0073
 2657SOL    HW119433   4.278   0.933  13.835 -0.4933  0.8587  0.1320
 2657SOL    HW219434   4.380   0.913  13.736  0.1850 -0.5478  1.5025
 2658SOL     OW19435   0.814   2.950   4.472 -0.2435  0.1592  0.5709
 2658SOL    HW119436   0.904   2.970   4.448  0.4023 -1.9517  1.2530
 2658SOL    HW219437   0.777   2.898   4.401 -0.1338  0.6702  0.1348
 2659SOL     OW19438   0.900   0.612   5.916 -0.4444 -0.4779 -0.4253
 2659SOL    HW119439   0.807   0.590   5.923 -0.0324 -2.2803 -0.6130
 2659SOL    HW219440   0.912   0.623   5.822  2.8948  1.2610  0.2221
 2660SOL     OW19441   1.821   2.860   4.754 -0.7546  0.2792 -0.5244
 2660SOL    HW119442   1.805   2.944   4.798  0.8532 -0.3659  1.3295
 2660SOL    HW219443   1.823   2.889   4.663  1.5459 -0.0957 -0.5962
 2661SOL     OW19444   0.165   2.571  12.632  0.0202 -0.0480 -0.0192
 2661SOL    HW119445   0.071   2.561  12.647  0.1255 -1.6027 -0.3819
 2661SOL    HW219446   0.180   2.577  12.537 -0.2234  0.2648 -0.0374
 2662SOL     OW19447   1.009   3.196   2.943  0.4338 -0.0433 -0.5877
 2662SOL    HW119448   1.099   3.171   2.962  0.5938  1.0833  0.1665
 2662SOL    HW219449   0.993   3.257   3.015  0.6524 -2.0890  1.2007
 2663SOL     OW19450   0.619   1.424  13.602 -0.4481 -0.3049 -0.0045
 2663SOL    HW119451   0.686   1.359  13.621 -1.9143 -1.6904  0.4441
 2663SOL    HW219452   0.631   1.486  13.674  1.2228  0.6779 -1.1301
 2664SOL     OW19453   2.885   0.260  15.079 -0.2294 -0.0884  0.0362
 2664SOL    HW119454   2.948   0.262  15.151  2.8855  0.2311 -2.6689
 2664SOL    HW219455   2.938   0.266  14.999 -1.1124 -1.1190 -0.6192
 2665SOL     OW19456   4.140   2.478   3.607 -0.2247  0.0443  0.0341
 2665SOL    HW119457   4.087   2.550   3.642  2.6483  2.2925 -0.2225
 2665SOL    HW219458   4.230   2.502   3.633  0.0604 -0.3531 -0.5859
 2666SOL     OW19459   3.880   3.445   5.824  0.0658  0.0897  0.5828
 2666SOL    HW119460   3.899   3.357   5.855 -0.6848 -0.7691 -1.4004
 2666SOL    HW219461   3.968   3.466   5.792  0.1549 -2.8402 -1.0925
 2667SOL     OW19462   3.297   2.188   0.626  0.4177 -0.5344  0.4048
 2667SOL    HW119463   3.296   2.116   0.690  1.1021  1.4546  2.6263
 2667SOL    HW219464   3.241   2.252   0.671 -0.4975 -1.3188  0.3971
 2668SOL     OW19465   0.433   2.860  11.272  0.1627  0.0538  0.3654
 2668SOL    HW119466   0.402   2.813  11.194  1.0134  1.1079 -0.6031
 2668SOL    HW219467   0.519   2.889  11.242  0.9003 -3.0380 -0.6054
 2669SOL     OW19468   3.356   1.714   8.587 -0.1486  0.5022 -0.0107
 2669SOL    HW119469   3.451   1.709   8.592 -0.2393 -0.5469  0.6409
 2669SOL    HW219470   3.330   1.731   8.677  0.8490 -0.9465  0.5404
 2670SOL     OW19471   3.698   3.336   6.564  0.7872 -0.5823 -0.0200
 2670SOL    HW119472   3.662   3.419   6.531  2.6737 -0.3823 -1.5451
 2670SOL    HW219473   3.643   3.336   6.643 -1.0167  1.2548 -1.2575
 2671SOL     OW19474   0.702   1.003  14.266  0.8501 -0.0108 -0.0620
 2671SOL    HW119475   0.741   0.949  14.198 -0.3355  0.0696 -0.8189
 2671SOL    HW219476   0.615   0.968  14.289  1.6186 -1.6129  0.3827
 2672SOL     OW19477   2.025   1.065   4.420  0.5226 -0.1281 -0.5111
 2672SOL    HW119478   1.985   1.123   4.485 -0.2222  0.0791 -1.1517
 2672SOL    HW219479   2.040   1.119   4.342  0.8550 -0.6496 -0.8008
 2673SOL     OW19480   0.446   0.275   5.832 -0.2841 -0.1733  0.1946
 2673SOL    HW119481   0.387   0.210   5.795  0.1071  0.3802 -1.3987
 2673SOL    HW219482   0.524   0.269   5.778 -1.6527 -1.4434 -1.6572
 2674SOL     OW19483   2.376   2.305   8.832 -0.0674 -0.2591  0.1443
 2674SOL    HW119484   2.365   2.388   8.878 -0.9360 -1.0795  1.4302
 2674SOL    HW219485   2.447   2.325   8.771 -0.4768 -2.1090 -0.9379
 2675SOL     OW19486   0.504   1.696  17.453  0.0641  0.0488 -0.0811
 2675SOL    HW119487   0.484   1.748  17.376  1.9057  0.0678 -0.5467
 2675SOL    HW219488   0.600   1.700  17.449  0.0700 -0.1361 -0.1407
 2676SOL     OW19489   2.686   4.089   4.086 -0.4437  0.1868 -0.3842
 2676SOL    HW119490   2.762   4.041   4.052  0.0160  1.2591 -0.8672
 2676SOL    HW219491   2.619   4.069   4.020 -0.2721 -0.4109 -0.3796
 2677SOL     OW19492   2.388   0.514  12.048  0.0426  0.1533 -0.1962
 2677SOL    HW119493   2.395   0.591  11.992 -0.7078  0.5683  0.2812
 2677SOL    HW219494   2.420   0.546  12.132  0.9836 -0.1613 -0.4320
 2678SOL     OW19495   0.478   1.012   8.338 -0.1152 -0.0478 -0.1699
 2678SOL    HW119496   0.482   1.107   8.338 -1.5809  0.0167 -1.7468
 2678SOL    HW219497   0.384   1.007   8.320 -0.3567  0.2121  0.9974
 2679SOL     OW19498   2.351   0.747   2.474 -0.1946  0.2527  0.3413
 2679SOL    HW119499   2.382   0.711   2.391 -0.7896 -3.0800  1.5594
 2679SOL    HW219500   2.372   0.840   2.477 -0.8339  0.3073  3.3482
 2680SOL     OW19501   3.728   1.908   3.810  0.3492 -0.4395 -0.1130
 2680SOL    HW119502   3.817   1.888   3.838 -0.3643 -2.4763  0.6707
 2680SOL    HW219503   3.714   1.987   3.863 -1.8018 -0.6250 -0.4016
 2681SOL     OW19504   2.353   1.221   3.750 -0.1763 -0.3411  0.2177
 2681SOL    HW119505   2.306   1.163   3.691 -0.7104 -0.4695  0.7725
 2681SOL    HW219506   2.366   1.171   3.831 -1.3616  0.8671  1.1585
 2682SOL     OW19507   3.424   4.090   9.454  0.4131  0.3672 -0.4818
 2682SOL    HW119508   3.393   4.052   9.373  1.5768  0.2523 -0.8730
 2682SOL    HW219509   3.512   4.119   9.428  0.0270  2.0946  0.1058
 2683SOL     OW19510   2.116   0.546  17.442  0.1320 -0.0786 -0.0960
 2683SOL    HW119511   2.079   0.620  17.490 -2.3149 -1.9065  0.8483
 2683SOL    HW219512   2.039   0.500  17.408 -0.5653  0.1911  1.1079
 2684SOL     OW19513   1.721   4.422   2.694  0.1972 -0.7107 -0.5715
 2684SOL    HW119514   1.802   4.454   2.732 -0.2760 -1.0991  0.7703
 2684SOL    HW219515   1.731   4.441   2.601  1.5084  1.3467  0.0093
 2685SOL     OW19516   3.693   3.011  14.879  0.0358 -0.2436 -0.7912
 2685SOL    HW119517   3.711   2.943  14.944 -0.4077  1.5502  1.2213
 2685SOL    HW219518   3.637   2.963  14.819 -0.1386  0.9639 -1.6109
 2686SOL     OW19519   3.157   3.327   5.012 -0.3282 -0.1908  0.1376
 2686SOL    HW119520   3.158   3.398   4.949  0.4858  0.0846  0.4648
 2686SOL    HW219521   3.245   3.325   5.049  0.2198  0.2407 -1.1251
 2687SOL     OW19522   4.508   3.128   5.604  0.0836  0.6629  0.0194
 2687SOL    HW119523   4.532   3.219   5.623  3.1373 -0.4594  1.5225
 2687SOL    HW219524   4.598   3.099   5.595 -0.6821 -1.9072  0.5633
 2688SOL     OW19525   1.026   0.746   4.696 -0.8827  0.3018 -0.2391
 2688SOL    HW119526   1.054   0.661   4.664  0.4752  0.8643 -0.5581
 2688SOL    HW219527   1.004   0.726   4.787  0.8330 -2.1372 -0.3592
 2689SOL     OW19528   1.208   1.134   1.989  0.2495 -0.8053 -0.0994
 2689SOL    HW119529   1.265   1.058   1.999 -1.3212 -2.0967 -0.8931
 2689SOL    HW219530   1.249   1.199   2.047  0.1775 -0.6611 -0.2108
 2690SOL     OW19531   0.229   0.265   0.844  0.2026 -1.0656 -0.7991
 2690SOL    HW119532   0.173   0.214   0.903 -0.2652 -1.7699 -1.8487
 2690SOL    HW219533   0.196   0.349   0.873 -0.0804 -0.9234 -1.5338
 2691SOL     OW19534   1.275   1.239   4.535  0.0292 -0.1499 -0.2171
 2691SOL    HW119535   1.348   1.176   4.531  0.6563  0.7123 -2.2040
 2691SOL    HW219536   1.273   1.247   4.631  2.7581 -0.5527 -0.1268
 2692SOL     OW19537   2.095   2.801   7.464 -1.0429 -0.1793 -0.4788
 2692SOL    HW119538   2.085   2.896   7.469  2.2024  0.3088 -3.2767
 2692SOL    HW219539   2.040   2.780   7.540 -2.3037 -0.3214 -1.4326
 2693SOL     OW19540   4.546   1.540   7.096  0.2453 -0.0587  0.0836
 2693SOL    HW119541   4.600   1.526   7.018  0.1164 -3.6501  0.6525
 2693SOL    HW219542   4.470   1.551   7.038  1.7291  1.6392 -1.5525
 2694SOL     OW19543   2.770   3.472  10.510 -0.5617  0.0859  0.1290
 2694SOL    HW119544   2.756   3.481  10.604  1.4387  1.5844  0.2856
 2694SOL    HW219545   2.697   3.415  10.486  1.9723 -1.8683 -3.0469
 2695SOL     OW19546   0.271   1.753   8.800  0.3417  0.1521 -0.4815
 2695SOL    HW119547   0.259   1.772   8.707  0.4906 -0.5962 -0.6609
 2695SOL    HW219548   0.198   1.806   8.832 -0.1657 -0.8282 -0.0150
 2696SOL     OW19549   4.415   2.370   4.064 -0.8587 -0.3904 -0.3867
 2696SOL    HW119550   4.325   2.380   4.032 -1.3893  0.4311  1.3473
 2696SOL    HW219551   4.418   2.428   4.141  2.4756  0.0488 -0.8739
 2697SOL     OW19552   2.193   1.834  13.081 -0.1157  0.0433  0.6263
 2697SOL    HW119553   2.111   1.789  13.065 -0.2691  0.6796 -0.4186
 2697SOL    HW219554   2.179   1.920  13.041  1.8783  0.1072  0.0824
 2698SOL     OW19555   3.978   0.588   3.903 -0.0122  0.1559  0.0034
 2698SOL    HW119556   3.909   0.598   3.838 -0.6418 -2.4293  0.2512
 2698SOL    HW219557   4.060   0.596   3.855  0.2231 -1.6279  0.0983
 2699SOL     OW19558   1.792   1.910   4.028 -0.4131  0.4979 -0.2463
 2699SOL    HW119559   1.784   1.952   3.942  0.8200  1.1008 -0.0497
 2699SOL    HW219560   1.740   1.830   4.018  1.2880 -0.6047 -0.1674
 2700SOL     OW19561   0.393   1.377  11.859 -0.0749  0.2198  0.2516
 2700SOL    HW119562   0.402   1.282  11.865 -0.0177  0.1354 -1.2808
 2700SOL    HW219563   0.331   1.392  11.788  1.3526 -0.9224 -1.2373
 2701SOL     OW19564   2.942   1.204   8.167  0.1059  0.2721 -0.3221
 2701SOL    HW119565   2.857   1.193   8.124 -0.5324  3.0146  0.2509
 2701SOL    HW219566   2.983   1.263   8.104 -1.1881  0.0496 -1.3734
 2702SOL     OW19567   0.323   0.084   6.868  0.4118  0.1973 -0.6995
 2702SOL    HW119568   0.411   0.045   6.871 -0.3806 -1.5480 -0.3076
 2702SOL    HW219569   0.306   0.093   6.775  0.1577  1.1644 -0.5649
 2703SOL     OW19570   2.415   0.402   5.863  0.0138 -0.1328  0.1417
 2703SOL    HW119571   2.330   0.387   5.903  0.1467 -0.5775  0.2641
 2703SOL    HW219572   2.468   0.325   5.883 -0.7944 -0.5414  0.6866
 2704SOL     OW19573   1.964   3.868   6.022 -0.2453  0.0095 -0.5350
 2704SOL    HW119574   1.999   3.852   5.934  0.0067 -2.5269  0.0242
 2704SOL    HW219575   2.031   3.931   6.050  1.0735 -1.0522 -1.3007
 2705SOL     OW19576   3.056   2.864   0.241  0.3460 -0.3409 -0.8474
 2705SOL    HW119577   3.039   2.790   0.300 -0.9177  0.1911 -0.5255
 2705SOL    HW219578   3.148   2.850   0.219  0.9201  2.2033 -0.0323
 2706SOL     OW19579   4.034   1.520  16.474 -0.3763 -0.1546  0.6640
 2706SOL    HW119580   4.089   1.579  16.423  0.3022 -2.9762 -1.9067
 2706SOL    HW219581   3.960   1.516  16.414  0.5572 -0.2227 -0.4723
 2707SOL     OW19582   1.600   1.906   8.762  0.0706 -0.0970  0.2306
 2707SOL    HW119583   1.575   1.887   8.852 -0.0774  0.1427  0.2383
 2707SOL    HW219584   1.690   1.874   8.766  0.5868  1.5323  1.2778
 2708SOL     OW19585   1.656   2.742   2.976 -0.0517 -0.2897  0.2791
 2708SOL    HW119586   1.695   2.656   2.988 -1.6883 -1.2131 -0.9546
 2708SOL    HW219587   1.658   2.744   2.880 -1.4201 -0.3344  0.2476
 2709SOL     OW19588   2.849   1.885   9.086  0.1641  0.0522 -0.0671
 2709SOL    HW119589   2.934   1.902   9.125 -0.5694 -0.4949  1.7773
 2709SOL    HW219590   2.856   1.945   9.011  3.2138  1.6624  1.5340
 2710SOL     OW19591   1.538   4.561   6.633  0.0876  0.4420 -0.0676
 2710SOL    HW119592   1.585   4.573   6.551 -0.1010 -1.9392 -0.5288
 2710SOL    HW219593   1.598   4.504   6.682  1.1450 -0.0648 -1.9328
 2711SOL     OW19594   4.102   2.654   9.452 -0.0459 -0.0059  0.5059
 2711SOL    HW119595   4.097   2.593   9.378 -0.4326  2.6992 -1.6711
 2711SOL    HW219596   4.151   2.603   9.517  0.9457  1.3441  0.8198
 2712SOL     OW19597   4.073   1.843   6.259 -0.0045 -0.1809 -0.4312
 2712SOL    HW119598   4.167   1.826   6.249  0.0990  0.1871 -0.0493
 2712SOL    HW219599   4.071   1.828   6.353 -0.5930 -1.0133 -0.5703
 2713SOL     OW19600   1.725   0.623   1.178  0.4568  0.4731 -0.0129
 2713SOL    HW119601   1.782   0.694   1.147  1.5902 -0.4953 -0.1217
 2713SOL    HW219602   1.780   0.573   1.238  0.7173 -0.0192 -0.6580
 2714SOL     OW19603   3.854   1.210  13.372 -0.1110  0.0084  0.1892
 2714SOL    HW119604   3.848   1.300  13.405 -3.2893 -0.0284 -0.3368
 2714SOL    HW219605   3.767   1.186  13.340 -0.8292  0.8600  1.4670
 2715SOL     OW19606   0.152   1.721   4.691 -0.4304 -0.2737 -0.0310
 2715SOL    HW119607   0.221   1.682   4.637  0.3817  3.4784 -1.7279
 2715SOL    HW219608   0.173   1.720   4.784  1.1890 -0.3084 -0.3913
 2716SOL     OW19609   0.391   0.927   6.323  0.0425  0.1437  0.0913
 2716SOL    HW119610   0.333   0.992   6.283 -0.4752  0.0695  0.7089
 2716SOL    HW219611   0.424   0.980   6.396 -1.5358  0.0343  0.8758
 2717SOL     OW19612   0.720   3.612   7.164 -0.0794  0.0326  0.2307
 2717SOL    HW119613   0.624   3.612   7.175 -0.3616  2.8399 -2.2560
 2717SOL    HW219614   0.746   3.643   7.251  1.5536 -2.1490  0.4935
 2718SOL     OW19615   2.917   2.876  12.863 -0.1578  0.3621 -0.1388
 2718SOL    HW119616   2.971   2.880  12.784  0.7234  0.3362  0.4710
 2718SOL    HW219617   2.948   2.948  12.917 -1.0002  0.3775  0.3347
 2719SOL     OW19618   3.459   0.629   3.452  0.1073 -0.4239  0.2414
 2719SOL    HW119619   3.394   0.562   3.430 -1.0709  0.8517 -0.1590
 2719SOL    HW219620   3.539   0.576   3.448  0.9977  1.0666 -1.5296
 2720SOL     OW19621   3.864   2.149   3.505  0.1264  0.6102  0.0502
 2720SOL    HW119622   3.855   2.059   3.536 -1.6444  0.5993 -0.4606
 2720SOL    HW219623   3.779   2.147   3.461 -0.2337  0.1545  0.7636
 2721SOL     OW19624   2.703   1.919   7.312 -0.5554 -0.0891 -0.4832
 2721SOL    HW119625   2.746   1.972   7.379  1.0232 -1.2158 -0.5836
 2721SOL    HW219626   2.760   1.842   7.304  0.4628  0.6520 -0.3413
 2722SOL     OW19627   1.368   3.335  17.451  0.1975 -0.3115 -0.2613
 2722SOL    HW119628   1.449   3.310  17.408 -1.2164 -2.2821 -1.7475
 2722SOL    HW219629   1.352   3.255  17.501 -1.8642  1.3738  1.8203
 2723SOL     OW19630   4.086   3.359  16.904 -0.0536  0.3353 -0.0904
 2723SOL    HW119631   3.998   3.328  16.923  0.9615 -3.1244 -1.0103
 2723SOL    HW219632   4.118   3.275  16.869 -0.0227  0.0003  0.7470
 2724SOL     OW19633   1.627   1.118   5.367  0.2560  0.8089  0.5225
 2724SOL    HW119634   1.563   1.161   5.423 -0.6348 -0.3859  0.4225
 2724SOL    HW219635   1.693   1.078   5.425 -0.2631  0.2447  0.7252
 2725SOL     OW19636   0.440   4.720   7.824 -0.1673  0.2311  0.0607
 2725SOL    HW119637   0.361   4.717   7.877 -0.5479  0.4049 -0.5014
 2725SOL    HW219638   0.435   4.634   7.782  0.5024 -0.0166  0.4811
 2726SOL     OW19639   3.554   0.616  12.127 -0.4653 -0.8004  0.4162
 2726SOL    HW119640   3.607   0.619  12.047  0.5581 -2.9993  1.0056
 2726SOL    HW219641   3.477   0.661  12.091 -0.8292  0.2310  2.4793
 2727SOL     OW19642   1.564   2.346   7.919  0.3912  0.1369 -0.2479
 2727SOL    HW119643   1.571   2.255   7.891  1.1243  0.5332 -1.3840
 2727SOL    HW219644   1.607   2.346   8.004 -2.8373 -1.4513  1.3648
 2728SOL     OW19645   2.634   0.429   2.793  0.2586  0.2406 -0.0541
 2728SOL    HW119646   2.596   0.465   2.713 -0.4642 -0.0247  0.1737
 2728SOL    HW219647   2.665   0.342   2.766  0.5950  0.1955  0.4854
 2729SOL     OW19648   2.446   0.639   2.236 -0.3983  0.4658  0.1954
 2729SOL    HW119649   2.448   0.551   2.274  2.1356  0.0876 -0.7933
 2729SOL    HW219650   2.460   0.616   2.144 -0.0093  0.4848  0.2472
 2730SOL     OW19651   1.601   3.264   0.023  0.3045  0.2082 -0.1739
 2730SOL    HW119652   1.663   3.252  17.648 -0.5409 -3.8043 -0.2483
 2730SOL    HW219653   1.532   3.203  17.692 -0.0555  0.7696 -0.5061
 2731SOL     OW19654   0.230   2.068   3.808  0.3685  0.5873  0.1606
 2731SOL    HW119655   0.218   2.114   3.891 -1.9255 -0.2472  0.3088
 2731SOL    HW219656   0.159   2.003   3.807 -0.6172  1.6178  3.6175
 2732SOL     OW19657   1.591   0.329   6.007 -0.1489 -0.4864 -0.1650
 2732SOL    HW119658   1.684   0.348   6.017 -0.5369 -0.0660  2.6258
 2732SOL    HW219659   1.586   0.254   5.948 -3.5367  0.1954 -0.7532
 2733SOL     OW19660   0.015   4.266   7.381 -0.1707 -0.4033  0.5493
 2733SOL    HW119661   0.050   4.240   7.296  0.5341  0.4172  0.5832
 2733SOL    HW219662   4.683   4.339   7.352  2.3735  0.8576 -1.2193
 2734SOL     OW19663   4.092   2.066   5.028  0.1484 -0.0579 -0.3096
 2734SOL    HW119664   4.086   1.976   5.059 -0.9736  0.4561  0.9411
 2734SOL    HW219665   4.012   2.083   4.979  0.4085  1.2994 -0.2597
 2735SOL     OW19666   2.114   1.438   2.416 -0.5826  0.6491 -0.6006
 2735SOL    HW119667   2.181   1.452   2.349 -0.1875  0.4111 -0.2583
 2735SOL    HW219668   2.164   1.379   2.472  0.0951  2.0896  0.3126
 2736SOL     OW19669   3.514   3.143  15.089  0.4872  0.6531 -0.0416
 2736SOL    HW119670   3.425   3.126  15.059  1.6025 -1.7927 -1.9719
 2736SOL    HW219671   3.558   3.170  15.008  1.5900  2.2498  1.0906
 2737SOL     OW19672   1.621   1.731  17.208  0.6745 -0.2014 -0.4897
 2737SOL    HW119673   1.671   1.799  17.163 -0.4094 -0.6824 -2.3917
 2737SOL    HW219674   1.544   1.719  17.153 -0.5542  2.1410  0.7193
 2738SOL     OW19675   0.858   2.296   6.285  0.2710  0.1640  0.4843
 2738SOL    HW119676   0.952   2.300   6.305  0.5020  0.9678 -0.7732
 2738SOL    HW219677   0.866   2.205   6.258 -1.6389 -0.1815  1.0771
 2739SOL     OW19678   1.165   3.520   4.615  0.0513 -0.1281 -0.3402
 2739SOL    HW119679   1.154   3.430   4.585 -1.1936  0.3918 -1.4370
 2739SOL    HW219680   1.133   3.506   4.704 -1.2284 -1.1358 -0.9663
 2740SOL     OW19681   3.784   1.894   3.006 -0.1016  0.0860 -0.2030
 2740SOL    HW119682   3.745   1.979   3.022 -0.1841  0.0248 -0.0829
 2740SOL    HW219683   3.834   1.909   2.926 -0.1500 -1.2077 -0.4705
 2741SOL     OW19684   0.367   4.439  14.713  0.2516  0.1059 -0.3448
 2741SOL    HW119685   0.352   4.349  14.741  0.4766 -0.4841 -2.0796
 2741SOL    HW219686   0.447   4.462  14.760  0.8928 -0.7030 -1.0275
 2742SOL     OW19687   0.609   3.216  10.365  0.3395  0.1518  1.5009
 2742SOL    HW119688   0.545   3.217  10.436 -0.8494 -0.3734  0.4373
 2742SOL    HW219689   0.685   3.182  10.411 -0.4273  2.5860  4.5337
 2743SOL     OW19690   2.971   0.213   7.315 -0.0055  0.3064 -0.9033
 2743SOL    HW119691   2.905   0.282   7.322  0.4242  0.8528 -2.3378
 2743SOL    HW219692   2.940   0.149   7.378  4.1530  0.8589  1.7072
 2744SOL     OW19693   3.886   2.760   7.580 -0.0618 -0.0784 -0.0146
 2744SOL    HW119694   3.833   2.685   7.554  1.6697 -1.0077 -0.8896
 2744SOL    HW219695   3.919   2.776   7.491 -0.8420  1.9005  0.0411
 2745SOL     OW19696   4.026   2.940   4.651  0.1570 -0.3454  0.2781
 2745SOL    HW119697   3.947   2.976   4.611 -0.4534 -0.8859  0.9940
 2745SOL    HW219698   3.995   2.903   4.733 -0.0417 -1.1039 -0.1439
 2746SOL     OW19699   3.181   2.047   2.688 -0.0154 -0.2932  0.1253
 2746SOL    HW119700   3.177   2.136   2.654  1.9542 -0.4792 -0.5981
 2746SOL    HW219701   3.148   1.990   2.618  2.0059 -2.0218  0.5872
 2747SOL     OW19702   3.575   2.966   5.990  0.0732  0.1164  0.4168
 2747SOL    HW119703   3.560   2.871   5.984 -2.1232  0.4885 -0.1913
 2747SOL    HW219704   3.596   2.978   5.897 -0.0804 -1.9267  0.1043
 2748SOL     OW19705   0.151   1.749   6.719  0.0394 -0.1630  0.3369
 2748SOL    HW119706   0.154   1.663   6.761  3.0253 -0.5590 -0.6516
 2748SOL    HW219707   0.233   1.788   6.750 -0.3983  0.2372  0.9794
 2749SOL     OW19708   0.143   2.203   3.027 -0.0822  0.3831  0.5419
 2749SOL    HW119709   0.078   2.196   3.096  0.2762  0.6915  0.9056
 2749SOL    HW219710   0.162   2.297   3.019 -0.3529  0.3682 -0.3148
 2750SOL     OW19711   1.465   3.220   2.415 -0.6539  0.7477  0.5111
 2750SOL    HW119712   1.462   3.314   2.399 -1.9347  0.4700 -0.8758
 2750SOL    HW219713   1.550   3.212   2.372 -1.0496  2.5877 -0.5663
 2751SOL     OW19714   2.687   2.978  13.816 -0.0150  0.4685  0.1765
 2751SOL    HW119715   2.747   3.049  13.797 -0.7963  1.2340  0.5591
 2751SOL    HW219716   2.720   2.945  13.900  2.0632 -0.1941 -0.9121
 2752SOL     OW19717   1.828   3.780   6.471 -0.6580  0.0803  0.2280
 2752SOL    HW119718   1.851   3.864   6.511 -1.9194  0.6356 -0.2036
 2752SOL    HW219719   1.914   3.755   6.436  0.2124  1.2554  1.5045
 2753SOL     OW19720   2.450   1.616  13.418 -0.7926  1.1664  0.6139
 2753SOL    HW119721   2.431   1.584  13.507 -0.5641  1.2385  0.6885
 2753SOL    HW219722   2.493   1.535  13.391  1.2692  1.9127  1.6431
 2754SOL     OW19723   1.323   0.963   4.328  0.0395  0.1396  0.0239
 2754SOL    HW119724   1.235   0.997   4.316 -0.0215  0.9180  2.7997
 2754SOL    HW219725   1.356   1.007   4.406  0.2833 -2.6184  1.4954
 2755SOL     OW19726   1.818   0.220   4.275 -0.0246 -0.5238 -0.4269
 2755SOL    HW119727   1.805   0.279   4.350 -2.6685 -1.1205 -0.4391
 2755SOL    HW219728   1.767   0.146   4.305 -0.3809  0.3878  1.2520
 2756SOL     OW19729   3.342   2.274  16.267 -0.1720  0.4830  0.7082
 2756SOL    HW119730   3.298   2.335  16.207 -0.8194  1.4436  2.1605
 2756SOL    HW219731   3.417   2.325  16.296  1.7851 -1.9160 -0.1871
 2757SOL     OW19732   4.642   0.498  15.032 -0.0196 -0.0451 -0.0502
 2757SOL    HW119733   4.649   0.515  14.938  0.0125  1.7128  0.2777
 2757SOL    HW219734   4.639   0.403  15.021  1.9897 -0.2059  0.7680
 2758SOL     OW19735   0.695   2.870   7.132  0.1790  0.0112 -0.0090
 2758SOL    HW119736   0.681   2.873   7.037 -2.5429  1.7246  0.4363
 2758SOL    HW219737   0.660   2.956   7.157 -1.6565 -1.1873  1.5533
 2759SOL     OW19738   2.966   2.753  13.648  0.1215 -0.1090  0.7077
 2759SOL    HW119739   2.998   2.808  13.719 -0.0973  1.2460 -0.2471
 2759SOL    HW219740   2.874   2.781  13.654 -0.1100 -0.7739  0.3508
 2760SOL     OW19741   0.160   4.542  14.556 -0.4468  1.0387  0.2968
 2760SOL    HW119742   0.248   4.516  14.581 -0.7030  0.6403  0.7712
 2760SOL    HW219743   0.117   4.551  14.641  0.5283  1.8293  0.7056
 2761SOL     OW19744   0.762   3.339   9.994 -0.3524  0.7570 -0.2028
 2761SOL    HW119745   0.676   3.299  10.002 -0.9490  2.0981  0.0579
 2761SOL    HW219746   0.770   3.403  10.065 -1.2873  0.5076  0.1233
 2762SOL     OW19747   2.153   1.817  13.829 -0.3370 -0.4424 -0.9141
 2762SOL    HW119748   2.078   1.762  13.807  0.4124 -1.1800 -1.6050
 2762SOL    HW219749   2.194   1.831  13.744  2.4915 -1.5005  0.2802
 2763SOL     OW19750   0.190   2.853   7.972 -0.5772  0.3687  0.0351
 2763SOL    HW119751   0.205   2.946   7.990 -0.3374 -0.0435  2.0022
 2763SOL    HW219752   0.183   2.854   7.877 -0.9598  1.5350  0.0829
 2764SOL     OW19753   3.227   4.159   8.055  0.2230  0.1264  0.2973
 2764SOL    HW119754   3.254   4.185   7.967  2.1076 -1.9804  0.2399
 2764SOL    HW219755   3.303   4.178   8.110  1.3184  1.2308 -1.5848
 2765SOL     OW19756   3.704   1.613  12.429  0.4980  0.3388  0.6288
 2765SOL    HW119757   3.675   1.637  12.517 -1.5343  0.0204  0.0585
 2765SOL    HW219758   3.661   1.678  12.374 -0.6389 -1.1996 -0.2996
 2766SOL     OW19759   0.327   3.838   1.023  0.2710  0.0311  0.0714
 2766SOL    HW119760   0.311   3.822   0.930 -1.7070  0.8655  0.2712
 2766SOL    HW219761   0.422   3.848   1.025  0.3526 -0.3058 -1.7410
 2767SOL     OW19762   0.306   2.066   5.620  0.1892 -0.0578 -0.4745
 2767SOL    HW119763   0.341   1.978   5.609 -1.5664 -1.1085  2.4027
 2767SOL    HW219764   0.341   2.093   5.705  0.4518  0.0086 -0.6053
 2768SOL     OW19765   2.018   2.473  14.756 -0.1493  0.5319 -0.6103
 2768SOL    HW119766   2.074   2.468  14.833  0.7295 -0.1093 -1.2904
 2768SOL    HW219767   2.000   2.379  14.752 -0.5238  0.6991 -3.3640
 2769SOL     OW19768   1.541   0.501   8.950 -0.1779  0.2070 -0.0324
 2769SOL    HW119769   1.482   0.442   8.903  1.0023 -0.7385 -0.3178
 2769SOL    HW219770   1.468   0.542   8.997  0.0296 -0.5146  0.9066
 2770SOL     OW19771   3.454   2.204  14.377  0.2986  0.5058  0.0463
 2770SOL    HW119772   3.485   2.259  14.449  0.5433 -0.0576  0.3670
 2770SOL    HW219773   3.427   2.264  14.307 -1.4843 -0.1603  0.1642
 2771SOL     OW19774   3.565   4.354   9.107  0.0326 -0.4085  0.1318
 2771SOL    HW119775   3.626   4.286   9.077 -0.1619 -1.4259  2.0316
 2771SOL    HW219776   3.572   4.406   9.027  0.8221 -1.1379 -0.2788
 2772SOL     OW19777   1.040   0.076   7.415 -0.4305 -0.0721 -0.1583
 2772SOL    HW119778   0.964   0.023   7.392 -2.4619  1.6115  2.6576
 2772SOL    HW219779   1.085   0.058   7.333 -2.7588  2.0221 -1.8801
 2773SOL     OW19780   4.683   4.283   2.886  0.5251 -0.2294 -0.1605
 2773SOL    HW119781   0.035   4.315   2.837 -1.5408  1.6442 -2.1442
 2773SOL    HW219782   0.005   4.231   2.953  1.5806 -1.0615 -1.5142
 2774SOL     OW19783   1.517   0.402  16.936  0.4343  0.2971 -0.0745
 2774SOL    HW119784   1.569   0.483  16.930  2.3219 -0.6987  2.7917
 2774SOL    HW219785   1.489   0.389  16.846 -0.2061  1.1935 -0.0122
 2775SOL     OW19786   1.246   3.337   5.896 -0.5200  0.8318 -0.0201
 2775SOL    HW119787   1.222   3.316   5.806  0.1505  2.6020 -0.6157
 2775SOL    HW219788   1.337   3.307   5.893 -1.6234 -2.6589  1.6818
 2776SOL     OW19789   2.196   0.173   6.266  0.7924  0.4482  0.0340
 2776SOL    HW119790   2.243   0.126   6.334 -0.5274 -0.4254  0.3605
 2776SOL    HW219791   2.120   0.211   6.311  1.1236  1.4241 -0.2435
 2777SOL     OW19792   0.096   2.459   6.504  0.2528 -0.3679  0.1264
 2777SOL    HW119793   0.147   2.501   6.434  2.1706 -1.3148  0.9425
 2777SOL    HW219794   0.149   2.379   6.512 -2.4824 -2.3437 -1.4759
 2778SOL     OW19795   2.284   0.728   3.141  0.1938  1.0754  0.0884
 2778SOL    HW119796   2.352   0.695   3.083 -1.4014  0.2034 -1.3112
 2778SOL    HW219797   2.294   0.822   3.130  0.1963  0.9428 -1.1378
 2779SOL     OW19798   4.603   3.621   2.167  0.0466  0.2662  0.0689
 2779SOL    HW119799   4.596   3.535   2.126  0.3968 -0.6212  1.8280
 2779SOL    HW219800   4.523   3.668   2.144  0.5396  0.7565 -0.6689
 2780SOL     OW19801   1.156   3.478  11.602  0.0495  0.5063 -0.0468
 2780SOL    HW119802   1.209   3.446  11.675  2.0611 -1.5224 -2.3821
 2780SOL    HW219803   1.154   3.404  11.541  1.8844 -0.1295  0.6940
 2781SOL     OW19804   4.170   2.101   8.147 -0.2347  0.7344 -0.3266
 2781SOL    HW119805   4.085   2.119   8.186 -1.7050 -1.3559 -2.5406
 2781SOL    HW219806   4.222   2.178   8.169 -2.1090  0.8999  3.4085
 2782SOL     OW19807   3.432   2.374   0.119 -0.6039  0.1600  0.4365
 2782SOL    HW119808   3.370   2.446   0.125 -1.4321 -0.5246  0.0334
 2782SOL    HW219809   3.459   2.361   0.210  0.4020 -0.1375  0.0985
 2783SOL     OW19810   1.226   4.499   6.261  0.9411  0.1644  0.5636
 2783SOL    HW119811   1.145   4.549   6.267  0.3062 -0.9059  0.8292
 2783SOL    HW219812   1.296   4.553   6.226  0.5957  2.0283  2.7651
 2784SOL     OW19813   3.766   1.717  11.114 -0.3188 -0.6014  0.0709
 2784SOL    HW119814   3.810   1.670  11.044 -0.2449  1.3552 -1.2069
 2784SOL    HW219815   3.759   1.648  11.180 -1.9439 -0.3723  0.1465
 2785SOL     OW19816   0.249   3.938   1.624  0.0973 -0.1820  0.5215
 2785SOL    HW119817   0.189   3.986   1.682 -0.2052  0.1807 -0.0935
 2785SOL    HW219818   0.228   3.850   1.657 -1.0670 -0.6123 -1.3985
 2786SOL     OW19819   1.891   2.293   7.859  0.4220 -0.1906  0.3500
 2786SOL    HW119820   1.802   2.259   7.858  0.6914 -0.8780 -0.3917
 2786SOL    HW219821   1.882   2.347   7.938 -1.9507  0.2489 -0.2272
 2787SOL     OW19822   4.164   4.471   6.250 -0.4140  0.6282  0.1304
 2787SOL    HW119823   4.101   4.431   6.190  0.6108  0.8631 -1.1245
 2787SOL    HW219824   4.109   4.502   6.322 -0.7920 -3.9256  1.7780
 2788SOL     OW19825   1.158   2.880   5.051  0.1520 -0.3887  0.4783
 2788SOL    HW119826   1.171   2.973   5.071  2.9182 -0.2146 -2.0425
 2788SOL    HW219827   1.064   2.866   5.040  0.0096  1.2549 -0.4523
 2789SOL     OW19828   2.689   0.722   7.495 -0.2712  0.4985 -0.1030
 2789SOL    HW119829   2.673   0.810   7.528  2.0627  1.9814 -2.9907
 2789SOL    HW219830   2.650   0.672   7.568 -3.5695  1.5419 -1.1380
 2790SOL     OW19831   0.194   4.310  12.277  0.1155 -0.2338 -0.9222
 2790SOL    HW119832   0.149   4.226  12.284 -2.0702  0.8169 -2.2124
 2790SOL    HW219833   0.140   4.352  12.210 -0.0332  0.8358 -0.1384
 2791SOL     OW19834   1.691   2.612  15.271  0.1735 -0.2431 -0.1870
 2791SOL    HW119835   1.623   2.633  15.335  0.2429 -2.2359  0.5303
 2791SOL    HW219836   1.712   2.702  15.246  2.5754 -0.8844 -0.4344
 2792SOL     OW19837   4.551   0.366   6.868  0.0541  0.5672 -0.1508
 2792SOL    HW119838   4.570   0.421   6.944  1.0897  0.3732 -0.2611
 2792SOL    HW219839   4.552   0.281   6.913 -2.4942  1.6555  1.9086
 2793SOL     OW19840   1.626   2.662   0.390  0.3969  0.4196 -0.1484
 2793SOL    HW119841   1.682   2.587   0.375 -0.0177  0.2028 -0.6305
 2793SOL    HW219842   1.682   2.730   0.429  0.7473  1.0363 -1.7183
 2794SOL     OW19843   3.953   0.254   3.164 -0.5045 -0.0258  0.2575
 2794SOL    HW119844   4.021   0.226   3.102 -3.0559  0.0025 -2.5391
 2794SOL    HW219845   3.985   0.217   3.247 -1.0146  2.7420  1.6681
 2795SOL     OW19846   4.613   3.915   9.601  0.4302  0.1400  0.1652
 2795SOL    HW119847   4.559   3.868   9.537  0.7584  0.4535 -0.3503
 2795SOL    HW219848   4.603   4.006   9.572 -0.4285  0.3059  0.9712
 2796SOL     OW19849   0.261   3.844   6.363  0.3433 -0.2682  0.1554
 2796SOL    HW119850   0.325   3.778   6.388  2.1213  1.0984 -0.8678
 2796SOL    HW219851   0.278   3.911   6.430 -0.3788 -1.2827  1.3692
 2797SOL     OW19852   2.548   4.450   7.310  0.7637 -0.5183  0.2910
 2797SOL    HW119853   2.581   4.539   7.324 -1.1020 -0.0382  1.6589
 2797SOL    HW219854   2.632   4.403   7.315 -0.0894 -1.6062  3.8498
 2798SOL     OW19855   0.473   4.415   1.663 -0.3727  0.3807 -0.5073
 2798SOL    HW119856   0.529   4.468   1.606  1.0871  0.0953  0.6619
 2798SOL    HW219857   0.541   4.353   1.691 -2.0986 -0.4326  1.9121
 2799SOL     OW19858   3.529   0.297  10.930  0.8491 -0.1945  0.4365
 2799SOL    HW119859   3.468   0.232  10.895  0.3706  0.6048 -0.2305
 2799SOL    HW219860   3.584   0.252  10.994  1.9712 -1.2050 -1.2453
 2800SOL     OW19861   1.189   1.685   7.475 -1.0465 -0.9232 -0.2101
 2800SOL    HW119862   1.283   1.686   7.459 -1.0144 -2.7647 -0.0651
 2800SOL    HW219863   1.177   1.757   7.537  0.0433  0.0002 -1.0626
 2801SOL     OW19864   2.483   3.647  16.036  0.5812 -0.1044  0.1995
 2801SOL    HW119865   2.514   3.588  16.105  0.7890 -0.5310 -0.2533
 2801SOL    HW219866   2.567   3.683  16.008  0.5465 -0.2721 -0.1269
 2802SOL     OW19867   3.360   3.111  10.635 -0.7006  0.1942  0.0943
 2802SOL    HW119868   3.279   3.162  10.632  0.2475  1.6504 -1.1179
 2802SOL    HW219869   3.356   3.058  10.555 -0.4477  0.3195 -0.0031
 2803SOL     OW19870   1.660   1.021  12.026 -0.1292  0.3354  0.1039
 2803SOL    HW119871   1.569   1.048  12.038 -1.1997 -3.7639  1.2161
 2803SOL    HW219872   1.659   0.977  11.941  0.4721  1.0171 -0.2570
 2804SOL     OW19873   3.071   0.653  10.140  0.6111  0.1592 -0.4934
 2804SOL    HW119874   3.152   0.684  10.099  0.6801  1.7104  0.8000
 2804SOL    HW219875   3.011   0.673  10.068 -0.0711 -0.6646 -0.1570
 2805SOL     OW19876   3.870   0.583  16.882 -0.2031  0.2936  0.0713
 2805SOL    HW119877   3.920   0.548  16.809 -0.7320 -0.0251 -0.1329
 2805SOL    HW219878   3.861   0.675  16.856  1.1874  0.2232 -0.6434
 2806SOL     OW19879   2.836   1.434   4.665 -0.3296  0.6897  0.0454
 2806SOL    HW119880   2.882   1.379   4.601  0.1039 -0.1821  1.0993
 2806SOL    HW219881   2.866   1.401   4.750  1.2620  0.4080 -0.6238
 2807SOL     OW19882   2.814   0.792   2.011  0.4204  0.5586 -0.1040
 2807SOL    HW119883   2.737   0.761   1.964  1.8251 -0.7979 -1.5274
 2807SOL    HW219884   2.781   0.869   2.057 -0.5174  1.0703 -1.6253
 2808SOL     OW19885   1.350   2.194  10.785 -0.3121  0.0848 -0.8308
 2808SOL    HW119886   1.265   2.166  10.752 -1.0741 -0.5229  1.6340
 2808SOL    HW219887   1.397   2.216  10.705 -0.5819 -2.9342 -1.8427
 2809SOL     OW19888   2.044   4.147   4.294 -0.4533 -0.3401 -0.2572
 2809SOL    HW119889   2.038   4.074   4.357 -1.4495 -1.1551 -1.2896
 2809SOL    HW219890   1.969   4.131   4.237 -2.9072  0.4069  2.7232
 2810SOL     OW19891   4.595   3.021   6.413  0.0470  0.5224  0.2224
 2810SOL    HW119892   4.516   2.984   6.452  2.1731 -0.8577  3.1154
 2810SOL    HW219893   4.579   3.113   6.432 -0.3577  0.1934  1.5013
 2811SOL     OW19894   4.509   1.686  12.417  0.5888  0.8228  0.0298
 2811SOL    HW119895   4.493   1.676  12.511 -1.6957 -2.5791 -0.7432
 2811SOL    HW219896   4.597   1.652  12.403  0.1394  0.1386 -1.1332
 2812SOL     OW19897   3.230   0.473  15.039  0.1408 -0.0305  0.5751
 2812SOL    HW119898   3.227   0.410  14.966 -0.7249  0.9572 -0.2472
 2812SOL    HW219899   3.247   0.421  15.117 -0.2856  0.8533  1.2528
 2813SOL     OW19900   2.540   1.248   5.278  0.5634  0.0351 -0.0505
 2813SOL    HW119901   2.616   1.305   5.281  0.3704  0.1820  1.9156
 2813SOL    HW219902   2.570   1.177   5.222 -0.7763 -0.2823 -0.3798
 2814SOL     OW19903   1.385   1.140   3.481  0.3061  0.3578 -0.1461
 2814SOL    HW119904   1.456   1.177   3.428 -0.5851  0.4838 -1.2449
 2814SOL    HW219905   1.301   1.155   3.437 -0.8553 -2.1433  1.2404
 2815SOL     OW19906   3.825   1.416   5.707  0.4052  0.3304 -0.3360
 2815SOL    HW119907   3.756   1.480   5.688  0.4062  0.3287 -0.3452
 2815SOL    HW219908   3.764   1.342   5.710  2.2163 -1.1731 -0.7126
 2816SOL     OW19909   0.426   3.099   5.880 -0.4412 -0.1693  0.1559
 2816SOL    HW119910   0.417   3.029   5.945 -0.6627 -0.8282 -0.5878
 2816SOL    HW219911   0.503   3.149   5.906 -1.0287  0.3214  0.9647
 2817SOL     OW19912   4.669   3.535  11.534  0.5767 -1.0183 -0.5824
 2817SOL    HW119913   4.626   3.449  11.533 -1.1701 -0.1078 -1.5029
 2817SOL    HW219914   0.030   3.519  11.491  0.4812 -0.3140 -1.0261
 2818SOL     OW19915   3.407   2.910   6.867 -0.0470 -0.5175  0.1980
 2818SOL    HW119916   3.315   2.909   6.840  0.2317  2.0333 -0.8164
 2818SOL    HW219917   3.449   2.854   6.803 -2.4618 -0.2613 -1.6178
 2819SOL     OW19918   2.246   4.669   6.069 -0.1225  0.3617  0.2199
 2819SOL    HW119919   2.217   0.016   6.127 -0.9213  0.7586 -0.6515
 2819SOL    HW219920   2.169   4.613   6.084 -0.4170  0.8232  0.4198
 2820SOL     OW19921   1.821   1.386   6.814 -0.3843 -0.4136  0.0960
 2820SOL    HW119922   1.808   1.440   6.736 -0.0402  0.2904  0.5315
 2820SOL    HW219923   1.774   1.438   6.879  3.1163  3.4647 -0.4876
 2821SOL     OW19924   1.082   3.050   4.403  0.4773 -0.0085  0.3398
 2821SOL    HW119925   1.150   3.001   4.356 -0.5416 -0.7944 -0.3228
 2821SOL    HW219926   1.138   3.115   4.445  0.1275  0.9332 -0.6668
 2822SOL     OW19927   4.561   2.565   6.396 -0.0697 -0.1622 -0.1543
 2822SOL    HW119928   4.524   2.599   6.478 -1.2554 -2.2610  0.1922
 2822SOL    HW219929   4.632   2.515   6.436  2.1758  0.4643 -3.3542
 2823SOL     OW19930   3.290   1.222  13.952 -0.0238  0.4903  0.0596
 2823SOL    HW119931   3.243   1.243  13.871 -0.3210  1.7479  0.5515
 2823SOL    HW219932   3.285   1.299  14.008 -2.2941 -1.0896  2.0268
 2824SOL     OW19933   1.951   1.701  16.134 -0.9689  0.0213 -0.0626
 2824SOL    HW119934   2.000   1.682  16.054 -1.1066  2.6710 -0.7600
 2824SOL    HW219935   1.912   1.785  16.109 -0.5621  0.4445  0.7395
 2825SOL     OW19936   2.035   0.817  15.450 -0.7418 -0.3274 -0.3314
 2825SOL    HW119937   1.975   0.775  15.511 -0.5885 -1.1962 -0.7919
 2825SOL    HW219938   2.022   0.910  15.473  1.1215 -0.0831 -0.2296
 2826SOL     OW19939   2.496   4.113   5.796  0.1188  0.0145 -0.1425
 2826SOL    HW119940   2.459   4.172   5.861 -0.3733  0.1103 -0.5052
 2826SOL    HW219941   2.583   4.098   5.832 -0.2291 -1.0933  0.2216
 2827SOL     OW19942   3.313   4.465  12.555  0.1389 -0.1048  0.7174
 2827SOL    HW119943   3.321   4.491  12.463  0.0874  1.0660  1.0392
 2827SOL    HW219944   3.223   4.492  12.571 -0.2843 -2.6407  2.6388
 2828SOL     OW19945   2.485   4.331   1.525 -0.0867 -0.2131  0.5119
 2828SOL    HW119946   2.574   4.318   1.559  1.1067  0.0308 -2.4981
 2828SOL    HW219947   2.498   4.415   1.480 -0.0836 -0.4752  0.0274
 2829SOL     OW19948   1.853   4.690   8.737 -0.0404  0.1439 -0.5800
 2829SOL    HW119949   1.771   0.013   8.720  0.9095  2.5301  1.4086
 2829SOL    HW219950   1.858   4.689   8.833  3.2485 -0.1315 -0.7730
 2830SOL     OW19951   1.181   0.378   4.099  0.3197 -0.0267  0.2026
 2830SOL    HW119952   1.167   0.470   4.079 -0.9327 -0.0912  0.7826
 2830SOL    HW219953   1.262   0.353   4.053 -0.0717  0.4306 -0.7233
 2831SOL     OW19954   3.433   0.955   2.671 -0.0045 -0.3998 -0.4700
 2831SOL    HW119955   3.476   0.886   2.620  0.2725 -1.3034  0.9868
 2831SOL    HW219956   3.505   1.018   2.673  0.2965 -0.7592 -0.0351
 2832SOL     OW19957   1.940   1.007  16.903  0.2030 -0.6415 -0.2219
 2832SOL    HW119958   2.014   1.007  16.843 -0.0016  0.3904 -0.4780
 2832SOL    HW219959   1.955   1.089  16.951 -0.6855 -0.8154  0.3618
 2833SOL     OW19960   3.190   2.244   3.787 -0.5486  0.6416  0.3682
 2833SOL    HW119961   3.232   2.158   3.789  1.8952  1.8226  0.4107
 2833SOL    HW219962   3.268   2.295   3.809  0.6854 -0.3695 -1.6312
 2834SOL     OW19963   4.018   1.111  12.002 -0.1338  0.1529 -0.1669
 2834SOL    HW119964   4.059   1.085  11.920  0.3844  1.6706 -0.3988
 2834SOL    HW219965   3.945   1.163  11.969 -1.0089 -1.5433 -0.9100
 2835SOL     OW19966   0.238   0.091   9.753 -0.2379 -0.1499  0.1237
 2835SOL    HW119967   0.282   0.006   9.760 -1.4057 -0.7290  0.4708
 2835SOL    HW219968   0.258   0.140   9.833  1.7164  1.8579 -1.5864
 2836SOL     OW19969   0.741   1.465   2.307  0.2064 -0.1617  0.1961
 2836SOL    HW119970   0.721   1.541   2.252  1.4656 -0.9376 -1.3404
 2836SOL    HW219971   0.797   1.414   2.249 -1.2315 -1.6532  0.1299
 2837SOL     OW19972   0.203   3.516   0.619  0.3114  0.1496 -0.0494
 2837SOL    HW119973   0.126   3.460   0.613 -0.9872  1.8752  0.4429
 2837SOL    HW219974   0.251   3.478   0.692  0.4505  0.9137  0.2550
 2838SOL     OW19975   3.454   3.435   3.947  0.1908  0.1681 -0.3041
 2838SOL    HW119976   3.431   3.451   4.038 -1.3711 -2.9644 -0.1450
 2838SOL    HW219977   3.433   3.517   3.902 -0.2718  0.3721  0.2887
 2839SOL     OW19978   0.012   0.364   6.627 -0.2116 -0.1157 -0.8767
 2839SOL    HW119979   0.073   0.435   6.648  0.0448 -0.6044  0.0234
 2839SOL    HW219980   4.679   0.364   6.705 -0.1598 -0.5858 -0.8391
 2840SOL     OW19981   2.438   3.570   6.318  0.0688 -0.4728  1.0733
 2840SOL    HW119982   2.489   3.632   6.370  0.2977  0.7163 -0.5617
 2840SOL    HW219983   2.404   3.622   6.245 -0.0202 -0.6542  0.9833
 2841SOL     OW19984   4.507   1.400   5.215  0.1619 -0.3545  0.2969
 2841SOL    HW119985   4.470   1.433   5.297  0.0546 -1.2119  0.5971
 2841SOL    HW219986   4.599   1.407   5.241 -0.1820 -1.3770  1.8178
 2842SOL     OW19987   4.148   4.265   3.712 -0.2054  0.0485  0.0303
 2842SOL    HW119988   4.147   4.255   3.617 -3.2444  3.2118 -0.2645
 2842SOL    HW219989   4.156   4.176   3.746 -2.2757  0.2458  1.0186
 2843SOL     OW19990   3.845   0.926   2.197 -0.2259 -0.1931  0.2008
 2843SOL    HW119991   3.940   0.913   2.187 -0.4074 -1.8421  0.5380
 2843SOL    HW219992   3.818   0.979   2.122  1.2718 -1.9587 -1.6150
 2844SOL     OW19993   4.378   0.335   8.463  0.5391  0.4540 -0.0616
 2844SOL    HW119994   4.323   0.260   8.485  3.3013 -0.8800  2.2789
 2844SOL    HW219995   4.333   0.373   8.387  2.2709 -0.3159 -1.4824
 2845SOL     OW19996   0.781   1.914   3.649  0.3316 -0.4638  0.4606
 2845SOL    HW119997   0.841   1.958   3.588 -1.9101  1.2449 -0.4999
 2845SOL    HW219998   0.699   1.896   3.604  0.3324 -4.6286  2.2056
 2846SOL     OW19999   1.732   2.176   6.299  0.5918  0.2159  0.0732
 2846SOL    HW120000   1.692   2.159   6.214  1.4625 -0.7631 -0.1325
 2846SOL    HW220001   1.655   2.192   6.355  1.3226  0.1598  1.0985
 2847SOL     OW20002   1.229   1.882  12.028  0.1775  0.3072 -0.4488
 2847SOL    HW120003   1.181   1.961  12.006  0.4029  0.9077  1.1839
 2847SOL    HW220004   1.182   1.808  11.990  0.5352  0.9601 -2.1434
 2848SOL     OW20005   1.843   4.379   5.818 -0.2510 -0.2540  0.1089
 2848SOL    HW120006   1.827   4.285   5.813  2.5517 -0.8284  2.1753
 2848SOL    HW220007   1.930   4.383   5.857  0.1311  0.4764 -0.8002
 2849SOL     OW20008   0.840   3.380  12.995  0.1787  0.2079  0.3538
 2849SOL    HW120009   0.822   3.288  13.014 -0.7323  0.7783  2.2031
 2849SOL    HW220010   0.913   3.373  12.933 -1.9186  1.2847 -2.2375
 2850SOL     OW20011   3.945   0.068   5.181 -0.2996  0.0319 -0.2126
 2850SOL    HW120012   4.033   0.053   5.213  0.5626  2.9230 -1.1442
 2850SOL    HW220013   3.909   0.114   5.257 -0.6181 -0.0399 -0.3175
 2851SOL     OW20014   4.342   0.232  14.144 -0.1659 -0.0250 -0.2876
 2851SOL    HW120015   4.356   0.300  14.210 -0.2909  1.2355 -1.5619
 2851SOL    HW220016   4.264   0.195  14.185 -1.2053  2.7264  0.2448
 2852SOL     OW20017   2.520   0.700   5.040 -0.4848 -0.6022  0.1968
 2852SOL    HW120018   2.466   0.763   5.088 -0.2996  0.4462 -0.9847
 2852SOL    HW220019   2.472   0.706   4.957 -1.3253  1.0491  0.7906
 2853SOL     OW20020   4.344   3.399   5.138  0.2048  0.3812 -0.1483
 2853SOL    HW120021   4.430   3.428   5.168 -0.8557  1.8302  1.4855
 2853SOL    HW220022   4.338   3.446   5.055 -0.4395 -1.4079 -1.1341
 2854SOL     OW20023   0.690   3.128   7.216  0.0979  0.9497 -0.6437
 2854SOL    HW120024   0.634   3.179   7.274  0.6706  1.2051 -0.3203
 2854SOL    HW220025   0.748   3.197   7.186  2.1275 -0.4340  0.0786
 2855SOL     OW20026   1.279   3.680   6.922  0.1427 -0.0235 -0.5723
 2855SOL    HW120027   1.262   3.591   6.952 -1.6776  0.3851 -0.4043
 2855SOL    HW220028   1.194   3.713   6.894 -0.8823 -1.9403  0.3486
 2856SOL     OW20029   4.090   0.890   2.103  0.2528 -0.2616  0.2840
 2856SOL    HW120030   4.120   0.981   2.100  1.4478 -0.5957  2.3520
 2856SOL    HW220031   4.068   0.878   2.010  1.5935 -2.3620  0.2557
 2857SOL     OW20032   4.080   4.562   2.520  0.1581 -0.0847 -0.1529
 2857SOL    HW120033   4.131   4.643   2.523  1.5651 -1.1011  3.0822
 2857SOL    HW220034   4.145   4.493   2.509 -0.4193 -0.5587 -0.5782
 2858SOL     OW20035   1.047   4.664   2.963  0.4343  0.0523  0.6415
 2858SOL    HW120036   1.128   4.622   2.991  0.1990 -0.5258  0.4515
 2858SOL    HW220037   1.017   4.607   2.893  1.2039 -2.3218  2.2443
 2859SOL     OW20038   4.489   3.647  10.113  0.0603  0.3375 -0.1102
 2859SOL    HW120039   4.434   3.662  10.190  1.3889 -0.7181  1.0457
 2859SOL    HW220040   4.559   3.708  10.136 -0.4776  0.7368  0.4462
 2860SOL     OW20041   0.826   4.699   9.618  0.1982  0.2261  0.4270
 2860SOL    HW120042   0.787   4.649   9.690  0.5964 -0.7946 -0.0612
 2860SOL    HW220043   0.885   4.629   9.589  0.8600 -0.2432  2.8817
 2861SOL     OW20044   3.724   4.404   7.268 -0.1002 -0.4872  0.1551
 2861SOL    HW120045   3.715   4.333   7.204 -1.9754 -0.5065  0.4479
 2861SOL    HW220046   3.640   4.396   7.314 -0.2895 -1.8093 -0.4296
 2862SOL     OW20047   1.378   3.838   3.126  0.6728 -0.7685 -0.4986
 2862SOL    HW120048   1.452   3.792   3.087  1.6599 -1.2434  1.9730
 2862SOL    HW220049   1.347   3.854   3.037  2.3573  1.5281 -0.6589
 2863SOL     OW20050   3.929   3.878   0.257  0.1645  0.1747 -0.1631
 2863SOL    HW120051   3.933   3.818   0.332 -1.4859  1.9548  1.3553
 2863SOL    HW220052   4.020   3.907   0.248  0.3040 -0.4908 -0.8426
 2864SOL     OW20053   1.961   0.599  15.280 -0.5154 -0.2746 -0.0732
 2864SOL    HW120054   1.981   0.551  15.361  1.4150  0.8388  0.1065
 2864SOL    HW220055   1.991   0.681  15.321 -1.2641 -0.4530  0.8403
 2865SOL     OW20056   1.459   1.031   2.300  0.1119 -0.4304 -0.3994
 2865SOL    HW120057   1.371   1.049   2.334 -0.5973 -0.9222 -1.9813
 2865SOL    HW220058   1.459   1.073   2.214  2.7418  0.5754  0.1157
 2866SOL     OW20059   3.687   0.443   6.475 -0.6865 -0.2142  0.1863
 2866SOL    HW120060   3.630   0.386   6.424 -0.6090 -0.0500 -0.0846
 2866SOL    HW220061   3.762   0.387   6.497  1.5116  1.8349 -2.0149
 2867SOL     OW20062   2.871   0.775   9.995  0.6717 -0.4327 -0.0655
 2867SOL    HW120063   2.820   0.749   9.918  2.4760  0.8870 -1.6980
 2867SOL    HW220064   2.798   0.791  10.055  0.7729  0.8539 -0.3056
 2868SOL     OW20065   0.499   1.635   8.293  0.6140 -0.2341  0.2156
 2868SOL    HW120066   0.515   1.695   8.366  0.5511  0.7317 -0.5762
 2868SOL    HW220067   0.567   1.570   8.313 -0.0364 -0.6966  0.9405
 2869SOL     OW20068   4.482   1.949  15.742 -0.0927 -0.2633  0.0211
 2869SOL    HW120069   4.506   2.026  15.691  0.8949 -0.6520 -0.0976
 2869SOL    HW220070   4.398   1.920  15.706 -0.7888 -0.4862  1.7979
 2870SOL     OW20071   1.369   4.121  14.914  0.3470 -0.9267  0.2350
 2870SOL    HW120072   1.309   4.150  14.845  1.5367  1.4208  0.1914
 2870SOL    HW220073   1.320   4.041  14.933  1.4245 -1.5189  0.4961
 2871SOL     OW20074   1.095   0.868   6.041 -0.5556  0.7250 -0.3903
 2871SOL    HW120075   1.152   0.888   5.967 -2.2107  0.0441 -1.8580
 2871SOL    HW220076   1.130   0.781   6.060  0.4008  1.3168  0.5263
 2872SOL     OW20077   2.962   3.758   6.690 -0.7888 -0.3167 -0.3936
 2872SOL    HW120078   3.019   3.804   6.752  0.6161 -0.7946 -1.3400
 2872SOL    HW220079   3.036   3.730   6.636  1.2494 -0.6128  2.5910
 2873SOL     OW20080   2.328   3.239   9.367  0.0797  0.3798 -0.0520
 2873SOL    HW120081   2.265   3.262   9.298  1.2217 -0.8024 -1.4787
 2873SOL    HW220082   2.392   3.308   9.351  0.5152 -0.3479 -1.4360
 2874SOL     OW20083   0.711   0.844   8.535  0.6963 -0.3465  0.2950
 2874SOL    HW120084   0.723   0.901   8.612  0.6292  1.3064 -0.9115
 2874SOL    HW220085   0.626   0.870   8.500 -0.0035 -1.3422  1.2792
 2875SOL     OW20086   0.832   1.640   2.824 -0.2494  0.2020  0.2356
 2875SOL    HW120087   0.807   1.725   2.787  0.6005 -0.1324 -1.1237
 2875SOL    HW220088   0.891   1.673   2.891  0.5002  0.5571 -0.5903
 2876SOL     OW20089   4.679   3.534   1.771  0.8155  0.6156  0.2532
 2876SOL    HW120090   4.618   3.473   1.811  0.1245  0.0471 -1.6586
 2876SOL    HW220091   4.640   3.577   1.695 -1.0463 -0.6883  0.4896
 2877SOL     OW20092   4.416   3.234   4.678  0.0863 -0.0392  0.4088
 2877SOL    HW120093   4.326   3.228   4.710  0.0574 -0.5808  0.2227
 2877SOL    HW220094   4.455   3.198   4.758  1.3876  2.1952  0.7739
 2878SOL     OW20095   3.079   3.117  13.553  0.2422 -0.1487 -0.1351
 2878SOL    HW120096   3.159   3.154  13.515 -0.4933 -0.7932 -2.3374
 2878SOL    HW220097   3.094   3.112  13.647  1.0141  1.1352 -0.1941
 2879SOL     OW20098   4.506   3.035   8.259  0.3645  0.1526 -0.3831
 2879SOL    HW120099   4.413   3.049   8.276  0.4233 -0.5883  0.5900
 2879SOL    HW220100   4.534   3.053   8.349  0.6826 -1.4967 -0.1486
 2880SOL     OW20101   2.892   1.375   5.670 -0.4860 -0.8104  0.1556
 2880SOL    HW120102   2.919   1.378   5.762  1.0776 -0.1706 -0.3148
 2880SOL    HW220103   2.921   1.286   5.651 -1.7066 -1.0711 -0.4585
 2881SOL     OW20104   3.976   1.679   6.010 -0.3584 -0.2703  0.1002
 2881SOL    HW120105   3.927   1.598   5.997 -0.4192  0.1917 -2.5987
 2881SOL    HW220106   3.973   1.685   6.106 -0.4383 -1.4191  0.1780
 2882SOL     OW20107   2.200   1.338   9.652 -0.5041 -0.0886 -0.4267
 2882SOL    HW120108   2.204   1.283   9.730  0.9304  0.3379 -0.1881
 2882SOL    HW220109   2.176   1.425   9.684 -0.7306 -0.5778  0.7305
 2883SOL     OW20110   2.536   4.049   0.477 -0.0210  0.0783  0.2275
 2883SOL    HW120111   2.459   4.003   0.510  0.1356 -0.2720  0.1147
 2883SOL    HW220112   2.517   4.139   0.503  1.5006  0.2267  0.8166
 2884SOL     OW20113   1.728   4.440  14.416  0.3179 -0.0498 -0.3219
 2884SOL    HW120114   1.692   4.493  14.345  1.0417 -1.8554 -2.0573
 2884SOL    HW220115   1.692   4.353  14.401  1.7762 -0.9396  1.3080
 2885SOL     OW20116   4.272   1.234   1.776 -0.1260 -0.3502 -0.0876
 2885SOL    HW120117   4.240   1.281   1.853 -1.2970  0.4510 -1.0667
 2885SOL    HW220118   4.349   1.188   1.810  1.0703  0.8670 -1.1305
 2886SOL     OW20119   4.242   0.942   1.694  1.3030  0.3834  0.5950
 2886SOL    HW120120   4.186   0.867   1.717 -0.0818  1.2974  0.1921
 2886SOL    HW220121   4.274   0.965   1.781  0.2295  1.4125  0.7211
 2887SOL     OW20122   2.520   3.833   3.289  0.2510  0.3355 -0.2602
 2887SOL    HW120123   2.517   3.903   3.224 -3.1155 -0.9463 -1.4819
 2887SOL    HW220124   2.522   3.885   3.369 -0.8986  1.8667 -1.2405
 2888SOL     OW20125   1.705   0.206   9.109 -0.3042  0.4587  0.4036
 2888SOL    HW120126   1.644   0.162   9.169 -0.9855  0.6517 -0.1399
 2888SOL    HW220127   1.787   0.173   9.145 -0.5816  1.0242  1.5808
 2889SOL     OW20128   3.236   1.298  12.138 -0.2529 -0.0959 -0.0562
 2889SOL    HW120129   3.157   1.308  12.192 -1.1381  0.7560 -1.5022
 2889SOL    HW220130   3.258   1.387  12.112 -2.8995  0.2837 -1.0201
 2890SOL     OW20131   0.514   1.144  13.312 -0.2525 -0.0860 -0.1379
 2890SOL    HW120132   0.579   1.089  13.270  1.0586  1.5303 -0.2356
 2890SOL    HW220133   0.482   1.086  13.381 -0.9430  0.1920 -0.2168
 2891SOL     OW20134   0.344   1.972  15.507  0.4950  0.1833  0.3985
 2891SOL    HW120135   0.273   2.036  15.512  0.2411  0.0097 -1.0265
 2891SOL    HW220136   0.417   2.027  15.536  0.7238  0.1073 -0.0403
 2892SOL     OW20137   4.568   2.837   6.835  0.3152  0.3741  0.0098
 2892SOL    HW120138   4.587   2.926   6.865 -0.6195 -0.5230  3.2596
 2892SOL    HW220139   4.651   2.791   6.844 -0.3234 -0.6588  0.5866
 2893SOL     OW20140   0.017   3.523   3.398 -1.1135  0.0714  0.2524
 2893SOL    HW120141   0.050   3.544   3.311  1.1942 -0.1136  1.0866
 2893SOL    HW220142   4.650   3.555   3.396 -0.4124  1.7938 -3.2164
 2894SOL     OW20143   1.353   1.854   4.356  0.6293  0.4062  0.1047
 2894SOL    HW120144   1.281   1.918   4.355 -0.0117 -0.3044  0.4936
 2894SOL    HW220145   1.366   1.847   4.451  2.2596  0.9179 -0.0831
 2895SOL     OW20146   1.307   2.775   3.274 -0.3843  0.2233 -0.0041
 2895SOL    HW120147   1.212   2.779   3.267 -0.2643  1.9632 -0.5413
 2895SOL    HW220148   1.319   2.854   3.326 -1.5927  2.5765 -3.3545
 2896SOL     OW20149   3.079   3.201   6.878 -0.3084 -0.2466 -0.0478
 2896SOL    HW120150   3.057   3.132   6.815  1.6067 -2.8429  2.0911
 2896SOL    HW220151   3.085   3.277   6.821  1.0016 -2.5155 -2.9557
 2897SOL     OW20152   1.928   0.659   5.990  0.2127  0.2507 -0.2700
 2897SOL    HW120153   1.957   0.722   5.924  0.9455  1.3351  1.0826
 2897SOL    HW220154   1.957   0.711   6.065 -0.1649  1.4186 -0.9322
 2898SOL     OW20155   0.922   2.001   2.203 -0.0344 -0.0893 -0.2320
 2898SOL    HW120156   0.893   2.060   2.134 -0.0945 -1.5903 -1.4905
 2898SOL    HW220157   0.965   2.054   2.270  0.5517  0.1891 -0.8258
 2899SOL     OW20158   3.178   4.088  10.736  0.7428 -0.2535 -0.1562
 2899SOL    HW120159   3.243   4.127  10.795  0.2140 -1.6446  1.3202
 2899SOL    HW220160   3.231   4.022  10.690  0.4742 -0.0418 -0.7739
 2900SOL     OW20161   0.033   2.594  13.816 -0.0676 -0.6256  0.3874
 2900SOL    HW120162   0.022   2.535  13.741  0.8331  0.2015 -0.4033
 2900SOL    HW220163   0.104   2.556  13.869  1.9277  4.4417  1.3824
 2901SOL     OW20164   4.034   2.689   3.733 -0.6791  0.0102 -0.1425
 2901SOL    HW120165   4.057   2.761   3.674 -1.9761 -1.2314 -2.2070
 2901SOL    HW220166   4.036   2.740   3.814  2.5558  0.0202 -0.2372
 2902SOL     OW20167   3.348   0.874   0.061  0.3057 -0.0186 -0.6210
 2902SOL    HW120168   3.393   0.836   0.137  0.2505  5.3197  2.0882
 2902SOL    HW220169   3.261   0.888   0.100  0.3404 -2.2616  0.2541
 2903SOL     OW20170   1.559   2.929   8.147  0.3634  0.4541  0.9526
 2903SOL    HW120171   1.546   2.962   8.236 -0.6107  0.1303  0.9414
 2903SOL    HW220172   1.629   2.865   8.159 -0.0127 -0.2775 -0.7752
 2904SOL     OW20173   3.934   1.065   7.988  0.1943  0.5184 -0.1555
 2904SOL    HW120174   3.845   1.071   8.020  0.2238 -0.8473  0.1546
 2904SOL    HW220175   3.989   1.028   8.057  0.6580 -0.0752 -0.8424
 2905SOL     OW20176   4.390   3.494  14.028  0.3482  0.2172  0.4643
 2905SOL    HW120177   4.385   3.403  14.056  0.5279 -0.4561 -1.6892
 2905SOL    HW220178   4.454   3.497  13.957  0.5442  1.6780  0.7054
 2906SOL     OW20179   2.411   2.726   6.791 -0.2063  0.4955  0.5948
 2906SOL    HW120180   2.379   2.796   6.848 -2.2483 -0.7726  0.9925
 2906SOL    HW220181   2.500   2.754   6.770  0.0834  0.2067  1.4551
 2907SOL     OW20182   2.153   4.660   5.670 -0.6350 -0.3337  0.0513
 2907SOL    HW120183   2.244   4.684   5.687 -0.1105 -2.4540  0.3126
 2907SOL    HW220184   2.132   4.710   5.592  0.6683  2.3400  1.4357
 2908SOL     OW20185   0.347   0.733   3.383 -0.3906  0.6156 -0.1509
 2908SOL    HW120186   0.278   0.688   3.334 -0.6234 -0.7308  1.3984
 2908SOL    HW220187   0.414   0.747   3.317  0.2068 -0.1924  0.2770
 2909SOL     OW20188   2.493   3.601   3.693  0.4766  0.0809  0.0576
 2909SOL    HW120189   2.528   3.549   3.621 -1.0829  1.6687 -1.8446
 2909SOL    HW220190   2.577   3.619   3.734  0.2331  1.6071 -0.1391
 2910SOL     OW20191   4.687   1.337   2.537 -0.0273  0.0990 -0.0814
 2910SOL    HW120192   0.027   1.356   2.468  0.0934  0.7367  0.2075
 2910SOL    HW220193   4.674   1.424   2.573  0.0659 -0.1754  0.6167
 2911SOL     OW20194   4.289   3.638   4.577 -0.2111  0.1539 -0.3903
 2911SOL    HW120195   4.301   3.625   4.483 -0.0403 -1.8514 -0.0761
 2911SOL    HW220196   4.217   3.576   4.589  0.4487 -0.4666  0.3127
 2912SOL     OW20197   2.402   0.889  12.981 -0.0064 -0.5283  0.5343
 2912SOL    HW120198   2.472   0.954  12.978 -0.8669  0.4707  2.2445
 2912SOL    HW220199   2.369   0.923  13.064  0.7666 -0.7353  0.9277
 2913SOL     OW20200   4.074   0.007  17.430  0.2461 -0.1742 -0.1011
 2913SOL    HW120201   4.068   0.003  17.526 -0.2347 -0.1023 -0.1265
 2913SOL    HW220202   3.982   4.718  17.406 -0.6706  4.9462  0.5934
 2914SOL     OW20203   0.725   3.733   2.601  0.2104 -0.8623  0.2020
 2914SOL    HW120204   0.685   3.648   2.583 -0.4280 -0.4831 -0.1766
 2914SOL    HW220205   0.733   3.719   2.696 -1.4604  0.2849  0.5321
 2915SOL     OW20206   2.487   4.356  14.667  0.2099  0.1548  0.3768
 2915SOL    HW120207   2.565   4.374  14.719 -0.8913  3.0314  1.0700
 2915SOL    HW220208   2.438   4.439  14.674 -3.2052 -1.9537  1.5220
 2916SOL     OW20209   2.544   2.255  16.764  0.0733 -0.1998 -0.1741
 2916SOL    HW120210   2.461   2.300  16.752  0.2002 -0.3725 -1.7346
 2916SOL    HW220211   2.515   2.190  16.827  0.6352  0.7339  1.0480
 2917SOL     OW20212   1.373   3.107  13.089  0.5134  0.3072  0.8910
 2917SOL    HW120213   1.430   3.164  13.140  3.3834 -0.0959 -1.8439
 2917SOL    HW220214   1.396   3.132  12.999  0.9419  0.9616  1.1804
 2918SOL     OW20215   1.463   2.759   7.185 -0.4170 -0.3715  0.1405
 2918SOL    HW120216   1.471   2.845   7.144 -0.6133  0.0337  0.9387
 2918SOL    HW220217   1.368   2.747   7.193 -0.2384 -2.5317 -0.9464
 2919SOL     OW20218   1.152   3.860   2.037 -0.0352  0.0730 -0.0458
 2919SOL    HW120219   1.106   3.878   2.119  0.2154  0.1485  0.0772
 2919SOL    HW220220   1.229   3.813   2.067 -2.4178 -1.9953  2.9321
 2920SOL     OW20221   2.184   2.587   6.206 -0.1790  0.5896 -0.1408
 2920SOL    HW120222   2.129   2.619   6.134  0.8119 -1.0227 -1.6325
 2920SOL    HW220223   2.263   2.640   6.203 -2.2782  3.7416 -0.1124
 2921SOL     OW20224   2.065   0.938  12.177 -0.2953 -0.3846 -0.3112
 2921SOL    HW120225   2.139   0.982  12.220 -1.8278  0.1607  1.7488
 2921SOL    HW220226   2.091   0.929  12.085 -2.2052  0.4578 -0.9187
 2922SOL     OW20227   0.499   0.532  16.494 -0.5760  0.5473  0.6333
 2922SOL    HW120228   0.451   0.592  16.551  0.2556  0.6507  1.2241
 2922SOL    HW220229   0.426   0.481  16.456  0.4413  0.7402 -1.5954
 2923SOL     OW20230   3.302   0.267  15.218  0.0480  0.2066  0.1714
 2923SOL    HW120231   3.331   0.192  15.270  0.5917  0.7438  0.6360
 2923SOL    HW220232   3.369   0.272  15.150  0.0637  1.0352  0.2487
 2924SOL     OW20233   3.285   0.843   6.877 -1.1244  0.7627  0.8557
 2924SOL    HW120234   3.334   0.900   6.817 -1.5011 -1.2006 -1.3441
 2924SOL    HW220235   3.353   0.835   6.944 -1.5150 -1.2292  1.0270
 2925SOL     OW20236   0.423   3.426   0.439  0.3478  0.3943 -0.3177
 2925SOL    HW120237   0.359   3.382   0.494 -0.5437  1.3280 -0.6092
 2925SOL    HW220238   0.497   3.441   0.498  0.8836 -0.7149 -0.7000
 2926SOL     OW20239   2.560   2.470   4.708  0.2105 -0.3670  0.0876
 2926SOL    HW120240   2.644   2.508   4.735  0.2637 -1.3543  1.3316
 2926SOL    HW220241   2.505   2.548   4.710  0.1392 -0.4036 -0.3953
 2927SOL     OW20242   1.818   2.189   5.535  0.9477  0.5320 -0.1719
 2927SOL    HW120243   1.804   2.228   5.621  0.6525 -0.0251  0.0348
 2927SOL    HW220244   1.865   2.260   5.492  1.4897  0.7683  0.8203
 2928SOL     OW20245   1.229   1.113   3.842 -0.1044 -0.2462 -0.6671
 2928SOL    HW120246   1.175   1.172   3.789  0.0305  1.4974  1.1197
 2928SOL    HW220247   1.321   1.119   3.818 -1.0342  2.3812 -3.7218
 2929SOL     OW20248   1.402   1.376   6.988 -0.3607  0.1306  0.2152
 2929SOL    HW120249   1.478   1.324   6.960  1.8210  2.3927  1.9176
 2929SOL    HW220250   1.383   1.421   6.906 -0.6548 -0.2159  0.0944
 2930SOL     OW20251   4.068   4.234  10.819 -0.4006 -0.3395 -0.6075
 2930SOL    HW120252   4.152   4.225  10.774 -0.7425 -0.3896 -1.2357
 2930SOL    HW220253   4.086   4.316  10.865 -1.7608 -1.4895  1.9783
 2931SOL     OW20254   1.147   0.482   7.821 -0.1568 -0.0373 -0.2254
 2931SOL    HW120255   1.067   0.536   7.822 -0.6311 -0.7374  0.1927
 2931SOL    HW220256   1.214   0.547   7.840 -2.0553  1.9305 -0.2069
 2932SOL     OW20257   1.183   1.201   5.874 -0.5725  0.2041 -0.1945
 2932SOL    HW120258   1.114   1.149   5.832 -0.5039  2.5560 -3.2157
 2932SOL    HW220259   1.154   1.218   5.963 -0.8014  2.2115 -0.6653
 2933SOL     OW20260   1.339   0.164   5.475  0.1865 -0.0729 -0.4932
 2933SOL    HW120261   1.385   0.183   5.393  0.5409 -0.5087 -0.3934
 2933SOL    HW220262   1.395   0.098   5.515  1.2649  1.5228  0.6711
 2934SOL     OW20263   3.630   3.399  15.115 -0.4529  0.0189  0.2973
 2934SOL    HW120264   3.615   3.306  15.127 -1.5676  0.0820 -0.7264
 2934SOL    HW220265   3.709   3.410  15.168  0.6975 -0.1055 -1.3976
 2935SOL     OW20266   1.167   1.352   7.113 -0.5077 -0.3146  0.3897
 2935SOL    HW120267   1.155   1.444   7.136 -2.0637 -0.1191 -1.1355
 2935SOL    HW220268   1.248   1.357   7.062 -2.0347 -0.1148 -2.0202
 2936SOL     OW20269   2.731   2.697   5.555  0.2337 -0.0683 -0.3129
 2936SOL    HW120270   2.682   2.615   5.560  0.0419  0.0726  0.0695
 2936SOL    HW220271   2.674   2.749   5.497  2.4342  0.6365 -1.8591
 2937SOL     OW20272   4.601   3.728   6.388 -0.1636 -0.4580  0.2693
 2937SOL    HW120273   4.594   3.820   6.363  1.7253  0.0381  1.5724
 2937SOL    HW220274   4.658   3.730   6.464  1.9887  1.8171 -1.4186
 2938SOL     OW20275   2.223   3.229   7.092  0.1549 -0.1648 -0.1707
 2938SOL    HW120276   2.174   3.286   7.031  0.1265  0.4882  0.4612
 2938SOL    HW220277   2.144   3.198   7.136 -1.2711 -0.9241 -3.2553
 2939SOL     OW20278   3.177   0.278   6.540 -0.8500 -0.1315  0.3071
 2939SOL    HW120279   3.221   0.193   6.542  0.8865  0.7658 -0.4470
 2939SOL    HW220280   3.157   0.296   6.632  0.6798 -0.2992  0.6741
 2940SOL     OW20281   4.305   0.464  10.610  0.3154  0.3400  0.0551
 2940SOL    HW120282   4.258   0.513  10.542  1.3994  0.1931 -0.8021
 2940SOL    HW220283   4.397   0.473  10.583 -0.2502  1.8382 -1.3957
 2941SOL     OW20284   0.433   2.195   8.604  0.4226  0.1396  0.1833
 2941SOL    HW120285   0.476   2.255   8.543  0.7092  1.2333  1.4443
 2941SOL    HW220286   0.352   2.172   8.560 -0.0470 -1.2497  1.7676
 2942SOL     OW20287   4.694   2.309   4.242 -0.0879  0.4286 -0.2019
 2942SOL    HW120288   4.708   2.333   4.150 -2.9009  1.2806 -0.4083
 2942SOL    HW220289   4.678   2.215   4.231  0.8102  0.2270  0.1896
 2943SOL     OW20290   1.410   3.275   2.765  0.2743  0.1190 -0.7118
 2943SOL    HW120291   1.428   3.242   2.678  0.1730 -0.1636 -0.6233
 2943SOL    HW220292   1.377   3.364   2.751  0.3617  0.0579 -1.3041
 2944SOL     OW20293   4.554   2.205   7.053 -0.1760 -0.1162  0.5956
 2944SOL    HW120294   4.494   2.257   7.105  0.2203  4.5070 -3.4965
 2944SOL    HW220295   4.591   2.151   7.123  0.9484  0.1704  0.2298
 2945SOL     OW20296   2.384   4.513  16.508  0.5349 -0.3589 -0.5332
 2945SOL    HW120297   2.298   4.542  16.479  0.1852  0.2280  1.1048
 2945SOL    HW220298   2.362   4.476  16.594  0.3626  1.5150  0.2152
 2946SOL     OW20299   2.239   3.641   4.922 -0.0432 -0.4560 -0.5775
 2946SOL    HW120300   2.182   3.566   4.940 -1.0261  0.0820 -1.4145
 2946SOL    HW220301   2.210   3.697   4.994  0.5565  0.1971 -0.8485
 2947SOL     OW20302   2.218   2.518  15.086  0.3922 -0.2777  0.0149
 2947SOL    HW120303   2.303   2.490  15.051  1.4176  1.1958  1.3432
 2947SOL    HW220304   2.166   2.441  15.061  0.4224 -0.3697  0.2325
 2948SOL     OW20305   3.414   2.849  16.299 -0.0624  0.2495 -0.5229
 2948SOL    HW120306   3.487   2.795  16.269  1.2053  0.2958  2.4487
 2948SOL    HW220307   3.426   2.856  16.394  0.7089 -2.5121 -0.4309
 2949SOL     OW20308   3.804   1.840   6.236  0.2286  0.0060  0.2492
 2949SOL    HW120309   3.791   1.806   6.325  2.5792 -1.3937  0.0706
 2949SOL    HW220310   3.899   1.839   6.247  0.1922 -0.2433  0.5594
 2950SOL     OW20311   3.550   3.304   4.605 -0.2212 -0.7698  0.0488
 2950SOL    HW120312   3.578   3.276   4.692  1.9952  3.5345  0.7262
 2950SOL    HW220313   3.485   3.238   4.581 -1.1031  0.2606 -0.3769
 2951SOL     OW20314   4.433   1.688   2.255 -0.3481  0.1004 -0.4836
 2951SOL    HW120315   4.486   1.725   2.184 -0.3742  0.9059 -0.0930
 2951SOL    HW220316   4.438   1.752   2.326  0.0536 -0.1445 -0.2905
 2952SOL     OW20317   1.743   0.265  11.836  0.0923  0.0989 -0.1266
 2952SOL    HW120318   1.836   0.261  11.815  0.0777  0.0390 -0.1792
 2952SOL    HW220319   1.721   0.357  11.850 -2.4603 -0.7541  1.5924
 2953SOL     OW20320   1.115   0.474  14.184  0.0339  0.3187 -0.0637
 2953SOL    HW120321   1.045   0.482  14.119  0.9306  0.6062 -1.0013
 2953SOL    HW220322   1.182   0.526  14.139  0.0926 -0.5381 -0.9606
 2954SOL     OW20323   0.342   3.111   7.711 -0.7192 -0.2221 -0.1304
 2954SOL    HW120324   0.267   3.105   7.770 -0.9065 -1.3493 -0.4790
 2954SOL    HW220325   0.295   3.095   7.629  0.0044  1.1283 -0.8243
 2955SOL     OW20326   1.877   3.226  17.276 -0.2576  0.6207  0.0484
 2955SOL    HW120327   1.916   3.192  17.195  1.5836 -1.6060  1.8360
 2955SOL    HW220328   1.958   3.222  17.327 -0.8025 -0.8202  0.8233
 2956SOL     OW20329   1.738   2.459   7.268  0.0353 -0.4591  0.2177
 2956SOL    HW120330   1.727   2.431   7.358 -1.6116 -2.3654 -0.5729
 2956SOL    HW220331   1.831   2.447   7.252  0.0342  1.3454 -1.1806
 2957SOL     OW20332   4.306   0.402   7.724 -0.3603  0.3641  0.2355
 2957SOL    HW120333   4.263   0.408   7.639  0.7816  0.9996 -0.3141
 2957SOL    HW220334   4.295   0.491   7.758 -1.7440  0.0965  0.4602
 2958SOL     OW20335   2.052   4.601   1.021 -0.3550 -0.0349  0.4112
 2958SOL    HW120336   2.043   4.531   1.086  1.9555 -0.5353  0.1953
 2958SOL    HW220337   2.107   4.552   0.960 -3.3894  0.4721 -2.6934
 2959SOL     OW20338   0.249   0.481   2.777  0.0314  0.9170  0.3890
 2959SOL    HW120339   0.237   0.543   2.704 -4.5138 -1.4297 -0.8781
 2959SOL    HW220340   0.341   0.490   2.799  0.3940  1.8775 -1.4695
 2960SOL     OW20341   0.763   2.765   7.903 -0.5156  0.0930  0.0614
 2960SOL    HW120342   0.708   2.822   7.957 -1.8809 -2.0433  0.8927
 2960SOL    HW220343   0.701   2.695   7.885  0.3133  0.0717 -2.7401
 2961SOL     OW20344   4.447   1.937  13.449  0.0279  0.2001  0.5166
 2961SOL    HW120345   4.407   2.002  13.392 -0.3319 -1.2320 -0.8774
 2961SOL    HW220346   4.435   1.979  13.534  1.9472  0.7784  0.5008
 2962SOL     OW20347   1.329   1.016   1.690 -0.3416 -0.3705  0.3358
 2962SOL    HW120348   1.350   1.108   1.674 -0.1878  0.2608  4.2301
 2962SOL    HW220349   1.400   0.980   1.743 -0.9730 -1.3573  0.5160
 2963SOL     OW20350   1.548   0.011   5.542  0.1597 -0.0721 -0.6426
 2963SOL    HW120351   1.570   4.705   5.454  2.7613 -0.5806  0.1783
 2963SOL    HW220352   1.605   4.690   5.605  2.5668  3.8306 -0.0478
 2964SOL     OW20353   3.000   0.756   6.216 -0.3785  0.1654  0.3141
 2964SOL    HW120354   2.949   0.677   6.198  1.2012 -0.7476 -0.1701
 2964SOL    HW220355   2.950   0.825   6.173 -2.1750 -1.3712 -0.0367
 2965SOL     OW20356   2.553   4.319   4.495 -0.4169  0.0716 -0.4203
 2965SOL    HW120357   2.527   4.277   4.414  0.2053  1.4359 -1.3307
 2965SOL    HW220358   2.482   4.310   4.558 -1.5926  2.5463 -1.3864
 2966SOL     OW20359   2.624   4.401   8.451 -0.1038 -0.7508  0.3315
 2966SOL    HW120360   2.709   4.357   8.453  1.4308  2.1248 -1.2845
 2966SOL    HW220361   2.621   4.431   8.360 -0.8156  1.6395  1.1354
 2967SOL     OW20362   0.732   4.097   7.465  0.4700 -0.2050 -0.3208
 2967SOL    HW120363   0.680   4.110   7.544  1.4159 -0.8652  0.4129
 2967SOL    HW220364   0.686   4.156   7.405 -0.6645  1.0964  1.8277
 2968SOL     OW20365   1.222   2.708  10.405  0.3434 -0.3896  0.1119
 2968SOL    HW120366   1.244   2.789  10.359  1.8119 -1.9178 -1.8933
 2968SOL    HW220367   1.173   2.661  10.337 -0.4818  0.9829 -0.2242
 2969SOL     OW20368   0.958   1.453   6.115 -0.6105 -0.2046  0.6026
 2969SOL    HW120369   1.021   1.381   6.118  0.2909  0.5037 -1.4302
 2969SOL    HW220370   0.964   1.463   6.020 -0.6530  1.9122  0.8184
 2970SOL     OW20371   4.379   0.127   3.713 -0.3551 -0.2614 -0.1704
 2970SOL    HW120372   4.376   0.220   3.734 -1.8942 -0.2697 -0.3907
 2970SOL    HW220373   4.347   0.084   3.792  3.5016  0.1374  1.6381
 2971SOL     OW20374   3.901   2.250  13.558 -0.2075  0.1421 -0.3036
 2971SOL    HW120375   3.948   2.309  13.499  1.7644 -0.4775  0.6483
 2971SOL    HW220376   3.959   2.243  13.634 -0.6590 -0.3957 -0.0105
 2972SOL     OW20377   0.042   4.522   6.789 -0.1570 -0.2335  0.5839
 2972SOL    HW120378   4.688   4.469   6.805 -0.3141  0.0892  0.8939
 2972SOL    HW220379   0.054   4.553   6.879 -1.9408  2.3085 -0.0725
 2973SOL     OW20380   1.435   0.890   3.570 -0.3542 -0.6688 -0.2135
 2973SOL    HW120381   1.414   0.973   3.529  1.6999  0.4885  1.0917
 2973SOL    HW220382   1.493   0.848   3.506 -0.0735  0.8805 -0.9552
 2974SOL     OW20383   3.766   2.096  10.222 -0.2322 -0.2292 -0.0723
 2974SOL    HW120384   3.682   2.070  10.185  0.3381 -0.0628 -1.4820
 2974SOL    HW220385   3.729   2.134  10.302  0.1027 -0.9997  0.4489
 2975SOL     OW20386   3.267   0.474   5.589 -0.0976 -0.3423  0.0358
 2975SOL    HW120387   3.204   0.405   5.571 -2.2236  2.0334 -1.6270
 2975SOL    HW220388   3.266   0.474   5.685  0.1170 -0.7867  0.0398
 2976SOL     OW20389   1.665   4.417   8.426 -0.0185 -0.1383 -0.1207
 2976SOL    HW120390   1.612   4.400   8.348  0.3053 -0.0172 -0.3673
 2976SOL    HW220391   1.755   4.398   8.398 -0.8797 -0.4869 -2.6194
 2977SOL     OW20392   1.597   2.498   6.763  0.0335  0.9727  0.3050
 2977SOL    HW120393   1.629   2.547   6.839 -0.4254  1.7407  0.0056
 2977SOL    HW220394   1.505   2.517   6.780 -0.3318 -0.7876  0.2726
 2978SOL     OW20395   2.088   3.070  15.705 -0.1288  0.2343  0.8888
 2978SOL    HW120396   2.164   3.100  15.754 -1.7870  2.1852  2.2750
 2978SOL    HW220397   2.118   3.075  15.614 -2.1929  0.3128  0.1951
 2979SOL     OW20398   3.249   0.941   8.234 -0.7321  0.5721 -0.0715
 2979SOL    HW120399   3.271   1.005   8.302 -1.5993 -0.5550  1.2797
 2979SOL    HW220400   3.249   0.996   8.156 -0.1615 -0.9527 -1.1414
 2980SOL     OW20401   1.219   0.570  10.678  0.1635 -0.1824  0.6973
 2980SOL    HW120402   1.296   0.528  10.717  0.8208  1.9732  1.7000
 2980SOL    HW220403   1.163   0.556  10.754 -1.0075  1.6601  0.1681
 2981SOL     OW20404   0.139   4.150  10.017  0.2757 -0.1406 -0.0791
 2981SOL    HW120405   0.192   4.074  10.038  2.9360  1.3598 -1.3292
 2981SOL    HW220406   0.054   4.118  10.045  0.0076  0.8122  0.2181
 2982SOL     OW20407   1.990   2.049   3.571 -0.0129 -0.6082  0.0362
 2982SOL    HW120408   2.006   2.001   3.490  0.6760  1.9333 -1.3387
 2982SOL    HW220409   2.067   2.105   3.582  0.0691 -0.7772  0.3146
 2983SOL     OW20410   3.521   0.272   9.021  0.1471  0.0634  0.2107
 2983SOL    HW120411   3.472   0.273   8.939 -0.2370  1.8573  0.4615
 2983SOL    HW220412   3.459   0.245   9.090 -2.4135  1.1379 -1.6663
 2984SOL     OW20413   2.722   4.385  14.780  0.7504 -0.3537 -0.7507
 2984SOL    HW120414   2.780   4.317  14.746  1.5050 -0.9676  1.7269
 2984SOL    HW220415   2.784   4.440  14.828  0.4113  0.0383 -0.7631
 2985SOL     OW20416   3.071   0.187  10.959  0.6198  0.2975 -0.2102
 2985SOL    HW120417   3.000   0.123  10.952 -1.1870  2.0653  2.0867
 2985SOL    HW220418   3.127   0.132  11.013 -1.2242 -0.5113  0.8897
 2986SOL     OW20419   2.280   3.852   8.640  0.0748  0.1321  0.1038
 2986SOL    HW120420   2.344   3.783   8.657 -0.5443 -0.0697  1.6386
 2986SOL    HW220421   2.234   3.816   8.565  0.3602 -1.5692  0.7418
 2987SOL     OW20422   1.643   0.626  12.058 -0.2193  0.0740 -0.3973
 2987SOL    HW120423   1.709   0.653  12.122  0.2996 -0.6110 -0.6531
 2987SOL    HW220424   1.624   0.714  12.026  1.9875  0.6025 -0.2342
 2988SOL     OW20425   1.560   2.748  15.950 -0.2396  0.3002 -0.1194
 2988SOL    HW120426   1.535   2.698  15.872  2.0371 -0.4018 -0.4040
 2988SOL    HW220427   1.619   2.688  15.995 -0.6047 -0.7402 -1.0239
 2989SOL     OW20428   4.674   3.589   8.607 -0.2807 -0.3727 -0.1190
 2989SOL    HW120429   4.655   3.562   8.517 -2.0422 -1.4668  0.5804
 2989SOL    HW220430   0.015   3.520   8.620 -1.7687 -1.6400  0.5808
 2990SOL     OW20431   1.944   3.229   3.160  0.4404  0.3629 -1.0736
 2990SOL    HW120432   1.938   3.319   3.190  1.6906  0.5412 -1.3696
 2990SOL    HW220433   1.988   3.240   3.076  0.7689  2.0527 -0.6647
 2991SOL     OW20434   1.049   2.060   6.225 -0.5888 -0.3468  0.0424
 2991SOL    HW120435   1.142   2.078   6.211 -0.3724 -0.3070  1.5413
 2991SOL    HW220436   1.051   2.044   6.319  0.0921  1.0010  0.2562
 2992SOL     OW20437   2.737   0.014   4.270 -0.5598  0.2075  0.4001
 2992SOL    HW120438   2.693   0.096   4.248 -1.2857  0.2878  2.1500
 2992SOL    HW220439   2.663   4.690   4.307 -2.0091  1.6056 -0.6888
 2993SOL     OW20440   0.077   2.330   9.740 -0.3213  0.0041 -0.7440
 2993SOL    HW120441   4.714   2.318   9.777  0.8850 -1.4487  1.6532
 2993SOL    HW220442   0.117   2.376   9.814 -0.9002  0.9588 -1.0392
 2994SOL     OW20443   1.393   2.745   6.338  0.0238 -0.3788 -0.6899
 2994SOL    HW120444   1.347   2.693   6.273  0.0472 -2.4253  0.9429
 2994SOL    HW220445   1.468   2.699   6.376  0.2101  1.6767  1.4479
 2995SOL     OW20446   4.047   1.345   6.275 -0.5324 -0.0259 -0.1957
 2995SOL    HW120447   4.092   1.322   6.194 -1.0806  3.9802 -1.6322
 2995SOL    HW220448   3.977   1.280   6.276  0.2880 -0.8157  3.5903
 2996SOL     OW20449   3.684   1.048   0.243  0.1515  0.3628  0.1586
 2996SOL    HW120450   3.754   1.036   0.307  0.8159 -1.8112 -0.9537
 2996SOL    HW220451   3.698   1.136   0.209  2.4118 -0.3806 -0.8797
 2997SOL     OW20452   3.374   2.518   0.648 -0.0556  0.0549 -0.2031
 2997SOL    HW120453   3.398   2.464   0.572  0.9537  1.7131 -1.0525
 2997SOL    HW220454   3.387   2.462   0.724 -1.7230  1.2885  0.9826
 2998SOL     OW20455   2.238   2.696   9.591  0.1028 -0.2075  0.0184
 2998SOL    HW120456   2.183   2.753   9.645 -0.5012  0.8801 -1.7473
 2998SOL    HW220457   2.205   2.706   9.501  0.4579 -0.9534 -0.1915
 2999SOL     OW20458   3.509   2.722   2.798  0.2066 -0.5265 -0.2889
 2999SOL    HW120459   3.442   2.739   2.865 -0.7885 -0.7024 -1.2361
 2999SOL    HW220460   3.475   2.644   2.755 -0.1627  0.7862 -2.3520
 3000SOL     OW20461   3.922   3.683   2.641 -0.3663  0.6142  0.5844
 3000SOL    HW120462   4.007   3.639   2.632 -0.4025  1.0866 -2.0418
 3000SOL    HW220463   3.879   3.631   2.710 -0.6059 -0.0584 -0.0730
 3001SOL     OW20464   4.300   4.405   9.314 -0.1285 -0.0689  0.0796
 3001SOL    HW120465   4.305   4.500   9.301  1.1855 -0.2827 -1.0238
 3001SOL    HW220466   4.382   4.376   9.354 -0.0201 -0.2600 -0.2788
 3002SOL     OW20467   4.566   4.133   8.145  0.6175  0.5229  0.3756
 3002SOL    HW120468   4.543   4.119   8.237  0.2682  1.9567  0.5100
 3002SOL    HW220469   4.478   4.137   8.107  0.8589  2.1444 -0.0114
 3003SOL     OW20470   3.306   4.174   0.542 -0.1250 -0.2309 -0.0752
 3003SOL    HW120471   3.334   4.148   0.630  1.3224 -0.5675 -0.6543
 3003SOL    HW220472   3.213   4.151   0.546 -0.7709  2.0667 -1.9298
 3004SOL     OW20473   0.548   0.517  16.180  0.1550 -0.2190 -0.2902
 3004SOL    HW120474   0.575   0.436  16.223 -0.4438 -0.8314 -1.0407
 3004SOL    HW220475   0.629   0.541  16.136  0.6501 -0.2283  0.6193
 3005SOL     OW20476   2.377   0.588  16.792 -0.3641 -0.0178  0.2394
 3005SOL    HW120477   2.408   0.581  16.702  1.2363  2.3254  0.6153
 3005SOL    HW220478   2.368   0.496  16.817 -2.2647 -0.4548 -1.9992
 3006SOL     OW20479   2.028   3.002   6.660 -0.3517 -0.7418 -0.0494
 3006SOL    HW120480   2.121   3.024   6.662 -0.3136 -0.8955 -0.0734
 3006SOL    HW220481   2.003   2.973   6.748  0.1321 -0.7340  0.0870
 3007SOL     OW20482   2.382   1.940   1.088  0.3726  0.2200 -0.1125
 3007SOL    HW120483   2.449   1.913   1.025  1.2228  1.7225  0.1481
 3007SOL    HW220484   2.306   1.953   1.031  0.8271 -1.9653 -1.2051
 3008SOL     OW20485   1.065   4.151   3.132  0.1244 -0.0845  0.2049
 3008SOL    HW120486   1.076   4.062   3.164 -1.9687 -1.3473 -2.5754
 3008SOL    HW220487   0.977   4.150   3.094  1.0148  1.6391 -1.9135
 3009SOL     OW20488   3.111   3.932   2.663  0.3569  0.0918 -0.3584
 3009SOL    HW120489   3.122   3.995   2.592 -0.0408 -0.1917 -0.6693
 3009SOL    HW220490   3.127   3.991   2.737  0.5952  1.3014 -1.3707
 3010SOL     OW20491   0.089   2.986   2.809  0.2959  0.8631  0.0734
 3010SOL    HW120492   4.723   2.955   2.822  0.6473 -0.4816 -0.7202
 3010SOL    HW220493   0.088   3.082   2.810  0.5558  0.8916 -2.2392
 3011SOL     OW20494   2.216   1.801   1.807  0.5215 -0.0016 -0.0360
 3011SOL    HW120495   2.180   1.887   1.783  1.4669  1.1485  2.6963
 3011SOL    HW220496   2.295   1.807   1.754  1.2801  0.5690  1.1645
 3012SOL     OW20497   0.844   1.747   2.241 -0.3432  0.2244 -0.4424
 3012SOL    HW120498   0.926   1.699   2.253 -0.0210  0.7560 -0.5496
 3012SOL    HW220499   0.866   1.831   2.202 -0.7494  1.0055  1.0322
 3013SOL     OW20500   3.760   0.902   6.987 -0.4615  0.2828 -0.1161
 3013SOL    HW120501   3.785   0.994   6.997  1.0710 -0.2358  0.7915
 3013SOL    HW220502   3.771   0.896   6.892 -0.2512 -1.4387  0.0165
 3014SOL     OW20503   4.668   4.697  13.166 -0.2003 -0.3641  0.3200
 3014SOL    HW120504   4.638   4.689  13.076 -1.0311 -1.7596  0.7263
 3014SOL    HW220505   0.003   4.622  13.158 -1.6447 -1.2999 -1.4016
 3015SOL     OW20506   1.680   1.193  14.887 -0.7694  0.5471 -0.3080
 3015SOL    HW120507   1.652   1.273  14.843  2.0678  1.1117 -1.0660
 3015SOL    HW220508   1.755   1.169  14.833  0.2603 -0.7002  1.6808
 3016SOL     OW20509   0.449   3.596  14.446  0.2661  0.3293 -0.7161
 3016SOL    HW120510   0.438   3.503  14.428 -0.2999  0.3280 -0.3510
 3016SOL    HW220511   0.371   3.637  14.409  0.0920  1.0139  0.4144
 3017SOL     OW20512   1.570   0.352   4.206  0.4087 -0.1061 -0.7385
 3017SOL    HW120513   1.569   0.425   4.143 -0.1330 -0.4453 -1.1238
 3017SOL    HW220514   1.660   0.321   4.205  0.5504  0.1463  2.3043
 3018SOL     OW20515   4.620   1.174  15.241  0.0532 -0.6138  0.0137
 3018SOL    HW120516   4.683   1.197  15.309  0.9185  1.0274 -1.3473
 3018SOL    HW220517   4.652   1.084  15.243 -1.6449 -1.2115  0.5303
 3019SOL     OW20518   2.948   0.947  15.416 -0.3104 -0.2471 -0.4960
 3019SOL    HW120519   2.871   0.991  15.379  0.1052  1.3891  0.5743
 3019SOL    HW220520   3.001   1.025  15.435  0.2298 -0.5521 -0.7668
 3020SOL     OW20521   0.563   1.744   8.555  0.2425  0.2255  0.0599
 3020SOL    HW120522   0.540   1.821   8.606  2.3517 -0.6472  2.3193
 3020SOL    HW220523   0.568   1.682   8.627  1.9831  1.6110  1.1362
 3021SOL     OW20524   4.543   3.238   4.221 -0.2592 -0.1380 -0.2470
 3021SOL    HW120525   4.562   3.159   4.171  0.2822 -0.5358  0.5967
 3021SOL    HW220526   4.586   3.214   4.303 -0.6202  1.4960  0.4152
 3022SOL     OW20527   0.423   2.175  16.286 -0.0331 -0.6367 -0.4362
 3022SOL    HW120528   0.341   2.187  16.239 -0.1326  1.2154  0.2324
 3022SOL    HW220529   0.396   2.132  16.367  0.5078 -0.4731 -0.1663
 3023SOL     OW20530   3.444   1.354   3.787 -0.2231 -0.6820  1.0966
 3023SOL    HW120531   3.364   1.398   3.817 -0.3756 -0.7411  0.7859
 3023SOL    HW220532   3.402   1.269   3.777 -1.7047  0.4211 -2.0444
 3024SOL     OW20533   0.370   3.180  14.897 -0.1595 -0.2877  0.0245
 3024SOL    HW120534   0.349   3.273  14.883 -2.4887 -0.6501  1.2847
 3024SOL    HW220535   0.442   3.163  14.836 -0.9369 -2.5097 -0.2650
 3025SOL     OW20536   1.181   3.998   0.217 -0.5058  0.2326 -0.0326
 3025SOL    HW120537   1.205   4.090   0.227  1.8132 -0.2529 -1.1932
 3025SOL    HW220538   1.168   3.992   0.122  0.6715 -0.6476 -0.1416
 3026SOL     OW20539   3.829   1.584  16.329  0.0360 -0.0791  0.1290
 3026SOL    HW120540   3.754   1.588  16.389 -2.1985  2.0803 -2.8203
 3026SOL    HW220541   3.805   1.646  16.260  1.1712  0.8033  0.5216
 3027SOL     OW20542   2.845   0.215  14.755  0.3630  0.7151  0.0969
 3027SOL    HW120543   2.858   0.237  14.663  0.6984  0.9962  0.2106
 3027SOL    HW220544   2.933   0.215  14.794 -0.4085 -0.9025  1.8605
 3028SOL     OW20545   0.660   1.425  11.233  0.0976 -0.1589 -0.4335
 3028SOL    HW120546   0.672   1.491  11.301 -0.5251 -0.4533 -0.0389
 3028SOL    HW220547   0.701   1.468  11.158 -1.1663  0.7032 -0.6180
 3029SOL     OW20548   3.224   1.202   5.003  0.3006 -0.3434 -0.4646
 3029SOL    HW120549   3.212   1.280   4.950  1.1860 -0.0181 -0.1787
 3029SOL    HW220550   3.176   1.226   5.082  0.0137 -0.0176 -0.7423
 3030SOL     OW20551   0.800   3.636  17.219 -0.8934 -0.3354  0.7164
 3030SOL    HW120552   0.844   3.635  17.304 -0.7049  0.2007  0.6262
 3030SOL    HW220553   0.874   3.624  17.159 -0.9035  1.7801  0.2824
 3031SOL     OW20554   1.479   3.075   5.688  0.1661  0.3957 -0.3692
 3031SOL    HW120555   1.463   3.064   5.782  0.8814  0.8849 -0.1922
 3031SOL    HW220556   1.531   2.995   5.679 -1.1651 -0.1308 -3.1493
 3032SOL     OW20557   1.906   0.813   1.075  0.2819 -0.3291  0.4307
 3032SOL    HW120558   1.837   0.879   1.084  1.0582  0.7487 -1.6595
 3032SOL    HW220559   1.981   0.865   1.045 -1.1904  1.5152 -0.0474
 3033SOL     OW20560   4.610   3.688   3.737 -0.4504 -0.5195  0.7853
 3033SOL    HW120561   4.525   3.726   3.717 -0.5180 -1.4777 -0.7586
 3033SOL    HW220562   4.603   3.702   3.831  0.8276  2.9355  0.3790
 3034SOL     OW20563   2.388   2.739   3.733  0.1154  0.9991  0.1149
 3034SOL    HW120564   2.379   2.769   3.642  1.6545  2.8820  0.5888
 3034SOL    HW220565   2.434   2.812   3.775  1.9581  0.0590 -0.2514
 3035SOL     OW20566   1.668   3.158   8.377 -0.0978  0.3250  0.3259
 3035SOL    HW120567   1.580   3.187   8.399  0.6921  3.8684 -1.1205
 3035SOL    HW220568   1.686   3.112   8.458  0.0422 -0.6586 -0.2633
 3036SOL     OW20569   4.148   1.497  10.253 -0.0505  0.2713  0.3601
 3036SOL    HW120570   4.224   1.504  10.310  0.0510 -1.8092  0.5093
 3036SOL    HW220571   4.103   1.580  10.268  0.5464  0.7471 -0.5280
 3037SOL     OW20572   1.394   4.714   7.280  0.5797 -0.1211  0.4655
 3037SOL    HW120573   1.422   0.081   7.290 -0.4411  0.3373 -0.7086
 3037SOL    HW220574   1.405   4.680   7.368  0.9691  1.4567  1.0171
 3038SOL     OW20575   3.805   4.010   7.567  0.0124  0.0087 -0.5502
 3038SOL    HW120576   3.722   4.006   7.615  0.4720  0.2794  0.2724
 3038SOL    HW220577   3.844   4.090   7.603 -0.4006  0.1393 -0.3871
 3039SOL     OW20578   1.724   1.026   7.360  0.0116 -0.0432  0.5864
 3039SOL    HW120579   1.747   1.119   7.360 -0.3900  0.0657 -2.7563
 3039SOL    HW220580   1.731   1.002   7.452 -1.8175 -1.3553  0.3889
 3040SOL     OW20581   0.848   0.014  11.335 -0.2309  0.0040  0.4544
 3040SOL    HW120582   0.906   0.051  11.402 -0.7271  1.2563  0.1866
 3040SOL    HW220583   0.924   4.691  11.299 -1.5623 -1.8914  0.1360
 3041SOL     OW20584   2.791   0.924   9.111  0.3923 -0.4262 -0.8218
 3041SOL    HW120585   2.713   0.977   9.092 -0.1694 -0.5373  1.1649
 3041SOL    HW220586   2.761   0.835   9.093 -4.6176  1.1773 -0.5269
 3042SOL     OW20587   2.652   3.143   6.974 -0.2806  0.2198 -0.2684
 3042SOL    HW120588   2.594   3.214   7.001 -1.3373 -0.7844  0.0759
 3042SOL    HW220589   2.727   3.148   7.033 -0.4712  0.6516 -0.0621
 3043SOL     OW20590   2.110   0.136   0.040  0.4018  0.3565 -1.1253
 3043SOL    HW120591   2.128   0.229   0.027  0.8745  0.7251  2.2071
 3043SOL    HW220592   2.111   0.104  17.646 -0.0058  0.9460 -1.3354
 3044SOL     OW20593   2.364   4.430   2.129 -0.1929  0.2129 -0.2381
 3044SOL    HW120594   2.381   4.511   2.177 -1.7054  0.3852  0.0144
 3044SOL    HW220595   2.294   4.463   2.073 -0.2442 -1.5093 -1.1795
 3045SOL     OW20596   0.860   3.397   7.162 -0.7697 -0.5306 -0.0045
 3045SOL    HW120597   0.865   3.401   7.257  0.2769 -2.6731  0.0265
 3045SOL    HW220598   0.800   3.471   7.154 -0.2798 -0.0084  1.1033
 3046SOL     OW20599   3.765   2.045  15.041  0.1707 -0.2944 -0.0711
 3046SOL    HW120600   3.833   2.080  15.099 -1.6480 -0.3345  2.0807
 3046SOL    HW220601   3.747   2.115  14.979 -0.3503 -1.3241 -1.0879
 3047SOL     OW20602   2.907   1.020   8.426  0.0682  0.1575 -0.1683
 3047SOL    HW120603   2.819   1.054   8.409  0.6947  0.5745 -2.5533
 3047SOL    HW220604   2.957   1.070   8.362  2.2701 -1.4707  0.3025
 3048SOL     OW20605   4.531   3.560   8.059 -0.3863  0.5820 -0.3124
 3048SOL    HW120606   4.467   3.628   8.080 -1.1601  0.3330 -1.9046
 3048SOL    HW220607   4.472   3.490   8.031  1.5902 -1.2842  0.2076
 3049SOL     OW20608   1.742   3.756   5.041  0.6638 -0.3265  0.5227
 3049SOL    HW120609   1.806   3.750   5.113  2.6671  1.4890 -1.1147
 3049SOL    HW220610   1.736   3.665   5.012 -0.3269 -0.0088 -0.2373
 3050SOL     OW20611   0.161   0.160   4.053  0.3546 -0.1942 -0.5721
 3050SOL    HW120612   0.100   0.211   3.999 -1.7513  0.2884  2.2503
 3050SOL    HW220613   0.174   0.088   3.991 -0.5922 -1.8826  1.1886
 3051SOL     OW20614   2.660   3.671   5.674 -0.0061 -0.2249  0.1616
 3051SOL    HW120615   2.722   3.598   5.668  0.8057  0.4122  0.6827
 3051SOL    HW220616   2.587   3.634   5.625  0.3172 -1.6424  0.7518
 3052SOL     OW20617   3.333   2.473   5.801 -0.4610 -0.0592  0.0057
 3052SOL    HW120618   3.341   2.533   5.876 -1.3941 -0.9088  0.7890
 3052SOL    HW220619   3.242   2.444   5.807  1.0555 -4.7715 -0.3673
 3053SOL     OW20620   3.252   0.314   7.616 -0.2434 -0.1978 -0.1207
 3053SOL    HW120621   3.246   0.274   7.529  2.0340  0.4900 -0.5811
 3053SOL    HW220622   3.240   0.405   7.589  1.6330 -0.1632 -0.7599
 3054SOL     OW20623   1.765   3.190   3.385 -0.2189  0.5715 -0.3441
 3054SOL    HW120624   1.779   3.209   3.292 -0.1785 -0.8476 -0.6171
 3054SOL    HW220625   1.741   3.098   3.392 -0.0100  0.3065 -2.9780
 3055SOL     OW20626   3.915   3.943   2.131  0.0108 -0.0924  0.3867
 3055SOL    HW120627   4.006   3.968   2.145  0.0383  0.8333 -1.4198
 3055SOL    HW220628   3.921   3.848   2.123 -1.1616 -0.1932  0.6571
 3056SOL     OW20629   3.406   3.583   1.502 -0.3943  0.0908 -0.1875
 3056SOL    HW120630   3.317   3.602   1.473  0.1188  1.4811 -0.8610
 3056SOL    HW220631   3.406   3.642   1.578 -0.3016  1.1257 -0.9867
 3057SOL     OW20632   2.294   4.442   9.069  0.0598  0.2141 -0.1933
 3057SOL    HW120633   2.218   4.404   9.024 -0.4073  0.1545  0.6422
 3057SOL    HW220634   2.313   4.365   9.122 -1.2597 -1.3444 -1.9732
 3058SOL     OW20635   3.217   1.843  14.391  0.2754 -0.1743 -0.3571
 3058SOL    HW120636   3.275   1.770  14.412 -0.9649 -0.4877  1.9463
 3058SOL    HW220637   3.143   1.815  14.445  1.6041 -1.4799  0.8134
 3059SOL     OW20638   3.170   2.427   4.605 -0.2237  0.3490  0.1819
 3059SOL    HW120639   3.260   2.442   4.634 -0.5572  0.5837  1.0941
 3059SOL    HW220640   3.130   2.514   4.600 -1.0779 -0.0236  0.5456
 3060SOL     OW20641   0.817   2.978   5.707  0.0662  0.1930  0.3199
 3060SOL    HW120642   0.837   2.982   5.801  1.5420 -0.0715  0.0193
 3060SOL    HW220643   0.900   2.940   5.678 -0.0532 -0.7502  1.1944
 3061SOL     OW20644   2.824   4.342   6.025 -0.6739 -0.0457  0.6935
 3061SOL    HW120645   2.781   4.258   6.044  0.2386  0.0394  3.1126
 3061SOL    HW220646   2.863   4.329   5.938 -1.4134  0.0002  0.3593
 3062SOL     OW20647   1.191   4.231   2.895 -0.0421 -0.6725 -0.3523
 3062SOL    HW120648   1.171   4.236   2.989 -0.1963 -0.9044 -0.3735
 3062SOL    HW220649   1.132   4.159   2.875 -0.8959  0.3759 -1.5458
 3063SOL     OW20650   3.646   0.336  15.672  0.0953 -0.2674 -0.3845
 3063SOL    HW120651   3.616   0.375  15.754  0.6014  1.2646 -0.9177
 3063SOL    HW220652   3.657   0.247  15.704 -0.2714  0.7343  2.5062
 3064SOL     OW20653   1.781   3.301   3.864 -0.3086  0.6189 -0.2742
 3064SOL    HW120654   1.868   3.318   3.900 -0.3049  0.8743 -0.4008
 3064SOL    HW220655   1.791   3.237   3.793  1.8100  0.9602 -0.2876
 3065SOL     OW20656   2.029   1.046   0.924  0.1110  0.0126  0.0723
 3065SOL    HW120657   1.996   1.095   0.999 -0.3954  0.0560 -0.1723
 3065SOL    HW220658   2.075   1.122   0.889 -1.2351 -0.0368 -1.8283
 3066SOL     OW20659   4.363   3.186  17.554  0.0399 -0.1561  0.1330
 3066SOL    HW120660   4.354   3.227  17.640 -0.3134 -1.4673  0.7134
 3066SOL    HW220661   4.458   3.184  17.554  0.0737  1.3892 -1.7304
 3067SOL     OW20662   2.450   1.523   7.169 -0.2666  0.1853 -0.0542
 3067SOL    HW120663   2.410   1.505   7.254  0.7122 -0.4965  0.2647
 3067SOL    HW220664   2.430   1.440   7.125 -1.0751 -0.1492  0.9344
 3068SOL     OW20665   3.817   1.490  13.459  0.1363 -0.0235 -0.1641
 3068SOL    HW120666   3.851   1.556  13.400 -2.0428 -0.1649 -1.5727
 3068SOL    HW220667   3.880   1.507  13.530  0.1094 -0.0216 -0.1406
 3069SOL     OW20668   3.648   1.461  17.645  0.1093  0.1370  0.1663
 3069SOL    HW120669   3.569   1.447   0.000  0.5856 -0.8642  0.6369
 3069SOL    HW220670   3.674   1.551  17.661  2.0173 -0.2204 -0.9037
 3070SOL     OW20671   4.104   4.283   3.400 -0.2402 -0.0915 -0.2891
 3070SOL    HW120672   4.014   4.307   3.422  0.3534  1.2050  0.6811
 3070SOL    HW220673   4.086   4.197   3.362  0.7161 -1.0501  1.3941
 3071SOL     OW20674   1.811   1.163   8.528 -0.4646 -0.3644  0.1938
 3071SOL    HW120675   1.794   1.213   8.448 -1.3192 -2.1390 -0.7422
 3071SOL    HW220676   1.801   1.073   8.495  2.0463 -0.3636 -0.5406
 3072SOL     OW20677   0.240   2.499   3.007 -0.1535  0.1284  0.0239
 3072SOL    HW120678   0.335   2.503   3.002 -0.0929 -0.2783  0.8923
 3072SOL    HW220679   0.212   2.570   2.949  1.3133 -0.2364 -1.1148
 3073SOL     OW20680   2.316   1.218  11.391 -0.2474 -0.0995 -0.6041
 3073SOL    HW120681   2.294   1.153  11.458 -0.1049 -0.9997 -1.4323
 3073SOL    HW220682   2.249   1.212  11.323  1.0561  0.8402 -1.9679
 3074SOL     OW20683   4.524   1.496  16.382 -0.1142  1.1184  0.1619
 3074SOL    HW120684   4.562   1.561  16.323 -1.4040  1.2075 -0.5750
 3074SOL    HW220685   4.565   1.416  16.349 -0.3653  1.2035 -0.3472
 3075SOL     OW20686   0.806   4.257   6.142 -0.2480 -0.1128 -0.0980
 3075SOL    HW120687   0.825   4.343   6.181  2.8145 -0.9487  0.2460
 3075SOL    HW220688   0.730   4.235   6.195 -0.5828 -0.5175 -0.7514
 3076SOL     OW20689   3.148   4.683   3.980 -0.3650  0.0852 -0.8452
 3076SOL    HW120690   3.132   4.682   4.074 -1.9349 -2.4572 -1.1231
 3076SOL    HW220691   3.058   4.688   3.946  0.1626  2.8580 -1.7858
 3077SOL     OW20692   4.722   2.608  16.680  0.5393  0.4244  0.5379
 3077SOL    HW120693   4.723   2.698  16.648 -1.3738  0.1976 -0.1555
 3077SOL    HW220694   4.649   2.609  16.742  0.4110  0.2948  0.3912
 3078SOL     OW20695   0.202   1.385   5.247 -0.1589  0.4084 -0.6302
 3078SOL    HW120696   0.287   1.420   5.275  0.1323 -0.5132 -0.3392
 3078SOL    HW220697   0.222   1.361   5.157 -0.5978 -1.6823 -0.1834
 3079SOL     OW20698   0.934   2.727  16.994  0.2515 -0.2250 -0.3390
 3079SOL    HW120699   0.938   2.746  17.088 -2.7841  0.4568 -0.3604
 3079SOL    HW220700   0.915   2.814  16.959  0.2808 -0.3025 -0.5502
 3080SOL     OW20701   1.783   0.068  17.523 -0.4126  0.1733 -0.0755
 3080SOL    HW120702   1.877   0.079  17.507 -0.2655  1.0112  1.3793
 3080SOL    HW220703   1.772   0.124  17.600  0.2034  1.0568 -0.6309
 3081SOL     OW20704   2.762   3.561   8.886  0.0137 -0.7744  0.0444
 3081SOL    HW120705   2.776   3.469   8.862  2.1286 -0.7487  1.1285
 3081SOL    HW220706   2.808   3.567   8.970  0.9288 -1.1221 -0.4241
 3082SOL     OW20707   3.467   1.564   2.273 -0.5408 -0.1857 -0.3270
 3082SOL    HW120708   3.461   1.532   2.364 -0.1020 -1.8693 -0.8814
 3082SOL    HW220709   3.473   1.479   2.230 -1.1274 -0.2447 -0.2960
 3083SOL     OW20710   0.541   0.280   4.849  0.1348 -0.2136  0.5395
 3083SOL    HW120711   0.530   0.265   4.755 -1.6866 -1.9221  1.0103
 3083SOL    HW220712   0.515   0.200   4.895  0.2224 -1.3089 -1.3046
 3084SOL     OW20713   3.632   3.258   8.641  0.1662  0.4960 -0.1743
 3084SOL    HW120714   3.670   3.312   8.710  1.8076  0.6251 -1.1730
 3084SOL    HW220715   3.564   3.324   8.625  0.5631  1.4227  1.9965
 3085SOL     OW20716   0.343   3.187   4.911 -0.1413  0.0114 -0.2151
 3085SOL    HW120717   0.358   3.263   4.968  0.8447  0.0705 -0.5654
 3085SOL    HW220718   0.317   3.127   4.981 -3.4824  3.1253  1.2867
 3086SOL     OW20719   2.264   2.953   4.136  0.0425  0.0637 -0.6498
 3086SOL    HW120720   2.313   3.020   4.089 -0.8210  1.1051 -0.0599
 3086SOL    HW220721   2.326   2.880   4.135 -0.9902 -0.8104 -0.9605
 3087SOL     OW20722   1.200   1.272  17.524 -0.3449 -0.3697 -0.1186
 3087SOL    HW120723   1.253   1.334  17.573 -0.1277  0.2952 -1.2079
 3087SOL    HW220724   1.177   1.319  17.444 -0.2108  0.5928  0.4129
 3088SOL     OW20725   1.773   0.531   8.501 -0.0622 -0.3652 -0.1783
 3088SOL    HW120726   1.721   0.609   8.522 -0.0099  0.0987 -1.7688
 3088SOL    HW220727   1.712   0.458   8.510 -0.3138  0.0673  1.5651
 3089SOL     OW20728   0.122   3.870   6.137  0.1704 -0.6223  0.3441
 3089SOL    HW120729   0.168   3.855   6.219  3.0256  1.1282 -0.9268
 3089SOL    HW220730   0.041   3.907   6.171 -1.1568 -4.8829  1.7834
 3090SOL     OW20731   3.685   4.117   9.410 -0.0747  0.3414  0.0057
 3090SOL    HW120732   3.763   4.069   9.441 -0.6920 -1.1909 -0.8105
 3090SOL    HW220733   3.706   4.117   9.317  1.7787 -0.9820  0.4215
 3091SOL     OW20734   0.093   3.319   5.152  0.6192 -0.4852  0.7424
 3091SOL    HW120735   0.145   3.241   5.129  1.2493  0.7865 -2.0988
 3091SOL    HW220736   0.101   3.377   5.077  0.7247 -0.0861  1.0651
 3092SOL     OW20737   0.843   4.453   6.350 -0.2747 -1.2868 -0.4873
 3092SOL    HW120738   0.887   4.503   6.419  2.5425 -0.2699 -2.9814
 3092SOL    HW220739   0.894   4.375   6.372  1.7563  0.6555  1.7410
 3093SOL     OW20740   0.628   4.064   5.594 -0.2051 -0.0676 -0.0555
 3093SOL    HW120741   0.687   4.048   5.668 -0.3559 -2.2229 -0.4038
 3093SOL    HW220742   0.554   4.095   5.647  1.3759  2.8478  0.4961
 3094SOL     OW20743   0.272   2.662   6.035 -0.1241 -0.1348 -0.2537
 3094SOL    HW120744   0.300   2.749   6.065  0.6002 -0.1059 -1.0300
 3094SOL    HW220745   0.216   2.617   6.098 -0.9721 -0.3363 -1.1546
 3095SOL     OW20746   3.581   1.288  11.461  0.1881  0.4655 -0.1688
 3095SOL    HW120747   3.486   1.280  11.461  0.3615 -1.6421 -0.9945
 3095SOL    HW220748   3.604   1.305  11.552  3.3960 -2.4689 -0.4117
 3096SOL     OW20749   4.604   3.363  16.524 -0.1950 -0.3177  0.2090
 3096SOL    HW120750   4.585   3.454  16.548  0.1216 -0.1421 -0.1957
 3096SOL    HW220751   4.673   3.373  16.458 -1.5396 -1.1109 -1.3045
 3097SOL     OW20752   0.724   0.718   3.130 -0.5673  0.4084 -0.5128
 3097SOL    HW120753   0.758   0.646   3.076  0.9829  2.1982 -1.9063
 3097SOL    HW220754   0.804   0.738   3.178 -0.1705  1.8549 -1.7805
 3098SOL     OW20755   4.267   2.099  13.331  0.0711  0.4939 -0.0545
 3098SOL    HW120756   4.175   2.074  13.322  0.0355  0.5837  0.0555
 3098SOL    HW220757   4.264   2.164  13.261 -0.8291 -1.5963 -1.9627
 3099SOL     OW20758   3.448   2.788   3.618 -0.7210  0.3973  0.2586
 3099SOL    HW120759   3.456   2.816   3.710 -1.7431  0.3353  0.3640
 3099SOL    HW220760   3.466   2.696   3.637  0.1931  0.1752 -1.7452
 3100SOL     OW20761   2.828   2.640   8.825  0.2908  0.5046 -0.5141
 3100SOL    HW120762   2.901   2.628   8.886  0.1360 -1.2381 -0.6724
 3100SOL    HW220763   2.794   2.725   8.854 -1.3045 -0.3976  0.3156
 3101SOL     OW20764   2.666   3.190  17.280 -0.1627  0.5417  0.5333
 3101SOL    HW120765   2.584   3.183  17.231 -0.1586 -2.6519  0.9961
 3101SOL    HW220766   2.652   3.270  17.331 -0.9007  1.9500 -1.8550
 3102SOL     OW20767   2.985   1.580  17.381 -0.1246 -0.0589 -0.5895
 3102SOL    HW120768   2.914   1.531  17.340 -1.2156 -0.2559  1.5581
 3102SOL    HW220769   2.973   1.663  17.335 -0.3884  1.2427  1.8899
 3103SOL     OW20770   3.533   2.515   7.305  0.3973  0.2327 -0.1048
 3103SOL    HW120771   3.492   2.497   7.220  1.7815 -3.3709 -0.0312
 3103SOL    HW220772   3.456   2.522   7.360  0.2003 -0.8410 -0.2418
 3104SOL     OW20773   0.482   3.416  13.401  0.4660  0.0028  0.0259
 3104SOL    HW120774   0.417   3.485  13.412  0.8636  0.1436  1.4782
 3104SOL    HW220775   0.495   3.407  13.306  0.7711 -0.3146  0.0973
 3105SOL     OW20776   0.970   2.093   7.856 -0.0952 -0.1595  0.3405
 3105SOL    HW120777   0.889   2.115   7.901 -1.4000 -4.1964 -0.0303
 3105SOL    HW220778   0.975   1.998   7.842 -0.1106  0.0673 -1.1848
 3106SOL     OW20779   1.275   0.308   1.043 -0.3435  0.1952 -0.3818
 3106SOL    HW120780   1.230   0.391   1.061  1.6738  1.0951  0.4627
 3106SOL    HW220781   1.244   0.248   1.111 -0.7666 -1.7262 -2.2673
 3107SOL     OW20782   4.282   3.689  16.621 -0.2720 -0.3037 -0.1423
 3107SOL    HW120783   4.268   3.595  16.637 -1.0447 -0.3077 -0.8254
 3107SOL    HW220784   4.335   3.708  16.698 -0.0752  0.0143 -0.3578
 3108SOL     OW20785   4.011   3.745   9.495 -0.4528 -0.0380 -0.0504
 3108SOL    HW120786   3.963   3.745   9.578  1.9238  0.8432  1.3330
 3108SOL    HW220787   4.046   3.656   9.496  1.3411  0.6746  0.7739
 3109SOL     OW20788   1.023   2.917   7.691  0.2860  0.1227  0.3033
 3109SOL    HW120789   1.092   2.887   7.633 -1.3739 -2.5717 -0.2994
 3109SOL    HW220790   0.968   2.839   7.686 -1.4235  1.2471  1.3212
 3110SOL     OW20791   0.737   3.689   6.179  0.5336 -0.5698  0.4294
 3110SOL    HW120792   0.656   3.649   6.145  1.6440 -2.4816  0.0050
 3110SOL    HW220793   0.693   3.730   6.254 -1.5440  2.2895 -2.3433
 3111SOL     OW20794   0.974   1.614  14.611  0.3459 -0.1953 -0.9440
 3111SOL    HW120795   0.976   1.609  14.516  1.0491 -0.8416 -0.8921
 3111SOL    HW220796   1.016   1.700  14.624 -1.6019  0.7443 -0.8501
 3112SOL     OW20797   0.071   2.616   7.437  0.1458  0.5953 -0.0826
 3112SOL    HW120798   0.075   2.633   7.531 -3.5593  0.9510 -0.0146
 3112SOL    HW220799   0.004   2.676   7.405  1.5369  1.6414 -0.9991
 3113SOL     OW20800   1.825   1.786   0.610 -0.3112 -0.1013 -0.0954
 3113SOL    HW120801   1.883   1.854   0.577 -0.1754  0.6506  1.6966
 3113SOL    HW220802   1.793   1.742   0.532 -1.8247 -1.2279  1.1503
 3114SOL     OW20803   1.350   3.705   7.667  0.4714  0.5064  0.4248
 3114SOL    HW120804   1.354   3.772   7.735  1.9068 -1.2992  2.1296
 3114SOL    HW220805   1.256   3.690   7.656  0.6776 -1.2303  1.0668
 3115SOL     OW20806   2.465   0.908   0.683 -0.1758  0.4123 -0.2728
 3115SOL    HW120807   2.439   0.889   0.593  0.1136  0.1066 -0.2895
 3115SOL    HW220808   2.385   0.957   0.706  0.2847 -0.3178  2.8867
 3116SOL     OW20809   1.933   4.429   1.931 -0.8667 -0.1463  0.0917
 3116SOL    HW120810   1.897   4.341   1.931 -2.4405  0.4911 -0.1998
 3116SOL    HW220811   1.891   4.469   1.855  3.0837  3.3683 -0.2142
 3117SOL     OW20812   3.228   0.248   7.353  0.1742  0.2771 -0.0503
 3117SOL    HW120813   3.137   0.248   7.324  0.8818  1.4504 -2.3278
 3117SOL    HW220814   3.248   0.155   7.363  1.1084  0.4012 -0.7133
 3118SOL     OW20815   2.203   2.914  12.943  0.0963 -0.7196 -0.0827
 3118SOL    HW120816   2.293   2.929  12.971  0.5199 -0.6474 -1.4828
 3118SOL    HW220817   2.218   2.892  12.851 -1.3795 -1.2572 -0.1970
 3119SOL     OW20818   1.229   2.057   5.703  0.2269  0.3286 -0.6599
 3119SOL    HW120819   1.202   2.128   5.645  0.8946 -0.7108 -2.2451
 3119SOL    HW220820   1.324   2.065   5.700  0.3748 -1.6044 -0.8063
 3120SOL     OW20821   1.618   2.774   3.959 -0.0077 -0.3254  0.4842
 3120SOL    HW120822   1.589   2.743   4.044  0.9515 -0.2248  0.8470
 3120SOL    HW220823   1.551   2.841   3.943 -0.1428 -0.9788 -1.6756
 3121SOL     OW20824   1.833   1.293   7.254 -0.0235  0.4485 -0.0272
 3121SOL    HW120825   1.928   1.299   7.245 -0.2971  1.6269 -2.3030
 3121SOL    HW220826   1.824   1.245   7.171  0.7762  1.5510 -0.7572
 3122SOL     OW20827   3.231   0.559   6.941 -0.2628 -0.4592 -0.1840
 3122SOL    HW120828   3.313   0.559   6.990  0.8830 -0.8234 -2.1160
 3122SOL    HW220829   3.177   0.580   7.017  0.4282 -0.8137  0.4008
 3123SOL     OW20830   1.975   2.078   4.909  0.2744  0.0122 -0.1799
 3123SOL    HW120831   2.067   2.067   4.931 -0.1329 -1.8114  0.5419
 3123SOL    HW220832   1.985   2.058   4.816  0.1631 -2.1029  0.2685
 3124SOL     OW20833   1.102   1.379   0.856  0.3954  0.1887  0.1170
 3124SOL    HW120834   1.075   1.448   0.796  1.1415  0.1478 -0.2623
 3124SOL    HW220835   1.051   1.392   0.936  3.8240 -0.9389  2.4930
 3125SOL     OW20836   0.230   4.634   2.252 -0.1332 -0.7751 -0.5771
 3125SOL    HW120837   0.143   4.662   2.224 -0.1528  0.7822  1.0298
 3125SOL    HW220838   0.295   4.671   2.192 -0.9468 -0.4497 -1.2621
 3126SOL     OW20839   0.070   4.051   7.838 -0.1730 -0.3080 -0.0017
 3126SOL    HW120840   4.721   3.989   7.825  0.8810 -0.7502 -3.7497
 3126SOL    HW220841   0.132   3.983   7.867  0.9183  1.8879  2.7393
 3127SOL     OW20842   1.079   0.123   4.025  0.3593  0.0450 -0.2840
 3127SOL    HW120843   1.144   0.055   4.011  0.0516 -0.7522  2.3077
 3127SOL    HW220844   1.125   0.198   4.063 -2.4215  0.9230  1.3713
 3128SOL     OW20845   3.918   3.919   4.213 -0.2868 -0.0469 -0.4461
 3128SOL    HW120846   3.999   3.939   4.259  0.4280 -0.5302 -1.4959
 3128SOL    HW220847   3.865   3.996   4.235  2.7862  1.5578  1.2528
 3129SOL     OW20848   3.934   2.731   6.042  0.4280  0.2632  0.2056
 3129SOL    HW120849   3.901   2.791   6.109  3.0081  0.5882  1.1964
 3129SOL    HW220850   3.982   2.665   6.092  0.4395  1.1803  1.4271
 3130SOL     OW20851   2.016   2.362  16.675  0.0880 -0.2103 -0.3509
 3130SOL    HW120852   1.986   2.448  16.647  0.6244 -0.3136 -1.2587
 3130SOL    HW220853   1.995   2.297  16.608  1.7947 -1.6173  0.4792
 3131SOL     OW20854   3.249   2.965   1.005  0.3469 -0.1684  0.6074
 3131SOL    HW120855   3.317   2.964   0.938 -1.5628 -1.5117 -1.3208
 3131SOL    HW220856   3.228   2.872   1.008  0.7692 -0.2497  1.0418
 3132SOL     OW20857   3.862   3.162   4.888  0.1942  0.4815 -0.1387
 3132SOL    HW120858   3.790   3.222   4.907 -0.1453  1.0544 -3.1391
 3132SOL    HW220859   3.837   3.126   4.802  0.6739  0.0337 -0.0911
 3133SOL     OW20860   3.621   2.960   8.861  0.0037 -0.4570  0.5615
 3133SOL    HW120861   3.631   3.055   8.864  1.9272 -0.6161 -1.3739
 3133SOL    HW220862   3.665   2.937   8.943  0.2110  0.4282  0.6960
 3134SOL     OW20863   0.900   1.973   5.040  0.1043 -0.1795 -0.1870
 3134SOL    HW120864   0.807   1.988   5.021 -0.8776 -1.5614  3.4264
 3134SOL    HW220865   0.929   2.031   4.970 -3.0772  0.9157 -0.6184
 3135SOL     OW20866   1.682   3.105  13.723  0.4283 -0.1727 -0.9607
 3135SOL    HW120867   1.612   3.040  13.716  0.3310 -0.4079  1.9364
 3135SOL    HW220868   1.701   3.114  13.630 -3.0201 -1.6061 -1.8056
 3136SOL     OW20869   3.155   2.307   7.614 -0.5723  0.4452  0.1323
 3136SOL    HW120870   3.069   2.349   7.618  0.4549  2.6888 -0.9439
 3136SOL    HW220871   3.135   2.230   7.561  0.2921 -1.1588  2.1614
 3137SOL     OW20872   4.156   4.075   5.079  0.2259  0.2969 -0.4263
 3137SOL    HW120873   4.180   3.983   5.070 -2.8732 -0.5232 -0.5550
 3137SOL    HW220874   4.166   4.097   5.172  0.9863 -0.4591 -0.3316
 3138SOL     OW20875   2.578   3.207   1.979  0.4571 -0.1059  0.0471
 3138SOL    HW120876   2.544   3.241   1.896 -2.2179 -0.5057  0.9871
 3138SOL    HW220877   2.504   3.235   2.033  1.7795 -1.1200  2.3734
 3139SOL     OW20878   4.435   0.214   4.931 -0.3335  0.0538 -0.0401
 3139SOL    HW120879   4.390   0.298   4.945  1.1501  1.1384 -1.8160
 3139SOL    HW220880   4.523   0.239   4.956 -0.2676  1.0019 -1.2365
 3140SOL     OW20881   2.849   2.811   2.092 -0.1184  0.6515  0.0941
 3140SOL    HW120882   2.791   2.854   2.030 -2.6396 -2.3881  0.3552
 3140SOL    HW220883   2.831   2.859   2.172 -2.1210 -0.2019  0.1425
 3141SOL     OW20884   4.100   0.081   2.135  0.0161  0.0607  0.1274
 3141SOL    HW120885   4.080   4.719   2.097 -0.6833  0.0770  0.4590
 3141SOL    HW220886   4.084   0.146   2.067  1.8103 -1.5714 -1.8816
 3142SOL     OW20887   0.466   0.110   0.884 -0.2410 -0.0284  0.1998
 3142SOL    HW120888   0.384   0.154   0.861  0.2471 -0.2201 -1.9269
 3142SOL    HW220889   0.449   0.018   0.861 -1.3008  0.7595 -2.2034
 3143SOL     OW20890   1.323   4.167   2.636 -0.0872  0.1709 -0.3801
 3143SOL    HW120891   1.387   4.237   2.629 -0.1633  0.3564  0.7121
 3143SOL    HW220892   1.288   4.195   2.721  0.7375  0.1318 -0.0230
 3144SOL     OW20893   2.501   1.965   5.023 -0.5182  0.0948 -0.1909
 3144SOL    HW120894   2.588   2.001   5.010  0.4540 -1.4920  1.7337
 3144SOL    HW220895   2.484   1.999   5.111 -1.7312 -0.7922 -0.0614
 3145SOL     OW20896   2.231   1.735  15.709  0.0112  0.1685 -0.3161
 3145SOL    HW120897   2.310   1.693  15.676  1.4531  3.2288 -0.7894
 3145SOL    HW220898   2.264   1.771  15.792 -2.4070 -0.5093  0.9275
 3146SOL     OW20899   3.906   0.314   2.135 -0.8966 -0.5767  0.0462
 3146SOL    HW120900   3.930   0.289   2.224 -0.5625  0.5072  0.2556
 3146SOL    HW220901   3.947   0.395   2.106 -0.6048 -0.3381  1.1185
 3147SOL     OW20902   3.974   3.381   5.217 -0.0094  0.0437  0.0782
 3147SOL    HW120903   3.954   3.412   5.305 -1.4494 -0.7019  0.0230
 3147SOL    HW220904   4.041   3.317   5.240 -0.9176 -1.0327 -0.2513
 3148SOL     OW20905   0.780   4.156   5.154 -0.5925  0.0673 -0.4607
 3148SOL    HW120906   0.696   4.146   5.198  0.0563  0.1526  0.7891
 3148SOL    HW220907   0.751   4.187   5.068  1.7557 -0.7063 -1.5298
 3149SOL     OW20908   3.868   2.001   8.490 -0.1652  0.1513 -0.2639
 3149SOL    HW120909   3.890   2.094   8.494 -2.9245  0.7575  0.6723
 3149SOL    HW220910   3.773   2.007   8.488 -0.2748 -0.8213  1.5187
 3150SOL     OW20911   0.709   3.506   0.333  0.3085  0.0374  0.0221
 3150SOL    HW120912   0.795   3.511   0.375  0.0522  0.7418  0.4601
 3150SOL    HW220913   0.704   3.416   0.301 -1.8609  0.5446 -1.0539
 3151SOL     OW20914   0.730   2.993   3.703  0.3644  0.0742 -0.4161
 3151SOL    HW120915   0.651   2.960   3.659 -0.3692  1.0057  0.2253
 3151SOL    HW220916   0.687   3.064   3.750 -0.1979  1.1203 -2.5190
 3152SOL     OW20917   1.702   3.202   6.802  0.0268 -0.1051 -0.0867
 3152SOL    HW120918   1.675   3.279   6.852  0.4906  0.4488 -0.6999
 3152SOL    HW220919   1.771   3.230   6.742  0.3557  0.4026  0.5254
 3153SOL     OW20920   3.786   0.663   4.816  0.4490  0.2903  0.2619
 3153SOL    HW120921   3.697   0.629   4.801  0.5403 -0.3330  1.1271
 3153SOL    HW220922   3.778   0.737   4.757  1.0287  0.2919  0.1908
 3154SOL     OW20923   0.090   3.639  10.709  0.0606 -0.2733  0.5988
 3154SOL    HW120924   0.090   3.552  10.668  2.7653  0.2392 -0.4562
 3154SOL    HW220925   0.172   3.639  10.758 -0.2742 -0.9372  1.1721
 3155SOL     OW20926   3.348   2.009  16.190  0.3562  0.4553 -0.0391
 3155SOL    HW120927   3.329   2.098  16.221 -2.5952 -0.2339  0.1442
 3155SOL    HW220928   3.430   2.032  16.146  1.3730 -2.9196  0.1011
 3156SOL     OW20929   1.296   1.939   6.376 -0.4032 -0.1778 -0.4522
 3156SOL    HW120930   1.301   1.986   6.459  1.2000 -0.6362 -0.3024
 3156SOL    HW220931   1.283   1.848   6.401  1.3159 -0.3441 -0.1845
 3157SOL     OW20932   4.513   0.025  12.546  0.2258  0.0494  0.2612
 3157SOL    HW120933   4.464   0.065  12.617 -0.8599 -0.9805  0.1078
 3157SOL    HW220934   4.510   0.099  12.486 -1.8295  2.0910  2.9406
 3158SOL     OW20935   1.331   1.639   5.752  0.0859 -0.1554 -0.3578
 3158SOL    HW120936   1.345   1.653   5.846  1.0774  0.4564 -0.5966
 3158SOL    HW220937   1.420   1.646   5.717  0.1195  0.0487 -0.2327
 3159SOL     OW20938   3.436   4.425   8.101  0.3926 -0.2325  0.0906
 3159SOL    HW120939   3.456   4.476   8.179  0.2606 -0.0666  0.0152
 3159SOL    HW220940   3.402   4.346   8.143  1.8582  0.2956  2.2943
 3160SOL     OW20941   4.448   2.404   6.216  0.3310  0.7664  0.4357
 3160SOL    HW120942   4.384   2.370   6.279  0.3021 -1.1311 -0.6240
 3160SOL    HW220943   4.494   2.466   6.273  0.1678  1.0176  0.2933
 3161SOL     OW20944   0.702   3.096  13.036  0.7819 -0.0208 -0.4302
 3161SOL    HW120945   0.714   3.024  13.097  2.4759  0.9746  0.4324
 3161SOL    HW220946   0.614   3.124  13.060  0.9902 -0.9468  1.4157
 3162SOL     OW20947   0.954   3.682   3.964 -0.5141  0.1451  0.4328
 3162SOL    HW120948   1.022   3.677   4.031 -0.1327  0.5602  0.0716
 3162SOL    HW220949   0.895   3.611   3.992  0.6785 -1.0165  0.0247
 3163SOL     OW20950   4.033   1.130   1.868  0.1648  0.4372  0.3098
 3163SOL    HW120951   4.068   1.185   1.938 -1.9272  0.0567  1.6385
 3163SOL    HW220952   4.106   1.136   1.806 -0.5349 -0.0012 -0.5469
 3164SOL     OW20953   2.934   1.595   8.938 -0.3265  0.0952  0.0388
 3164SOL    HW120954   2.899   1.668   8.989  2.4215  0.4353  1.4555
 3164SOL    HW220955   2.899   1.610   8.850  0.6431  1.2506 -0.1536
 3165SOL     OW20956   4.109   0.739  10.555 -0.3087 -0.0764  0.5829
 3165SOL    HW120957   4.026   0.732  10.507 -0.4391  1.9815  0.5101
 3165SOL    HW220958   4.154   0.667  10.511  3.4086  1.0694  2.5580
 3166SOL     OW20959   3.502   3.587   4.672 -0.4895  0.1055 -0.4734
 3166SOL    HW120960   3.533   3.497   4.660 -0.7748 -0.2829  1.7488
 3166SOL    HW220961   3.557   3.614   4.746 -0.4129  0.3848 -0.6300
 3167SOL     OW20962   0.871   1.115  13.419 -0.5427  0.6361 -0.0018
 3167SOL    HW120963   0.960   1.088  13.441 -2.0951 -2.0373  2.8018
 3167SOL    HW220964   0.867   1.211  13.420 -3.4814  0.5066  0.3350
 3168SOL     OW20965   3.091   1.360   8.006  0.2487  0.3693  0.4451
 3168SOL    HW120966   3.055   1.426   7.947  1.3075  0.9665  0.4557
 3168SOL    HW220967   3.102   1.281   7.953  0.9471  0.4539  0.4588
 3169SOL     OW20968   1.108   3.030   6.877 -0.6360  0.4206 -0.2523
 3169SOL    HW120969   1.093   3.017   6.970  1.2680  0.1738  0.0299
 3169SOL    HW220970   1.085   3.123   6.881  1.6086  1.0428 -1.6310
 3170SOL     OW20971   2.601   3.398   3.420 -0.0509 -0.2463 -0.4415
 3170SOL    HW120972   2.652   3.478   3.437 -0.7271 -0.1031  0.9253
 3170SOL    HW220973   2.638   3.385   3.333 -0.0282  2.7987 -0.9014
 3171SOL     OW20974   2.884   2.078  10.220 -0.2219 -0.1194 -0.4315
 3171SOL    HW120975   2.930   2.031  10.290 -0.8273 -0.7029 -0.4260
 3171SOL    HW220976   2.794   2.080  10.254  0.0145  1.0758  0.1236
 3172SOL     OW20977   1.453   3.692  11.833 -0.9008  0.3713 -0.0239
 3172SOL    HW120978   1.408   3.740  11.903 -1.1542 -1.5479  1.1060
 3172SOL    HW220979   1.414   3.605  11.843 -0.9835  0.1662 -2.1993
 3173SOL     OW20980   2.758   3.884   7.486 -0.6196  0.4505 -0.1839
 3173SOL    HW120981   2.794   3.820   7.425 -3.4140 -0.3712 -0.9549
 3173SOL    HW220982   2.677   3.901   7.438 -0.5288 -0.0459 -0.5152
 3174SOL     OW20983   2.448   2.004   2.512 -0.1790 -0.3869  0.1110
 3174SOL    HW120984   2.380   2.046   2.460  0.6973  0.9256  0.0299
 3174SOL    HW220985   2.531   2.016   2.466  0.5910  0.2239  1.6541
 3175SOL     OW20986   3.739   0.035   5.022  0.0155  0.0553 -0.1022
 3175SOL    HW120987   3.674   0.028   5.092  1.1551  1.3322  1.0816
 3175SOL    HW220988   3.818   0.061   5.069  0.4670 -1.8944  0.2166
 3176SOL     OW20989   3.847   4.702   4.157 -0.1254 -0.4246 -0.1907
 3176SOL    HW120990   3.798   4.625   4.128  1.1829 -0.4970 -2.2370
 3176SOL    HW220991   3.823   4.704   4.249 -1.3925 -0.8456 -0.5148
 3177SOL     OW20992   2.255   1.625   6.420 -0.6862 -0.5254 -0.6316
 3177SOL    HW120993   2.242   1.632   6.325 -0.5123 -0.8033 -0.6746
 3177SOL    HW220994   2.315   1.699   6.432 -0.5342 -0.5872 -1.0179
 3178SOL     OW20995   1.708   0.823  13.336  0.0425 -0.2162  0.1520
 3178SOL    HW120996   1.787   0.783  13.299 -1.0436 -0.8213 -1.4714
 3178SOL    HW220997   1.694   0.760  13.406 -0.3844  0.7466  0.9403
 3179SOL     OW20998   3.195   3.424   6.055 -0.1982 -0.0909  0.1508
 3179SOL    HW120999   3.250   3.346   6.062  2.5786  1.7515 -1.4645
 3179SOL    HW221000   3.268   3.485   6.067 -1.0414  1.1364 -0.9876
 3180SOL     OW21001   2.517   0.199  12.547  0.5417  0.0066  0.1074
 3180SOL    HW121002   2.524   0.138  12.620  1.8056  0.0006 -0.0178
 3180SOL    HW221003   2.423   0.197  12.528  0.9376 -1.4315 -1.6835
 3181SOL     OW21004   3.977   3.686   8.180 -0.1741 -0.1222 -0.3167
 3181SOL    HW121005   3.886   3.688   8.151 -0.5820  0.7609  1.0527
 3181SOL    HW221006   3.972   3.762   8.238 -1.8659  0.1656 -0.8355
 3182SOL     OW21007   3.771   4.539   5.744  0.0178 -0.0850  0.5589
 3182SOL    HW121008   3.850   4.553   5.692  0.3364  0.8459  1.2942
 3182SOL    HW221009   3.708   4.595   5.699 -1.5058 -2.3168 -0.0226
 3183SOL     OW21010   1.938   4.444   6.369  0.0529 -0.5261 -0.3289
 3183SOL    HW121011   1.988   4.366   6.345  0.7932 -0.2854  0.4304
 3183SOL    HW221012   1.981   4.470   6.450 -2.0539  0.4989  0.4543
 3184SOL     OW21013   1.407   3.791   2.143  0.5803 -0.2180  0.0780
 3184SOL    HW121014   1.387   3.757   2.229 -1.1077  1.4663  0.3576
 3184SOL    HW221015   1.502   3.796   2.156  0.8525  3.1456 -3.0475
 3185SOL     OW21016   2.072   2.110  13.898  0.6986  0.1775 -0.5248
 3185SOL    HW121017   2.073   2.123  13.992  0.0295  1.0356 -0.6422
 3185SOL    HW221018   2.141   2.045  13.881  1.0190 -0.4494  3.1332
 3186SOL     OW21019   0.948   0.732  15.008  0.5335 -0.0695 -0.0571
 3186SOL    HW121020   0.912   0.655  15.052 -2.8894  1.1140 -0.8295
 3186SOL    HW221021   0.916   0.804  15.061  0.9697  1.2723 -1.6232
 3187SOL     OW21022   0.659   0.413  12.089 -0.0510  0.1801 -0.5616
 3187SOL    HW121023   0.565   0.434  12.088  0.6337  3.1213 -1.9287
 3187SOL    HW221024   0.694   0.501  12.078 -1.1404  0.7413  0.5539
 3188SOL     OW21025   1.745   1.389   7.953  0.3537  0.5449 -0.0522
 3188SOL    HW121026   1.688   1.342   8.014 -0.0901 -0.2481 -1.0848
 3188SOL    HW221027   1.764   1.468   8.005 -2.2821  1.2533 -0.1769
 3189SOL     OW21028   4.224   2.422   4.832 -0.4712 -0.0196  0.1505
 3189SOL    HW121029   4.255   2.345   4.783  0.0119  0.0168  0.4031
 3189SOL    HW221030   4.278   2.481   4.779 -0.0902  0.5573  1.1995
 3190SOL     OW21031   4.359   0.745   6.107  0.6482 -0.4740 -0.3678
 3190SOL    HW121032   4.349   0.830   6.151  0.0647 -1.3164  1.1350
 3190SOL    HW221033   4.364   0.690   6.185  1.2126  0.7694  0.4697
 3191SOL     OW21034   1.791   3.740   6.930  0.0838  0.4571 -0.2622
 3191SOL    HW121035   1.699   3.760   6.913 -0.0272  0.7670  0.6935
 3191SOL    HW221036   1.795   3.748   7.026  1.8599 -0.3270 -0.2753
 3192SOL     OW21037   1.134   0.559   5.319 -0.0347  0.5384  0.5913
 3192SOL    HW121038   1.140   0.484   5.260  0.3683  0.9488  0.1107
 3192SOL    HW221039   1.189   0.536   5.393  1.9030  1.9259 -0.4140
 3193SOL     OW21040   4.338   0.814  11.051  0.3654  0.0439  0.4148
 3193SOL    HW121041   4.298   0.741  11.097  0.4208 -0.3713 -0.1951
 3193SOL    HW221042   4.411   0.849  11.101  0.2958 -1.9530  1.8814
 3194SOL     OW21043   1.978   3.232   1.771 -0.2189 -0.1109 -0.8911
 3194SOL    HW121044   1.896   3.221   1.820  1.3155  0.3005  1.7623
 3194SOL    HW221045   2.036   3.244   1.847 -1.4782 -0.5408  0.1537
 3195SOL     OW21046   0.874   1.480  15.495 -0.0900 -0.1952  0.3362
 3195SOL    HW121047   0.879   1.497  15.589 -1.1189 -0.5689  0.4591
 3195SOL    HW221048   0.816   1.550  15.465 -0.3110 -0.7735 -0.5674
 3196SOL     OW21049   4.503   0.263   5.930  0.0919 -0.0134 -0.2043
 3196SOL    HW121050   4.574   0.328   5.940  0.4709 -0.0814 -2.4216
 3196SOL    HW221051   4.483   0.271   5.837  2.5767 -1.0332 -0.8373
 3197SOL     OW21052   1.713   0.402   2.038  0.3518 -0.1319  0.3224
 3197SOL    HW121053   1.763   0.392   2.119  2.4623 -1.0450 -1.1204
 3197SOL    HW221054   1.731   0.489   2.003  2.4026 -0.4390  0.6395
 3198SOL     OW21055   0.102   0.492   0.959  0.4518 -0.5689 -0.4063
 3198SOL    HW121056   0.124   0.523   0.871 -0.5389  0.8299 -0.1480
 3198SOL    HW221057   0.032   0.551   0.987  0.9891  0.9876 -2.3416
 3199SOL     OW21058   0.549   1.284  15.386 -0.2277 -0.0489 -0.5868
 3199SOL    HW121059   0.519   1.372  15.364 -1.0994 -0.3034 -0.4154
 3199SOL    HW221060   0.478   1.226  15.357 -0.2005  0.9087 -2.5724
 3200SOL     OW21061   1.913   2.791   5.743  0.1479 -0.1784  0.3813
 3200SOL    HW121062   1.984   2.834   5.694  0.2093 -1.0348 -0.2786
 3200SOL    HW221063   1.931   2.698   5.731 -2.5756 -0.6866  0.1716
 3201SOL     OW21064   2.658   3.330  14.944  0.1691  0.1040  0.2219
 3201SOL    HW121065   2.646   3.254  14.888  1.4694 -0.1638  0.3241
 3201SOL    HW221066   2.733   3.373  14.905  0.4114 -0.4624  0.0705
 3202SOL     OW21067   4.458   4.017   8.350  0.0396 -0.4298 -0.4734
 3202SOL    HW121068   4.366   4.004   8.374  0.7334 -0.2711  2.3059
 3202SOL    HW221069   4.502   3.961   8.414  0.3457  1.5848  1.0790
 3203SOL     OW21070   2.949   0.012   6.569 -0.5962  0.1700  0.3195
 3203SOL    HW121071   2.966   0.012   6.475 -1.2685 -1.3174  0.1947
 3203SOL    HW221072   2.875   0.072   6.572 -0.9721 -0.2348 -0.7621
 3204SOL     OW21073   3.626   3.792   5.095 -0.0219 -0.1826  0.5751
 3204SOL    HW121074   3.702   3.848   5.085 -1.2391  1.6938  1.9258
 3204SOL    HW221075   3.556   3.850   5.124 -1.4968 -1.9127  0.5034
 3205SOL     OW21076   3.401   0.712   0.613  0.0827 -0.0068 -0.0294
 3205SOL    HW121077   3.387   0.737   0.704  0.1328 -0.6402  0.1490
 3205SOL    HW221078   3.385   0.618   0.608 -1.5636  0.3726 -2.3474
 3206SOL     OW21079   0.624   2.990  12.779  0.2174 -0.2513 -0.3531
 3206SOL    HW121080   0.639   3.033  12.863  2.3824 -1.6768 -0.0168
 3206SOL    HW221081   0.530   2.976  12.783  0.0954  0.6624 -0.0096
 3207SOL     OW21082   0.524   2.828   3.566 -0.0538  0.0470 -0.7040
 3207SOL    HW121083   0.522   2.732   3.568  1.5790  0.0599  1.6773
 3207SOL    HW221084   0.537   2.851   3.474  2.8194 -2.5061 -0.9528
 3208SOL     OW21085   4.607   0.747  10.673  0.2178  0.8047  0.0875
 3208SOL    HW121086   4.612   0.759  10.768  0.1652 -2.4715  0.5323
 3208SOL    HW221087   4.620   0.834  10.635 -0.7043  1.2765  0.8544
 3209SOL     OW21088   2.461   0.927  14.730 -0.2025 -0.2145 -0.3014
 3209SOL    HW121089   2.448   0.849  14.675  1.6427  0.3096 -1.4846
 3209SOL    HW221090   2.372   0.961  14.740 -0.4732 -0.7522 -0.8537
 3210SOL     OW21091   0.961   3.593   8.217  0.2563  0.3206 -0.3098
 3210SOL    HW121092   0.961   3.602   8.121 -0.7654 -1.1944 -0.4552
 3210SOL    HW221093   0.897   3.661   8.234  0.6539  1.6360 -3.9791
 3211SOL     OW21094   4.246   4.165   8.834 -0.2409  0.0875 -0.4043
 3211SOL    HW121095   4.221   4.226   8.903  0.4112  0.6520 -0.6608
 3211SOL    HW221096   4.244   4.080   8.876  2.7713 -0.3220 -1.1114
 3212SOL     OW21097   3.605   3.678  13.106 -0.3897  0.0535 -0.1448
 3212SOL    HW121098   3.610   3.732  13.185 -0.5342  0.4036 -0.3746
 3212SOL    HW221099   3.623   3.737  13.033  1.9352  0.0025  0.3739
 3213SOL     OW21100   2.265   2.136   3.586 -0.2534  0.0043  0.5319
 3213SOL    HW121101   2.302   2.056   3.625  0.5425 -0.2489 -0.7384
 3213SOL    HW221102   2.347   2.179   3.560 -0.0995 -0.4163  0.3231
 3214SOL     OW21103   1.328   2.934   4.317 -0.3494 -0.3510  0.5738
 3214SOL    HW121104   1.311   2.905   4.227 -0.3286 -0.9395  0.7538
 3214SOL    HW221105   1.410   2.982   4.313  0.2772 -1.1256  4.1166
 3215SOL     OW21106   0.122   1.134  14.095  0.6795 -0.0911  0.2103
 3215SOL    HW121107   0.120   1.209  14.036 -1.6675  0.6321  1.2222
 3215SOL    HW221108   0.039   1.089  14.079  0.3524  0.5220  0.1920
 3216SOL     OW21109   0.883   0.038   7.963  0.2756  0.1428 -0.2272
 3216SOL    HW121110   0.939   0.115   7.967 -1.0035  1.1964 -2.9764
 3216SOL    HW221111   0.819   0.075   7.903 -0.3657 -1.1460 -0.3496
 3217SOL     OW21112   4.696   2.153   7.304 -0.1525  0.0646 -0.2245
 3217SOL    HW121113   0.042   2.214   7.281 -0.4315  0.6349  0.4537
 3217SOL    HW221114   4.673   2.197   7.386 -1.2267  0.2545 -0.6265
 3218SOL     OW21115   4.039   2.451   8.307 -0.2113 -0.0464 -0.4338
 3218SOL    HW121116   4.036   2.547   8.304  0.5547 -0.0092  0.0569
 3218SOL    HW221117   4.026   2.433   8.214  1.2356 -2.1099 -0.2355
 3219SOL     OW21118   3.730   2.774   3.976  0.2371 -0.1673  0.2184
 3219SOL    HW121119   3.775   2.703   4.021 -0.1033  0.0678  0.9292
 3219SOL    HW221120   3.710   2.846   4.035 -0.9017  0.2641 -0.6890
 3220SOL     OW21121   0.238   1.099   7.986  0.2463  0.1891 -0.0012
 3220SOL    HW121122   0.302   1.053   7.931 -0.6037 -0.5256 -0.3889
 3220SOL    HW221123   0.159   1.054   7.957 -1.4759  2.4358  1.2190
 3221SOL     OW21124   1.941   0.246   8.071  0.2488  0.4715 -1.0268
 3221SOL    HW121125   1.968   0.279   8.157  1.4522  1.4562 -1.7878
 3221SOL    HW221126   2.017   0.191   8.049  0.7665  0.1122  1.6630
 3222SOL     OW21127   1.953   0.680   4.392 -0.2773  0.1073  0.7254
 3222SOL    HW121128   1.947   0.692   4.297  0.4196 -2.7239  0.3333
 3222SOL    HW221129   2.038   0.724   4.402  0.0474 -0.3570 -0.0342
 3223SOL     OW21130   1.510   2.716   5.912 -0.2648  0.5181 -0.4249
 3223SOL    HW121131   1.589   2.668   5.936 -0.2086 -0.1902 -2.0694
 3223SOL    HW221132   1.532   2.730   5.820 -1.9213 -1.0496 -1.0532
 3224SOL     OW21133   1.391   2.688   3.043 -0.2120 -0.8666  0.0945
 3224SOL    HW121134   1.482   2.717   3.040 -0.6826  0.5017 -0.6708
 3224SOL    HW221135   1.361   2.731   3.123  0.3374  2.3917 -1.4753
 3225SOL     OW21136   2.564   0.170  12.256 -0.3782  0.2352 -0.1261
 3225SOL    HW121137   2.568   0.265  12.263 -0.2669  0.1205  1.2580
 3225SOL    HW221138   2.542   0.145  12.345 -0.1627  1.2048  0.1920
 3226SOL     OW21139   3.701   0.074  13.195  0.2267  0.1881 -0.3635
 3226SOL    HW121140   3.755   0.039  13.124  0.0309  0.8001 -0.8087
 3226SOL    HW221141   3.642   0.129  13.144 -0.4509  1.9026  2.2555
 3227SOL     OW21142   2.971   3.842   7.650  0.2003 -0.6391  0.8309
 3227SOL    HW121143   2.901   3.845   7.585  0.6233  0.4068  0.4208
 3227SOL    HW221144   2.957   3.923   7.699 -0.3836  1.0161 -2.0891
 3228SOL     OW21145   2.284   3.060   7.702 -0.2178  1.1708 -0.3015
 3228SOL    HW121146   2.276   3.087   7.794 -0.5074  0.9969 -0.2759
 3228SOL    HW221147   2.375   3.033   7.694  0.0126  1.9753 -0.3465
 3229SOL     OW21148   4.517   1.267   6.843  0.1243  0.3739  0.7972
 3229SOL    HW121149   4.574   1.344   6.844  0.2938  0.2429  1.3265
 3229SOL    HW221150   4.432   1.295   6.877 -0.6315  0.2816 -1.0450
 3230SOL     OW21151   4.522   4.222   7.088  0.4353 -0.4189 -0.0469
 3230SOL    HW121152   4.532   4.305   7.135  0.0275  1.2231 -2.8209
 3230SOL    HW221153   4.610   4.185   7.095  1.3417  1.2271 -2.6859
 3231SOL     OW21154   1.654   2.693  14.229 -0.5262 -0.1796  0.0320
 3231SOL    HW121155   1.680   2.773  14.184 -2.5816  0.6937  0.4028
 3231SOL    HW221156   1.659   2.630  14.158  0.3212 -0.0016 -0.0681
 3232SOL     OW21157   0.650   1.618  11.953 -0.2267  0.3085 -0.5646
 3232SOL    HW121158   0.718   1.684  11.963 -0.1411  0.0113  0.9218
 3232SOL    HW221159   0.701   1.540  11.974  1.3569  1.8672  1.3920
 3233SOL     OW21160   0.013   0.536   2.394 -0.3329  0.2477  0.1869
 3233SOL    HW121161   4.721   0.590   2.316  0.2190 -0.6926 -0.5753
 3233SOL    HW221162   4.648   0.534   2.430 -1.0459 -4.8214 -1.8082
 3234SOL     OW21163   1.895   1.833   2.918  0.4160  0.0762  0.8212
 3234SOL    HW121164   1.973   1.853   2.866 -0.0646  1.5413  0.6689
 3234SOL    HW221165   1.915   1.903   2.980 -0.1196  0.3788  0.6550
 3235SOL     OW21166   4.229   1.804   8.847 -0.4113  0.7071 -0.2089
 3235SOL    HW121167   4.306   1.748   8.855 -1.0604  0.0691  1.5524
 3235SOL    HW221168   4.262   1.882   8.803 -2.2437  1.0949 -0.9093
 3236SOL     OW21169   1.010   1.015   6.263  0.0722 -0.1877 -0.0266
 3236SOL    HW121170   1.008   0.948   6.332  0.2660  0.0018  0.1637
 3236SOL    HW221171   1.039   0.961   6.189 -2.0689  0.6054 -1.4317
 3237SOL     OW21172   3.239   3.753   7.379 -0.5864  0.4528  0.3245
 3237SOL    HW121173   3.334   3.750   7.390 -0.6998  0.2571  1.2474
 3237SOL    HW221174   3.224   3.847   7.380 -1.8563  0.2612 -0.2363
 3238SOL     OW21175   1.765   0.351   4.531 -0.5249 -0.7434  0.1559
 3238SOL    HW121176   1.839   0.355   4.592 -0.1767  0.9622 -0.3848
 3238SOL    HW221177   1.707   0.281   4.562 -1.2877  0.5672  1.6357
 3239SOL     OW21178   1.341   1.005  13.287 -0.3393  0.0934 -0.2457
 3239SOL    HW121179   1.428   1.045  13.290 -0.4969  0.3516  1.0379
 3239SOL    HW221180   1.295   1.024  13.369 -0.8563 -0.8747 -0.3066
 3240SOL     OW21181   1.346   2.251   3.038  0.6897  0.2460 -0.6237
 3240SOL    HW121182   1.301   2.334   3.031 -1.5333 -0.8384  0.9471
 3240SOL    HW221183   1.411   2.267   3.107  0.7418 -0.1939 -0.5651
 3241SOL     OW21184   0.265   3.735   6.675  0.4230 -0.4234 -0.0741
 3241SOL    HW121185   0.255   3.738   6.770  2.1074  0.4405  0.0776
 3241SOL    HW221186   0.180   3.771   6.649 -0.2001 -1.1776  0.8935
 3242SOL     OW21187   2.686   2.425   8.170 -0.4481  0.9675  0.3757
 3242SOL    HW121188   2.745   2.471   8.230  0.7751  0.0330 -0.1109
 3242SOL    HW221189   2.751   2.400   8.105  1.0941 -3.0692  3.4371
 3243SOL     OW21190   0.533   3.482   2.599 -0.2322  0.4315 -0.5061
 3243SOL    HW121191   0.439   3.474   2.615  0.1361  0.0045  1.4467
 3243SOL    HW221192   0.563   3.398   2.636  1.5544  0.9356 -0.8095
 3244SOL     OW21193   1.180   3.535   3.706  0.2842  0.4003 -0.2512
 3244SOL    HW121194   1.110   3.485   3.748 -0.4505  0.2178 -1.6772
 3244SOL    HW221195   1.240   3.461   3.713 -1.1927 -0.7047  0.4880
 3245SOL     OW21196   2.381   0.942  10.875  0.1903 -0.0477 -0.1110
 3245SOL    HW121197   2.444   0.953  10.803 -2.5215  0.7219 -2.3808
 3245SOL    HW221198   2.306   0.912  10.823  2.1163 -2.7142 -1.3829
 3246SOL     OW21199   2.927   4.472   4.942  0.6949  0.3566 -0.0050
 3246SOL    HW121200   2.926   4.549   4.885  1.0419  0.0082 -0.4849
 3246SOL    HW221201   2.837   4.480   4.972  1.3829  0.9424  1.8744
 3247SOL     OW21202   3.062   0.710   0.333  0.1207 -0.7204  0.3452
 3247SOL    HW121203   3.034   0.801   0.323  0.3670 -0.6396  0.4055
 3247SOL    HW221204   3.155   0.724   0.350 -0.3365  1.0711  1.3897
 3248SOL     OW21205   3.151   4.404   5.888  0.1380 -0.0211 -0.0327
 3248SOL    HW121206   3.197   4.398   5.804  2.0568  2.6526  0.8504
 3248SOL    HW221207   3.107   4.319   5.885  0.4833 -0.2693  2.5743
 3249SOL     OW21208   2.483   3.223  17.076  0.3013 -0.8253  0.0760
 3249SOL    HW121209   2.416   3.287  17.100 -0.9249 -1.3745 -1.8284
 3249SOL    HW221210   2.448   3.204  16.989  1.0647  0.3081 -0.4831
 3250SOL     OW21211   3.883   0.867   4.115  0.0292  0.1934 -0.4118
 3250SOL    HW121212   3.805   0.813   4.125 -0.6014  1.5900  2.3122
 3250SOL    HW221213   3.848   0.956   4.122 -0.1406  0.0927  0.0417
 3251SOL     OW21214   1.497   0.953   3.895  0.1104 -0.2319 -0.1902
 3251SOL    HW121215   1.589   0.927   3.883 -0.3476 -1.1855 -1.7172
 3251SOL    HW221216   1.482   1.017   3.826  0.1465 -0.5128 -0.4614
 3252SOL     OW21217   1.981   4.023   9.621  0.2859 -0.2022  0.0534
 3252SOL    HW121218   1.990   3.979   9.706 -0.5720  0.1328  0.3251
 3252SOL    HW221219   2.065   4.067   9.620  0.8917 -1.3690 -0.0561
 3253SOL     OW21220   2.458   2.938  12.093  0.2711  0.9957 -0.0993
 3253SOL    HW121221   2.364   2.942  12.106  0.3664  1.5253  0.4212
 3253SOL    HW221222   2.477   2.849  12.064 -0.9689  0.7311 -0.0779
 3254SOL     OW21223   4.522   2.050   3.517  0.4170  0.0596  0.3345
 3254SOL    HW121224   4.508   2.038   3.423 -1.0444  2.1415  0.2813
 3254SOL    HW221225   4.446   2.104   3.540  2.1691  1.8590  1.9245
 3255SOL     OW21226   0.957   1.979  17.580  0.4154 -0.3329  0.6766
 3255SOL    HW121227   0.941   1.963  17.487 -0.9671 -0.3888  0.9287
 3255SOL    HW221228   0.872   1.953  17.615 -0.5758 -0.5225 -1.8876
 3256SOL     OW21229   2.310   1.882   6.721  0.5012  0.3160  0.0563
 3256SOL    HW121230   2.325   1.974   6.740  2.4142  0.1802 -0.7431
 3256SOL    HW221231   2.248   1.887   6.648  0.8910  0.6788 -0.2500
 3257SOL     OW21232   3.752   2.185   2.140 -0.1267 -0.4036  0.1832
 3257SOL    HW121233   3.831   2.221   2.181  0.3709 -0.9945 -0.2472
 3257SOL    HW221234   3.687   2.213   2.205 -0.9920 -0.9230 -0.4701
 3258SOL     OW21235   0.271   4.386   8.020 -0.2633  0.4451 -0.1579
 3258SOL    HW121236   0.191   4.337   8.002  0.9594 -1.8071  0.5102
 3258SOL    HW221237   0.310   4.344   8.097 -2.0796  0.3782  0.7265
 3259SOL     OW21238   3.725   1.871   2.162 -0.2011 -0.0718 -0.5458
 3259SOL    HW121239   3.745   1.953   2.208 -0.8381 -0.2492  0.0363
 3259SOL    HW221240   3.774   1.803   2.209 -0.0724 -1.4791 -2.7202
 3260SOL     OW21241   1.521   1.080   4.520  0.6710 -0.0722  0.4867
 3260SOL    HW121242   1.540   1.168   4.487 -0.2161 -0.1484 -0.2469
 3260SOL    HW221243   1.597   1.065   4.575  1.5134  0.0413 -0.6517
 3261SOL     OW21244   1.856   1.556   8.893 -0.6220  0.3421  0.7312
 3261SOL    HW121245   1.857   1.489   8.825 -1.7813 -0.4324  1.4817
 3261SOL    HW221246   1.762   1.570   8.891 -0.4004  1.4889 -1.3758
 3262SOL     OW21247   2.161   0.923   6.918 -0.0318  0.6618 -0.2812
 3262SOL    HW121248   2.111   0.963   6.988 -1.2077  1.1677 -1.4079
 3262SOL    HW221249   2.092   0.902   6.854 -1.3899  0.6964  1.1737
 3263SOL     OW21250   3.378   4.579   6.036 -0.6554  0.1141 -0.6856
 3263SOL    HW121251   3.293   4.539   6.018 -0.8241  0.9304 -1.7048
 3263SOL    HW221252   3.423   4.501   6.067 -0.4933  0.8815  1.0522
 3264SOL     OW21253   3.970   0.522   3.131  0.8052 -0.3776 -0.3611
 3264SOL    HW121254   4.063   0.535   3.146  1.0581  1.3244 -3.3051
 3264SOL    HW221255   3.958   0.433   3.164  3.9582 -0.7116 -0.1952
 3265SOL     OW21256   1.559   2.598  14.463  0.3935 -0.0424 -0.1484
 3265SOL    HW121257   1.619   2.525  14.449 -1.9842 -2.1428  0.5213
 3265SOL    HW221258   1.574   2.643  14.380  2.3423 -1.6034 -0.6317
 3266SOL     OW21259   2.285   1.239   6.099 -0.0106  0.0303 -0.0029
 3266SOL    HW121260   2.294   1.320   6.149  2.7833 -0.8861  0.9529
 3266SOL    HW221261   2.228   1.262   6.025 -1.4218  1.5627  1.5731
 3267SOL     OW21262   1.100   1.241   6.434 -0.3964  0.1576 -0.2740
 3267SOL    HW121263   1.018   1.288   6.449  0.4125  0.5686  2.7346
 3267SOL    HW221264   1.089   1.146   6.443  0.4773  0.2423  1.6277
 3268SOL     OW21265   3.755   2.984  10.725  0.2594 -0.4355  0.3213
 3268SOL    HW121266   3.826   2.984  10.789  0.4101 -0.2075  0.1552
 3268SOL    HW221267   3.702   2.920  10.772  3.2165 -1.4430  2.2959
 3269SOL     OW21268   3.620   2.197   5.919  0.4087 -0.8160 -0.4730
 3269SOL    HW121269   3.600   2.261   5.851  0.4534  0.4668  0.7237
 3269SOL    HW221270   3.535   2.154   5.928  0.3252 -0.4902  0.2987
 3270SOL     OW21271   4.387   1.665   2.993 -0.2600  0.4989 -0.4257
 3270SOL    HW121272   4.300   1.660   3.033 -1.2879 -0.2792 -2.7619
 3270SOL    HW221273   4.383   1.760   2.986 -0.4546  0.7372  2.8324
 3271SOL     OW21274   3.053   2.377   8.348 -0.2034  0.0777 -0.3301
 3271SOL    HW121275   3.002   2.439   8.295 -0.2124 -1.2262 -1.8556
 3271SOL    HW221276   3.122   2.438   8.373 -1.0076  0.6720  0.4424
 3272SOL     OW21277   4.489   1.682   8.895  0.6726 -0.2148  0.3690
 3272SOL    HW121278   4.504   1.632   8.976  2.1364 -1.2759 -0.5622
 3272SOL    HW221279   4.451   1.607   8.850  0.2509  0.1661  0.0971
 3273SOL     OW21280   2.422   0.966   4.393 -0.7403 -0.1760 -0.4237
 3273SOL    HW121281   2.399   1.045   4.344  1.3227  0.3611 -0.5241
 3273SOL    HW221282   2.489   1.004   4.451 -1.4740 -1.7712  1.4449
 3274SOL     OW21283   2.431   1.410  14.183  0.0452 -0.3114 -0.0284
 3274SOL    HW121284   2.369   1.395  14.111  0.2663  0.8739 -0.4666
 3274SOL    HW221285   2.419   1.334  14.240  1.6479  1.2786  2.4501
 3275SOL     OW21286   3.981   4.155   5.654  0.1965 -0.0184 -0.0187
 3275SOL    HW121287   4.043   4.228   5.653 -1.6224  1.5547  1.5774
 3275SOL    HW221288   4.019   4.095   5.719 -0.8171  0.4379  0.9986
 3276SOL     OW21289   2.887   4.175  14.700  0.0563  0.0931  0.0964
 3276SOL    HW121290   2.924   4.116  14.765  3.8911  1.0598 -1.1960
 3276SOL    HW221291   2.968   4.212  14.664 -1.2849  2.3123 -0.6614
 3277SOL     OW21292   0.248   2.606   4.599 -0.7066  0.2087  0.3604
 3277SOL    HW121293   0.170   2.652   4.567 -2.1640 -2.0658  0.6845
 3277SOL    HW221294   0.239   2.519   4.562  0.0774 -0.1266  0.9621
 3278SOL     OW21295   4.450   2.456   8.626  0.1903  0.1759 -0.0727
 3278SOL    HW121296   4.360   2.440   8.598  0.0025  0.0515  0.6158
 3278SOL    HW221297   4.456   2.551   8.616 -1.8742  0.4097  0.9080
 3279SOL     OW21298   4.281   0.201  16.767 -0.0637  0.0575  0.5411
 3279SOL    HW121299   4.186   0.200  16.755  0.1834 -0.2940 -1.2522
 3279SOL    HW221300   4.311   0.211  16.677  2.1410 -0.3792  1.2282
 3280SOL     OW21301   0.337   0.655  16.668 -0.4886 -0.0617 -0.6616
 3280SOL    HW121302   0.334   0.713  16.744 -0.1014  1.3188 -1.6959
 3280SOL    HW221303   0.297   0.573  16.697  0.4818 -0.3974 -0.2755
 3281SOL     OW21304   0.442   1.995   8.977  0.0367  0.2832  0.3421
 3281SOL    HW121305   0.448   1.900   8.984  0.1929  0.2514 -0.2864
 3281SOL    HW221306   0.481   2.016   8.892 -0.6483 -0.9249 -0.2635
 3282SOL     OW21307   1.318   4.139   7.073  0.1219  0.0350 -0.2834
 3282SOL    HW121308   1.358   4.056   7.100  0.5290  0.2526 -0.2149
 3282SOL    HW221309   1.393   4.189   7.041 -0.1689 -0.6429 -2.0148
 3283SOL     OW21310   4.391   2.614   6.949  0.1018  0.3184  0.1483
 3283SOL    HW121311   4.432   2.681   6.893 -1.5842  1.5453  0.4044
 3283SOL    HW221312   4.458   2.600   7.016  1.1369  1.3495 -0.6546
 3284SOL     OW21313   4.169   0.029   7.029  0.3836  0.9118 -0.5207
 3284SOL    HW121314   4.213   4.710   6.956  0.7043  1.1391 -0.4583
 3284SOL    HW221315   4.162   0.117   6.991 -0.6428  1.5337  1.0957
 3285SOL     OW21316   2.594   4.436   8.181 -0.4187  0.1935  0.2873
 3285SOL    HW121317   2.522   4.494   8.205 -0.9184  1.1766 -3.6529
 3285SOL    HW221318   2.561   4.425   8.092 -0.4548  0.3461  0.2822
 3286SOL     OW21319   0.994   3.854  12.089  0.0990  0.5509  0.4300
 3286SOL    HW121320   0.945   3.820  12.164  0.5800 -2.8905 -0.8183
 3286SOL    HW221321   0.987   3.947  12.108 -0.4122  0.8544 -1.2263
 3287SOL     OW21322   0.945   0.714   6.890 -0.6103  0.1766  0.8577
 3287SOL    HW121323   0.928   0.632   6.844 -5.4752  1.7029 -0.1142
 3287SOL    HW221324   0.858   0.713   6.929 -1.0792  1.9289 -0.1226
 3288SOL     OW21325   2.034   3.234  12.844 -0.5735  0.0967  0.0966
 3288SOL    HW121326   2.101   3.186  12.795  0.7341  2.2270 -0.1939
 3288SOL    HW221327   2.093   3.300  12.881  2.5928 -1.9628 -1.2131
 3289SOL     OW21328   4.063   0.205   3.427 -0.3671 -0.2158 -0.2626
 3289SOL    HW121329   4.024   0.143   3.490  1.4310 -0.3422  0.7200
 3289SOL    HW221330   4.051   0.291   3.468  0.6190 -0.6353  0.9256
 3290SOL     OW21331   3.025   1.051   8.758 -0.4798 -0.1864 -0.0809
 3290SOL    HW121332   2.947   1.096   8.726 -1.3237  0.0602  2.3352
 3290SOL    HW221333   3.068   1.119   8.810  1.3807 -1.9114  0.6576
 3291SOL     OW21334   3.071   0.120  14.563  0.0716  0.3486 -0.0376
 3291SOL    HW121335   3.010   0.192  14.551  0.3727  0.8717  1.6460
 3291SOL    HW221336   3.011   0.045  14.563  1.6750 -0.9371  1.2296
 3292SOL     OW21337   3.824   3.985   5.002 -0.4420 -0.5828  0.1155
 3292SOL    HW121338   3.918   3.970   4.987 -0.3501 -0.1228  0.2537
 3292SOL    HW221339   3.804   4.047   4.932 -0.7134 -0.8433 -0.0376
 3293SOL     OW21340   1.539   1.675  11.367 -0.4719  0.5281  0.0190
 3293SOL    HW121341   1.525   1.767  11.386  2.6240  0.8059  1.0456
 3293SOL    HW221342   1.634   1.659  11.375 -0.6321 -0.5460 -0.2108
 3294SOL     OW21343   1.111   2.420   7.779 -0.0557  0.5566 -0.0403
 3294SOL    HW121344   1.205   2.414   7.765 -0.4536  1.2083 -2.8669
 3294SOL    HW221345   1.099   2.508   7.815 -1.4972  0.5478 -0.4920
 3295SOL     OW21346   3.746   2.649   3.736  0.1881  0.0913 -0.1075
 3295SOL    HW121347   3.840   2.630   3.739  0.0562 -0.5393 -0.0863
 3295SOL    HW221348   3.730   2.701   3.815 -2.1266 -1.8306  0.6844
 3296SOL     OW21349   0.907   1.907   5.677 -0.4593 -0.1407  0.0373
 3296SOL    HW121350   0.971   1.876   5.742 -0.5863 -2.3952 -0.9221
 3296SOL    HW221351   0.963   1.912   5.600 -0.9097  1.3845 -0.1839
 3297SOL     OW21352   4.584   1.497  13.813 -0.2946  0.3671 -0.8354
 3297SOL    HW121353   4.636   1.562  13.766  0.0453  0.8990  0.2618
 3297SOL    HW221354   4.516   1.545  13.861  0.0283 -1.6184  1.6693
 3298SOL     OW21355   4.312   3.792  17.339  0.3171  0.7658 -0.3393
 3298SOL    HW121356   4.226   3.831  17.324 -0.7582 -1.1506  1.0021
 3298SOL    HW221357   4.321   3.779  17.433  1.7367 -0.5203 -0.6521
 3299SOL     OW21358   0.074   2.812   3.968  0.5429 -0.9191  0.5117
 3299SOL    HW121359   0.024   2.765   3.902  1.0168  1.0567 -1.2544
 3299SOL    HW221360   0.117   2.737   4.010 -0.8108 -1.7066  0.4683
 3300SOL     OW21361   1.163   4.459   5.528  0.1660  0.3113  0.4536
 3300SOL    HW121362   1.205   4.411   5.600  0.5175  0.6988  0.5010
 3300SOL    HW221363   1.083   4.408   5.509  1.8730 -2.2171  0.0661
 3301SOL     OW21364   4.268   2.349  12.768 -0.5053 -0.1891  0.3226
 3301SOL    HW121365   4.311   2.398  12.838  0.6860 -0.4493 -0.2132
 3301SOL    HW221366   4.217   2.291  12.824 -0.4761 -0.0547  0.4879
 3302SOL     OW21367   0.608   3.806   6.395 -0.9474 -0.0980 -0.5663
 3302SOL    HW121368   0.555   3.735   6.432 -2.3122  0.7745 -0.8667
 3302SOL    HW221369   0.665   3.811   6.472  1.0285 -1.5569 -1.9244
 3303SOL     OW21370   1.110   4.718   7.152 -0.3502 -0.1274  0.3569
 3303SOL    HW121371   1.101   4.628   7.123  2.0907 -0.3853  0.3883
 3303SOL    HW221372   1.203   0.014   7.140 -0.2553 -1.0245 -0.3281
 3304SOL     OW21373   3.742   4.501   5.325  0.3061  0.3526 -0.5633
 3304SOL    HW121374   3.776   4.498   5.236 -2.6995  0.5615 -1.7230
 3304SOL    HW221375   3.707   4.412   5.326  0.2352  0.3834  0.4445
 3305SOL     OW21376   1.194   4.110   7.838  0.0267  0.4661  0.0254
 3305SOL    HW121377   1.268   4.134   7.782 -1.7722  1.9708 -1.7260
 3305SOL    HW221378   1.123   4.159   7.796  0.7130 -0.2635 -2.0306
 3306SOL     OW21379   2.526   2.593   5.089 -0.6068  0.1133  0.3285
 3306SOL    HW121380   2.456   2.658   5.079 -1.0439 -0.4498 -0.2170
 3306SOL    HW221381   2.501   2.565   5.177 -0.0172 -1.8724 -0.1474
 3307SOL     OW21382   0.048   0.015   4.679 -0.6710  0.0963  0.1985
 3307SOL    HW121383   0.005   0.087   4.634  2.7011  1.4470 -0.8300
 3307SOL    HW221384   0.124   4.722   4.623 -1.2119 -0.3569 -0.4065
 3308SOL     OW21385   1.114   1.953  16.086  0.5146  0.1611 -0.2382
 3308SOL    HW121386   1.110   2.040  16.045 -0.9067  0.3859  0.3800
 3308SOL    HW221387   1.064   1.967  16.167 -0.2602 -0.8630 -0.5324
 3309SOL     OW21388   0.030   0.791  16.277 -0.5298  0.0508  0.1552
 3309SOL    HW121389   0.005   0.703  16.246 -0.1794 -0.7881  2.2572
 3309SOL    HW221390   0.089   0.771  16.350 -2.0260  0.7507  1.5477
 3310SOL     OW21391   0.263   3.034  13.015  0.8718  0.3291  0.2630
 3310SOL    HW121392   0.341   3.088  13.029  0.5319  0.0006  3.3745
 3310SOL    HW221393   0.302   2.975  12.950  0.1835 -0.0361  0.1787
 3311SOL     OW21394   3.451   3.759   8.445  0.0241 -0.1054  0.0523
 3311SOL    HW121395   3.446   3.843   8.399 -0.4401  0.4204  1.0582
 3311SOL    HW221396   3.540   3.757   8.479 -0.4723 -0.1473  1.3525
 3312SOL     OW21397   0.728   1.184  15.568  0.3272  0.0962  0.0171
 3312SOL    HW121398   0.727   1.089  15.553 -0.1296  0.5089 -2.5731
 3312SOL    HW221399   0.650   1.215  15.521  1.2790  1.4716 -0.6376
 3313SOL     OW21400   2.872   3.411   4.809 -0.1424 -0.7077  0.6642
 3313SOL    HW121401   2.846   3.350   4.741 -0.1876  0.9694 -0.8286
 3313SOL    HW221402   2.962   3.428   4.780 -0.6076 -0.2243 -0.4952
 3314SOL     OW21403   1.815   4.610   4.572 -0.0843  0.3743 -0.1964
 3314SOL    HW121404   1.799   4.559   4.652 -0.0127 -2.7266 -2.1770
 3314SOL    HW221405   1.777   4.694   4.596  0.9549  0.7917  0.0191
 3315SOL     OW21406   2.923   2.027   6.865  0.3615  0.1188 -0.4527
 3315SOL    HW121407   2.845   1.973   6.881 -0.2587  1.6306  1.7519
 3315SOL    HW221408   2.889   2.112   6.838 -0.7386  0.0732  0.7727
 3316SOL     OW21409   1.533   4.219   5.763  0.3524 -0.0509 -0.4845
 3316SOL    HW121410   1.572   4.139   5.797 -0.1989  0.0386  0.3705
 3316SOL    HW221411   1.569   4.226   5.675  0.5886 -0.1030 -0.3911
 3317SOL     OW21412   0.928   1.308   2.162 -0.4236 -0.4275  0.0164
 3317SOL    HW121413   0.903   1.217   2.175 -1.6688 -0.1679 -0.6019
 3317SOL    HW221414   0.977   1.310   2.080  1.0984  1.4478  0.9705
 3318SOL     OW21415   0.824   0.361   5.626  0.0018  0.1949  0.1996
 3318SOL    HW121416   0.869   0.297   5.681 -2.8497 -2.4847 -0.5578
 3318SOL    HW221417   0.795   0.427   5.689  0.0411  1.2632 -0.8915
 3319SOL     OW21418   0.809   0.363   4.596 -0.0301  0.0612 -0.2815
 3319SOL    HW121419   0.881   0.328   4.542  0.4394 -0.3560  0.6119
 3319SOL    HW221420   0.737   0.363   4.533  0.0479  1.3402 -0.3633
 3320SOL     OW21421   2.821   2.388   3.731  0.0180  0.3924 -0.1677
 3320SOL    HW121422   2.754   2.320   3.725 -0.1212  0.6632 -1.7601
 3320SOL    HW221423   2.833   2.410   3.639 -2.4101  1.1658 -0.2806
 3321SOL     OW21424   2.072   0.425   9.088  0.1028  0.3029 -0.3790
 3321SOL    HW121425   1.989   0.431   9.041  1.5637  1.9434 -2.7825
 3321SOL    HW221426   2.133   0.392   9.022  0.9068 -0.8207  0.9376
 3322SOL     OW21427   1.620   0.329   2.292 -0.3177  0.3936 -0.1673
 3322SOL    HW121428   1.688   0.396   2.302 -0.7247  1.0540 -1.9174
 3322SOL    HW221429   1.665   0.258   2.337 -0.7812  0.8783  1.0696
 3323SOL     OW21430   3.249   4.354  10.352 -0.1186 -0.0344 -0.6551
 3323SOL    HW121431   3.300   4.326  10.428 -0.2388  3.2396  0.6382
 3323SOL    HW221432   3.204   4.275  10.323 -0.5938  0.5621 -1.5688
 3324SOL     OW21433   4.564   1.226  17.662 -0.1075 -0.0571 -0.3069
 3324SOL    HW121434   4.481   1.268  17.641 -0.4050 -0.3245  0.3482
 3324SOL    HW221435   4.607   1.311  17.666 -0.4398  0.0422  1.1701
 3325SOL     OW21436   2.471   1.086  14.080 -0.1296 -0.4428  0.3046
 3325SOL    HW121437   2.472   1.000  14.122  0.1786 -0.8421 -0.5068
 3325SOL    HW221438   2.470   1.139  14.160 -0.1902 -0.6946  0.4716
 3326SOL     OW21439   4.059   0.168   0.498  0.0476  0.0363 -0.2944
 3326SOL    HW121440   4.006   0.158   0.577  1.0485 -1.2015  0.2415
 3326SOL    HW221441   4.140   0.125   0.527 -1.1296 -1.6075  0.5486
 3327SOL     OW21442   3.466   0.215   8.742 -0.0317 -0.1190  0.7511
 3327SOL    HW121443   3.540   0.275   8.743  2.4670 -3.1800  1.4063
 3327SOL    HW221444   3.454   0.207   8.647  2.6127  2.1082  0.2439
 3328SOL     OW21445   2.987   2.207   1.819 -0.0597  0.3766 -0.2118
 3328SOL    HW121446   2.933   2.223   1.896 -0.6120 -1.3724 -0.2256
 3328SOL    HW221447   3.031   2.287   1.791  0.1403  0.3743  0.1003
 3329SOL     OW21448   3.092   3.845   0.484 -0.1674  0.1737  0.5964
 3329SOL    HW121449   3.188   3.847   0.484 -0.1650  0.3095  0.0868
 3329SOL    HW221450   3.088   3.782   0.412 -2.1984  0.5038  0.4378
 3330SOL     OW21451   4.139   2.900  15.481  0.5686 -0.1797  0.4125
 3330SOL    HW121452   4.052   2.932  15.457  0.3986 -1.1401 -0.2332
 3330SOL    HW221453   4.176   2.870  15.399 -1.6068 -3.2202  0.5557
 3331SOL     OW21454   3.268   0.705   8.687  0.4988 -0.2178 -0.9533
 3331SOL    HW121455   3.334   0.680   8.623 -0.0307  0.1783 -1.6571
 3331SOL    HW221456   3.213   0.757   8.628 -0.2458  2.2155  1.9020
 3332SOL     OW21457   2.541   4.005   3.087  0.0478 -0.1311  0.1285
 3332SOL    HW121458   2.632   4.025   3.066 -0.1202  0.3149 -0.1790
 3332SOL    HW221459   2.500   4.063   3.023  0.9708  1.0733  0.6177
 3333SOL     OW21460   2.329   4.378   6.451 -0.0593  0.1456 -0.4202
 3333SOL    HW121461   2.310   4.297   6.403  0.8063  0.5512 -1.4432
 3333SOL    HW221462   2.355   4.435   6.380  2.8979  0.4714  0.9489
 3334SOL     OW21463   2.051   0.118   4.614 -0.0010 -0.0546  0.1135
 3334SOL    HW121464   1.978   0.056   4.621 -1.5206  1.6544 -0.5992
 3334SOL    HW221465   2.004   0.199   4.593  1.2005  0.6508  0.1639
 3335SOL     OW21466   3.346   4.104  15.493  0.1298  0.9088 -0.2133
 3335SOL    HW121467   3.271   4.138  15.445 -0.6337 -0.7573 -0.1948
 3335SOL    HW221468   3.419   4.156  15.459  0.6408 -0.4121 -1.1731
 3336SOL     OW21469   3.400   0.425   2.030  0.2170 -0.3073  0.5196
 3336SOL    HW121470   3.340   0.464   1.967 -0.8031 -1.2166  0.9258
 3336SOL    HW221471   3.483   0.449   1.989 -0.6148 -0.6529 -1.3413
 3337SOL     OW21472   2.717   1.276   2.501  0.3618 -0.1857  0.3354
 3337SOL    HW121473   2.733   1.311   2.589 -0.9800 -1.3504  1.0297
 3337SOL    HW221474   2.622   1.279   2.492  0.2386 -2.0925  0.8837
 3338SOL     OW21475   0.061   1.051  14.758 -0.2959 -0.1469  0.3901
 3338SOL    HW121476   0.064   0.965  14.800  0.3215 -0.2226  0.1971
 3338SOL    HW221477   4.720   1.033  14.690  0.3135  1.4328 -0.6131
 3339SOL     OW21478   0.739   0.760   3.946  0.2894 -0.1687  0.4938
 3339SOL    HW121479   0.768   0.851   3.942 -0.3915 -0.0850 -2.3885
 3339SOL    HW221480   0.734   0.756   4.042 -2.8622 -1.0690  0.2885
 3340SOL     OW21481   1.495   1.221   3.740  0.6826 -0.5586  0.5163
 3340SOL    HW121482   1.558   1.284   3.705  0.2703 -0.3064  0.2309
 3340SOL    HW221483   1.458   1.192   3.656  1.2060 -0.2278  0.1711
 3341SOL     OW21484   2.482   0.754  16.187  0.0197 -0.2989 -0.1164
 3341SOL    HW121485   2.497   0.753  16.282  1.8310  2.4573 -0.3797
 3341SOL    HW221486   2.388   0.742  16.175  0.2987 -1.6652 -0.8967
 3342SOL     OW21487   3.102   3.701   2.263 -0.2111  0.0362 -0.1718
 3342SOL    HW121488   3.077   3.619   2.220  3.6327 -1.9437  1.4308
 3342SOL    HW221489   3.196   3.687   2.255 -0.2231 -0.8085  1.1035
 3343SOL     OW21490   2.920   4.174   8.165 -0.2490  0.3736  0.1759
 3343SOL    HW121491   3.003   4.215   8.190  0.7273 -2.2138  1.0943
 3343SOL    HW221492   2.927   4.169   8.070 -0.9994  1.1479  0.0805
 3344SOL     OW21493   4.331   2.282   3.764  0.0612  0.1871 -0.1481
 3344SOL    HW121494   4.261   2.308   3.703 -0.9173 -0.9603  0.4760
 3344SOL    HW221495   4.284   2.265   3.845 -2.3049 -0.0194 -1.5624
 3345SOL     OW21496   3.873   3.794  12.234 -0.3914 -0.3482  0.3804
 3345SOL    HW121497   3.871   3.760  12.145  0.6692 -0.1397  0.2800
 3345SOL    HW221498   3.791   3.755  12.266 -0.8317  0.6007  0.4315
 3346SOL     OW21499   1.187   3.398   4.102  0.3815  0.2602 -0.2657
 3346SOL    HW121500   1.179   3.363   4.013  0.9549 -0.3973 -0.0568
 3346SOL    HW221501   1.223   3.486   4.095 -0.5146  0.5247 -1.6778
 3347SOL     OW21502   3.241   0.932  10.114  0.1518  0.3236  0.3373
 3347SOL    HW121503   3.301   1.004  10.091 -0.5611  1.6578  2.7059
 3347SOL    HW221504   3.184   0.987  10.167  0.3859  0.4641  0.4446
 3348SOL     OW21505   1.906   1.797   9.032  0.0908  0.6993 -0.2950
 3348SOL    HW121506   1.920   1.836   8.946  3.5621 -2.7255 -1.2909
 3348SOL    HW221507   1.956   1.717   9.014  0.1008  0.3169  1.4789
 3349SOL     OW21508   4.381   2.317   8.242  0.0322 -0.3784 -0.0650
 3349SOL    HW121509   4.343   2.401   8.268 -1.1647 -0.0212 -2.9334
 3349SOL    HW221510   4.470   2.349   8.225  0.1797 -1.6829 -1.7711
 3350SOL     OW21511   2.242   1.221   3.388  0.3847  0.4059  0.5208
 3350SOL    HW121512   2.335   1.202   3.401  0.1137 -0.5898  1.0680
 3350SOL    HW221513   2.206   1.132   3.399 -0.6500  0.7765  0.1189
 3351SOL     OW21514   1.099   1.557   0.359 -0.6024 -0.3072  0.0708
 3351SOL    HW121515   1.031   1.576   0.294 -1.8305  1.6496  1.9126
 3351SOL    HW221516   1.154   1.636   0.356 -0.6214 -0.3397 -0.9216
 3352SOL     OW21517   4.310   0.567   5.617  0.3311 -0.1324 -0.1857
 3352SOL    HW121518   4.354   0.652   5.625 -2.4750  1.1982  1.5097
 3352SOL    HW221519   4.243   0.595   5.554 -0.6358  0.5702  1.1593
 3353SOL     OW21520   3.588   2.028   8.475  1.1760 -0.6307 -0.5062
 3353SOL    HW121521   3.497   2.039   8.502  1.0402  0.3828 -1.3873
 3353SOL    HW221522   3.579   1.987   8.390  0.0947  0.1560 -0.7771
 3354SOL     OW21523   3.672   1.228  16.887 -0.2341  0.1166 -0.4145
 3354SOL    HW121524   3.701   1.303  16.938 -0.1027 -0.1668 -0.0674
 3354SOL    HW221525   3.761   1.203  16.860  0.2603 -0.0693  1.4087
 3355SOL     OW21526   3.259   2.190   4.887  0.2555  0.1807  0.2157
 3355SOL    HW121527   3.222   2.242   4.816 -0.7649 -0.5870  0.1903
 3355SOL    HW221528   3.209   2.108   4.888  1.2386 -0.4277 -0.7856
 3356SOL     OW21529   0.561   0.069   1.149  0.0618 -0.2813 -0.3205
 3356SOL    HW121530   0.559   0.090   1.056 -0.1527 -0.7073 -0.4134
 3356SOL    HW221531   0.563   4.697   1.149 -1.3356 -0.2954 -4.8623
 3357SOL     OW21532   2.488   1.961   6.265  0.7193  0.4459  0.2344
 3357SOL    HW121533   2.400   1.987   6.238 -0.5624 -2.5635  1.5985
 3357SOL    HW221534   2.527   2.047   6.280  0.7514  0.1023  2.1277
 3358SOL     OW21535   0.706   4.557   1.085 -0.8098  0.4952  0.0803
 3358SOL    HW121536   0.705   4.462   1.083  0.1327  0.4973 -0.8503
 3358SOL    HW221537   0.726   4.567   0.991 -1.6498 -0.5251 -0.2001
 3359SOL     OW21538   3.271   2.087   0.885  0.0473  0.2011  0.1755
 3359SOL    HW121539   3.288   2.016   0.947 -2.2315  0.2506  0.8534
 3359SOL    HW221540   3.206   2.135   0.936 -1.5604  0.2735 -1.9339
 3360SOL     OW21541   1.822   1.599  13.110  0.1946 -0.8163 -0.4689
 3360SOL    HW121542   1.751   1.538  13.092  0.5355 -1.5629  0.8043
 3360SOL    HW221543   1.892   1.561  13.057  0.7469 -0.4858  0.0267
 3361SOL     OW21544   2.109   1.995  16.501 -0.1476 -0.2849  0.1408
 3361SOL    HW121545   2.130   2.078  16.457  4.3203 -0.2000  2.3969
 3361SOL    HW221546   2.041   1.962  16.442  3.3527 -0.2749 -3.8850
 3362SOL     OW21547   4.643   0.240   7.159 -0.0994  0.2381 -0.1840
 3362SOL    HW121548   4.710   0.307   7.145  1.0019 -0.7781  0.1890
 3362SOL    HW221549   4.565   0.294   7.163 -0.4410 -0.1248 -2.2922
 3363SOL     OW21550   0.820   1.013   0.225 -0.3955  0.1793 -0.0755
 3363SOL    HW121551   0.868   1.089   0.192  0.8449 -0.7012 -0.3125
 3363SOL    HW221552   0.761   1.058   0.284  0.2036  1.5025 -0.4877
 3364SOL     OW21553   3.515   0.926   6.746 -0.2833  0.0857 -0.5165
 3364SOL    HW121554   3.529   0.832   6.757 -0.3158 -0.1121 -2.2234
 3364SOL    HW221555   3.521   0.927   6.651 -2.0822 -1.1227 -0.6530
 3365SOL     OW21556   0.356   4.461   7.774  0.4244 -0.5529 -0.2081
 3365SOL    HW121557   0.293   4.410   7.723 -0.0976 -0.0919 -0.0365
 3365SOL    HW221558   0.333   4.432   7.863  2.4473  0.2989  0.5825
 3366SOL     OW21559   2.576   0.885   3.771 -0.5708 -0.0454  0.0616
 3366SOL    HW121560   2.516   0.910   3.841  1.5769  0.9895  1.5489
 3366SOL    HW221561   2.638   0.823   3.810 -0.9622 -0.6056 -0.2134
 3367SOL     OW21562   2.028   3.163   1.068 -0.2192 -0.1721  0.2570
 3367SOL    HW121563   2.050   3.195   0.981  2.0271  1.5224  1.4661
 3367SOL    HW221564   1.974   3.085   1.052  0.1883 -0.7528  1.7423
 3368SOL     OW21565   0.679   4.152   4.860  0.1246 -0.2803  0.1190
 3368SOL    HW121566   0.630   4.079   4.823  3.7864 -1.3946 -2.5410
 3368SOL    HW221567   0.741   4.160   4.787  0.2876 -0.8949  0.1864
 3369SOL     OW21568   1.315   0.687   7.882  0.5036  0.2772  0.4073
 3369SOL    HW121569   1.336   0.708   7.791 -2.6691 -0.0072 -0.4162
 3369SOL    HW221570   1.261   0.761   7.909 -0.7618 -0.4176 -0.1891
 3370SOL     OW21571   1.059   4.250   7.092  0.3597  0.5690 -0.0055
 3370SOL    HW121572   1.146   4.214   7.075 -0.4559 -0.7078 -1.4858
 3370SOL    HW221573   1.083   4.341   7.108 -1.6031  1.3192 -1.3627
 3371SOL     OW21574   1.428   3.801  10.698  0.0700 -0.3377 -0.6815
 3371SOL    HW121575   1.425   3.710  10.728 -2.7285 -0.1442 -0.4387
 3371SOL    HW221576   1.494   3.841  10.755  0.4579  1.1005 -2.1643
 3372SOL     OW21577   2.492   0.490  17.142  0.5498  0.5279 -0.9210
 3372SOL    HW121578   2.503   0.439  17.061 -1.3979 -1.2378 -0.0914
 3372SOL    HW221579   2.574   0.537  17.151  0.4033  0.6440 -0.1415
 3373SOL     OW21580   3.032   1.285  17.309 -0.0750 -0.0686 -0.1379
 3373SOL    HW121581   3.098   1.262  17.374 -1.2952 -1.9485  0.4346
 3373SOL    HW221582   3.033   1.380  17.325  0.0121  0.0875 -1.0617
 3374SOL     OW21583   0.368   3.965   6.921  0.1854 -0.1760 -0.1087
 3374SOL    HW121584   0.404   3.938   7.006  0.2870  1.5694  0.3960
 3374SOL    HW221585   0.414   3.912   6.856 -1.8212 -1.2893 -0.5856
 3375SOL     OW21586   4.494   2.070  17.272 -0.1010  0.6164 -0.2732
 3375SOL    HW121587   4.476   1.977  17.261  0.6325  0.3060  1.1838
 3375SOL    HW221588   4.508   2.075  17.366  0.6282 -0.7754 -0.3207
 3376SOL     OW21589   3.625   0.022   8.485  0.1794 -0.1820 -0.3455
 3376SOL    HW121590   3.610   0.105   8.439 -2.0718 -1.3879 -1.7847
 3376SOL    HW221591   3.717   0.042   8.505  0.0917 -0.3492  0.2332
 3377SOL     OW21592   1.464   3.210  15.236  0.6716 -0.1225  0.2519
 3377SOL    HW121593   1.512   3.291  15.222  0.8718  0.0063  1.7840
 3377SOL    HW221594   1.506   3.179  15.316  2.3575 -0.7720 -0.8748
 3378SOL     OW21595   1.050   3.724   4.435 -0.4123  0.7163  0.2395
 3378SOL    HW121596   0.996   3.758   4.506  2.3496 -0.6023  2.9953
 3378SOL    HW221597   1.076   3.646   4.483  0.4688  1.1341  0.4461
 3379SOL     OW21598   3.391   0.186   1.272 -0.2945  0.1451 -0.3846
 3379SOL    HW121599   3.474   0.202   1.317  0.0482  0.8780 -1.2889
 3379SOL    HW221600   3.331   0.166   1.344  0.6961 -4.3186 -0.8318
 3380SOL     OW21601   1.122   0.344   6.771  0.1513  0.1808  0.7184
 3380SOL    HW121602   1.046   0.385   6.813  0.3276  2.1496 -0.9213
 3380SOL    HW221603   1.158   0.304   6.851 -0.7747 -1.3269  0.3786
 3381SOL     OW21604   1.065   4.132   8.654 -0.0963  0.0254  0.5688
 3381SOL    HW121605   0.977   4.131   8.692 -0.5552 -2.6906 -0.5466
 3381SOL    HW221606   1.077   4.042   8.624  2.0941  0.1532  1.0577
 3382SOL     OW21607   2.495   2.935   3.858 -0.0700  0.3649 -0.3112
 3382SOL    HW121608   2.586   2.955   3.880 -0.3707  0.9461  0.3904
 3382SOL    HW221609   2.456   3.004   3.912 -0.8063  0.2498 -0.6855
 3383SOL     OW21610   3.429   3.300   8.168 -0.0621 -0.3942  0.3329
 3383SOL    HW121611   3.415   3.209   8.143 -1.5204  0.0357 -0.3924
 3383SOL    HW221612   3.427   3.349   8.086  0.8718 -0.7921  0.0741
 3384SOL     OW21613   2.654   3.154   8.373  0.1443  0.1984  0.3245
 3384SOL    HW121614   2.710   3.165   8.451  2.4452 -1.4838 -1.0897
 3384SOL    HW221615   2.621   3.065   8.379 -0.4237  0.5123  1.8309
 3385SOL     OW21616   2.610   1.016   7.301 -0.3272 -0.0463 -0.3115
 3385SOL    HW121617   2.668   0.947   7.269 -1.2138 -1.1388  0.4314
 3385SOL    HW221618   2.611   1.010   7.397 -0.3222 -0.8028 -0.3588
 3386SOL     OW21619   1.124   2.714   4.724 -0.4346 -0.1187 -0.8009
 3386SOL    HW121620   1.173   2.671   4.654  3.0864  1.5703  0.6560
 3386SOL    HW221621   1.151   2.669   4.804  0.9186  1.8075 -0.1760
 3387SOL     OW21622   3.367   4.631   5.612  0.8861  0.0341 -0.1334
 3387SOL    HW121623   3.445   4.673   5.577 -0.6466  0.5517 -2.9526
 3387SOL    HW221624   3.362   4.538   5.591  2.4291 -0.1277  0.2447
 3388SOL     OW21625   1.516   3.898  14.081  0.3912  0.0655  0.2561
 3388SOL    HW121626   1.496   3.847  14.160  0.3496 -0.2376  0.0529
 3388SOL    HW221627   1.493   3.986  14.109 -1.8144 -1.1939  2.4265
 3389SOL     OW21628   2.984   3.003   7.717 -0.0267  0.2788  0.1520
 3389SOL    HW121629   3.010   3.093   7.737  1.1133  0.5417 -2.5850
 3389SOL    HW221630   2.929   3.020   7.641  0.6360  1.7743  0.0026
 3390SOL     OW21631   3.146   4.583   1.996 -0.0574 -0.0314  0.2951
 3390SOL    HW121632   3.088   4.508   1.988 -2.0277  1.4699  0.3914
 3390SOL    HW221633   3.129   4.606   2.087  0.5768 -2.2844  0.9778
 3391SOL     OW21634   3.556   4.419  12.710  0.2695  0.3518 -0.0873
 3391SOL    HW121635   3.595   4.506  12.696 -2.1764  1.6175  0.9997
 3391SOL    HW221636   3.517   4.402  12.624 -3.2399 -3.1608  2.1725
 3392SOL     OW21637   4.638   3.337  12.397  0.4662 -1.1664  0.0826
 3392SOL    HW121638   4.691   3.336  12.317  1.2907 -0.9446  0.6246
 3392SOL    HW221639   4.714   3.346  12.456  0.5135 -2.1367  0.1728
 3393SOL     OW21640   1.118   0.287   5.186  0.1566 -0.4801  0.2393
 3393SOL    HW121641   1.069   0.253   5.261  0.3412  1.0526  1.0654
 3393SOL    HW221642   1.204   0.247   5.199 -0.0715 -0.9844  0.1664
 3394SOL     OW21643   4.247   4.366   7.082  0.3575  1.5353  0.8272
 3394SOL    HW121644   4.244   4.317   7.164  0.7314  0.0106 -0.0594
 3394SOL    HW221645   4.197   4.443   7.108 -1.2770  0.2584  1.4892
 3395SOL     OW21646   3.623   3.029   8.461  0.2521 -1.1687  0.2259
 3395SOL    HW121647   3.674   3.082   8.400 -0.2341 -2.2981 -1.1393
 3395SOL    HW221648   3.618   3.095   8.531  1.2622 -0.6009 -0.2403
 3396SOL     OW21649   0.730   2.338   6.965 -0.3790  0.3710  0.1276
 3396SOL    HW121650   0.728   2.413   6.906  2.8307 -1.1716 -1.9407
 3396SOL    HW221651   0.642   2.341   7.003  1.3139  2.4647  3.8600
 3397SOL     OW21652   2.236   3.945  16.503  0.0995 -0.3796  0.4868
 3397SOL    HW121653   2.227   4.001  16.425 -2.8466 -3.0246 -1.0887
 3397SOL    HW221654   2.259   4.016  16.563  1.1585  0.1911 -0.5792
 3398SOL     OW21655   1.182   0.726   7.601  0.4505  0.2972 -0.5500
 3398SOL    HW121656   1.142   0.789   7.542 -0.2009 -0.5686 -1.0321
 3398SOL    HW221657   1.247   0.674   7.554 -1.9576 -2.1778 -1.1377
 3399SOL     OW21658   3.421   0.571   4.185 -0.0018 -0.3198  0.4178
 3399SOL    HW121659   3.378   0.589   4.269 -2.9962 -1.6053 -0.8318
 3399SOL    HW221660   3.387   0.483   4.169  1.3740 -0.9108  0.7953
 3400SOL     OW21661   0.026   1.609   5.143 -0.6300  0.0735  0.1440
 3400SOL    HW121662   4.680   1.632   5.082  0.4823  2.7521 -0.1161
 3400SOL    HW221663   4.712   1.640   5.226 -1.4998 -1.9747  0.5060
 3401SOL     OW21664   0.758   2.718   8.232 -0.8882  0.4604  0.0428
 3401SOL    HW121665   0.696   2.654   8.197  0.6725  0.1457 -2.1841
 3401SOL    HW221666   0.741   2.794   8.177 -0.1606  0.1730 -0.5778
 3402SOL     OW21667   0.181   4.641   6.608 -0.3591  0.0274 -0.1777
 3402SOL    HW121668   0.115   4.635   6.539 -0.7673  0.0737  0.2124
 3402SOL    HW221669   0.144   4.596   6.683 -0.0338 -0.0113 -0.0424
 3403SOL     OW21670   2.531   4.415  14.405  1.2386  0.3375 -0.0105
 3403SOL    HW121671   2.462   4.480  14.392 -0.7233 -1.7440 -0.0348
 3403SOL    HW221672   2.506   4.386  14.493  0.3868  1.4490  0.1192
 3404SOL     OW21673   0.281   4.487   5.975  0.7385  0.5030 -0.1986
 3404SOL    HW121674   0.228   4.459   6.050  2.3622  0.2016  0.8253
 3404SOL    HW221675   0.313   4.574   6.000  1.8643  0.2709 -0.8338
 3405SOL     OW21676   4.317   1.921   2.964  0.6102  0.4692 -0.2704
 3405SOL    HW121677   4.286   1.963   2.884  1.0451 -1.9734 -1.7214
 3405SOL    HW221678   4.248   1.958   3.019  0.5867 -1.5928  1.0665
 3406SOL     OW21679   3.649   3.560   3.435  0.5779 -0.0556  0.3253
 3406SOL    HW121680   3.702   3.598   3.365  0.8384  1.1427  1.1792
 3406SOL    HW221681   3.692   3.474   3.431 -0.6201 -0.6438 -0.1220
 3407SOL     OW21682   1.136   1.243   6.135 -0.4590  0.3828  0.3421
 3407SOL    HW121683   1.121   1.180   6.206 -0.3775  0.0541  0.0652
 3407SOL    HW221684   1.200   1.293   6.185  0.7269 -0.2576 -0.5638
 3408SOL     OW21685   0.361   0.112   5.274  0.9303  0.3310  0.3591
 3408SOL    HW121686   0.269   0.087   5.272  0.2437  2.9422 -0.2724
 3408SOL    HW221687   0.399   0.066   5.199  0.7242 -0.7798  0.9398
 3409SOL     OW21688   1.908   0.418   7.063  0.9020  0.6187 -0.0166
 3409SOL    HW121689   1.982   0.361   7.044  2.3638  3.4302 -2.8158
 3409SOL    HW221690   1.852   0.400   6.988  0.3113  1.1310  0.2906
 3410SOL     OW21691   4.472   3.752   9.421 -0.2165 -0.2457 -0.1918
 3410SOL    HW121692   4.514   3.752   9.335 -2.3420 -1.9007 -1.2565
 3410SOL    HW221693   4.383   3.760   9.386  0.1708 -1.3531 -1.4759
 3411SOL     OW21694   0.954   4.656   8.256 -0.2715  0.0369 -0.2557
 3411SOL    HW121695   1.036   4.632   8.214 -1.2399  0.7613 -2.5593
 3411SOL    HW221696   0.911   4.711   8.191  1.2499  1.0411 -0.3863
 3412SOL     OW21697   3.357   0.941  13.675 -0.0636 -0.2159  0.0651
 3412SOL    HW121698   3.374   0.847  13.680 -0.0498 -0.1842  0.6179
 3412SOL    HW221699   3.410   0.976  13.747 -1.4303 -0.5214  1.2166
 3413SOL     OW21700   3.938   4.267   4.043 -0.0472  0.0090 -0.2312
 3413SOL    HW121701   4.020   4.251   4.090 -0.0777 -1.3954 -0.6659
 3413SOL    HW221702   3.883   4.303   4.112  1.7416  2.9967 -0.3811
 3414SOL     OW21703   4.040   0.216   7.795 -0.5768 -0.2957 -0.1535
 3414SOL    HW121704   3.980   0.289   7.811  2.0971  1.1657  3.0091
 3414SOL    HW221705   4.119   0.228   7.847 -0.7919  2.3809 -0.4812
 3415SOL     OW21706   2.720   3.235   7.835  0.1410 -0.5513  0.8601
 3415SOL    HW121707   2.811   3.244   7.805 -0.4870 -2.3185 -1.6064
 3415SOL    HW221708   2.739   3.173   7.905  0.9687  0.0478  1.1615
 3416SOL     OW21709   3.955   2.914   4.219  0.1907  0.1978  0.5299
 3416SOL    HW121710   4.042   2.947   4.196  2.3564 -3.6603  3.0269
 3416SOL    HW221711   3.902   2.958   4.152  0.2434  1.4025  1.2765
 3417SOL     OW21712   3.888   3.474   8.568  0.6946  0.3689  0.5869
 3417SOL    HW121713   3.861   3.465   8.659  2.8396 -0.1966  1.1685
 3417SOL    HW221714   3.805   3.483   8.521  0.8299 -1.0663  0.0937
 3418SOL     OW21715   3.447   4.390   4.475  0.3619 -0.0121  0.3788
 3418SOL    HW121716   3.526   4.421   4.519  0.0187 -1.1426  1.8141
 3418SOL    HW221717   3.475   4.307   4.436 -0.6787 -0.1240 -0.1168
 3419SOL     OW21718   4.062   0.044  10.942  0.6922  0.2732  0.3151
 3419SOL    HW121719   3.984   0.033  10.996 -0.0017 -0.4376 -0.8291
 3419SOL    HW221720   4.031   0.044  10.852  0.7015  1.1718  0.3137
 3420SOL     OW21721   1.136   1.803   7.164 -0.4654  0.0517 -0.0426
 3420SOL    HW121722   1.210   1.741   7.166  1.1469  1.9371 -1.3629
 3420SOL    HW221723   1.190   1.880   7.147  0.4728 -0.4981  0.4168
 3421SOL     OW21724   0.102   3.512   7.753  0.4060 -0.1187  0.1654
 3421SOL    HW121725   0.074   3.436   7.805  0.4430  0.1971  0.6487
 3421SOL    HW221726   0.059   3.581   7.803 -0.6193 -0.7816  0.2031
 3422SOL     OW21727   3.847   0.209   3.949  0.0488 -0.0991 -0.2300
 3422SOL    HW121728   3.811   0.195   3.861 -1.0812  1.7312 -0.0524
 3422SOL    HW221729   3.816   0.130   3.994  0.0249 -0.1277 -0.2966
 3423SOL     OW21730   2.009   0.127   8.487  0.3817 -0.2877 -0.0829
 3423SOL    HW121731   1.934   0.152   8.434  1.5079  3.1168 -0.0830
 3423SOL    HW221732   2.033   0.211   8.527 -1.6869  0.0038  0.5395
 3424SOL     OW21733   2.177   2.761   7.137 -0.0988 -0.0124  0.4137
 3424SOL    HW121734   2.143   2.832   7.191  3.5588  1.3687  0.8420
 3424SOL    HW221735   2.206   2.799   7.054  2.5571 -0.2610  1.2288
 3425SOL     OW21736   1.617   1.683   4.005 -0.3357 -0.4196 -0.1744
 3425SOL    HW121737   1.522   1.689   3.992 -0.3078 -1.5231 -0.8700
 3425SOL    HW221738   1.620   1.588   4.020  0.2311  0.2235  3.7656
 3426SOL     OW21739   0.252   3.062   5.144 -0.1407  0.2975  0.0062
 3426SOL    HW121740   0.188   3.042   5.212  1.0438 -0.7749  0.8116
 3426SOL    HW221741   0.256   2.976   5.103 -0.8144  0.3022 -0.0537
 3427SOL     OW21742   0.184   2.431   7.046 -0.2168 -0.2132 -0.8819
 3427SOL    HW121743   0.125   2.374   6.997  0.6802  0.5183 -2.8358
 3427SOL    HW221744   0.184   2.399   7.136 -0.2991 -0.5535 -1.0046
 3428SOL     OW21745   1.315   4.347   6.598  0.0470  0.0164 -0.1053
 3428SOL    HW121746   1.238   4.404   6.589 -0.4487 -0.3241  2.1122
 3428SOL    HW221747   1.367   4.408   6.650  0.3139 -1.2598  1.1229
 3429SOL     OW21748   4.471   4.669  15.394 -0.3983 -0.4333 -0.0101
 3429SOL    HW121749   4.559   4.644  15.421  0.7730  2.1466 -1.4536
 3429SOL    HW221750   4.488   0.000  15.317 -0.7978  0.3707  0.4741
 3430SOL     OW21751   4.247   4.660   5.987 -0.3370 -0.1750  0.2365
 3430SOL    HW121752   4.194   0.013   6.009  1.1866  0.6103  1.1848
 3430SOL    HW221753   4.246   4.678   5.893  0.9037  0.2433  0.2930
 3431SOL     OW21754   1.687   0.230   6.634  0.1215  0.0712 -0.1846
 3431SOL    HW121755   1.716   0.178   6.559 -1.4072 -0.1651 -0.5992
 3431SOL    HW221756   1.614   0.266   6.585 -0.6683 -0.2143  0.7891
 3432SOL     OW21757   2.581   1.690  15.300  0.5642  0.1470 -0.5076
 3432SOL    HW121758   2.638   1.715  15.373  0.5738 -0.8683 -0.1639
 3432SOL    HW221759   2.525   1.626  15.344  0.7949 -0.0750 -0.5288
 3433SOL     OW21760   0.998   3.834   1.332  0.5359 -0.5635 -0.8709
 3433SOL    HW121761   0.975   3.916   1.290 -0.5687 -0.0391  0.7507
 3433SOL    HW221762   1.041   3.784   1.263  2.0669 -1.1502  0.5109
 3434SOL     OW21763   0.099   2.803   8.455  0.1700 -0.2394 -0.2085
 3434SOL    HW121764   0.186   2.839   8.435  0.1095  0.7311  1.2448
 3434SOL    HW221765   0.128   2.727   8.507 -0.6879  0.5047  1.3502
 3435SOL     OW21766   3.455   2.546   8.882  0.0107 -0.1308 -0.1195
 3435SOL    HW121767   3.368   2.519   8.850  0.6835  1.1160 -3.0014
 3435SOL    HW221768   3.443   2.529   8.975 -0.4875  1.5819  0.1196
 3436SOL     OW21769   2.144   3.845  10.760 -0.0168 -0.3384 -0.2497
 3436SOL    HW121770   2.190   3.916  10.715 -0.3229  0.8163  1.2286
 3436SOL    HW221771   2.076   3.819  10.698  1.6802  0.4984 -2.4467
 3437SOL     OW21772   0.551   4.273  11.931 -0.4279  0.1998 -0.0901
 3437SOL    HW121773   0.539   4.358  11.974  1.6781  0.4159  0.0915
 3437SOL    HW221774   0.502   4.227  11.999 -0.2676 -1.4693 -1.1153
 3438SOL     OW21775   0.864   0.854   7.295  0.1134 -0.0578 -0.0190
 3438SOL    HW121776   0.903   0.768   7.310 -0.4862 -0.0845  1.3394
 3438SOL    HW221777   0.911   0.910   7.356 -1.7423  0.9478  0.4913
 3439SOL     OW21778   0.135   4.069   5.039  0.0882  0.2210  0.6360
 3439SOL    HW121779   0.185   4.039   4.963 -0.4301  1.3187 -0.1328
 3439SOL    HW221780   0.208   4.078   5.100  2.1604 -1.8586 -1.5502
 3440SOL     OW21781   3.783   0.649   2.165 -0.1153 -0.4409  0.1018
 3440SOL    HW121782   3.820   0.629   2.251  0.3752 -2.8285 -0.6545
 3440SOL    HW221783   3.839   0.726   2.152  2.5821 -2.3107  0.5992
 3441SOL     OW21784   3.911   1.721   5.400  0.0656  0.2616  0.1738
 3441SOL    HW121785   3.820   1.727   5.429 -1.0973 -3.8785 -2.5741
 3441SOL    HW221786   3.950   1.700   5.485  1.0876 -0.5505 -0.4932
 3442SOL     OW21787   0.890   4.350  12.099 -0.1902 -0.2524 -0.2881
 3442SOL    HW121788   0.913   4.266  12.139  0.0963  0.6906  1.4867
 3442SOL    HW221789   0.958   4.349  12.032  0.4699 -0.5487  0.3907
 3443SOL     OW21790   2.913   4.200   0.094 -0.6089 -0.5406 -0.3173
 3443SOL    HW121791   2.849   4.150   0.145 -0.2220  0.3508  1.0517
 3443SOL    HW221792   2.978   4.212   0.164 -1.3916  1.5265  0.0499
 3444SOL     OW21793   2.337   3.279   9.077  0.3627  0.1149 -0.3293
 3444SOL    HW121794   2.433   3.282   9.071  0.4333  0.2317  0.8311
 3444SOL    HW221795   2.324   3.186   9.091  1.1390  0.2153  1.1512
 3445SOL     OW21796   3.186   2.104  17.232 -0.7188  0.2390  0.2074
 3445SOL    HW121797   3.139   2.063  17.159  1.3192  2.8071 -2.5280
 3445SOL    HW221798   3.273   2.124  17.198  0.4969  0.2687  3.3407
 3446SOL     OW21799   2.874   4.689   7.170  0.4325 -0.0102 -0.1099
 3446SOL    HW121800   2.841   0.052   7.191 -0.7266 -0.4092 -0.3251
 3446SOL    HW221801   2.945   4.693   7.106  0.1020  1.9954 -0.3269
 3447SOL     OW21802   3.432   0.287   3.090  0.3996  0.1799  0.3791
 3447SOL    HW121803   3.523   0.306   3.113  0.4221 -1.5115  1.6428
 3447SOL    HW221804   3.389   0.248   3.166  1.2980  0.1027  0.8509
 3448SOL     OW21805   3.354   1.759   5.936 -0.3703 -0.3795 -0.9859
 3448SOL    HW121806   3.373   1.852   5.953  0.5861 -0.9204  0.9545
 3448SOL    HW221807   3.260   1.760   5.953 -0.4907  0.6880 -1.7029
 3449SOL     OW21808   1.496   3.584   3.652  0.6063  0.0638 -0.1538
 3449SOL    HW121809   1.516   3.526   3.578  2.7925  0.8625 -0.2008
 3449SOL    HW221810   1.415   3.537   3.672  0.0002  2.2468  2.4398
 3450SOL     OW21811   0.113   0.855  15.451 -0.2019  0.0788  0.3187
 3450SOL    HW121812   0.180   0.808  15.499  1.4572 -2.2465 -4.2328
 3450SOL    HW221813   0.113   0.930  15.511  0.4193  3.2031 -3.5350
 3451SOL     OW21814   2.052   4.219   6.294  0.3655 -0.0184 -0.2676
 3451SOL    HW121815   2.119   4.192   6.233 -0.1881 -0.7024 -0.5740
 3451SOL    HW221816   1.975   4.198   6.240  0.7933  1.1028 -1.3039
 3452SOL     OW21817   4.328   4.230   2.210  0.0021  0.3266  0.0288
 3452SOL    HW121818   4.382   4.300   2.247 -1.2427  0.2066  2.0413
 3452SOL    HW221819   4.374   4.222   2.126 -1.0273 -1.4350 -0.3560
 3453SOL     OW21820   2.831   0.023  14.327 -0.0987 -0.3144  0.2182
 3453SOL    HW121821   2.806   4.668  14.279 -0.8298  0.3094 -0.4348
 3453SOL    HW221822   2.856   4.707  14.411 -0.7390 -2.7498 -0.7475
 3454SOL     OW21823   4.011   0.052  11.309  0.1375  0.6165 -0.5537
 3454SOL    HW121824   3.956   0.004  11.371  0.8273  1.6686  0.9037
 3454SOL    HW221825   3.957   0.054  11.230  0.5029 -0.0320 -0.8180
 3455SOL     OW21826   4.096   0.454  14.211  0.1467 -0.1282  0.0683
 3455SOL    HW121827   4.048   0.405  14.145  0.5432  1.3363 -1.3061
 3455SOL    HW221828   4.038   0.530  14.219 -0.0873 -0.0925 -1.8788
 3456SOL     OW21829   1.922   3.805   7.862  0.2386 -0.1444 -0.9391
 3456SOL    HW121830   1.887   3.737   7.918  4.3595 -1.5683 -0.0896
 3456SOL    HW221831   1.866   3.883   7.862  0.3843 -0.0319  1.2421
 3457SOL     OW21832   0.844   3.279  13.632 -0.2514 -0.5957 -0.6304
 3457SOL    HW121833   0.774   3.221  13.600 -2.4726  1.6585  0.1153
 3457SOL    HW221834   0.913   3.213  13.630  1.5547  1.2834 -0.6996
 3458SOL     OW21835   2.579   1.401   3.438  1.1022  0.0405  0.4189
 3458SOL    HW121836   2.614   1.450   3.512 -0.0013 -1.8959  2.1860
 3458SOL    HW221837   2.592   1.460   3.363  2.7804  0.7070  1.2190
 3459SOL     OW21838   2.660   4.076  14.579  0.0563  0.3405 -0.2615
 3459SOL    HW121839   2.719   4.109  14.646  1.2160 -0.0033 -1.1218
 3459SOL    HW221840   2.693   4.122  14.502 -0.8498  2.5448  0.6761
 3460SOL     OW21841   3.839   3.733   9.127  0.1428  0.4991  0.9764
 3460SOL    HW121842   3.808   3.645   9.105 -0.0266  0.5314  1.0815
 3460SOL    HW221843   3.929   3.719   9.156 -0.5051 -2.7533  1.5023
 3461SOL     OW21844   1.683   3.322   0.292  0.1260 -0.1758  0.0972
 3461SOL    HW121845   1.661   3.414   0.302 -0.4496 -0.4196  1.0350
 3461SOL    HW221846   1.676   3.309   0.198 -0.3684 -0.5052  0.1825
 3462SOL     OW21847   2.657   0.779   0.354  0.4885 -0.2314  0.1205
 3462SOL    HW121848   2.750   0.785   0.335  0.5146  2.1257  0.9736
 3462SOL    HW221849   2.661   0.840   0.428 -0.7839 -0.5320  0.4398
 3463SOL     OW21850   3.776   3.025   3.585 -0.6412 -0.4870 -0.4332
 3463SOL    HW121851   3.738   3.032   3.673  0.9120  1.5823  0.0713
 3463SOL    HW221852   3.741   3.108   3.551  1.0843  0.5294  0.3142
 3464SOL     OW21853   1.040   1.733   3.579 -0.3138  0.2382  0.1012
 3464SOL    HW121854   0.953   1.749   3.543 -0.7661 -1.2874  0.5143
 3464SOL    HW221855   1.089   1.782   3.513  0.0475 -1.9965 -1.2777
 3465SOL     OW21856   3.647   0.126   1.603 -0.1947  0.0103 -0.2084
 3465SOL    HW121857   3.590   0.117   1.679 -0.4871  0.3511 -0.3887
 3465SOL    HW221858   3.727   0.087   1.639 -1.4353  1.0254  3.6460
 3466SOL     OW21859   3.421   2.870   3.891  0.0472 -0.0936 -0.3606
 3466SOL    HW121860   3.516   2.878   3.882 -0.0112 -1.8699 -2.5273
 3466SOL    HW221861   3.420   2.830   3.978  1.0948  1.4589  0.3686
 3467SOL     OW21862   3.539   3.238   7.033 -0.5113  0.5407 -0.1229
 3467SOL    HW121863   3.446   3.215   7.045 -0.0031 -0.4875  1.9601
 3467SOL    HW221864   3.577   3.150   7.024 -1.8725  0.0030 -0.7369
 3468SOL     OW21865   3.425   4.358   6.389  0.2215 -0.3574 -0.7986
 3468SOL    HW121866   3.339   4.380   6.353 -0.0982  2.5003  1.6519
 3468SOL    HW221867   3.431   4.400   6.475  1.1656 -1.2813 -0.4118
 3469SOL     OW21868   1.820   2.935   1.542 -0.4535  0.2787 -0.3030
 3469SOL    HW121869   1.810   2.989   1.620 -1.2673  0.8044 -0.7759
 3469SOL    HW221870   1.915   2.931   1.553 -0.3925  0.4050 -0.8122
 3470SOL     OW21871   2.442   0.129   8.114  0.4008 -0.0993  0.6736
 3470SOL    HW121872   2.462   0.197   8.050 -0.5640 -1.1365 -0.7366
 3470SOL    HW221873   2.509   0.158   8.175  1.6091 -1.6819  0.1199
 3471SOL     OW21874   4.687   1.979   3.757  0.0781  0.2074 -0.4250
 3471SOL    HW121875   4.624   1.989   3.828 -0.7787  0.2637 -1.1835
 3471SOL    HW221876   4.636   2.012   3.683  1.2312  0.5831 -1.0516
 3472SOL     OW21877   1.830   0.444   3.199 -0.1017 -0.1202  0.2889
 3472SOL    HW121878   1.924   0.441   3.215  0.0108  1.3594 -0.1330
 3472SOL    HW221879   1.816   0.534   3.172  0.2484 -1.1253 -3.3697
 3473SOL     OW21880   0.081   1.533   8.903 -0.6303  0.5590  0.0139
 3473SOL    HW121881   0.144   1.497   8.965  0.1594 -0.3919 -1.3144
 3473SOL    HW221882   0.147   1.596   8.874 -0.4079  1.4255  2.4274
 3474SOL     OW21883   4.522   3.497   4.200 -0.1508  0.4511 -0.1388
 3474SOL    HW121884   4.529   3.402   4.203  1.1072  0.5405 -0.3975
 3474SOL    HW221885   4.585   3.523   4.267 -1.9894  1.1906  1.3076
 3475SOL     OW21886   2.421   2.085   1.599  0.3075 -0.4389  0.2510
 3475SOL    HW121887   2.332   2.080   1.633  0.0189 -0.5043 -0.5205
 3475SOL    HW221888   2.423   2.023   1.526  0.3674 -0.3297  0.1591
 3476SOL     OW21889   2.251   1.820   3.769  0.2371  0.0698 -0.1713
 3476SOL    HW121890   2.253   1.849   3.860  5.0530 -1.4476  0.2063
 3476SOL    HW221891   2.339   1.838   3.738  0.8650  1.3866  2.4268
 3477SOL     OW21892   3.996   4.679   8.565  0.5010 -0.1996 -0.2326
 3477SOL    HW121893   3.980   4.648   8.476  0.9107  2.8222 -1.3667
 3477SOL    HW221894   4.090   4.685   8.579  0.4995  0.3223 -0.4479
 3478SOL     OW21895   4.582   2.811   2.884  0.3471 -0.2191 -0.2977
 3478SOL    HW121896   4.538   2.867   2.947  2.9098 -0.1119  1.4033
 3478SOL    HW221897   4.632   2.747   2.935  2.4963  1.3999 -0.3618
 3479SOL     OW21898   3.271   0.984   6.304 -0.1299  0.4360  0.4277
 3479SOL    HW121899   3.259   0.986   6.209 -0.3738 -0.0192  0.4476
 3479SOL    HW221900   3.218   0.906   6.322 -0.5349  0.7136  0.4412
 3480SOL     OW21901   1.904   2.891  11.040  1.0419 -0.1895  0.6642
 3480SOL    HW121902   1.834   2.918  10.980  0.4383 -1.3969  0.8176
 3480SOL    HW221903   1.921   2.974  11.084  0.3374 -0.1249  0.8251
 3481SOL     OW21904   0.685   3.438  12.710 -0.3461  0.5124  0.2845
 3481SOL    HW121905   0.732   3.364  12.671  1.1888  3.3086 -3.2189
 3481SOL    HW221906   0.614   3.446  12.646 -0.8888  1.4284  1.0064
 3482SOL     OW21907   2.304   0.466   8.135 -0.0751 -0.4357  0.4870
 3482SOL    HW121908   2.339   0.426   8.056 -1.8809  1.5007 -1.2739
 3482SOL    HW221909   2.384   0.473   8.188 -0.5644 -0.4549  1.2360
 3483SOL     OW21910   1.033   0.998   5.742  0.0037 -0.2886 -0.7677
 3483SOL    HW121911   0.954   0.945   5.731 -1.3546  1.2829  1.5468
 3483SOL    HW221912   1.094   0.938   5.783  0.0780 -0.4535 -1.1209
 3484SOL     OW21913   2.934   1.961   8.825  0.2602 -0.0659 -0.1927
 3484SOL    HW121914   2.941   1.887   8.764 -0.2181 -0.3568  0.1080
 3484SOL    HW221915   2.925   2.041   8.772  0.8222  1.0786  1.4308
 3485SOL     OW21916   3.534   0.522   5.762  0.1095  0.5732  0.4851
 3485SOL    HW121917   3.439   0.512   5.770  0.4153 -2.4108  0.4988
 3485SOL    HW221918   3.543   0.609   5.801  0.2175  1.5072 -1.6370
 3486SOL     OW21919   2.478   2.577   3.379 -0.0181  0.1253 -0.8872
 3486SOL    HW121920   2.522   2.556   3.296  0.0966 -0.2530 -0.7333
 3486SOL    HW221921   2.506   2.664   3.407 -0.0095  0.1451 -0.9581
 3487SOL     OW21922   3.688   2.050   5.545 -0.7321  0.2218 -0.3096
 3487SOL    HW121923   3.618   2.002   5.589  0.2337 -1.2927 -0.4343
 3487SOL    HW221924   3.760   2.061   5.607 -0.3743  0.7313 -0.8178
 3488SOL     OW21925   1.864   1.648   5.620 -0.8690  0.0877  0.3015
 3488SOL    HW121926   1.900   1.662   5.532 -0.2304 -1.0356  0.3870
 3488SOL    HW221927   1.929   1.679   5.683 -1.4125  0.6854  0.5702
 3489SOL     OW21928   2.456   1.305   2.501  0.3440  0.7137 -0.0679
 3489SOL    HW121929   2.430   1.225   2.455 -2.9155  2.8091 -1.8028
 3489SOL    HW221930   2.411   1.300   2.586  1.5934  0.6424  0.6022
 3490SOL     OW21931   0.388   1.376  14.344  0.2440 -0.2177 -0.0364
 3490SOL    HW121932   0.438   1.329  14.411  1.8730 -0.9238 -1.7417
 3490SOL    HW221933   0.369   1.298  14.292 -1.5060 -0.5480  1.1160
 3491SOL     OW21934   0.821   3.398   4.606 -0.6683  0.5019  0.9234
 3491SOL    HW121935   0.881   3.334   4.645  1.5114  1.4436 -0.8988
 3491SOL    HW221936   0.779   3.336   4.546 -0.0224 -0.7886  1.8054
 3492SOL     OW21937   3.435   4.028   7.290  0.2075 -0.3643 -1.1092
 3492SOL    HW121938   3.367   4.011   7.225  0.5918 -2.4626 -0.9617
 3492SOL    HW221939   3.466   3.939   7.309  0.9025  0.1502  0.1872
 3493SOL     OW21940   1.451   3.827   1.862  0.3628 -0.0236 -0.2114
 3493SOL    HW121941   1.419   3.803   1.950  2.7250 -0.4750  0.5252
 3493SOL    HW221942   1.512   3.757   1.839  0.4523 -0.3887  1.0878
 3494SOL     OW21943   3.352   3.368   9.234 -0.3331  0.4294 -0.9018
 3494SOL    HW121944   3.286   3.436   9.246  0.5111  0.4691  3.4985
 3494SOL    HW221945   3.352   3.327   9.320 -0.8638 -0.7017 -1.4498
 3495SOL     OW21946   4.607   2.791  17.337  0.0425 -0.4273 -0.0159
 3495SOL    HW121947   4.623   2.747  17.421  0.1856 -2.0645 -0.9123
 3495SOL    HW221948   4.671   2.737  17.291  1.1480  0.4651  0.4586
 3496SOL     OW21949   1.821   0.416   0.078 -0.0308  0.2581  0.1947
 3496SOL    HW121950   1.853   0.348   0.137  2.0593  0.1772 -1.0195
 3496SOL    HW221951   1.904   0.462   0.062  0.3721 -0.4716  0.1559
 3497SOL     OW21952   2.473   0.364   9.251 -0.3448  0.4312 -0.0635
 3497SOL    HW121953   2.382   0.366   9.282 -0.3311  1.9801 -0.1256
 3497SOL    HW221954   2.448   0.308   9.177  0.2431  0.7800 -0.5288
 3498SOL     OW21955   1.207   4.503   9.631  0.3322  0.2806  0.1934
 3498SOL    HW121956   1.118   4.492   9.597  0.9022 -0.5759 -1.0435
 3498SOL    HW221957   1.190   4.551   9.712  1.3410 -0.6033  0.9246
 3499SOL     OW21958   3.725   0.618   5.490  0.7894 -0.5365  0.5634
 3499SOL    HW121959   3.737   0.658   5.576 -0.8203 -1.2348  1.1133
 3499SOL    HW221960   3.772   0.668   5.424  1.0296  0.6387  1.6298
 3500SOL     OW21961   2.150   2.043   1.701 -0.4293 -0.3003  0.5669
 3500SOL    HW121962   2.113   2.092   1.774 -0.7039  0.5104 -0.1190
 3500SOL    HW221963   2.107   2.082   1.625  0.7710  0.5223  0.2989
 3501SOL     OW21964   0.130   2.788  11.782  0.4037  0.1326 -0.0936
 3501SOL    HW121965   0.183   2.765  11.859  0.1366  1.2414  0.4171
 3501SOL    HW221966   0.054   2.829  11.823  0.7996 -0.0624  0.8464
 3502SOL     OW21967   2.796   1.721   0.508  0.4261 -0.2446  0.3138
 3502SOL    HW121968   2.827   1.812   0.502 -0.5635  0.0432 -0.4161
 3502SOL    HW221969   2.817   1.702   0.599  1.0649 -1.8578 -0.1648
 3503SOL     OW21970   0.952   3.103   3.831 -0.5563 -0.2181 -0.7602
 3503SOL    HW121971   1.007   3.043   3.883  0.0526  1.9348  1.0691
 3503SOL    HW221972   0.890   3.037   3.801  0.6641 -1.3912 -0.7418
 3504SOL     OW21973   1.257   3.494   2.714  0.3083  0.3146 -0.1058
 3504SOL    HW121974   1.204   3.525   2.787 -0.4412 -2.1907  0.4201
 3504SOL    HW221975   1.258   3.578   2.668 -0.8553 -0.1002 -0.8934
 3505SOL     OW21976   2.893   3.452   4.405  0.5705  0.1678  0.0975
 3505SOL    HW121977   2.859   3.535   4.437  0.7160  0.6482 -1.0165
 3505SOL    HW221978   2.824   3.390   4.429  0.5199 -0.8759 -2.8076
 3506SOL     OW21979   3.806   3.001   7.762  0.3865 -0.8750  0.2849
 3506SOL    HW121980   3.825   2.936   7.695  1.3591 -0.4522  0.1451
 3506SOL    HW221981   3.832   3.079   7.713  1.3724 -1.5431 -0.2573
 3507SOL     OW21982   3.863   4.237   0.403  0.2736 -0.6668  0.1054
 3507SOL    HW121983   3.789   4.180   0.381 -0.9934  0.8623  0.3932
 3507SOL    HW221984   3.852   4.250   0.497  0.8585 -1.3988  0.2813
 3508SOL     OW21985   3.726   2.461  10.908 -0.4433 -0.4086  0.0651
 3508SOL    HW121986   3.632   2.449  10.901 -0.3513 -0.2625 -1.5508
 3508SOL    HW221987   3.746   2.512  10.829 -1.0112 -1.3655 -0.7005
 3509SOL     OW21988   2.565   0.420   3.840 -0.2171 -0.0550 -0.0810
 3509SOL    HW121989   2.658   0.396   3.838 -0.3220 -0.3551 -1.1990
 3509SOL    HW221990   2.541   0.426   3.933  0.8188  2.9078  0.0020
 3510SOL     OW21991   2.627   1.733   4.063 -0.5593  0.5302 -0.1569
 3510SOL    HW121992   2.596   1.648   4.096 -2.7003  1.0925 -0.7165
 3510SOL    HW221993   2.571   1.797   4.107 -0.0954  1.4189 -0.8658
 3511SOL     OW21994   1.941   4.368   7.034  0.0133 -0.6223  0.0163
 3511SOL    HW121995   1.963   4.444   6.980  2.4956 -2.6780 -1.8655
 3511SOL    HW221996   1.889   4.407   7.105 -0.8646  1.4348 -1.7503
 3512SOL     OW21997   3.269   1.299  11.465  0.2849 -0.3275  0.1841
 3512SOL    HW121998   3.307   1.386  11.452 -1.3057  0.2876 -0.2674
 3512SOL    HW221999   3.252   1.287  11.559 -0.1597  0.9271  0.2565
 3513SOL     OW22000   1.232   2.165   6.983 -0.0342 -0.4981 -0.1182
 3513SOL    HW122001   1.247   2.230   7.051 -0.2053  0.6916 -1.2180
 3513SOL    HW222002   1.141   2.149   7.007 -1.0019  2.5665 -1.7471
 3514SOL     OW22003   1.865   2.298   3.822  0.0638 -0.3035  0.2003
 3514SOL    HW122004   1.878   2.390   3.802  2.4354 -0.2260  2.0662
 3514SOL    HW222005   1.955   2.269   3.811 -0.3288 -1.5808  0.3487
 3515SOL     OW22006   1.145   1.068   7.036  0.4570 -0.0191 -0.6769
 3515SOL    HW122007   1.078   1.056   6.969  1.6237  2.1438 -2.2585
 3515SOL    HW222008   1.141   1.159   7.063 -0.1221 -0.6302  1.3171
 3516SOL     OW22009   0.975   0.479   9.475 -0.2312 -0.1174  0.0294
 3516SOL    HW122010   1.000   0.521   9.393  1.2716 -1.3000 -0.1209
 3516SOL    HW222011   0.982   0.387   9.448  1.6452  0.6282 -2.0165
 3517SOL     OW22012   4.525   3.899  12.598 -0.6002 -0.1299 -0.1625
 3517SOL    HW122013   4.516   3.867  12.508  0.0894  1.8516 -0.9545
 3517SOL    HW222014   4.485   3.984  12.579 -0.0055 -0.1133 -1.4096
 3518SOL     OW22015   1.129   0.895   7.988  0.6454 -0.0875 -0.4642
 3518SOL    HW122016   1.039   0.923   7.977 -0.3214 -3.0449 -0.1784
 3518SOL    HW222017   1.173   0.975   7.960  2.6770 -0.8832  0.3775
 3519SOL     OW22018   4.362   0.249   2.025  0.6697  0.2776 -0.0373
 3519SOL    HW122019   4.418   0.281   1.954 -0.2153  2.6715  0.3173
 3519SOL    HW222020   4.381   0.308   2.098 -0.5652  0.8442 -0.1676
 3520SOL     OW22021   2.422   3.546   5.911  0.4335 -0.4830 -0.2834
 3520SOL    HW122022   2.492   3.505   5.962  0.6027 -0.5077 -0.5344
 3520SOL    HW222023   2.468   3.624   5.881  0.5355 -0.7213 -0.7475
 3521SOL     OW22024   0.286   4.460  15.058  0.0639 -0.1484 -0.5680
 3521SOL    HW122025   0.321   4.371  15.061 -0.9117 -0.5525 -1.3503
 3521SOL    HW222026   0.306   4.481  14.967  2.8950  1.4612  0.4197
 3522SOL     OW22027   4.459   3.532  17.683  0.0507 -0.0048 -0.1661
 3522SOL    HW122028   4.493   3.497   0.068 -3.1863  1.6055  1.8474
 3522SOL    HW222029   4.535   3.528  17.624 -0.2099 -0.6104 -0.4588
 3523SOL     OW22030   2.403   2.718   2.098 -0.2103  0.5212 -0.1888
 3523SOL    HW122031   2.317   2.681   2.116  0.1985  0.5449  1.8390
 3523SOL    HW222032   2.468   2.652   2.074 -1.4439 -0.1165 -1.7554
 3524SOL     OW22033   4.148   3.337   9.193 -0.4331  0.4940 -0.6264
 3524SOL    HW122034   4.235   3.343   9.231 -0.3668 -0.8468 -0.5604
 3524SOL    HW222035   4.167   3.329   9.099 -1.3023  0.9926 -0.8460
 3525SOL     OW22036   0.162   1.952   6.168 -1.0185  0.3411 -0.5451
 3525SOL    HW122037   0.144   1.973   6.259 -2.4540 -2.0821 -0.2773
 3525SOL    HW222038   0.162   2.033   6.117 -0.6219  0.2417 -0.7059
 3526SOL     OW22039   1.983   1.863   9.607  0.1204 -0.9352  0.4548
 3526SOL    HW122040   2.045   1.936   9.615  0.7464 -1.4649  0.4540
 3526SOL    HW222041   2.007   1.828   9.522  0.1834 -2.6396  1.1854
 3527SOL     OW22042   2.538   4.263   2.244 -0.3299  0.2787  0.5624
 3527SOL    HW122043   2.480   4.326   2.201  0.1817 -0.6971 -1.5573
 3527SOL    HW222044   2.605   4.251   2.177 -2.6553 -0.7447 -1.5823
 3528SOL     OW22045   2.968   4.632   9.242  0.1640 -0.2852 -0.0159
 3528SOL    HW122046   2.903   4.595   9.183 -2.4536  1.7028  1.6342
 3528SOL    HW222047   3.031   4.671   9.181  0.7226 -1.4582 -0.1942
 3529SOL     OW22048   0.339   1.117  13.742 -0.8485 -0.1548 -0.2144
 3529SOL    HW122049   0.327   1.194  13.686  2.0908  0.8492  0.5308
 3529SOL    HW222050   0.431   1.099  13.761 -0.8783 -0.4601 -0.3698
 3530SOL     OW22051   1.579   1.119   6.283  0.2997 -0.0795  0.0221
 3530SOL    HW122052   1.645   1.155   6.342 -0.5445  0.3433  0.7117
 3530SOL    HW222053   1.545   1.044   6.333 -0.8242  0.6059  0.2811
 3531SOL     OW22054   0.183   4.704   3.866 -0.3387 -0.5731 -0.0308
 3531SOL    HW122055   0.247   4.701   3.795 -1.0151 -0.6456 -0.6368
 3531SOL    HW222056   0.143   4.618   3.858 -0.7839 -0.2578 -1.2056
 3532SOL     OW22057   3.838   1.062   9.756 -0.1638 -0.1836  0.4146
 3532SOL    HW122058   3.903   1.000   9.723  1.2701  1.5602 -0.0737
 3532SOL    HW222059   3.900   1.091   9.823  0.4884  0.6345 -0.5330
 3533SOL     OW22060   3.443   4.443   3.152 -0.8027  0.4930  0.1611
 3533SOL    HW122061   3.483   4.473   3.071  1.8013  0.2488  1.3580
 3533SOL    HW222062   3.513   4.404   3.204 -1.2963 -0.2965  0.2305
 3534SOL     OW22063   0.447   0.909  10.547  0.0881 -0.4953  0.4069
 3534SOL    HW122064   0.538   0.937  10.558 -0.2037  1.1359 -1.3081
 3534SOL    HW222065   0.438   0.893  10.454  0.6522 -1.0568  0.4532
 3535SOL     OW22066   4.622   3.763  10.453  0.0008 -0.9095  0.6417
 3535SOL    HW122067   4.673   3.733  10.529  1.1981 -2.4937 -0.7736
 3535SOL    HW222068   4.544   3.707  10.452 -0.0262 -0.9036  1.8590
 3536SOL     OW22069   2.841   1.282   0.275 -0.5838  0.2027  0.3385
 3536SOL    HW122070   2.773   1.312   0.215  0.1139  0.7001 -0.2128
 3536SOL    HW222071   2.893   1.363   0.276 -1.0849  0.5985 -4.9002
 3537SOL     OW22072   4.665   2.253   3.224  0.4344 -0.3006  0.3680
 3537SOL    HW122073   4.596   2.227   3.164  1.8316  2.1410 -2.2804
 3537SOL    HW222074   4.612   2.322   3.263 -1.5317  0.4845 -3.8008
 3538SOL     OW22075   3.957   2.299   3.722 -0.4096 -0.4748  0.0283
 3538SOL    HW122076   4.012   2.373   3.695 -0.7423 -0.2825 -0.1175
 3538SOL    HW222077   3.928   2.257   3.641 -1.0299 -0.3855  0.2094
 3539SOL     OW22078   4.471   2.269   5.137  0.3812  0.1922 -0.0675
 3539SOL    HW122079   4.442   2.193   5.088 -0.5891  1.7237 -1.8829
 3539SOL    HW222080   4.509   2.230   5.216 -1.5080 -0.6673  0.4182
 3540SOL     OW22081   3.601   1.348  13.557  0.1104  0.3923  0.3613
 3540SOL    HW122082   3.627   1.323  13.646  2.1592  2.1427  0.2385
 3540SOL    HW222083   3.663   1.410  13.520 -2.7716  2.7588 -0.5153
 3541SOL     OW22084   3.637   3.861   3.957  0.0332  0.1738 -0.2458
 3541SOL    HW122085   3.658   3.825   3.871  0.2761 -1.5465  0.5502
 3541SOL    HW222086   3.702   3.932   3.948  0.1550 -0.0070 -0.7993
 3542SOL     OW22087   0.961   2.555  12.900 -0.2710 -0.0884  0.1474
 3542SOL    HW122088   1.000   2.470  12.881 -2.0522 -1.0912  0.9301
 3542SOL    HW222089   0.885   2.538  12.957  0.6577  0.3270  1.5034
 3543SOL     OW22090   2.158   1.290   5.137  0.4067 -0.7558  0.0016
 3543SOL    HW122091   2.129   1.363   5.192  1.5873 -1.5691  1.6822
 3543SOL    HW222092   2.174   1.224   5.204  1.6696  0.1815  0.6187
 3544SOL     OW22093   3.191   2.231   2.448  0.5822 -0.0400  0.1337
 3544SOL    HW122094   3.215   2.310   2.399 -0.0725  0.6677  0.9412
 3544SOL    HW222095   3.264   2.172   2.431  0.4965  0.4002 -1.8306
 3545SOL     OW22096   0.685   2.742   5.260 -0.0033 -0.0313  0.2999
 3545SOL    HW122097   0.696   2.660   5.212 -3.0587  0.0054 -0.4617
 3545SOL    HW222098   0.590   2.751   5.267 -0.1496 -1.4203  0.0051
 3546SOL     OW22099   0.961   4.503   2.765  0.3489 -0.3787 -0.0457
 3546SOL    HW122100   1.009   4.433   2.720  0.6108 -0.9598  1.1564
 3546SOL    HW222101   0.969   4.570   2.696 -1.5856  0.8386  0.9090
 3547SOL     OW22102   2.911   1.707  12.981  0.3821  0.0619 -0.2590
 3547SOL    HW122103   2.817   1.724  12.973  0.0877 -0.4077  2.3056
 3547SOL    HW222104   2.932   1.800  12.995 -0.2274  0.1126  0.3175
 3548SOL     OW22105   4.201   3.945   6.570  0.1491  0.1593 -0.2188
 3548SOL    HW122106   4.118   3.963   6.526 -0.8861  0.5476  1.8609
 3548SOL    HW222107   4.173   3.883   6.637 -1.7703  0.0015 -1.1696
 3549SOL     OW22108   0.760   4.023  12.065  0.7074  0.3619  0.0929
 3549SOL    HW122109   0.738   3.938  12.101 -2.0479  1.8795  1.9340
 3549SOL    HW222110   0.832   4.044  12.124  0.6741  0.6108  0.0442
 3550SOL     OW22111   2.333   2.762   6.482 -0.2102 -0.6402 -0.2992
 3550SOL    HW122112   2.415   2.751   6.531  0.1575  0.3386 -0.7024
 3550SOL    HW222113   2.272   2.711   6.535 -2.1513  2.5492  0.4857
 3551SOL     OW22114   3.874   0.007   1.767 -0.2920  0.1097  0.4604
 3551SOL    HW122115   3.835   4.648   1.795  1.0302 -0.0834  1.6768
 3551SOL    HW222116   3.963   4.716   1.799  0.0426 -2.4492 -1.6701
 3552SOL     OW22117   3.361   0.154   7.030  0.0226 -0.4477 -0.0315
 3552SOL    HW122118   3.370   0.060   7.017  0.5078 -0.3688 -0.2534
 3552SOL    HW222119   3.411   0.181   6.953  0.3303 -2.7177 -0.6177
 3553SOL     OW22120   0.026   4.074  12.700  0.2526 -0.6446  0.7241
 3553SOL    HW122121   4.708   4.110  12.778 -1.6497  0.6529 -0.9102
 3553SOL    HW222122   0.026   4.152  12.646 -1.4905 -0.5360  0.8914
 3554SOL     OW22123   4.186   4.047   8.280 -0.1856 -0.0145 -0.0917
 3554SOL    HW122124   4.150   4.126   8.321 -0.9105  0.1472 -1.0260
 3554SOL    HW222125   4.214   4.082   8.195 -0.1966 -1.4490 -0.6937
 3555SOL     OW22126   0.436   2.540   9.843 -0.0325  0.2998  0.7956
 3555SOL    HW122127   0.340   2.530   9.841 -0.1083  1.6781 -1.8434
 3555SOL    HW222128   0.437   2.613   9.905 -0.5905  1.0667 -0.0855
 3556SOL     OW22129   1.385   3.042   7.101 -0.1243 -0.0929 -0.5307
 3556SOL    HW122130   1.414   3.133   7.107  0.1582 -0.2411  0.3654
 3556SOL    HW222131   1.372   3.048   7.007 -0.0847  0.6374 -0.4913
 3557SOL     OW22132   3.744   0.535  11.542 -0.8990  0.5516  0.8992
 3557SOL    HW122133   3.694   0.605  11.500 -1.4660  0.1363  0.8775
 3557SOL    HW222134   3.746   0.477  11.467  0.8782 -2.2410  3.0971
 3558SOL     OW22135   3.556   2.028   6.266  0.1445 -0.5963 -0.8126
 3558SOL    HW122136   3.608   1.947   6.266 -0.6193 -1.0934 -1.4190
 3558SOL    HW222137   3.474   1.992   6.233 -1.1136  1.8498 -0.2917
 3559SOL     OW22138   2.171   4.400   4.010 -0.2644 -0.1388 -0.1400
 3559SOL    HW122139   2.223   4.321   3.993  0.6696  0.7399 -1.3569
 3559SOL    HW222140   2.097   4.380   3.952 -0.2060 -0.2228 -0.1856
 3560SOL     OW22141   1.082   0.897   1.692 -0.6078 -0.3982  0.2738
 3560SOL    HW122142   1.168   0.936   1.703 -0.5101 -0.7641  0.8276
 3560SOL    HW222143   1.028   0.970   1.722 -0.1805  0.4467 -1.0539
 3561SOL     OW22144   1.512   4.503  17.049  0.9606  0.1556 -0.2219
 3561SOL    HW122145   1.569   4.565  17.094  1.1190 -0.4354  0.3730
 3561SOL    HW222146   1.463   4.472  17.125 -0.2160  0.8173 -0.7075
 3562SOL     OW22147   2.839   0.837   7.303  0.0397 -0.4247  0.3608
 3562SOL    HW122148   2.932   0.833   7.325 -0.6152  1.2895  3.3512
 3562SOL    HW222149   2.810   0.790   7.381  0.0014 -2.6064 -0.9726
 3563SOL     OW22150   3.150   0.074   2.784 -0.2894 -0.5801 -0.3849
 3563SOL    HW122151   3.227   0.081   2.728 -0.0782  1.3916  0.1406
 3563SOL    HW222152   3.187   0.016   2.849  1.0766 -2.2592 -2.6598
 3564SOL     OW22153   2.253   2.100   8.959 -0.2044 -0.0804 -0.3174
 3564SOL    HW122154   2.164   2.135   8.957  0.3538  1.2653 -2.1684
 3564SOL    HW222155   2.292   2.167   8.903 -4.0220  1.7971 -0.7470
 3565SOL     OW22156   1.037   3.149  17.049 -0.2858 -0.2789  0.0109
 3565SOL    HW122157   1.106   3.096  17.090  0.4596 -0.3854 -1.3750
 3565SOL    HW222158   1.010   3.090  16.979 -1.5131 -1.1873  1.2595
 3566SOL     OW22159   3.311   3.859   4.899 -0.0064  0.5881 -0.0207
 3566SOL    HW122160   3.340   3.791   4.960 -1.0164 -1.1289 -1.4473
 3566SOL    HW222161   3.216   3.847   4.899  0.1731 -0.9169 -1.3903
 3567SOL     OW22162   1.553   1.112   9.053 -0.2363 -0.1555 -0.3770
 3567SOL    HW122163   1.504   1.041   9.011  0.3302 -0.5693 -0.3335
 3567SOL    HW222164   1.559   1.173   8.979 -2.4537  1.2655  0.6133
 3568SOL     OW22165   1.126   3.556  15.382  0.3317  0.1578  0.3422
 3568SOL    HW122166   1.143   3.565  15.476  2.2852 -0.6066  0.0673
 3568SOL    HW222167   1.129   3.462  15.368  1.2231  0.1907  0.3165
 3569SOL     OW22168   1.609   2.614   2.486  0.0195 -0.7365 -0.3570
 3569SOL    HW122169   1.515   2.622   2.499  0.0741 -0.0619 -0.4127
 3569SOL    HW222170   1.617   2.635   2.393 -1.1894 -3.2702 -1.0577
 3570SOL     OW22171   1.265   4.540   3.044 -0.3072 -0.3439 -0.4318
 3570SOL    HW122172   1.335   4.496   2.996  0.5927 -0.7183  1.2335
 3570SOL    HW222173   1.253   4.478   3.116 -1.8170  0.4669  0.0318
 3571SOL     OW22174   1.087   4.221   4.283 -0.5305  0.5937 -0.2790
 3571SOL    HW122175   1.138   4.269   4.348 -1.9496  0.0040  1.3170
 3571SOL    HW222176   1.130   4.240   4.200  2.1638  0.0368  0.9874
 3572SOL     OW22177   0.608   1.877  12.115 -0.1153  0.1175 -0.3151
 3572SOL    HW122178   0.696   1.887  12.078  0.0070  3.5088  0.9083
 3572SOL    HW222179   0.586   1.970  12.119  2.6430  0.6846  1.8534
 3573SOL     OW22180   2.715   2.895   2.975  0.0780 -0.5581 -0.0994
 3573SOL    HW122181   2.649   2.962   2.958 -0.0851 -0.9019 -0.8100
 3573SOL    HW222182   2.758   2.871   2.893  2.7670  1.6627  0.6743
 3574SOL     OW22183   1.084   1.522   4.012  0.0096 -0.1081  0.2382
 3574SOL    HW122184   1.102   1.584   3.940 -0.1978 -1.6407 -1.1297
 3574SOL    HW222185   1.170   1.479   4.016  0.5408  0.6377 -2.3924
 3575SOL     OW22186   4.467   1.239   8.409  0.7371  0.3231 -0.2408
 3575SOL    HW122187   4.438   1.170   8.469 -1.5332  0.2727 -1.4301
 3575SOL    HW222188   4.392   1.243   8.351  0.6294 -2.9738 -0.3101
 3576SOL     OW22189   0.293   1.344   4.974 -0.3867 -0.4895  0.2182
 3576SOL    HW122190   0.237   1.268   4.987  0.1554 -1.2044 -1.6649
 3576SOL    HW222191   0.384   1.315   4.980 -0.1736  0.0382 -0.4064
 3577SOL     OW22192   3.656   1.893   9.089  0.5968  0.4158  0.9743
 3577SOL    HW122193   3.708   1.899   9.170 -1.3657  1.4867  2.1431
 3577SOL    HW222194   3.573   1.883   9.135 -0.4656 -2.7088 -1.7076
 3578SOL     OW22195   1.272   4.464   7.084 -0.2530 -0.0891 -0.1472
 3578SOL    HW122196   1.296   4.419   7.004 -0.7185 -0.6906  0.0496
 3578SOL    HW222197   1.356   4.502   7.109  0.0886 -1.2611  0.5326
 3579SOL     OW22198   3.702   2.684   7.855  0.5294  0.1745 -0.6010
 3579SOL    HW122199   3.795   2.708   7.858  0.3814  0.3874  1.7720
 3579SOL    HW222200   3.684   2.692   7.761  1.3763 -0.4373 -0.8227
 3580SOL     OW22201   4.360   2.696   0.704 -0.2936 -0.7933  0.3569
 3580SOL    HW122202   4.425   2.640   0.661 -0.5972 -0.4668 -0.5317
 3580SOL    HW222203   4.361   2.774   0.649  0.7298 -0.3994  0.9338
 3581SOL     OW22204   2.357   1.390   7.762  0.5015  0.8116  0.3313
 3581SOL    HW122205   2.383   1.471   7.718  1.2074  1.2529  1.5814
 3581SOL    HW222206   2.291   1.369   7.696  1.9614 -0.0328 -0.8539
 3582SOL     OW22207   0.999   0.898  16.176  1.0954  0.2090  0.1059
 3582SOL    HW122208   1.036   0.925  16.260  3.5776 -0.5823 -0.7259
 3582SOL    HW222209   0.909   0.931  16.182  1.0591 -0.5637  4.0461
 3583SOL     OW22210   2.518   2.406   6.887 -0.4186 -0.4344  0.6496
 3583SOL    HW122211   2.479   2.321   6.909 -0.6148 -0.2901  0.8590
 3583SOL    HW222212   2.461   2.436   6.816 -0.8449 -0.1348  1.1173
 3584SOL     OW22213   1.829   0.359  15.412 -0.4148 -0.1294  0.5435
 3584SOL    HW122214   1.894   0.308  15.460  0.3449  0.1451 -0.2157
 3584SOL    HW222215   1.767   0.362  15.485 -1.2142 -0.0813 -0.1322
 3585SOL     OW22216   0.582   2.861   5.627  0.2172 -0.1629  0.3860
 3585SOL    HW122217   0.573   2.770   5.597  0.9970 -0.2483  0.4055
 3585SOL    HW222218   0.674   2.876   5.648  0.2962 -1.0002  0.6465
 3586SOL     OW22219   2.229   4.229  11.949  0.2563 -0.1829  0.6235
 3586SOL    HW122220   2.290   4.191  11.886  0.2588  0.1570  0.4189
 3586SOL    HW222221   2.280   4.307  11.968  2.8946 -1.0651 -2.7218
 3587SOL     OW22222   3.419   1.625   3.087  0.0754  0.2309  0.2350
 3587SOL    HW122223   3.400   1.718   3.076 -0.5470 -0.0843 -1.3282
 3587SOL    HW222224   3.373   1.609   3.170 -0.4440 -1.3936 -0.3670
 3588SOL     OW22225   3.257   1.975   7.919 -0.2079  0.0361 -0.1514
 3588SOL    HW122226   3.274   2.064   7.951 -0.3450  0.1544 -0.4119
 3588SOL    HW222227   3.332   1.929   7.958 -0.2073  0.0836 -0.0977
 3589SOL     OW22228   0.765   0.300   5.904 -0.2504  0.1755  0.2102
 3589SOL    HW122229   0.717   0.307   5.987 -0.7152 -2.5214  0.1672
 3589SOL    HW222230   0.727   0.217   5.875 -0.4475  1.1986 -2.4469
 3590SOL     OW22231   0.958   0.974   2.506  0.3274  0.2830  0.3138
 3590SOL    HW122232   0.940   1.052   2.453  1.2655 -0.1073 -0.5962
 3590SOL    HW222233   0.948   0.994   2.599  0.8351  0.4204  0.3401
 3591SOL     OW22234   0.762   3.507  12.402 -0.0877  0.2119  0.4157
 3591SOL    HW122235   0.678   3.496  12.446 -0.1892  0.2633  0.2340
 3591SOL    HW222236   0.759   3.602  12.390  0.9771  0.0090 -1.4738
 3592SOL     OW22237   3.729   1.841   8.823 -0.0876  0.4047  0.0548
 3592SOL    HW122238   3.738   1.934   8.802 -0.8667  0.7692  1.3451
 3592SOL    HW222239   3.705   1.834   8.916  0.2065 -1.5785 -0.0026
 3593SOL     OW22240   1.221   1.410   2.870  0.7733  0.0001 -0.3175
 3593SOL    HW122241   1.260   1.357   2.801  2.2617 -0.4630  0.8731
 3593SOL    HW222242   1.283   1.481   2.888  0.0821  0.2327  1.1654
 3594SOL     OW22243   1.844   4.386   1.146 -0.5405 -0.2924  0.0798
 3594SOL    HW122244   1.749   4.386   1.159 -0.3789 -0.0331  1.2466
 3594SOL    HW222245   1.859   4.327   1.072  1.5687 -0.4814  0.6726
 3595SOL     OW22246   0.449   4.544  16.364 -0.0604  0.1487  0.1858
 3595SOL    HW122247   0.426   4.465  16.315 -2.5431 -0.1780  1.8906
 3595SOL    HW222248   0.544   4.544  16.353 -0.1389  1.9676 -0.4958
 3596SOL     OW22249   1.108   4.498  12.209  0.2984  0.0221 -0.6012
 3596SOL    HW122250   1.056   4.578  12.196 -1.5471 -1.2203 -0.8451
 3596SOL    HW222251   1.051   4.423  12.195  2.2311 -1.2757 -1.3982
 3597SOL     OW22252   0.648   1.949  15.521  0.3413  0.1417  0.2378
 3597SOL    HW122253   0.611   1.871  15.479  0.6706  0.1994 -0.1528
 3597SOL    HW222254   0.662   2.009  15.448 -2.0963 -1.0544 -1.2232
 3598SOL     OW22255   2.922   2.541   1.832  0.4582  0.7867  0.2376
 3598SOL    HW122256   2.992   2.491   1.789 -0.3007  0.9617 -1.1957
 3598SOL    HW222257   2.932   2.515   1.924 -0.3066 -0.4863 -0.0316
 3599SOL     OW22258   2.377   2.907   3.532  0.1423  0.2351 -0.4063
 3599SOL    HW122259   2.298   2.955   3.558  0.8000  0.8750  0.3736
 3599SOL    HW222260   2.348   2.880   3.444  0.7562 -2.3015  0.1882
 3600SOL     OW22261   3.856   1.895   8.081 -0.2912 -0.1594 -0.0760
 3600SOL    HW122262   3.840   1.924   7.991  2.1372 -0.1693 -0.4961
 3600SOL    HW222263   3.872   1.978   8.127 -1.8607  0.1637 -0.1200
 3601SOL     OW22264   4.659   0.213   1.530  0.0066 -0.2609 -0.3314
 3601SOL    HW122265   0.021   0.171   1.532  0.7584  1.2341 -0.6061
 3601SOL    HW222266   4.674   0.282   1.465 -0.1136  0.6733  0.6280
 3602SOL     OW22267   3.052   1.529   2.180 -0.2321 -0.0596 -0.2657
 3602SOL    HW122268   3.114   1.471   2.136  2.2685  2.5403 -0.1796
 3602SOL    HW222269   2.983   1.468   2.208  0.6289 -0.3445  1.2467
 3603SOL     OW22270   1.137   4.157   3.824 -0.1708  0.0475 -0.0791
 3603SOL    HW122271   1.098   4.170   3.738  0.8266 -0.5789 -0.6141
 3603SOL    HW222272   1.116   4.064   3.833 -1.2430  0.1749 -1.3413
 3604SOL     OW22273   3.306   4.273  15.185 -0.3739  0.2033 -0.2543
 3604SOL    HW122274   3.400   4.291  15.190 -0.3913  0.4071 -0.6246
 3604SOL    HW222275   3.275   4.312  15.266  1.7453  0.9831  0.1520
 3605SOL     OW22276   0.061   3.673   7.203 -0.2540 -0.1817  0.1294
 3605SOL    HW122277   0.032   3.730   7.274 -0.5077  1.3596 -1.2093
 3605SOL    HW222278   0.048   3.590   7.249  1.6366 -1.2679 -1.2933
 3606SOL     OW22279   1.230   3.705   8.309 -0.4884  0.3026  0.1474
 3606SOL    HW122280   1.266   3.617   8.302  0.1900  0.4538  1.6630
 3606SOL    HW222281   1.140   3.700   8.279  0.3369 -1.9226 -1.9293
 3607SOL     OW22282   2.968   4.607   8.229  0.2890 -0.1732  0.8945
 3607SOL    HW122283   3.044   4.564   8.268 -1.3879 -0.2360  4.0908
 3607SOL    HW222284   2.955   4.693   8.271 -0.6082  0.1827 -0.0930
 3608SOL     OW22285   2.620   2.881  12.766  0.0447 -0.5582  0.2263
 3608SOL    HW122286   2.603   2.911  12.677  1.5509  0.7528  0.3660
 3608SOL    HW222287   2.713   2.858  12.763  0.1115 -0.1333 -1.0402
 3609SOL     OW22288   4.113   4.620  11.690 -0.7804  0.3023  0.4668
 3609SOL    HW122289   4.177   4.584  11.752 -1.4305  2.2697  2.2869
 3609SOL    HW222290   4.037   4.577  11.730 -0.7162  0.4046  0.7008
 3610SOL     OW22291   4.492   1.126   6.329  0.4258 -0.0457 -0.2346
 3610SOL    HW122292   4.550   1.113   6.404 -1.5213  1.1033  1.4953
 3610SOL    HW222293   4.479   1.221   6.336  0.0925  0.0954 -2.8940
 3611SOL     OW22294   4.073   3.998  12.253 -1.0250 -0.8179  0.4118
 3611SOL    HW122295   4.067   4.066  12.185  0.5665  0.9008  1.9957
 3611SOL    HW222296   4.019   3.926  12.221 -2.1971  0.3403 -0.2240
 3612SOL     OW22297   3.082   2.401  17.429 -0.2160  0.1147 -0.4927
 3612SOL    HW122298   3.092   2.494  17.409 -0.8735  0.5517  1.1977
 3612SOL    HW222299   2.999   2.375  17.388 -0.8164  0.4242  0.5163
 3613SOL     OW22300   1.838   3.931   8.994  0.0892 -0.0186  0.0304
 3613SOL    HW122301   1.804   4.019   9.012 -0.7191 -0.5475  1.1048
 3613SOL    HW222302   1.931   3.949   9.007  0.0046  0.6683 -0.3484
 3614SOL     OW22303   0.305   4.661   7.285 -0.3702  0.1642 -0.2260
 3614SOL    HW122304   0.333   4.575   7.255  0.1519  0.5833 -0.9575
 3614SOL    HW222305   0.350   4.677   7.368  2.2316  0.2819 -1.6570
 3615SOL     OW22306   3.979   2.206   8.860  0.1204  0.3000  0.1724
 3615SOL    HW122307   3.920   2.270   8.820 -1.9565 -1.0313  1.1304
 3615SOL    HW222308   4.026   2.175   8.782 -0.9339 -0.5794 -0.1173
 3616SOL     OW22309   1.702   2.543   7.757  0.0256  0.8699 -0.3144
 3616SOL    HW122310   1.649   2.485   7.813  1.4391 -0.0166  0.1163
 3616SOL    HW222311   1.765   2.578   7.821 -2.2310  1.8507  1.3620
 3617SOL     OW22312   0.624   1.419  17.540 -0.1892 -0.0007 -0.0000
 3617SOL    HW122313   0.588   1.499  17.577  1.4835 -0.4225  2.5514
 3617SOL    HW222314   0.716   1.429  17.565 -0.6817 -0.2472  1.8398
 3618SOL     OW22315   1.580   3.226  15.941  0.0976  0.8688 -0.6091
 3618SOL    HW122316   1.547   3.272  15.864 -0.7999 -1.8731 -1.8580
 3618SOL    HW222317   1.616   3.147  15.900  1.0594 -0.3887  2.6557
 3619SOL     OW22318   0.912   4.082  15.381 -0.5061 -0.0683 -0.6794
 3619SOL    HW122319   0.854   4.089  15.305 -2.1645  0.5254  0.6218
 3619SOL    HW222320   0.910   4.173  15.411 -2.0043 -0.3506  0.0847
 3620SOL     OW22321   4.383   3.569   7.004 -0.0839  0.3988  0.3106
 3620SOL    HW122322   4.319   3.521   6.951 -0.2793  1.0039  0.0005
 3620SOL    HW222323   4.360   3.662   6.996 -1.1786  0.0398 -0.9178
 3621SOL     OW22324   2.123   2.198   7.939  0.0705  0.6540  0.7207
 3621SOL    HW122325   2.137   2.114   7.895  1.2434  1.2315 -0.0040
 3621SOL    HW222326   2.047   2.228   7.890  1.1073 -0.2320 -1.4043
 3622SOL     OW22327   1.718   2.220   4.695 -0.4534  0.1011  0.3079
 3622SOL    HW122328   1.776   2.144   4.706 -1.6426 -0.8658 -0.1936
 3622SOL    HW222329   1.779   2.292   4.678 -1.0793  1.0423  2.0291
 3623SOL     OW22330   3.661   0.656   0.917  0.4066 -0.1285 -0.0547
 3623SOL    HW122331   3.573   0.686   0.895  0.4930  0.4068  0.3231
 3623SOL    HW222332   3.653   0.573   0.964 -1.5978  0.0992  0.0026
 3624SOL     OW22333   2.748   2.063   4.951 -0.4670 -0.3112  0.3027
 3624SOL    HW122334   2.757   2.159   4.948 -0.5727 -0.2227  2.9208
 3624SOL    HW222335   2.728   2.046   4.859 -0.8613  0.7175  0.1895
 3625SOL     OW22336   3.611   2.980   5.698 -0.1275 -0.0009 -0.5054
 3625SOL    HW122337   3.640   2.900   5.653  0.9432 -0.1291  0.4189
 3625SOL    HW222338   3.677   3.040   5.664  0.3017 -1.3119 -1.9953
 3626SOL     OW22339   4.197   2.959   7.943 -0.4237  0.0071  0.6351
 3626SOL    HW122340   4.197   2.910   8.025  3.4829  0.5090  0.9526
 3626SOL    HW222341   4.154   2.894   7.889 -0.2030 -0.1384  0.6349
 3627SOL     OW22342   0.711   2.276   1.371 -0.3547 -0.3405  0.4691
 3627SOL    HW122343   0.740   2.200   1.321 -1.7599  0.8623 -2.1405
 3627SOL    HW222344   0.758   2.356   1.346 -0.9336 -0.3893 -0.7657
 3628SOL     OW22345   1.877   3.669   8.309  0.1681 -0.3836  0.1737
 3628SOL    HW122346   1.856   3.617   8.387 -1.2275  0.2023  0.1954
 3628SOL    HW222347   1.835   3.751   8.335  0.1496  0.5239 -2.6681
 3629SOL     OW22348   0.308   1.338   9.445 -0.7542 -0.2732  0.2422
 3629SOL    HW122349   0.276   1.302   9.363  2.5860  0.5741 -1.4405
 3629SOL    HW222350   0.235   1.312   9.502  0.7542  0.1334  2.3843
 3630SOL     OW22351   3.898   4.352   1.323 -0.1279  0.2595  0.2915
 3630SOL    HW122352   3.991   4.374   1.327 -0.0311 -0.5634  2.4091
 3630SOL    HW222353   3.856   4.433   1.351 -0.2591  0.1431  0.4292
 3631SOL     OW22354   2.640   2.792   2.285 -0.1653 -0.1217 -0.2430
 3631SOL    HW122355   2.709   2.726   2.279  0.6372  0.7791 -0.9044
 3631SOL    HW222356   2.574   2.768   2.220  1.1633 -0.7290 -1.3680
 3632SOL     OW22357   2.473   1.675  11.891  0.2685  0.5693 -0.3999
 3632SOL    HW122358   2.452   1.620  11.967 -2.4518  0.7203 -1.0489
 3632SOL    HW222359   2.532   1.617  11.843  0.0084  1.2226 -1.5150
 3633SOL     OW22360   3.083   3.617   7.555 -0.0376  0.4159  0.6100
 3633SOL    HW122361   3.043   3.700   7.583 -0.6328  0.4444 -0.3295
 3633SOL    HW222362   3.156   3.647   7.502  0.3248 -1.3401  0.1214
 3634SOL     OW22363   1.376   0.853   0.284  0.0137  0.4188 -0.5014
 3634SOL    HW122364   1.354   0.784   0.345  3.8841 -0.3489  0.0435
 3634SOL    HW222365   1.315   0.923   0.308  0.5725  0.7836 -0.1339
 3635SOL     OW22366   2.711   2.121   3.663 -0.6821  0.2197 -0.2935
 3635SOL    HW122367   2.774   2.080   3.603 -0.8811  0.3937 -0.6179
 3635SOL    HW222368   2.754   2.100   3.747 -2.8139  1.3144  1.0565
 3636SOL     OW22369   0.582   0.126  17.568 -0.0948  0.3922  0.8349
 3636SOL    HW122370   0.489   0.113  17.587  0.3387 -2.4865  0.9444
 3636SOL    HW222371   0.586   0.091  17.479  0.7127 -0.2821  1.1291
 3637SOL     OW22372   4.091   1.771   2.452 -0.0356 -0.0237 -0.1008
 3637SOL    HW122373   4.021   1.778   2.517  0.7403 -0.0466  0.7207
 3637SOL    HW222374   4.161   1.828   2.484  0.9683 -2.0221  1.2577
 3638SOL     OW22375   2.642   3.100  13.524  0.6313 -0.6629 -0.6578
 3638SOL    HW122376   2.719   3.138  13.567 -1.1889  2.3156 -0.0839
 3638SOL    HW222377   2.566   3.116  13.580  0.9487 -0.1127 -0.3884
 3639SOL     OW22378   0.912   2.447   2.635 -0.5016  0.4056  0.0441
 3639SOL    HW122379   0.898   2.364   2.589  4.1809  0.6140 -1.7401
 3639SOL    HW222380   0.897   2.515   2.570  0.9124 -2.0219 -2.8034
 3640SOL     OW22381   3.084   4.140   3.584  0.2769 -0.3980 -0.0656
 3640SOL    HW122382   3.080   4.234   3.566  1.1999  0.0458  2.0751
 3640SOL    HW222383   3.026   4.110   3.514  0.9395  0.2177 -0.8775
 3641SOL     OW22384   4.024   1.092   5.558 -0.2996  0.0719  0.0872
 3641SOL    HW122385   3.965   1.057   5.492 -2.1386  0.0829  1.7532
 3641SOL    HW222386   4.068   1.165   5.514 -0.9912  0.1144 -0.5158
 3642SOL     OW22387   1.255   4.692   3.281 -0.3827  0.5599  0.2119
 3642SOL    HW122388   1.175   4.654   3.317 -1.0556  0.7604 -1.0748
 3642SOL    HW222389   1.258   4.647   3.197 -0.5334 -0.7458  0.9111
 3643SOL     OW22390   3.443   2.097  17.273 -0.3969  0.5321 -0.0857
 3643SOL    HW122391   3.447   2.174  17.329  1.2553  0.7265 -0.4733
 3643SOL    HW222392   3.412   2.028  17.333 -0.1906  0.1718 -0.3946
 3644SOL     OW22393   1.203   3.843   1.759  0.0197 -0.1962 -0.1913
 3644SOL    HW122394   1.294   3.855   1.787  0.0387 -1.6417  0.3422
 3644SOL    HW222395   1.169   3.839   1.848 -1.2422 -0.6123 -0.6896
 3645SOL     OW22396   2.987   1.056   0.404 -0.3019 -0.2895 -0.1546
 3645SOL    HW122397   2.943   1.140   0.395 -1.5847 -0.9374  0.1039
 3645SOL    HW222398   3.056   1.075   0.467 -0.1632  0.5080 -0.5403
 3646SOL     OW22399   0.177   3.239   0.461 -0.1068  0.0729 -0.1007
 3646SOL    HW122400   0.115   3.219   0.531  1.2963 -0.9839  0.8319
 3646SOL    HW222401   0.159   3.171   0.396  1.4348  0.8921 -1.3867
 3647SOL     OW22402   4.114   1.608   3.069  0.0734  0.0596 -0.0030
 3647SOL    HW122403   4.125   1.549   3.144  1.0814 -0.8969 -0.9019
 3647SOL    HW222404   4.069   1.553   3.004 -0.6318 -1.5117  1.8048
 3648SOL     OW22405   0.088   0.443   8.298 -0.0719 -0.2200  0.3383
 3648SOL    HW122406   0.111   0.515   8.358 -0.3268  0.2699 -0.1491
 3648SOL    HW222407   0.037   0.482   8.227  0.4987 -2.0264 -1.0584
 3649SOL     OW22408   4.028   0.247  15.853  0.0891  0.0047 -0.3630
 3649SOL    HW122409   4.069   0.160  15.846 -2.9162 -1.3362 -1.2821
 3649SOL    HW222410   4.092   0.302  15.808  0.6192 -1.7876 -1.8038
 3650SOL     OW22411   2.884   3.104   7.490 -0.1635 -0.6681 -0.7627
 3650SOL    HW122412   2.791   3.124   7.480  0.2757  1.5071 -0.3476
 3650SOL    HW222413   2.909   3.196   7.487  0.3135 -0.8010 -0.8851
 3651SOL     OW22414   4.229   4.677   7.794  0.2411  0.0400 -0.0111
 3651SOL    HW122415   4.237   4.590   7.754 -1.6347 -0.1319 -0.0525
 3651SOL    HW222416   4.155   4.714   7.746  0.1422 -0.0760  0.0495
 3652SOL     OW22417   0.149   1.478  12.611  0.5112  0.4328 -0.2294
 3652SOL    HW122418   0.090   1.493  12.537  0.4254 -0.5661 -0.3587
 3652SOL    HW222419   0.225   1.436  12.571  2.4219  2.5986  1.1072
 3653SOL     OW22420   4.365   1.516  13.607 -0.5361 -0.1215 -0.0778
 3653SOL    HW122421   4.454   1.517  13.644 -0.4315 -0.9656 -0.3136
 3653SOL    HW222422   4.323   1.444  13.653  0.6777 -1.3910 -0.9670
 3654SOL     OW22423   4.683   0.458  13.744  0.8720 -0.5684 -0.2564
 3654SOL    HW122424   4.631   0.385  13.711 -0.0904 -1.3768  3.0740
 3654SOL    HW222425   0.038   0.417  13.781  2.8429  1.6461 -1.9683
 3655SOL     OW22426   2.778   1.988  16.785  0.2453  0.2159  0.6380
 3655SOL    HW122427   2.809   1.898  16.797 -1.6042 -0.4225  0.5588
 3655SOL    HW222428   2.685   1.971  16.768  0.5059 -0.0657 -0.5373
 3656SOL     OW22429   1.054   1.730  15.672  0.3888  0.4614 -0.4051
 3656SOL    HW122430   1.103   1.659  15.632 -0.5043  0.2528 -1.1304
 3656SOL    HW222431   0.974   1.681  15.691 -0.1048  0.9127 -1.2731
 3657SOL     OW22432   4.153   3.732   7.754 -0.3797 -0.2755 -0.0504
 3657SOL    HW122433   4.169   3.645   7.717 -0.4254 -0.5593  0.6019
 3657SOL    HW222434   4.087   3.716   7.821 -2.8308 -3.4407 -3.1952
 3658SOL     OW22435   2.177   0.698   8.010  0.7339 -0.5057 -0.3793
 3658SOL    HW122436   2.202   0.616   8.053  0.1139 -0.3804  0.2220
 3658SOL    HW222437   2.171   0.671   7.919  3.7934 -0.1324 -0.6846
 3659SOL     OW22438   1.539   1.473   4.609  0.1490 -0.6173  0.1618
 3659SOL    HW122439   1.542   1.403   4.675 -0.7469  1.5256  2.4786
 3659SOL    HW222440   1.469   1.524   4.650  1.1675  2.2983 -1.7581
 3660SOL     OW22441   2.655   1.871  11.859  0.1710 -0.4405 -0.1073
 3660SOL    HW122442   2.708   1.852  11.782  1.2448 -0.2869  0.5869
 3660SOL    HW222443   2.583   1.810  11.870 -1.2686  0.8820 -2.2356
 3661SOL     OW22444   0.607   4.067   3.306 -0.4789  0.3258 -0.5814
 3661SOL    HW122445   0.608   4.006   3.233 -0.0339 -2.1837  1.5340
 3661SOL    HW222446   0.599   4.151   3.260  0.7512  0.9384  0.3144
 3662SOL     OW22447   4.188   3.222   6.186 -0.0413  0.3520 -0.3481
 3662SOL    HW122448   4.258   3.157   6.181  1.4962  1.8666  1.0036
 3662SOL    HW222449   4.137   3.181   6.255  0.0678  2.0284  0.7433
 3663SOL     OW22450   3.873   0.919  13.099  0.2189 -0.6119  0.1145
 3663SOL    HW122451   3.942   0.983  13.086 -1.4740  1.4199  1.0766
 3663SOL    HW222452   3.818   0.974  13.155  1.9217  0.4948  0.6939
 3664SOL     OW22453   3.401   1.336   8.160 -0.2247  0.2418  0.2603
 3664SOL    HW122454   3.383   1.424   8.128 -1.0009  0.0325  0.1343
 3664SOL    HW222455   3.436   1.359   8.247  0.5263 -0.9167  0.2607
 3665SOL     OW22456   4.085   3.673   0.932  0.0734  0.1621 -0.1685
 3665SOL    HW122457   4.094   3.704   0.842 -1.1377 -0.2040 -0.4096
 3665SOL    HW222458   4.066   3.580   0.916  0.5963 -0.1559  1.0387
 3666SOL     OW22459   2.632   0.572  10.811 -0.3838  0.1122 -0.5648
 3666SOL    HW122460   2.606   0.592  10.901 -2.9340  1.3443 -1.5819
 3666SOL    HW222461   2.715   0.524  10.820 -0.3840 -0.1648 -1.9523
 3667SOL     OW22462   2.364   2.747   7.471  0.6787  0.1654  0.5338
 3667SOL    HW122463   2.329   2.674   7.421  2.1159 -0.9813  1.1872
 3667SOL    HW222464   2.276   2.781   7.487  1.3715  2.9559 -1.4726
 3668SOL     OW22465   0.580   2.604  13.238  0.1121  0.0173 -0.3071
 3668SOL    HW122466   0.505   2.639  13.189 -1.0876 -2.3938 -0.2039
 3668SOL    HW222467   0.560   2.607  13.331  0.0576 -0.1099 -0.3147
 3669SOL     OW22468   3.693   4.527   1.049  0.2600 -0.7394 -0.4983
 3669SOL    HW122469   3.752   4.459   1.015  2.0134  0.3525  0.3657
 3669SOL    HW222470   3.610   4.479   1.050 -1.5372  2.3333 -2.0657
 3670SOL     OW22471   2.892   4.407   5.652  0.2974  0.2805  0.2803
 3670SOL    HW122472   2.919   4.326   5.695  0.0054 -0.0576 -0.1771
 3670SOL    HW222473   2.978   4.447   5.634  0.0810  0.6844  0.1577
 3671SOL     OW22474   1.478   3.361   3.489  0.4191  0.0253 -0.5739
 3671SOL    HW122475   1.388   3.346   3.517 -0.1214 -1.4427 -3.0501
 3671SOL    HW222476   1.478   3.314   3.406  2.2291 -1.7639  0.4581
 3672SOL     OW22477   0.280   2.248  11.060 -0.0926 -0.1627  0.0491
 3672SOL    HW122478   0.214   2.200  11.110  2.2776 -1.1699  2.2231
 3672SOL    HW222479   0.260   2.339  11.083 -2.3994 -0.1360 -2.0327
 3673SOL     OW22480   2.114   1.201   2.152  0.4475  0.0516 -0.0698
 3673SOL    HW122481   2.128   1.288   2.189 -0.4608  1.2050 -2.4403
 3673SOL    HW222482   2.172   1.210   2.076 -0.4204  0.8169 -0.6301
 3674SOL     OW22483   2.750   2.744   7.999 -0.0636 -0.2552  0.1022
 3674SOL    HW122484   2.776   2.689   8.073  0.6721 -0.6362 -0.4431
 3674SOL    HW222485   2.662   2.709   7.989  0.5482 -1.1451 -2.0122
 3675SOL     OW22486   1.408   4.131  12.170  0.0280  0.4613  0.3599
 3675SOL    HW122487   1.467   4.098  12.238 -0.5576  1.0343  1.1507
 3675SOL    HW222488   1.328   4.093  12.208  0.2256 -0.8241 -0.4923
 3676SOL     OW22489   0.404   0.917   2.928 -0.1866 -0.5147  0.3680
 3676SOL    HW122490   0.426   0.999   2.885  0.3013  0.6663  2.8855
 3676SOL    HW222491   0.345   0.869   2.870  0.2473 -4.4897  3.2044
 3677SOL     OW22492   0.892   0.577   5.457  0.5258  0.2914 -0.4362
 3677SOL    HW122493   0.984   0.555   5.442  0.5518 -0.6189  1.0073
 3677SOL    HW222494   0.845   0.507   5.501  0.5179  1.3397  1.2535
 3678SOL     OW22495   0.446   0.018   2.104  0.0783  0.3717 -0.7773
 3678SOL    HW122496   0.433   4.678   2.034 -0.5580  0.3874 -0.6743
 3678SOL    HW222497   0.535   4.717   2.130 -1.0464 -2.4715  0.4097
 3679SOL     OW22498   2.517   0.353   8.696  0.2564 -0.5476  0.2437
 3679SOL    HW122499   2.509   0.435   8.744  1.1643  0.3409 -1.1360
 3679SOL    HW222500   2.548   0.396   8.616 -1.2897  1.8867  0.9602
 3680SOL     OW22501   4.719   4.275   7.971  0.0820  0.3144  0.2303
 3680SOL    HW122502   4.682   4.225   8.045 -0.0975  0.2891  0.1232
 3680SOL    HW222503   0.039   4.208   7.918  1.8832  0.1684  1.8707
 3681SOL     OW22504   4.585   0.989   4.788  0.1140  0.5153  0.5008
 3681SOL    HW122505   4.539   1.033   4.717 -0.1276 -1.7293 -0.7502
 3681SOL    HW222506   4.516   0.948   4.839 -1.7250  1.4879 -1.2369
 3682SOL     OW22507   1.082   3.728  11.700  0.4112  0.1283  0.2643
 3682SOL    HW122508   1.010   3.702  11.758  0.7468  1.7709  1.4105
 3682SOL    HW222509   1.115   3.646  11.665  0.8291  1.0225 -1.4309
 3683SOL     OW22510   3.079   4.691   6.823 -0.1874 -0.3069 -0.0134
 3683SOL    HW122511   3.015   0.005   6.763 -1.2569  0.3509  1.5524
 3683SOL    HW222512   3.073   0.026   6.898 -1.4304 -1.1434  0.5467
 3684SOL     OW22513   1.706   0.270  17.063 -0.3177 -0.0841 -0.0473
 3684SOL    HW122514   1.633   0.310  17.017 -0.0406  1.5571  0.9179
 3684SOL    HW222515   1.723   0.342  17.124 -0.5489  0.5287 -0.7081
 3685SOL     OW22516   0.459   2.714   8.458 -0.2875  0.3203 -0.7037
 3685SOL    HW122517   0.394   2.742   8.392 -0.7752 -0.9342 -0.7581
 3685SOL    HW222518   0.512   2.653   8.408  0.3376  0.8437 -0.6840
 3686SOL     OW22519   4.715   1.009   7.908 -0.1573  0.4407 -0.2890
 3686SOL    HW122520   4.679   1.096   7.892 -1.8019 -0.1374  0.3281
 3686SOL    HW222521   4.634   0.968   7.938 -0.2333  1.4189  0.8258
 3687SOL     OW22522   4.292   0.352   6.419  0.3750  0.4728  0.2443
 3687SOL    HW122523   4.197   0.347   6.419  0.3834  0.3603 -0.3335
 3687SOL    HW222524   4.305   0.258   6.430 -2.7247  0.3361  2.7076
 3688SOL     OW22525   3.206   3.988   7.127 -0.1769  0.1047  0.2931
 3688SOL    HW122526   3.141   4.029   7.185  0.9983  2.8506 -0.3320
 3688SOL    HW222527   3.159   3.954   7.051  1.0947 -0.0169 -0.4335
 3689SOL     OW22528   2.345   2.491   1.389 -0.7142  0.0294 -0.5838
 3689SOL    HW122529   2.422   2.469   1.337 -0.3802 -0.5473  0.1576
 3689SOL    HW222530   2.272   2.501   1.327 -0.5917  1.3672 -0.5184
 3690SOL     OW22531   2.737   2.496  14.948 -0.1060  0.1974 -0.1640
 3690SOL    HW122532   2.776   2.415  14.979 -0.8520 -0.2870 -0.4861
 3690SOL    HW222533   2.769   2.564  15.008  0.2260 -0.2138  0.1249
 3691SOL     OW22534   4.597   0.731   3.013 -0.5440  0.1517  0.2629
 3691SOL    HW122535   4.689   0.716   2.994 -1.2988 -3.5775 -0.4106
 3691SOL    HW222536   4.611   0.816   3.057 -0.9492  0.1060  0.4891
 3692SOL     OW22537   3.993   3.225   5.993 -0.1315 -0.3603 -0.3050
 3692SOL    HW122538   4.058   3.241   6.062 -2.0684 -2.1829  1.9230
 3692SOL    HW222539   3.940   3.160   6.038 -1.3909  1.0895  0.2794
 3693SOL     OW22540   3.804   0.916   0.867 -0.0954  0.6601  0.0398
 3693SOL    HW122541   3.765   0.838   0.905 -1.4856  0.6323 -1.4183
 3693SOL    HW222542   3.834   0.868   0.790  0.6846  2.8294 -1.0417
 3694SOL     OW22543   0.393   3.255   6.400  0.3360  0.2031  0.0198
 3694SOL    HW122544   0.474   3.224   6.360  0.7540 -1.8526  2.4466
 3694SOL    HW222545   0.339   3.266   6.322  0.7744  0.6473 -0.2273
 3695SOL     OW22546   1.330   1.622   4.708 -0.4593  0.2554  0.2687
 3695SOL    HW122547   1.271   1.681   4.662  1.4576  0.5565 -1.7876
 3695SOL    HW222548   1.271   1.548   4.723  0.2850 -0.1185  1.4134
 3696SOL     OW22549   2.113   0.837   6.151  0.3113 -0.2794 -0.2232
 3696SOL    HW122550   2.035   0.879   6.189  0.7913  1.1887 -0.8461
 3696SOL    HW222551   2.195   0.868   6.189  0.8168 -2.4473  0.4469
 3697SOL     OW22552   1.865   1.297   9.935 -0.3262 -0.0102 -0.6734
 3697SOL    HW122553   1.917   1.217   9.944 -1.1086 -0.4175  0.3521
 3697SOL    HW222554   1.798   1.267   9.874 -0.2340  1.7410 -1.6309
 3698SOL     OW22555   1.924   4.361   3.874  0.0905 -0.0528 -0.8412
 3698SOL    HW122556   1.923   4.400   3.786  0.9584  0.1849 -0.7503
 3698SOL    HW222557   1.834   4.368   3.905  1.0569  2.2139  1.3826
 3699SOL     OW22558   1.214   3.225   1.673  0.0723  0.7968 -0.6154
 3699SOL    HW122559   1.233   3.318   1.664 -0.5636  0.8794 -1.1123
 3699SOL    HW222560   1.206   3.195   1.582 -0.6941 -1.6776  0.2776
 3700SOL     OW22561   2.291   2.573  13.021  0.1494  0.0048 -0.2757
 3700SOL    HW122562   2.277   2.528  13.104  2.2884  0.0361  0.1167
 3700SOL    HW222563   2.202   2.572  12.987  0.2770 -0.3779 -0.6081
 3701SOL     OW22564   0.329   1.835   8.145 -0.5215  0.2938  0.5613
 3701SOL    HW122565   0.288   1.916   8.175 -2.2449 -0.8127  1.1926
 3701SOL    HW222566   0.401   1.820   8.207 -0.6547  0.0969  0.6668
 3702SOL     OW22567   3.491   2.649   3.223 -0.4007  0.0792  0.3102
 3702SOL    HW122568   3.560   2.643   3.157  0.1495 -0.5638  0.9481
 3702SOL    HW222569   3.414   2.618   3.175 -0.0229 -1.6935  0.8684
 3703SOL     OW22570   1.703   2.948  17.346 -0.3373  0.1989  0.0975
 3703SOL    HW122571   1.753   2.868  17.363 -2.0798 -0.8320  0.3522
 3703SOL    HW222572   1.742   2.979  17.265 -0.0486  0.0678  0.1844
 3704SOL     OW22573   1.183   4.300   8.490  0.0692 -0.1836  0.0057
 3704SOL    HW122574   1.100   4.325   8.451 -0.0017 -0.1208  0.1976
 3704SOL    HW222575   1.162   4.238   8.559 -0.5444  0.3802  0.3255
 3705SOL     OW22576   4.189   0.558  17.179 -0.4793  0.7221 -0.4872
 3705SOL    HW122577   4.183   0.489  17.112 -0.3738 -0.3973  0.6526
 3705SOL    HW222578   4.247   0.513  17.241 -0.2312  0.1913 -1.1003
 3706SOL     OW22579   4.104   1.338  15.869 -0.0067 -0.1443 -0.7671
 3706SOL    HW122580   4.192   1.375  15.879 -0.7757  2.1015 -2.3327
 3706SOL    HW222581   4.072   1.344  15.959  0.2380  3.4342 -0.9384
 3707SOL     OW22582   2.032   0.599   8.418  0.1011  0.3240  0.4921
 3707SOL    HW122583   2.039   0.636   8.506 -1.5500  2.6585 -0.3671
 3707SOL    HW222584   1.941   0.568   8.420  0.5844 -1.0944  1.0733
 3708SOL     OW22585   1.359   3.023   3.425  0.5897  0.4015  0.0280
 3708SOL    HW122586   1.266   3.035   3.445  0.1584  1.3577 -2.6030
 3708SOL    HW222587   1.373   3.104   3.376  0.8202 -0.7728 -1.8247
 3709SOL     OW22588   2.215   4.461  11.715 -0.0133 -0.4030 -0.0565
 3709SOL    HW122589   2.240   4.541  11.671  1.1739  0.9734  3.1097
 3709SOL    HW222590   2.279   4.453  11.786  1.3213 -0.7083 -1.2963
 3710SOL     OW22591   1.029   0.390   5.977 -0.3408 -0.4154 -0.1940
 3710SOL    HW122592   1.018   0.484   5.964  1.8854 -0.2750 -0.9608
 3710SOL    HW222593   0.944   0.359   5.945 -1.9121  2.1366  1.5271
 3711SOL     OW22594   2.089   2.781   4.824 -0.3714 -0.2061 -0.6199
 3711SOL    HW122595   2.117   2.778   4.733 -2.6446 -0.7789 -1.3024
 3711SOL    HW222596   1.998   2.805   4.807 -0.0691  0.8335 -0.7787
 3712SOL     OW22597   1.696   0.961   4.332  0.0464  0.0521 -0.3586
 3712SOL    HW122598   1.605   0.982   4.352 -0.5891 -2.3627 -0.6711
 3712SOL    HW222599   1.723   0.900   4.401  0.6374  1.2527  0.4659
 3713SOL     OW22600   1.572   1.100   2.534  0.2235 -0.3852  0.0529
 3713SOL    HW122601   1.542   1.064   2.617  0.6669 -0.9582 -0.0300
 3713SOL    HW222602   1.498   1.065   2.483 -1.1171  1.4805  0.7198
 3714SOL     OW22603   0.523   0.924   4.178 -0.2350  0.0290  0.1164
 3714SOL    HW122604   0.495   0.852   4.122  0.5673  0.8063 -1.2941
 3714SOL    HW222605   0.549   0.991   4.115  0.6374  0.8969  1.3922
 3715SOL     OW22606   2.232   4.360   8.312  0.1318 -0.2440 -0.7584
 3715SOL    HW122607   2.290   4.374   8.387  1.3772 -0.0217 -1.7601
 3715SOL    HW222608   2.255   4.269   8.293  1.2682 -0.0556 -0.2680
 3716SOL     OW22609   0.414   2.338  14.077  0.9008 -0.6517 -0.4491
 3716SOL    HW122610   0.387   2.250  14.102 -0.7099 -0.1601 -0.4360
 3716SOL    HW222611   0.474   2.322  14.004  1.1163  1.7794 -0.8291
 3717SOL     OW22612   0.007   1.634   3.547  0.6212 -0.5055 -0.3981
 3717SOL    HW122613   0.083   1.595   3.503 -1.2849 -2.5445 -1.8416
 3717SOL    HW222614   4.701   1.572   3.614 -2.9446  0.9573 -0.6300
 3718SOL     OW22615   1.793   2.469   0.242 -0.1902 -0.1427  0.0904
 3718SOL    HW122616   1.863   2.533   0.245 -1.9306  1.6281  2.4790
 3718SOL    HW222617   1.749   2.484   0.158 -1.2079  3.5950  1.3231
 3719SOL     OW22618   1.874   3.604  13.746 -0.2775  0.1431 -0.1426
 3719SOL    HW122619   1.815   3.677  13.729  0.5821  0.8134 -0.2307
 3719SOL    HW222620   1.951   3.660  13.756 -1.1175  0.9876  1.4044
 3720SOL     OW22621   1.685   2.014  13.312 -0.2006 -0.0907  0.2535
 3720SOL    HW122622   1.748   1.964  13.262  0.2637  0.2485  0.5008
 3720SOL    HW222623   1.631   2.043  13.239  0.1418  0.0140  0.0427
 3721SOL     OW22624   3.184   0.217   3.614 -0.0600 -0.4038 -0.5367
 3721SOL    HW122625   3.252   0.169   3.662  1.1922  1.1786 -0.7274
 3721SOL    HW222626   3.119   0.147   3.616 -0.7065  0.1752 -1.4604
 3722SOL     OW22627   2.316   3.224  12.810 -0.5372 -0.3661 -0.0381
 3722SOL    HW122628   2.386   3.172  12.849  0.3880  0.8564 -0.0827
 3722SOL    HW222629   2.349   3.234  12.721 -0.0624  0.7372  0.2668
 3723SOL     OW22630   3.746   2.539  14.520 -0.1207 -0.2506  0.5619
 3723SOL    HW122631   3.837   2.525  14.545  0.7995 -0.3138 -2.7932
 3723SOL    HW222632   3.735   2.631  14.545  0.7500  0.0464 -0.1357
 3724SOL     OW22633   2.867   4.555   9.485  0.2549  0.2290 -0.2665
 3724SOL    HW122634   2.839   4.499   9.413 -2.2075 -0.1568  1.0163
 3724SOL    HW222635   2.924   4.617   9.439  1.1037 -0.1948  0.2210
 3725SOL     OW22636   0.603   4.552   5.504  0.2772  0.1469 -0.0023
 3725SOL    HW122637   0.658   4.620   5.465  0.0223  1.2222  1.5291
 3725SOL    HW222638   0.532   4.610   5.532 -1.3470 -0.9632 -1.8434
 3726SOL     OW22639   1.613   2.751   1.597  0.2395  0.1322 -0.0739
 3726SOL    HW122640   1.544   2.815   1.615  0.5297  0.4821 -0.1985
 3726SOL    HW222641   1.687   2.806   1.570 -0.0727 -0.3235 -1.8148
 3727SOL     OW22642   4.400   2.080   4.956  0.4339  0.1452 -0.5736
 3727SOL    HW122643   4.461   2.009   4.936 -0.1584 -1.0754  1.8955
 3727SOL    HW222644   4.325   2.039   5.000 -0.7423 -0.7233 -3.4036
 3728SOL     OW22645   4.149   3.320   7.112 -0.3165  0.1721 -0.0659
 3728SOL    HW122646   4.116   3.274   7.034  1.7862  1.1549 -1.5465
 3728SOL    HW222647   4.227   3.269   7.135 -0.1109  0.6084  0.1860
 3729SOL     OW22648   0.222   0.753   5.139 -0.3365 -0.4019 -0.2578
 3729SOL    HW122649   0.139   0.788   5.172 -0.7639 -1.9806  0.3502
 3729SOL    HW222650   0.189   0.676   5.093  1.0768 -1.7970  1.0620
 3730SOL     OW22651   0.637   3.895   3.084  0.5450  0.0840  0.0911
 3730SOL    HW122652   0.578   3.824   3.057  0.1616 -0.1907  1.6457
 3730SOL    HW222653   0.713   3.839   3.101  0.4524 -0.4175 -1.1650
 3731SOL     OW22654   0.924   2.985   0.696  0.2309 -0.3154 -0.3489
 3731SOL    HW122655   0.835   2.994   0.729  0.4451  0.3844  0.0323
 3731SOL    HW222656   0.931   2.890   0.705  1.3048 -0.1021  1.1953
 3732SOL     OW22657   3.535   0.646   7.414 -0.2739 -0.4806 -0.2892
 3732SOL    HW122658   3.574   0.563   7.388  1.4585  0.2698 -0.1388
 3732SOL    HW222659   3.609   0.685   7.461 -0.7919  0.3038 -0.1212
 3733SOL     OW22660   2.681   2.807  13.549 -1.0060 -0.7662 -0.2166
 3733SOL    HW122661   2.646   2.779  13.465 -2.9296 -0.1004  0.3572
 3733SOL    HW222662   2.641   2.892  13.569 -1.0593 -0.6237 -0.9431
 3734SOL     OW22663   1.890   1.735   3.595  0.3277  0.2460 -0.3450
 3734SOL    HW122664   1.885   1.830   3.602  0.4448  0.3359 -1.4542
 3734SOL    HW222665   1.802   1.699   3.598  0.0667  0.9336  0.1744
 3735SOL     OW22666   0.909   0.653   2.652  0.2871 -0.5101 -0.0737
 3735SOL    HW122667   0.991   0.694   2.622 -0.7862  3.1838  1.9817
 3735SOL    HW222668   0.901   0.571   2.604  0.4089 -1.1365  0.9769
 3736SOL     OW22669   4.314   0.006   4.745  0.1963  0.2279  0.0098
 3736SOL    HW122670   4.378   0.071   4.773  1.7494 -1.2122 -0.2028
 3736SOL    HW222671   4.286   0.042   4.661 -0.1505 -0.0515  0.0064
 3737SOL     OW22672   0.887   2.231   7.607  0.6520 -0.4313  0.4959
 3737SOL    HW122673   0.957   2.202   7.666 -0.5063 -1.1807  1.5253
 3737SOL    HW222674   0.834   2.151   7.606 -0.9387  0.5973  1.5581
 3738SOL     OW22675   4.399   0.910   9.085  0.2505 -0.3451  0.7373
 3738SOL    HW122676   4.487   0.945   9.076 -0.1638 -0.1009 -2.2945
 3738SOL    HW222677   4.387   0.905   9.180  0.0312 -1.3372  0.6628
 3739SOL     OW22678   0.553   1.240   6.928  0.7055 -0.2553 -0.2984
 3739SOL    HW122679   0.587   1.280   7.008  1.3656  2.2823 -1.8203
 3739SOL    HW222680   0.563   1.313   6.866  0.9477 -0.8038 -0.9134
 3740SOL     OW22681   0.895   3.065   8.191 -0.4056 -0.3190 -0.4417
 3740SOL    HW122682   0.816   3.042   8.142 -0.9236  0.5460 -0.0268
 3740SOL    HW222683   0.951   2.989   8.206  3.3529  2.4785 -0.3594
 3741SOL     OW22684   0.870   0.968  15.903  0.0586 -0.1052  0.1001
 3741SOL    HW122685   0.908   0.927  15.980 -0.7130  0.9806  1.0475
 3741SOL    HW222686   0.792   0.917  15.881  0.7061  0.1333 -2.7524
 3742SOL     OW22687   4.542   1.952   2.791  1.1666  0.2211  0.3055
 3742SOL    HW122688   4.557   1.863   2.761  0.7000 -0.2007  1.3440
 3742SOL    HW222689   4.491   1.934   2.870  0.3773 -1.5409 -0.6087
 3743SOL     OW22690   1.583   0.764   3.336 -0.7927 -0.0716 -0.0457
 3743SOL    HW122691   1.504   0.730   3.293  0.2169 -3.1564  0.5661
 3743SOL    HW222692   1.574   0.851   3.296  1.2955 -0.7218 -1.9745
 3744SOL     OW22693   2.760   0.917  15.962  0.2698  0.0907  0.3658
 3744SOL    HW122694   2.770   0.837  15.911  2.4493  0.5272  0.1372
 3744SOL    HW222695   2.810   0.970  15.900  1.2306  0.8583  1.7824
 3745SOL     OW22696   2.193   3.950   2.248  0.2977  0.1840  0.5491
 3745SOL    HW122697   2.194   4.045   2.254  0.7113  0.3369 -1.7814
 3745SOL    HW222698   2.281   3.926   2.219 -0.4483  1.0687 -2.4280
 3746SOL     OW22699   4.609   1.057   9.046 -0.2279 -0.0885 -0.0116
 3746SOL    HW122700   4.644   1.061   8.957  2.7375 -0.6314  1.1413
 3746SOL    HW222701   4.647   1.139   9.078  0.4762  0.1292 -1.4158
 3747SOL     OW22702   0.058   1.328   6.384  0.9093 -0.1692  0.6360
 3747SOL    HW122703   0.089   1.372   6.463  1.0853 -0.4415  0.7212
 3747SOL    HW222704   4.694   1.302   6.412  1.6095 -0.9552  2.1137
 3748SOL     OW22705   3.362   1.108   5.346  0.0834  0.2931  0.3580
 3748SOL    HW122706   3.362   1.122   5.440  0.3353 -0.2443  0.4378
 3748SOL    HW222707   3.450   1.137   5.322  1.3317 -2.3676  1.8133
 3749SOL     OW22708   1.655   0.169   1.284 -0.0855  0.8170  0.2298
 3749SOL    HW122709   1.733   0.224   1.272  0.6061 -0.4959 -1.3188
 3749SOL    HW222710   1.663   0.132   1.373  3.5349  2.7927  0.7446
 3750SOL     OW22711   0.780   1.640   1.222  0.5978 -0.3843 -0.4182
 3750SOL    HW122712   0.756   1.652   1.131  1.2189  0.2113 -0.5031
 3750SOL    HW222713   0.713   1.694   1.264 -0.3937 -1.0496 -1.1423
 3751SOL     OW22714   0.943   4.453  11.811  0.3837 -0.1588 -0.1912
 3751SOL    HW122715   0.965   4.546  11.798 -0.2585 -0.1003 -0.8732
 3751SOL    HW222716   1.029   4.413  11.816  0.6580  0.4021 -0.3593
 3752SOL     OW22717   1.278   2.530  11.322 -0.2275 -0.4072 -0.8917
 3752SOL    HW122718   1.348   2.465  11.327 -0.4037 -0.5304  0.0985
 3752SOL    HW222719   1.322   2.614  11.311 -0.7953 -0.0645 -0.5744
 3753SOL     OW22720   3.657   0.301   1.395 -0.2499  0.1430  0.5288
 3753SOL    HW122721   3.645   0.254   1.477  0.0541 -0.1511  0.4064
 3753SOL    HW222722   3.753   0.304   1.390 -0.3318  4.4846  1.5050
 3754SOL     OW22723   0.263   2.313   4.630  0.4200  0.3352  0.2794
 3754SOL    HW122724   0.212   2.338   4.707  0.2633 -0.7211  0.5191
 3754SOL    HW222725   0.254   2.218   4.631 -1.3285  0.5002 -1.8119
 3755SOL     OW22726   3.237   4.313   6.625  0.0805  0.5768  0.1401
 3755SOL    HW122727   3.167   4.374   6.599 -0.5338  0.7623  2.2263
 3755SOL    HW222728   3.253   4.350   6.712  0.9159  1.4397 -0.3730
 3756SOL     OW22729   1.382   3.734   7.281  0.1267  0.0422  0.0441
 3756SOL    HW122730   1.318   3.667   7.258  0.3113 -0.0585 -0.1736
 3756SOL    HW222731   1.326   3.773   7.348  0.5426 -4.1501  2.7983
 3757SOL     OW22732   1.633   0.036  14.931 -0.4805  0.3555  0.4285
 3757SOL    HW122733   1.612   0.124  14.962 -1.0690  0.5886 -0.6592
 3757SOL    HW222734   1.709   0.011  14.985  2.1832  3.1548 -2.0239
 3758SOL     OW22735   2.239   4.680  12.310  0.2435 -0.5299  0.1048
 3758SOL    HW122736   2.248   4.697  12.403 -0.3979 -1.8058  0.4106
 3758SOL    HW222737   2.283   4.596  12.299  1.6908  0.3597 -0.8994
 3759SOL     OW22738   0.080   1.412  13.597 -0.8711  0.6932  0.4688
 3759SOL    HW122739   0.172   1.387  13.612 -0.2979  0.9233 -2.5837
 3759SOL    HW222740   0.095   1.483  13.534 -1.4087 -0.6558 -1.1789
 3760SOL     OW22741   3.821   1.155   7.021  0.2759 -0.3304  0.7146
 3760SOL    HW122742   3.844   1.233   6.971 -0.4254  1.2239  2.7808
 3760SOL    HW222743   3.871   1.168   7.102 -0.5234  0.0730  1.1418
 3761SOL     OW22744   1.836   1.877  15.173  0.3637  0.2435  0.9587
 3761SOL    HW122745   1.857   1.848  15.261  0.2245  0.8828  1.1990
 3761SOL    HW222746   1.745   1.850  15.164  0.1310  1.0278  0.8943
 3762SOL     OW22747   1.040   3.968   2.244  0.0179  0.5456  0.3454
 3762SOL    HW122748   1.079   4.001   2.325  0.9715 -0.8991  0.4888
 3762SOL    HW222749   0.966   3.923   2.284  0.6303  1.4019  2.4733
 3763SOL     OW22750   0.355   2.082  14.170 -0.2789 -0.2132 -0.2355
 3763SOL    HW122751   0.301   2.063  14.246  1.0838  2.1569  1.3600
 3763SOL    HW222752   0.421   2.013  14.165  0.7029  0.6859  0.0231
 3764SOL     OW22753   3.000   1.373   7.225  0.4049 -0.0552  0.1473
 3764SOL    HW122754   3.013   1.283   7.196  0.4952 -0.2375  0.7358
 3764SOL    HW222755   2.912   1.391   7.192  1.0005  2.0160 -0.2857
 3765SOL     OW22756   3.448   0.491   1.426  0.2840  0.4706  0.4239
 3765SOL    HW122757   3.436   0.472   1.519  2.0425 -0.7127  0.4246
 3765SOL    HW222758   3.516   0.428   1.400 -1.5387 -1.1513 -0.4119
 3766SOL     OW22759   4.043   3.464   8.353  0.3454  0.6609  0.2933
 3766SOL    HW122760   3.991   3.486   8.430  1.6461  1.3141  0.9888
 3766SOL    HW222761   4.037   3.539   8.295 -1.1367  1.7885  1.9162
 3767SOL     OW22762   2.474   2.556   9.654  0.3031 -0.2609 -0.2726
 3767SOL    HW122763   2.456   2.529   9.744 -2.5482  0.7753 -0.5360
 3767SOL    HW222764   2.425   2.637   9.643 -1.9817 -1.2652  2.6322
 3768SOL     OW22765   2.122   2.826   5.094 -0.1393  0.8695 -0.1940
 3768SOL    HW122766   2.128   2.783   5.009  0.3622  2.5127 -1.0008
 3768SOL    HW222767   2.065   2.757   5.126 -0.8570  1.7043  0.3215
 3769SOL     OW22768   1.726   4.721   7.349 -0.1313  0.2034  0.6402
 3769SOL    HW122769   1.753   4.645   7.297 -0.7454  0.5293 -0.1705
 3769SOL    HW222770   1.728   0.075   7.292  0.0360  1.7129  2.7205
 3770SOL     OW22771   2.084   3.434  17.634  0.6451  0.2816 -0.3816
 3770SOL    HW122772   2.092   3.362   0.000  1.4850 -0.9829 -1.9430
 3770SOL    HW222773   1.993   3.462  17.648  1.1129  1.5106  0.2516
 3771SOL     OW22774   3.050   1.784   2.205  0.2942 -0.1199 -0.2937
 3771SOL    HW122775   3.048   1.689   2.190 -2.5401 -0.1947  0.5405
 3771SOL    HW222776   3.142   1.790   2.231  0.5047 -1.0229 -0.8102
 3772SOL     OW22777   2.143   0.518   7.799  0.3564  0.2454 -0.2617
 3772SOL    HW122778   2.218   0.464   7.776 -1.1130 -0.8378 -2.5456
 3772SOL    HW222779   2.074   0.458   7.771 -0.3418  1.3130 -0.8343
 3773SOL     OW22780   4.202   1.349  13.270  0.1867  0.2964  0.3288
 3773SOL    HW122781   4.231   1.267  13.310 -0.0939 -0.8108 -1.7213
 3773SOL    HW222782   4.150   1.393  13.337 -1.3769  0.4852 -1.0238
 3774SOL     OW22783   2.173   1.520   4.409 -0.5875 -0.3160  0.3493
 3774SOL    HW122784   2.184   1.455   4.479  2.2536 -0.5060 -0.3062
 3774SOL    HW222785   2.243   1.582   4.424 -2.1121  1.8769 -1.6374
 3775SOL     OW22786   3.940   0.979   8.404  0.6387  0.0072 -0.1838
 3775SOL    HW122787   4.019   0.966   8.456  0.5003  1.0963  0.2960
 3775SOL    HW222788   3.926   1.073   8.408 -1.4775 -0.3047 -0.0579
 3776SOL     OW22789   2.850   1.437   4.259  0.5754 -0.3460 -0.0574
 3776SOL    HW122790   2.847   1.389   4.177  0.5957 -1.0101  0.3268
 3776SOL    HW222791   2.839   1.370   4.327 -0.5415 -0.4231 -0.3219
 3777SOL     OW22792   3.310   4.016   8.437 -0.0001  0.4854  0.1758
 3777SOL    HW122793   3.298   4.062   8.520 -2.3885  1.4547 -0.7097
 3777SOL    HW222794   3.247   3.945   8.451  2.1265 -1.4789 -0.2764
 3778SOL     OW22795   3.895   4.723   2.846 -0.1851 -0.1272  0.6336
 3778SOL    HW122796   3.849   4.682   2.773  1.3158 -0.0283 -0.3478
 3778SOL    HW222797   3.926   0.085   2.817  0.8231 -0.4720  0.7219
 3779SOL     OW22798   0.690   3.821  13.850  0.3533  0.1520 -0.0007
 3779SOL    HW122799   0.779   3.823  13.884  0.7080 -2.9638 -0.7599
 3779SOL    HW222800   0.678   3.727  13.861  2.3508 -0.2572 -1.2652
 3780SOL     OW22801   3.764   1.436   1.340  0.1026 -0.0390  0.3061
 3780SOL    HW122802   3.806   1.421   1.425 -0.1289 -1.9545  0.0838
 3780SOL    HW222803   3.811   1.514   1.311  1.3463 -0.5208  1.0499
 3781SOL     OW22804   1.775   2.304  14.167 -0.7369 -0.0679  1.1814
 3781SOL    HW122805   1.721   2.360  14.113  0.5296 -0.2312 -0.2572
 3781SOL    HW222806   1.844   2.299  14.101  0.0838  4.3457  1.7123
 3782SOL     OW22807   1.739   2.377   6.057  0.0058  0.5490  0.0636
 3782SOL    HW122808   1.725   2.465   6.091 -1.8538  1.4087 -2.9507
 3782SOL    HW222809   1.770   2.338   6.139 -0.4385 -2.3559 -1.1349
 3783SOL     OW22810   1.729   3.254   6.447 -0.9107  0.0613  0.3614
 3783SOL    HW122811   1.727   3.231   6.354  2.9213  1.4379 -0.0591
 3783SOL    HW222812   1.818   3.283   6.463 -0.8169  0.0038 -0.0437
 3784SOL     OW22813   3.614   2.720   8.718  0.3134 -0.4879  0.1806
 3784SOL    HW122814   3.612   2.805   8.763 -3.0737  0.7704 -2.2885
 3784SOL    HW222815   3.572   2.658   8.778  0.1273 -0.8224 -0.3007
 3785SOL     OW22816   1.039   1.050  10.343 -0.0244 -0.3654 -0.7285
 3785SOL    HW122817   0.967   1.036  10.281 -0.8034  0.3981 -0.0039
 3785SOL    HW222818   1.098   0.980  10.316 -0.6527 -0.3559 -2.1667
 3786SOL     OW22819   2.022   3.354   6.938  0.0038 -0.1538  0.0732
 3786SOL    HW122820   1.945   3.348   6.882 -1.0822  1.8312  1.3533
 3786SOL    HW222821   2.083   3.404   6.885 -1.2071  2.3168  0.9992
 3787SOL     OW22822   3.282   2.343   5.510 -0.2505  0.5790  0.5602
 3787SOL    HW122823   3.241   2.417   5.466  0.4729  0.7642  0.1973
 3787SOL    HW222824   3.365   2.386   5.532  1.1658 -1.8876  0.0554
 3788SOL     OW22825   3.776   0.401   8.297 -0.2443 -0.3750  0.2529
 3788SOL    HW122826   3.683   0.385   8.314 -0.6688  2.1379  0.2137
 3788SOL    HW222827   3.798   0.359   8.214  1.1131 -0.0191  0.4301
 3789SOL     OW22828   3.440   4.171  10.485 -0.1146  0.1959  0.6011
 3789SOL    HW122829   3.477   4.190  10.571  2.6970 -0.5865 -0.4351
 3789SOL    HW222830   3.422   4.078  10.498  0.6452  0.2557  2.1052
 3790SOL     OW22831   4.095   2.638   5.818  0.0046  0.5911 -0.0031
 3790SOL    HW122832   4.021   2.578   5.805  0.1260  0.9168 -2.2939
 3790SOL    HW222833   4.068   2.683   5.898  0.5995 -0.1034  0.5792
 3791SOL     OW22834   2.928   2.210   5.573 -0.4695 -0.1046 -0.3739
 3791SOL    HW122835   2.884   2.294   5.557 -2.5114 -1.2193 -0.5461
 3791SOL    HW222836   2.891   2.163   5.498  1.7838 -2.5361  0.0318
 3792SOL     OW22837   1.172   1.477   5.591 -0.2442  0.0636  0.3121
 3792SOL    HW122838   1.228   1.400   5.583 -0.6635  0.0431 -2.3704
 3792SOL    HW222839   1.235   1.533   5.636  2.6592 -2.3348 -0.7904
 3793SOL     OW22840   1.491   4.301   6.965  0.6013 -0.3084  0.2983
 3793SOL    HW122841   1.563   4.363   6.975  0.9195 -1.1026  2.9046
 3793SOL    HW222842   1.528   4.241   6.901  1.8224  2.1114 -1.2722
 3794SOL     OW22843   3.120   4.376  15.003  0.2219 -0.5258 -0.2201
 3794SOL    HW122844   3.049   4.386  15.066  0.5829  2.5535 -0.2812
 3794SOL    HW222845   3.193   4.342  15.055  0.4128 -1.1441 -0.8870
 3795SOL     OW22846   4.325   0.599   3.598  0.1439  0.0404  0.3226
 3795SOL    HW122847   4.249   0.542   3.605 -1.4435  1.8304 -2.3106
 3795SOL    HW222848   4.366   0.552   3.525 -0.0683 -0.5358  0.5785
 3796SOL     OW22849   2.262   3.895   6.336  0.0110 -0.5066  0.0925
 3796SOL    HW122850   2.285   3.849   6.255 -0.0050 -0.1696 -0.1043
 3796SOL    HW222851   2.347   3.893   6.380  0.0483  0.1828  0.0515
 3797SOL     OW22852   3.645   2.218   2.712  0.1449 -0.2681 -0.4297
 3797SOL    HW122853   3.662   2.306   2.679  0.8137  0.1767  1.0927
 3797SOL    HW222854   3.637   2.238   2.805 -0.4910  0.2167 -0.5949
 3798SOL     OW22855   3.450   0.478  15.878  0.0200 -0.0351 -0.2621
 3798SOL    HW122856   3.438   0.560  15.831  0.5904 -1.8690 -3.6139
 3798SOL    HW222857   3.361   0.443  15.871 -0.5739  0.9286  2.4253
 3799SOL     OW22858   2.425   2.698   4.802 -0.1379  0.6302 -0.0084
 3799SOL    HW122859   2.412   2.761   4.731 -2.2396  0.1397 -0.0605
 3799SOL    HW222860   2.496   2.748   4.842 -0.9837  0.4232  1.7248
 3800SOL     OW22861   3.731   4.168   1.697  0.0187 -0.0939  0.6205
 3800SOL    HW122862   3.716   4.075   1.684 -0.1020 -0.0102  0.1792
 3800SOL    HW222863   3.823   4.182   1.679 -0.3604  0.0492 -1.1583
 3801SOL     OW22864   1.912   1.178   0.548  0.6524 -0.1795  0.0663
 3801SOL    HW122865   2.001   1.213   0.539  0.5729  0.2169  0.7856
 3801SOL    HW222866   1.912   1.136   0.634 -3.2811 -1.4809 -0.5870
 3802SOL     OW22867   3.975   3.407   5.510 -0.4683 -0.3660 -0.0096
 3802SOL    HW122868   4.051   3.463   5.491 -0.4943 -0.8629 -1.5640
 3802SOL    HW222869   4.017   3.356   5.580 -0.7530 -2.4559 -1.3869
 3803SOL     OW22870   3.722   0.428   3.422  0.2339  0.6831  0.3495
 3803SOL    HW122871   3.731   0.512   3.377 -3.4402  0.6710 -0.4042
 3803SOL    HW222872   3.707   0.369   3.348 -0.2882 -0.3727  1.2914
 3804SOL     OW22873   1.199   0.688  12.184 -0.2055 -0.0247  0.1277
 3804SOL    HW122874   1.236   0.669  12.270  0.3918 -1.9534 -0.5524
 3804SOL    HW222875   1.122   0.742  12.196  0.4941  1.1625 -0.7111
 3805SOL     OW22876   2.918   1.952   8.451 -0.1428 -0.2262  0.4608
 3805SOL    HW122877   2.850   1.966   8.385  0.6089  1.2226 -0.0117
 3805SOL    HW222878   2.920   1.857   8.465  1.1832 -0.3140 -0.3219
 3806SOL     OW22879   1.879   3.275  15.681  0.3848 -0.1720  0.1209
 3806SOL    HW122880   1.957   3.321  15.713  0.1152  0.9134 -0.7699
 3806SOL    HW222881   1.909   3.185  15.668 -0.1859 -0.4308  0.5879
 3807SOL     OW22882   2.580   2.043   2.848  0.6953  0.1601  0.1602
 3807SOL    HW122883   2.490   2.011   2.848  0.5226  0.6545 -1.0320
 3807SOL    HW222884   2.583   2.102   2.773 -2.3790  0.5349  0.3354
 3808SOL     OW22885   3.417   1.278  14.434  0.6026 -0.8157 -0.4242
 3808SOL    HW122886   3.457   1.322  14.359  0.5274 -0.8267 -0.4706
 3808SOL    HW222887   3.332   1.323  14.437  0.5768 -1.0605  2.5221
 3809SOL     OW22888   2.046   0.978   9.652 -0.7053  0.0971  0.1276
 3809SOL    HW122889   1.999   1.011   9.575 -1.8576  2.6316  1.9299
 3809SOL    HW222890   2.100   0.907   9.615 -2.8872 -1.6848  0.4156
 3810SOL     OW22891   1.389   0.318   8.812  0.2304 -0.0650  0.4949
 3810SOL    HW122892   1.402   0.352   8.724  1.2016 -0.9025  0.3071
 3810SOL    HW222893   1.295   0.335   8.812  0.0977 -0.7751  3.0040
 3811SOL     OW22894   4.455   1.708   2.670  0.4438  0.2436 -0.0621
 3811SOL    HW122895   4.414   1.633   2.628 -0.5484  1.0774 -0.5851
 3811SOL    HW222896   4.432   1.778   2.609 -1.0897  0.3013  0.5618
 3812SOL     OW22897   1.355   1.510   6.726 -0.1812  0.5700  0.6491
 3812SOL    HW122898   1.396   1.480   6.645 -1.1222  0.8824  0.0576
 3812SOL    HW222899   1.266   1.529   6.697 -0.1533  0.6170  0.5961
 3813SOL     OW22900   1.091   1.708   2.519  0.0769 -0.5701  0.5535
 3813SOL    HW122901   1.059   1.620   2.539  2.5296 -1.3770  0.9512
 3813SOL    HW222902   1.106   1.699   2.425 -1.7471  2.6398 -0.0411
 3814SOL     OW22903   3.626   4.269   5.315  0.1147 -0.1385 -0.0309
 3814SOL    HW122904   3.580   4.194   5.353 -0.3887 -0.1104 -0.5792
 3814SOL    HW222905   3.566   4.299   5.247 -0.3132 -1.8004 -0.3801
 3815SOL     OW22906   1.862   1.807  15.460 -0.0281  0.0376 -0.4873
 3815SOL    HW122907   1.852   1.879  15.523  0.7469  0.2646 -0.6199
 3815SOL    HW222908   1.942   1.762  15.487 -0.4991 -0.4381  0.0899
 3816SOL     OW22909   3.826   1.435  12.252  0.0749 -0.7332 -0.1558
 3816SOL    HW122910   3.786   1.457  12.336 -1.0857 -1.2412 -0.5767
 3816SOL    HW222911   3.910   1.474  12.273  0.4986 -0.2039 -2.8166
 3817SOL     OW22912   1.770   0.219   7.726  0.5952  0.5483 -0.2356
 3817SOL    HW122913   1.752   0.178   7.642  1.4174  0.6332 -0.4538
 3817SOL    HW222914   1.792   0.137   7.771 -1.5152 -0.6503 -1.4068
 3818SOL     OW22915   2.082   1.270   4.245  0.1463 -0.3542 -0.6088
 3818SOL    HW122916   1.994   1.266   4.207 -0.9607 -0.0375  1.9439
 3818SOL    HW222917   2.121   1.328   4.180  1.0030  2.8003  2.7307
 3819SOL     OW22918   3.731   3.313   7.711 -0.0017  0.0624  0.1000
 3819SOL    HW122919   3.736   3.334   7.617  0.6778 -1.0447 -0.1138
 3819SOL    HW222920   3.707   3.395   7.753 -0.6499  0.0290 -0.2097
 3820SOL     OW22921   3.790   4.063   2.955  0.5130  0.0112  0.8375
 3820SOL    HW122922   3.773   4.117   2.877  0.8751  1.6421  1.8979
 3820SOL    HW222923   3.807   3.983   2.906  0.3905  0.3812  0.1838
 3821SOL     OW22924   4.390   2.605   3.676  0.1636 -0.9022 -0.2927
 3821SOL    HW122925   4.362   2.633   3.763 -0.6729  0.2595 -0.9416
 3821SOL    HW222926   4.470   2.558   3.701  0.4393  0.2986  1.0651
 3822SOL     OW22927   3.341   0.580   2.885 -0.2972 -0.1414 -0.3236
 3822SOL    HW122928   3.364   0.511   2.947  1.8102 -0.5431 -1.5934
 3822SOL    HW222929   3.402   0.646   2.917 -0.8712 -0.3702  1.2838
 3823SOL     OW22930   1.917   2.541   3.216 -0.0144  0.3060  0.1180
 3823SOL    HW122931   1.943   2.582   3.298 -0.9384  1.7917 -0.3180
 3823SOL    HW222932   1.966   2.597   3.155 -1.4352  2.4919  0.9646
 3824SOL     OW22933   1.368   4.462  11.954 -0.7843 -0.0807  0.1685
 3824SOL    HW122934   1.357   4.539  12.011  0.1836  0.2494 -0.0850
 3824SOL    HW222935   1.459   4.483  11.933 -0.0680 -2.2741  1.0862
 3825SOL     OW22936   2.087   4.264   9.014 -0.0289 -0.3502 -0.1108
 3825SOL    HW122937   2.014   4.255   9.075  0.6435  0.2556  0.7857
 3825SOL    HW222938   2.047   4.267   8.927 -1.5692 -1.7699  0.5500
 3826SOL     OW22939   3.568   2.672   6.048  0.0090 -0.4203  0.0439
 3826SOL    HW122940   3.598   2.615   6.118  2.6090  2.7258  1.5051
 3826SOL    HW222941   3.611   2.637   5.970 -0.0553  0.6128 -0.4498
 3827SOL     OW22942   0.831   3.060  11.314 -0.1517 -0.7380  0.3532
 3827SOL    HW122943   0.739   3.080  11.328  0.3715  2.0486 -0.2244
 3827SOL    HW222944   0.845   3.090  11.224  1.4299  1.2925  1.2791
 3828SOL     OW22945   4.451   0.576   2.438 -0.4342 -0.2287  0.2580
 3828SOL    HW122946   4.391   0.531   2.498 -1.4602 -0.4983 -0.9902
 3828SOL    HW222947   4.428   0.665   2.465 -0.5683  0.0600 -0.8199
 3829SOL     OW22948   1.713   0.267   7.266 -0.1053  0.3406 -0.2386
 3829SOL    HW122949   1.786   0.297   7.212  0.1310  0.5308  0.1822
 3829SOL    HW222950   1.698   0.355   7.302  2.7371  1.0224 -0.7258
 3830SOL     OW22951   2.307   2.206   8.486 -0.7357 -0.0174 -0.0437
 3830SOL    HW122952   2.310   2.296   8.519 -1.9161 -0.1612  0.4378
 3830SOL    HW222953   2.230   2.212   8.430 -1.6536  0.1487  1.2395
 3831SOL     OW22954   1.429   3.476   8.612 -0.3125 -0.2587 -0.2772
 3831SOL    HW122955   1.389   3.464   8.526  0.2223 -0.5510 -0.4814
 3831SOL    HW222956   1.503   3.533   8.592  0.4876 -1.3826 -0.5121
 3832SOL     OW22957   1.562   0.337  17.613  0.1494  0.1265  0.1274
 3832SOL    HW122958   1.526   0.424  17.596 -0.2694  0.1730  1.2185
 3832SOL    HW222959   1.633   0.356  17.674 -1.2741  0.8344  1.5729
 3833SOL     OW22960   2.300   2.898  12.643  0.9112 -0.0240 -0.2711
 3833SOL    HW122961   2.354   2.974  12.620  0.8378 -0.0997 -0.6923
 3833SOL    HW222962   2.321   2.839  12.570 -0.1128 -1.2163  0.3962
 3834SOL     OW22963   1.721   0.579  12.417 -0.4383 -0.5234 -0.5004
 3834SOL    HW122964   1.786   0.524  12.374 -1.2024 -3.0490  1.5684
 3834SOL    HW222965   1.740   0.667  12.384 -1.7651  0.1547  0.5317
 3835SOL     OW22966   1.068   1.127   4.061 -0.1127 -0.1432  0.4999
 3835SOL    HW122967   1.128   1.150   4.132 -0.3072  1.5475  0.1249
 3835SOL    HW222968   1.130   1.136   3.988 -1.1901 -0.0560 -0.4089
 3836SOL     OW22969   2.534   3.739   6.503 -0.1072 -0.2957 -0.4656
 3836SOL    HW122970   2.487   3.784   6.573 -0.5092  0.1254 -1.0049
 3836SOL    HW222971   2.591   3.676   6.547  0.7361  3.1065  3.2665
 3837SOL     OW22972   0.848   4.139   4.514 -0.0374  0.4637 -0.0199
 3837SOL    HW122973   0.866   4.089   4.434  0.0105 -1.3570  1.1276
 3837SOL    HW222974   0.771   4.090   4.543  0.3230  1.0122  1.8064
 3838SOL     OW22975   2.512   3.130   3.218  0.0795 -0.7508 -0.0698
 3838SOL    HW122976   2.574   3.198   3.192 -0.7991 -0.5697 -1.6731
 3838SOL    HW222977   2.551   3.097   3.299 -1.6078 -1.2859  0.5150
 3839SOL     OW22978   3.793   1.841   4.505 -0.2436  0.0528 -0.3808
 3839SOL    HW122979   3.718   1.826   4.447 -0.4193  2.2778 -0.7255
 3839SOL    HW222980   3.756   1.812   4.589  1.1276  0.5772  0.3931
 3840SOL     OW22981   1.329   4.500   8.393  0.3645 -0.2018  0.2641
 3840SOL    HW122982   1.376   4.431   8.345  1.9014  1.5916 -0.7705
 3840SOL    HW222983   1.282   4.444   8.455 -0.8843 -1.9100 -2.1953
 3841SOL     OW22984   0.479   2.319   6.033  0.2840  0.3479 -0.2472
 3841SOL    HW122985   0.390   2.324   6.068  1.2147 -1.4440  2.3906
 3841SOL    HW222986   0.531   2.313   6.114  0.2289  1.4908 -0.1319
 3842SOL     OW22987   2.925   2.589   8.212  0.2768 -0.2056  0.2335
 3842SOL    HW122988   2.992   2.607   8.147  2.1492  1.0308  2.4793
 3842SOL    HW222989   2.908   2.677   8.247  0.2282  0.0574 -0.4506
 3843SOL     OW22990   0.969   2.512   3.106  0.4445  0.5190  0.2061
 3843SOL    HW122991   0.960   2.554   3.021 -0.0497 -1.3126 -0.6641
 3843SOL    HW222992   0.898   2.448   3.101 -0.9487  1.9305  1.6517
 3844SOL     OW22993   0.081   4.504  16.238  0.1072 -0.0818  0.6664
 3844SOL    HW122994   0.017   4.462  16.181  1.7305  0.3808 -1.5348
 3844SOL    HW222995   0.090   4.580  16.181  1.0341 -1.1706 -0.6665
 3845SOL     OW22996   0.375   4.705  15.188  0.3592 -0.7920 -0.5202
 3845SOL    HW122997   0.318   0.015  15.119  1.3119  0.6185 -0.6099
 3845SOL    HW222998   0.346   4.615  15.174  0.0009 -0.8940  0.8302
 3846SOL     OW22999   4.687   0.410   2.021 -0.0106  0.3678  0.5664
 3846SOL    HW123000   4.674   0.321   1.986  0.0457 -0.0046  1.4780
 3846SOL    HW223001   0.015   0.382   2.097  1.9577 -1.3454 -1.4042
 3847SOL     OW23002   4.355   0.643   9.241 -0.0770  0.2978 -0.1404
 3847SOL    HW123003   4.382   0.666   9.152  1.8649 -1.3865 -0.0049
 3847SOL    HW223004   4.353   0.721   9.296 -2.6639 -0.3307  0.6561
 3848SOL     OW23005   0.404   3.256   1.551  0.1763 -0.4908  0.1100
 3848SOL    HW123006   0.492   3.269   1.516 -0.2710  1.7048 -0.1949
 3848SOL    HW223007   0.366   3.335   1.513  0.6421 -1.2777 -1.9993
 3849SOL     OW23008   4.603   1.193   2.842 -0.1223  0.1221  0.4920
 3849SOL    HW123009   4.697   1.175   2.846 -0.3197 -1.3115 -1.2932
 3849SOL    HW223010   4.594   1.161   2.752  0.7039 -0.7356  0.7165
 3850SOL     OW23011   3.318   1.146   9.838 -0.4054  0.0412  0.6870
 3850SOL    HW123012   3.409   1.120   9.826  0.1712  2.0344  0.7128
 3850SOL    HW223013   3.314   1.151   9.934  0.2025 -3.9399  0.9376
 3851SOL     OW23014   2.152   3.001  16.127  0.2678  0.2571 -0.0391
 3851SOL    HW123015   2.146   3.084  16.176 -0.5239  0.9163 -1.2614
 3851SOL    HW223016   2.247   2.996  16.138  0.1832 -0.2659  0.4553
 3852SOL     OW23017   3.701   0.715  13.370  0.1708  0.0671  0.0454
 3852SOL    HW123018   3.685   0.798  13.325 -0.7585  1.2916  2.6166
 3852SOL    HW223019   3.658   0.728  13.454  0.6099  1.3790  0.0688
 3853SOL     OW23020   3.421   2.981   3.156 -0.0836 -0.1733 -0.2687
 3853SOL    HW123021   3.381   2.938   3.231 -4.0113 -0.0929 -2.3265
 3853SOL    HW223022   3.511   2.948   3.161 -0.7060 -2.0874 -1.7190
 3854SOL     OW23023   1.243   3.222   8.988  0.5245  0.0183  0.2558
 3854SOL    HW123024   1.283   3.157   8.929 -0.3474  0.5842 -0.9566
 3854SOL    HW223025   1.208   3.287   8.927 -2.3415  0.4290  2.3653
 3855SOL     OW23026   0.452   2.475   5.505 -0.1347  0.6222 -0.5209
 3855SOL    HW123027   0.405   2.559   5.497 -1.5633 -0.1145  0.1329
 3855SOL    HW223028   0.513   2.501   5.573  0.6458 -1.3055 -0.4829
 3856SOL     OW23029   3.739   0.710   8.807 -0.0459  0.0410  0.1463
 3856SOL    HW123030   3.781   0.658   8.875  1.3714  0.9981  0.0085
 3856SOL    HW223031   3.676   0.766   8.851 -0.3825 -0.0756 -0.1895
 3857SOL     OW23032   2.126   0.680   5.404  0.8364 -0.8278 -0.5948
 3857SOL    HW123033   2.102   0.763   5.361  0.1294 -0.7574 -0.0590
 3857SOL    HW223034   2.147   0.716   5.491 -0.4836  0.8169 -0.9605
 3858SOL     OW23035   4.041   4.270   1.891 -0.2720 -0.0570  0.2107
 3858SOL    HW123036   4.108   4.298   1.829 -0.5751 -0.5818 -0.3460
 3858SOL    HW223037   3.979   4.235   1.827  0.5698  0.1255 -0.6951
 3859SOL     OW23038   0.581   4.254   3.120 -0.0939 -0.2597  0.6899
 3859SOL    HW123039   0.521   4.317   3.160  1.0176 -0.9581  3.4355
 3859SOL    HW223040   0.659   4.308   3.137  0.3677 -1.2817  1.8529
 3860SOL     OW23041   1.947   1.650   7.139 -0.1057  0.3240  0.1444
 3860SOL    HW123042   2.021   1.675   7.084  0.0748  1.8494  1.0774
 3860SOL    HW223043   1.936   1.738   7.177 -1.3502 -0.0150  0.5952
 3861SOL     OW23044   1.068   4.400   9.275  0.2448 -0.1919  0.0501
 3861SOL    HW123045   1.105   4.385   9.188  1.2094 -1.6190  0.6958
 3861SOL    HW223046   1.040   4.309   9.287 -1.7542  0.2103 -1.6339
 3862SOL     OW23047   2.184   4.464   2.378  0.1099 -0.0289 -0.4736
 3862SOL    HW123048   2.126   4.502   2.443  0.9396 -0.6898  0.6498
 3862SOL    HW223049   2.225   4.540   2.336  0.7320 -0.8321 -1.3415
 3863SOL     OW23050   3.092   1.971  11.634 -0.2549 -0.3938 -0.1068
 3863SOL    HW123051   3.009   1.927  11.650 -0.5583  1.1029  2.3642
 3863SOL    HW223052   3.065   2.050  11.587  2.1272  0.4305 -0.0932
 3864SOL     OW23053   2.149   4.565   2.013 -0.1777  0.0868  0.0471
 3864SOL    HW123054   2.070   4.522   1.981 -1.2540  2.8060 -0.8677
 3864SOL    HW223055   2.112   4.626   2.077 -0.2599  0.1430 -0.0546
 3865SOL     OW23056   1.381   1.076  12.068  0.3730 -0.1053 -0.0875
 3865SOL    HW123057   1.366   1.089  12.162  0.5119 -1.6938  0.1641
 3865SOL    HW223058   1.293   1.093  12.035 -0.1487 -0.6803  1.0161
 3866SOL     OW23059   3.771   3.901  16.982  0.2672  0.3005  0.1854
 3866SOL    HW123060   3.736   3.987  17.006  2.2076  1.7296 -2.1174
 3866SOL    HW223061   3.703   3.883  16.918 -0.3247  0.1933  0.8397
 3867SOL     OW23062   3.310   4.712   7.363  0.6415  0.6219  0.8547
 3867SOL    HW123063   3.391   4.706   7.312  0.2305  0.8871  0.1769
 3867SOL    HW223064   3.339   4.678   7.448 -0.2293  1.0023  1.3033
 3868SOL     OW23065   3.848   4.387   8.369 -0.2288  0.3531 -0.4418
 3868SOL    HW123066   3.822   4.472   8.335 -2.6483 -1.8923 -4.1782
 3868SOL    HW223067   3.766   4.340   8.356 -0.0999 -0.9432  3.3835
 3869SOL     OW23068   3.863   1.429   3.552  0.2892  0.3196  0.6077
 3869SOL    HW123069   3.809   1.507   3.559  0.0998  0.0831  1.8108
 3869SOL    HW223070   3.837   1.380   3.474  0.4383  0.6355  0.3594
 3870SOL     OW23071   4.270   1.380   6.450 -0.2896 -0.0087  0.8849
 3870SOL    HW123072   4.205   1.355   6.384  1.3184 -0.2197 -0.6182
 3870SOL    HW223073   4.257   1.474   6.438  0.6075 -0.1147 -0.8698
 3871SOL     OW23074   0.354   3.368  14.286 -0.6692 -0.5161  0.1166
 3871SOL    HW123075   0.410   3.414  14.223 -3.7883  1.5213 -1.1567
 3871SOL    HW223076   0.354   3.282  14.243 -0.0617 -1.1429  1.3792
 3872SOL     OW23077   1.024   2.041   4.182  0.5557 -0.3128 -0.2408
 3872SOL    HW123078   1.057   2.010   4.097 -1.1629 -1.6245 -0.4413
 3872SOL    HW223079   1.032   2.136   4.172 -1.4251 -0.3147 -2.0350
 3873SOL     OW23080   4.346   3.305   7.473 -0.0190  0.1317  0.2599
 3873SOL    HW123081   4.373   3.381   7.524  0.2422  0.0724  0.2117
 3873SOL    HW223082   4.384   3.331   7.389 -0.5329 -2.4669 -0.7677
 3874SOL     OW23083   4.162   2.372  14.477  0.2898 -0.1833  0.4394
 3874SOL    HW123084   4.187   2.291  14.432 -1.3740  1.2439 -3.1027
 3874SOL    HW223085   4.246   2.418  14.476 -0.7192  1.6671 -0.2496
 3875SOL     OW23086   3.187   3.572   7.141 -0.0714  0.2710 -0.2334
 3875SOL    HW123087   3.232   3.609   7.066  1.3328 -1.0694 -0.0528
 3875SOL    HW223088   3.161   3.648   7.193 -0.5762  0.4551 -0.7612
 3876SOL     OW23089   2.430   1.467   6.185 -0.3065  0.0008 -0.0158
 3876SOL    HW123090   2.488   1.454   6.110 -0.6344 -0.1400 -0.2474
 3876SOL    HW223091   2.485   1.466   6.263  0.5048  1.0333 -0.5693
 3877SOL     OW23092   1.889   1.509   0.760  0.5839  0.2318 -0.2719
 3877SOL    HW123093   1.806   1.463   0.743  1.9767 -1.1537 -3.2218
 3877SOL    HW223094   1.921   1.546   0.678  1.3795 -1.9822 -0.9614
 3878SOL     OW23095   0.151   2.119  14.658  0.3819 -0.0849 -0.4503
 3878SOL    HW123096   0.093   2.135  14.584 -1.0308  0.1267  0.7119
 3878SOL    HW223097   0.231   2.089  14.614  0.8610  1.5002 -0.6488
 3879SOL     OW23098   3.025   4.100   0.471 -0.3018  0.2025 -0.3517
 3879SOL    HW123099   2.948   4.080   0.523  1.2198  0.7401  2.1120
 3879SOL    HW223100   3.062   4.011   0.468  3.0098  1.6061 -1.2233
 3880SOL     OW23101   1.862   4.091  10.014  0.2306 -0.6110 -0.2776
 3880SOL    HW123102   1.887   4.167   9.962  0.5397 -0.6543 -0.1908
 3880SOL    HW223103   1.858   4.024   9.945 -0.5484  0.8883 -1.6968
 3881SOL     OW23104   1.590   1.461  16.560 -0.1141  0.4103  0.4226
 3881SOL    HW123105   1.631   1.536  16.517 -0.5533  0.6098  0.3474
 3881SOL    HW223106   1.661   1.428  16.614  0.3534  1.0659  0.2088
 3882SOL     OW23107   1.335   3.828   5.101  0.6893 -0.4014  0.0348
 3882SOL    HW123108   1.291   3.899   5.148 -2.2212 -1.4145 -1.1593
 3882SOL    HW223109   1.284   3.748   5.115  0.0103  0.0034 -0.1284
 3883SOL     OW23110   0.119   2.506   5.449  0.2972 -0.7354  0.0785
 3883SOL    HW123111   0.029   2.499   5.483  0.3320  1.1404  0.5846
 3883SOL    HW223112   0.168   2.426   5.465  0.7086 -1.1203 -3.1221
 3884SOL     OW23113   1.104   2.357  10.527  0.4760 -0.5434  0.2951
 3884SOL    HW123114   1.104   2.443  10.569  1.7204 -0.6831  0.5880
 3884SOL    HW223115   1.074   2.295  10.594  0.5529 -1.7493 -0.7825
 3885SOL     OW23116   0.510   2.010   6.059 -0.5420 -0.3171 -0.0890
 3885SOL    HW123117   0.498   1.915   6.047  0.6336 -0.7006  1.8506
 3885SOL    HW223118   0.470   2.053   5.984  0.8483 -0.1781 -0.7525
 3886SOL     OW23119   3.331   4.101   3.462 -0.2482 -0.9609 -0.4803
 3886SOL    HW123120   3.282   4.054   3.394 -0.6729 -0.9932 -0.1503
 3886SOL    HW223121   3.262   4.123   3.524  0.5375 -0.6703  0.2977
 3887SOL     OW23122   4.692   1.079  17.468  0.1958  0.0626 -0.0463
 3887SOL    HW123123   4.644   1.130  17.533 -0.7384  0.1662 -0.8248
 3887SOL    HW223124   4.624   1.029  17.423  0.9622  0.9707 -2.2115
 3888SOL     OW23125   4.086   4.390  13.087 -0.2877 -0.5069  0.2049
 3888SOL    HW123126   4.041   4.319  13.133 -0.3989 -1.2362 -1.0399
 3888SOL    HW223127   4.116   4.446  13.159  1.2349 -0.8291 -0.1691
 3889SOL     OW23128   3.276   0.340   3.852  0.0487  0.2079  0.1415
 3889SOL    HW123129   3.263   0.400   3.778 -0.3455  0.4178  0.3850
 3889SOL    HW223130   3.255   0.404   3.921  1.2386  2.2687 -1.3978
 3890SOL     OW23131   2.739   1.980   1.738 -0.9200  0.5844  0.4961
 3890SOL    HW123132   2.734   1.885   1.752 -0.8050  0.4251 -0.5258
 3890SOL    HW223133   2.675   2.021   1.796  0.2008  1.4707  1.0995
 3891SOL     OW23134   0.499   0.482   5.346 -0.3095  0.1652  0.3833
 3891SOL    HW123135   0.584   0.454   5.311 -0.3884  0.4979 -0.0744
 3891SOL    HW223136   0.492   0.407   5.406 -0.1058 -0.9713 -1.0019
 3892SOL     OW23137   4.183   3.200   5.219  0.1549 -1.2596 -0.2228
 3892SOL    HW123138   4.228   3.279   5.188 -0.4072 -0.2705  1.4791
 3892SOL    HW223139   4.254   3.157   5.267  0.9157  0.4013  0.1441
 3893SOL     OW23140   1.364   2.224   3.855  0.2259 -0.2198 -0.4230
 3893SOL    HW123141   1.357   2.287   3.926 -1.9607  1.9574 -2.5625
 3893SOL    HW223142   1.417   2.264   3.786  1.0299 -1.5357 -0.5751
 3894SOL     OW23143   0.211   3.070   7.454 -0.3370 -0.0016 -0.5571
 3894SOL    HW123144   0.232   3.153   7.411 -0.1635  0.7184  0.9141
 3894SOL    HW223145   0.282   3.008   7.436  0.1794  1.3147 -2.9711
 3895SOL     OW23146   2.910   3.343   5.132 -0.1051  0.2017 -0.1093
 3895SOL    HW123147   2.996   3.338   5.091 -0.1832  2.2054 -0.4840
 3895SOL    HW223148   2.859   3.319   5.055  0.1483 -3.8080  0.9375
 3896SOL     OW23149   1.088   3.055   3.474 -0.4788  0.0407 -0.1134
 3896SOL    HW123150   1.031   3.019   3.407  0.2183 -1.2349 -0.0057
 3896SOL    HW223151   1.025   3.058   3.546 -1.3646 -1.7864 -0.8248
 3897SOL     OW23152   4.191   3.122   9.721 -0.6830 -0.3264  0.0883
 3897SOL    HW123153   4.273   3.169   9.738  0.2664 -1.7597 -0.5195
 3897SOL    HW223154   4.153   3.125   9.808  0.2603  0.0163  0.4886
 3898SOL     OW23155   0.986   4.512   9.499  1.2040 -0.0645  0.2148
 3898SOL    HW123156   1.024   4.485   9.416  1.9865 -1.2288  0.9569
 3898SOL    HW223157   0.915   4.449   9.503  2.3716 -1.4190 -0.3622
 3899SOL     OW23158   1.535   4.340   6.067 -0.1757 -0.6662  0.4105
 3899SOL    HW123159   1.550   4.370   6.157 -0.4774  1.7346 -0.3396
 3899SOL    HW223160   1.620   4.330   6.024  0.3494  0.0866  1.2877
 3900SOL     OW23161   0.063   0.970   3.035 -0.1337  0.1070  0.4609
 3900SOL    HW123162   0.068   1.052   2.985  2.1817  0.7036  1.6810
 3900SOL    HW223163   0.129   0.969   3.104  1.2514  0.2049 -0.8592
 3901SOL     OW23164   0.477   0.847  14.330  0.2293  0.2566  0.0898
 3901SOL    HW123165   0.438   0.828  14.244 -0.5141  0.2438  0.4284
 3901SOL    HW223166   0.508   0.760  14.354 -1.9104 -0.1846  1.2256
 3902SOL     OW23167   0.088   2.019   1.288 -0.8764  0.0501  0.4080
 3902SOL    HW123168   0.023   2.081   1.254 -0.4738 -1.3180 -2.8419
 3902SOL    HW223169   0.047   1.943   1.247 -2.6197  1.2622 -0.0809
 3903SOL     OW23170   0.269   0.609  14.512  0.0294 -0.3670 -0.0580
 3903SOL    HW123171   0.247   0.603  14.419 -1.5522 -1.7298  0.4010
 3903SOL    HW223172   0.334   0.539  14.514 -2.3857 -2.6617 -1.6948
 3904SOL     OW23173   2.460   0.503  12.797 -0.0034 -0.1244 -0.2493
 3904SOL    HW123174   2.502   0.571  12.850 -0.9112 -0.4360  0.8646
 3904SOL    HW223175   2.499   0.502  12.710  1.0946  1.0448  0.2336
 3905SOL     OW23176   3.657   0.741   4.155 -0.4028  0.1970 -0.0911
 3905SOL    HW123177   3.674   0.653   4.121  0.5034  0.6026 -0.6920
 3905SOL    HW223178   3.561   0.746   4.154 -0.5195 -2.0888 -0.4126
 3906SOL     OW23179   4.023   0.091   9.073  0.1392 -0.5601 -0.2878
 3906SOL    HW123180   3.972   0.090   8.992 -0.7180 -2.1666  0.2613
 3906SOL    HW223181   4.014   0.179   9.109  0.9896  0.1033 -1.7097
 3907SOL     OW23182   0.261   3.542  12.426  0.0456  0.0732 -0.7236
 3907SOL    HW123183   0.234   3.461  12.469  0.0845 -1.0115 -2.7280
 3907SOL    HW223184   0.258   3.526  12.332 -0.5204 -2.4881 -0.2789
 3908SOL     OW23185   3.169   0.967  14.051  1.0958  0.1446 -0.2827
 3908SOL    HW123186   3.215   1.044  14.017  1.2141 -0.2253 -0.9535
 3908SOL    HW223187   3.185   0.979  14.145  0.7324  1.5131 -0.3928
 3909SOL     OW23188   0.193   3.754  17.141  0.0647  0.0428 -0.0455
 3909SOL    HW123189   0.273   3.701  17.138 -0.7541 -1.2829  1.6068
 3909SOL    HW223190   0.148   3.719  17.218  2.1140 -0.8602  0.7556
 3910SOL     OW23191   2.448   3.885  16.290  0.7598 -0.0505 -0.2768
 3910SOL    HW123192   2.456   3.965  16.238 -2.7878  0.1584 -0.5100
 3910SOL    HW223193   2.409   3.826  16.226  2.5571  0.7689 -2.1154
 3911SOL     OW23194   0.611   1.644  12.247 -0.3381 -0.1857  0.4389
 3911SOL    HW123195   0.669   1.589  12.194 -0.3108  2.0776 -1.9543
 3911SOL    HW223196   0.614   1.723  12.193  0.5890 -0.5715 -0.0778
 3912SOL     OW23197   2.776   1.668   5.844  0.3974  0.4234 -0.2820
 3912SOL    HW123198   2.795   1.653   5.751 -3.5101 -0.7045 -0.9038
 3912SOL    HW223199   2.712   1.599   5.862  0.4916  0.6458  0.9070
 3913SOL     OW23200   1.556   4.565   8.680 -0.3702 -0.3169  0.6921
 3913SOL    HW123201   1.591   4.653   8.668 -0.0360 -0.5723 -0.2125
 3913SOL    HW223202   1.570   4.525   8.594 -1.1769  0.7748  0.0578
 3914SOL     OW23203   1.043   2.365   3.358  0.2758  0.1196 -0.2422
 3914SOL    HW123204   0.974   2.326   3.304 -0.4967  1.1809 -0.0188
 3914SOL    HW223205   1.090   2.413   3.289 -0.8780  3.9931  1.7243
 3915SOL     OW23206   4.427   0.456   4.249 -0.4293  0.2473  0.0998
 3915SOL    HW123207   4.499   0.457   4.313 -0.7631  0.1405  0.4733
 3915SOL    HW223208   4.402   0.368   4.276  1.6361  0.0519  1.4149
 3916SOL     OW23209   2.682   4.054   3.701  0.0109 -0.4106  0.3730
 3916SOL    HW123210   2.680   3.972   3.652 -1.7728 -1.2188  1.7829
 3916SOL    HW223211   2.733   4.034   3.780 -1.7354 -1.9196  1.1176
 3917SOL     OW23212   3.603   2.177  10.427  0.1259  0.8238  0.8099
 3917SOL    HW123213   3.511   2.156  10.443  0.8756 -1.4657  2.1254
 3917SOL    HW223214   3.650   2.108  10.473 -0.8321 -0.6901 -0.4674
 3918SOL     OW23215   1.380   1.377   1.016  0.1675 -0.1322  0.0037
 3918SOL    HW123216   1.423   1.311   1.071 -1.0700  0.5736  1.7902
 3918SOL    HW223217   1.332   1.328   0.949 -0.3131  0.7419 -0.2891
 3919SOL     OW23218   3.076   2.840   4.369  0.6531  0.1877 -0.7006
 3919SOL    HW123219   3.153   2.870   4.418  0.0334 -0.2060  0.5109
 3919SOL    HW223220   3.116   2.770   4.319  0.3001 -0.4440 -0.0927
 3920SOL     OW23221   1.107   3.623  11.327  0.1102  0.3312 -0.1271
 3920SOL    HW123222   1.031   3.569  11.349 -0.0213 -0.8053 -3.2741
 3920SOL    HW223223   1.069   3.710  11.341  0.9475  1.1919 -3.2451
 3921SOL     OW23224   2.384   2.076  13.877  0.2891 -0.0162  0.1545
 3921SOL    HW123225   2.434   1.998  13.853  2.1844  0.8707  1.1780
 3921SOL    HW223226   2.454   2.104  13.937  1.2486 -1.1887 -0.4083
 3922SOL     OW23227   3.934   4.577   2.279 -0.3279  0.4437  0.2416
 3922SOL    HW123228   3.997   4.521   2.233 -1.1262  0.8877 -1.3846
 3922SOL    HW223229   3.970   4.579   2.368 -0.0573 -1.7261  0.2006
 3923SOL     OW23230   3.097   3.427   4.621  0.5955  0.2436  0.0951
 3923SOL    HW123231   3.074   3.515   4.592 -1.8399 -0.3221  0.3330
 3923SOL    HW223232   3.074   3.374   4.544 -2.5638 -0.4031  1.4813
 3924SOL     OW23233   2.410   3.884   2.775 -0.1853  1.1612 -1.0507
 3924SOL    HW123234   2.437   3.969   2.808  0.9549  0.5876 -0.5119
 3924SOL    HW223235   2.440   3.889   2.685 -0.8613  1.9417 -1.2265
 3925SOL     OW23236   3.814   3.775   7.811  0.3622 -0.2836  0.3177
 3925SOL    HW123237   3.881   3.709   7.793  1.9299  1.9234 -1.7827
 3925SOL    HW223238   3.766   3.730   7.881  1.3744 -0.8145  0.6731
 3926SOL     OW23239   2.367   1.314   7.030 -0.1443  0.0481  0.2007
 3926SOL    HW123240   2.295   1.285   7.086  0.2370 -0.8181  0.2316
 3926SOL    HW223241   2.368   1.249   6.960  0.4535 -1.3629  1.5191
 3927SOL     OW23242   2.336   4.386   7.509  0.0149  0.2714  0.6666
 3927SOL    HW123243   2.355   4.458   7.568 -0.4265 -0.8442  2.1880
 3927SOL    HW223244   2.404   4.392   7.442  0.7070  0.6852  1.4098
 3928SOL     OW23245   1.265   3.234  13.771 -0.3819  0.0660 -0.5908
 3928SOL    HW123246   1.217   3.270  13.846 -0.5348  0.6538 -0.9633
 3928SOL    HW223247   1.324   3.307  13.751 -0.4994 -0.4381 -2.8399
 3929SOL     OW23248   1.860   2.568   1.156  0.3293  0.4602 -0.0294
 3929SOL    HW123249   1.804   2.509   1.107  0.2724  1.5702 -1.3103
 3929SOL    HW223250   1.818   2.552   1.241  0.9405 -2.9579 -0.4006
 3930SOL     OW23251   3.740   4.350   6.409  0.2387 -0.3782  0.6696
 3930SOL    HW123252   3.750   4.435   6.366 -0.6780 -1.1034 -0.9835
 3930SOL    HW223253   3.673   4.372   6.474  0.5242  2.0442  0.1314
 3931SOL     OW23254   1.650   2.399   2.745  0.1813  0.2956  0.1089
 3931SOL    HW123255   1.723   2.458   2.764 -1.3644  1.7596  1.4509
 3931SOL    HW223256   1.681   2.324   2.797 -3.0789  0.0477  1.6878
 3932SOL     OW23257   1.211   0.043   2.600 -0.2037 -0.2504  0.1286
 3932SOL    HW123258   1.180   0.116   2.653  0.9456  0.9131 -0.8250
 3932SOL    HW223259   1.130   4.715   2.597 -0.0605 -0.4714  0.0850
 3933SOL     OW23260   2.972   2.034   4.204 -0.0001 -0.5673 -0.5656
 3933SOL    HW123261   2.953   1.999   4.291 -0.7681  1.3300  0.0312
 3933SOL    HW223262   3.005   1.951   4.170  1.5503  0.3120 -1.2189
 3934SOL     OW23263   3.160   3.419   4.350  0.2805 -0.9605  0.5362
 3934SOL    HW123264   3.160   3.393   4.257  1.7798 -0.5305  0.4063
 3934SOL    HW223265   3.067   3.431   4.368  0.1696  1.3892 -1.4894
 3935SOL     OW23266   0.458   0.840   5.062  0.3455 -0.1527 -0.0074
 3935SOL    HW123267   0.511   0.761   5.052 -1.0542 -0.9966 -0.7736
 3935SOL    HW223268   0.372   0.800   5.079  0.0031  0.7366  0.3530
 3936SOL     OW23269   3.500   2.040   5.060 -0.1890  0.3596 -0.1976
 3936SOL    HW123270   3.419   1.994   5.042  1.0604 -1.5644 -0.9429
 3936SOL    HW223271   3.508   2.038   5.155 -0.9582  1.2752 -0.1192
 3937SOL     OW23272   3.214   4.371   2.316 -0.2562 -0.2012  0.0440
 3937SOL    HW123273   3.305   4.398   2.303  0.8980 -2.8126  2.8460
 3937SOL    HW223274   3.221   4.278   2.336  0.5228 -0.6041 -2.0260
 3938SOL     OW23275   4.707   4.241   5.910 -0.0930  0.3824  0.2941
 3938SOL    HW123276   0.054   4.183   5.938  1.2638  0.7146 -2.3847
 3938SOL    HW223277   4.674   4.277   5.992 -1.0131  0.9670 -0.3398
 3939SOL     OW23278   4.669   3.558   4.404 -0.5555 -0.4431 -0.4976
 3939SOL    HW123279   4.720   3.478   4.392  0.2574 -0.1471  0.9356
 3939SOL    HW223280   4.639   3.554   4.495 -0.3516  0.0157 -0.4091
 3940SOL     OW23281   3.984   2.254   6.797  0.2640 -0.0232 -0.2045
 3940SOL    HW123282   4.017   2.179   6.846  1.0324  1.1675  1.1034
 3940SOL    HW223283   4.062   2.299   6.763 -0.9891  1.9849 -0.4485
 3941SOL     OW23284   4.393   1.984   7.004  0.1616  0.1050  0.8347
 3941SOL    HW123285   4.457   2.055   7.000  0.7403 -0.6819 -4.3053
 3941SOL    HW223286   4.425   1.929   7.076  1.1701 -0.1342  0.2048
 3942SOL     OW23287   3.341   2.196   4.213 -0.5045 -0.5801 -0.2815
 3942SOL    HW123288   3.278   2.238   4.272 -1.5748 -2.5391 -0.0155
 3942SOL    HW223289   3.350   2.276   4.163 -0.8734  0.6846  1.6773
 3943SOL     OW23290   3.097   2.249  11.801  0.0309 -0.3056  0.0963
 3943SOL    HW123291   3.068   2.196  11.727  0.9482 -1.7327  0.7675
 3943SOL    HW223292   3.068   2.334  11.769  0.6961 -0.0831  0.0748
 3944SOL     OW23293   1.002   4.440  14.559  0.0958  0.7469  0.0400
 3944SOL    HW123294   1.008   4.415  14.651  2.9020 -0.0751 -0.3812
 3944SOL    HW223295   0.909   4.462  14.553 -0.0518 -0.0869 -0.7302
 3945SOL     OW23296   1.549   0.443   6.912  0.1537  0.2127 -0.1731
 3945SOL    HW123297   1.484   0.489   6.966 -1.0018 -1.2543 -0.3107
 3945SOL    HW223298   1.488   0.438   6.839 -1.8875  2.1902  1.3786
 3946SOL     OW23299   3.615   2.281   5.399 -0.6726  0.3288 -0.4854
 3946SOL    HW123300   3.623   2.213   5.466 -0.2337  1.7913  0.9499
 3946SOL    HW223301   3.660   2.356   5.437 -0.7981  1.2277 -2.1214
 3947SOL     OW23302   2.122   0.387   5.406 -0.4143 -0.5943 -0.0980
 3947SOL    HW123303   2.114   0.413   5.498 -2.0050  1.3547 -0.8010
 3947SOL    HW223304   2.138   0.469   5.361 -1.2603  0.2014  1.0636
 3948SOL     OW23305   2.157   1.116  16.288 -0.3992  0.2535  0.6040
 3948SOL    HW123306   2.243   1.141  16.321  0.6629 -2.0047 -0.4040
 3948SOL    HW223307   2.101   1.167  16.346  0.7138  0.9773  1.0336
 3949SOL     OW23308   0.646   1.317   6.163 -0.0354  0.6135  0.8765
 3949SOL    HW123309   0.657   1.412   6.158  0.2947  0.5434  0.2456
 3949SOL    HW223310   0.716   1.286   6.220  1.9884  0.1443 -1.8598
 3950SOL     OW23311   4.309   2.722  17.260  0.2997 -0.0833 -0.1264
 3950SOL    HW123312   4.381   2.784  17.265  0.0535  0.3182 -1.6638
 3950SOL    HW223313   4.256   2.761  17.329  0.0328 -0.7910  0.0635
 3951SOL     OW23314   4.379   3.302   2.843 -0.0418  0.2476  0.2570
 3951SOL    HW123315   4.474   3.314   2.852  0.0243 -0.9412  1.2220
 3951SOL    HW223316   4.364   3.294   2.749  0.4459 -0.0889  0.2051
 3952SOL     OW23317   1.183   0.323   7.378 -0.2478  0.3049 -0.4325
 3952SOL    HW123318   1.125   0.251   7.404  1.0207 -0.0276  1.4514
 3952SOL    HW223319   1.275   0.301   7.391 -0.1809  0.6599 -0.3272
 3953SOL     OW23320   2.351   2.803   5.234  0.0901 -0.3019 -0.0618
 3953SOL    HW123321   2.273   2.841   5.194  0.3118 -1.0816 -1.2349
 3953SOL    HW223322   2.316   2.720   5.265  1.5983 -0.3954  1.3963
 3954SOL     OW23323   1.087   1.724   4.620 -0.5938 -0.2819 -0.2941
 3954SOL    HW123324   1.014   1.768   4.663 -0.1022  0.7480 -0.5215
 3954SOL    HW223325   1.058   1.723   4.528 -0.9592 -0.0405 -0.1792
 3955SOL     OW23326   2.567   1.475   8.845 -0.1789  0.5105  0.0289
 3955SOL    HW123327   2.640   1.530   8.874 -0.2434  0.9960 -0.7299
 3955SOL    HW223328   2.555   1.418   8.920  1.0280  0.5082  0.2116
 3956SOL     OW23329   1.942   0.668   4.947 -0.1700 -0.2292 -0.4826
 3956SOL    HW123330   1.866   0.690   4.893  0.6989  2.5404 -0.5643
 3956SOL    HW223331   1.990   0.749   4.929 -1.3783  1.1993  2.6910
 3957SOL     OW23332   0.299   3.374   4.648 -0.2830 -0.4873  0.4998
 3957SOL    HW123333   0.343   3.289   4.644  0.3515 -0.2182  1.5446
 3957SOL    HW223334   0.299   3.398   4.741 -2.9602  0.5389  0.2501
 3958SOL     OW23335   1.971   4.132  17.572  0.3813  0.4145 -0.6179
 3958SOL    HW123336   1.974   4.227  17.568 -3.7316  0.5423 -0.5745
 3958SOL    HW223337   1.878   4.111  17.565  0.2268  0.3914  1.4586
 3959SOL     OW23338   0.981   2.115   7.068 -0.5577 -0.0935 -0.0023
 3959SOL    HW123339   0.969   2.175   7.141  0.0882  1.5090 -1.2098
 3959SOL    HW223340   0.948   2.037   7.114  1.5438 -1.6168 -1.0769
 3960SOL     OW23341   0.804   3.908   3.432 -0.8063 -0.3433  0.0688
 3960SOL    HW123342   0.881   3.960   3.454  0.8469 -2.3533 -0.8837
 3960SOL    HW223343   0.742   3.971   3.396  0.7740  1.1901  0.0176
 3961SOL     OW23344   2.670   1.570   2.234  0.1662 -0.8424  0.7043
 3961SOL    HW123345   2.644   1.573   2.142  2.1660 -1.1495  0.1434
 3961SOL    HW223346   2.731   1.497   2.233  2.3632  1.0027  0.3277
 3962SOL     OW23347   1.714   4.449  14.992 -0.5381  0.3455 -0.1071
 3962SOL    HW123348   1.754   4.523  15.038 -0.4441  0.8930 -1.0515
 3962SOL    HW223349   1.623   4.457  15.018 -0.9936  0.0805 -1.6234
 3963SOL     OW23350   1.868   4.535   0.754  0.8542 -0.1168 -0.0937
 3963SOL    HW123351   1.880   4.628   0.733 -1.3115  0.4187  0.9619
 3963SOL    HW223352   1.905   4.531   0.842 -3.1601 -1.8408  1.5152
 3964SOL     OW23353   3.753   2.855  11.234  0.3312  0.1640 -0.2059
 3964SOL    HW123354   3.729   2.842  11.326  1.9103 -2.1755 -0.1079
 3964SOL    HW223355   3.692   2.925  11.209 -0.0284 -0.5816 -1.4258
 3965SOL     OW23356   3.510   3.345  12.564  0.1312 -0.1801  0.5187
 3965SOL    HW123357   3.605   3.356  12.574 -0.0042  0.5467  1.0251
 3965SOL    HW223358   3.492   3.405  12.492  0.6390 -1.7514 -0.9191
 3966SOL     OW23359   0.065   3.289   7.906 -0.3506  0.0794 -0.0408
 3966SOL    HW123360   0.073   3.195   7.891 -2.2591  0.0785 -1.0726
 3966SOL    HW223361   0.027   3.283   7.993 -0.6989  1.7037 -0.0803
 3967SOL     OW23362   0.769   3.129   1.619 -0.7649  0.1122  0.1960
 3967SOL    HW123363   0.745   3.204   1.563  1.0319  0.3806 -0.2257
 3967SOL    HW223364   0.698   3.066   1.604 -0.1932 -0.1021 -1.6474
 3968SOL     OW23365   1.445   2.537   0.549 -0.0765 -0.2203  0.0903
 3968SOL    HW123366   1.502   2.593   0.497 -0.3606 -0.8620 -0.9050
 3968SOL    HW223367   1.378   2.603   0.567  1.4359  1.0926  0.9195
 3969SOL     OW23368   1.744   2.337   5.782  0.2612 -0.6761 -0.1323
 3969SOL    HW123369   1.731   2.364   5.873 -1.1475 -1.6231 -0.0550
 3969SOL    HW223370   1.800   2.262   5.802  0.7099 -0.2435  0.2470
 3970SOL     OW23371   3.241   0.860   5.178 -0.0802  0.2657  0.4476
 3970SOL    HW123372   3.309   0.919   5.211 -0.5040  1.2129 -0.3449
 3970SOL    HW223373   3.248   0.792   5.244 -3.1355  0.7273  1.2129
 3971SOL     OW23374   2.741   2.671   7.262 -0.7751  0.0254 -0.9835
 3971SOL    HW123375   2.729   2.726   7.340  1.4595  0.5840 -1.0282
 3971SOL    HW223376   2.654   2.682   7.225 -0.7346  0.2783 -1.0065
 3972SOL     OW23377   0.741   2.837   4.201  0.4094  0.7203 -0.5988
 3972SOL    HW123378   0.787   2.778   4.141 -2.0561 -1.6561 -0.1301
 3972SOL    HW223379   0.655   2.825   4.162 -0.9493  0.6009  2.4821
 3973SOL     OW23380   0.336   1.009   7.732  0.5134  0.4460  0.0436
 3973SOL    HW123381   0.404   0.955   7.691 -1.0064 -0.4193 -1.3671
 3973SOL    HW223382   0.263   0.947   7.726  0.5641  0.5244 -1.3857
 3974SOL     OW23383   1.091   2.758   6.537 -0.3068  0.1993 -0.3472
 3974SOL    HW123384   1.106   2.663   6.537 -1.3748  0.0341 -1.6506
 3974SOL    HW223385   1.071   2.772   6.445  0.9851  2.4789 -0.2782
 3975SOL     OW23386   0.257   1.944   6.437 -0.1910 -0.5305 -0.1514
 3975SOL    HW123387   0.326   1.998   6.398 -0.1012 -0.4632  0.0972
 3975SOL    HW223388   0.198   2.002   6.487 -0.9510 -1.1387 -0.3462
 3976SOL     OW23389   2.002   1.665   6.516  0.4709 -0.2440 -0.1771
 3976SOL    HW123390   2.093   1.662   6.484  0.6926  1.5542  0.2881
 3976SOL    HW223391   2.018   1.725   6.589  0.3257  1.0497 -1.2166
 3977SOL     OW23392   1.015   4.686   6.429  0.3261  0.1360 -0.1938
 3977SOL    HW123393   0.989   4.715   6.341  2.6506 -2.7958 -1.8160
 3977SOL    HW223394   1.020   0.048   6.471  1.6971  1.2961 -2.6948
 3978SOL     OW23395   4.098   1.007   6.033 -0.0367 -0.0021 -0.1215
 3978SOL    HW123396   4.158   0.952   5.982 -0.5114 -0.9148  0.2974
 3978SOL    HW223397   4.131   0.985   6.121 -0.2388 -0.8728 -0.2588
 3979SOL     OW23398   0.692   0.451   7.077  0.5979 -0.3040 -0.3716
 3979SOL    HW123399   0.684   0.537   7.119 -1.3548 -0.4553 -0.4368
 3979SOL    HW223400   0.600   0.434   7.060  0.7088 -1.0227 -0.2254
 3980SOL     OW23401   0.012   2.734   5.004 -0.2384 -0.3384  0.2256
 3980SOL    HW123402   4.651   2.772   4.981 -0.7744 -1.6160  0.0823
 3980SOL    HW223403   0.025   2.693   4.918  0.4589  0.6583 -0.1542
 3981SOL     OW23404   1.689   2.504  16.393  0.1985  0.0466  0.3563
 3981SOL    HW123405   1.656   2.491  16.482  0.9281 -0.6939  0.5129
 3981SOL    HW223406   1.739   2.585  16.399  0.9030 -0.1723 -2.1936
 3982SOL     OW23407   0.092   3.110   2.379 -0.1415 -0.4791  0.5830
 3982SOL    HW123408   0.182   3.081   2.396  0.1259 -0.9339 -1.6514
 3982SOL    HW223409   0.104   3.205   2.377 -1.4662 -0.2969  1.6389
 3983SOL     OW23410   0.311   3.743   0.734 -0.1194 -0.5997 -0.0546
 3983SOL    HW123411   0.294   3.658   0.694 -1.8299 -1.7402  3.0896
 3983SOL    HW223412   0.248   3.793   0.681  1.8541 -0.0338 -1.8634
 3984SOL     OW23413   0.273   4.145   3.778 -0.5169 -0.4770  0.3847
 3984SOL    HW123414   0.321   4.224   3.805  1.5465 -1.2309 -1.0731
 3984SOL    HW223415   0.322   4.085   3.834 -1.8601  0.1845  2.2744
 3985SOL     OW23416   3.525   0.854  14.124  0.4450 -0.3173  0.0664
 3985SOL    HW123417   3.560   0.765  14.131  0.4003 -0.4134 -0.9258
 3985SOL    HW223418   3.440   0.847  14.166 -0.6441  1.9040 -1.7619
 3986SOL     OW23419   4.715   3.482   7.363  0.2680 -0.0135 -0.4249
 3986SOL    HW123420   4.633   3.464   7.318 -1.5985  0.7643  2.6869
 3986SOL    HW223421   4.684   3.481   7.453  0.1911  1.2585 -0.4282
 3987SOL     OW23422   0.213   1.878  11.991 -0.5092 -0.2937 -0.6150
 3987SOL    HW123423   0.272   1.818  11.946 -0.3634 -0.0138 -0.7935
 3987SOL    HW223424   0.237   1.958  11.945 -0.4009 -0.0575 -0.1519
 3988SOL     OW23425   2.948   4.212  13.350 -0.5394 -0.1079 -0.3430
 3988SOL    HW123426   2.986   4.131  13.316  1.6133  1.0372 -0.6730
 3988SOL    HW223427   3.025   4.268  13.351  0.5942 -1.6585 -1.0107
 3989SOL     OW23428   1.483   0.525   3.147 -0.1286  0.5760  0.1576
 3989SOL    HW123429   1.393   0.495   3.136 -0.3297  0.9256  0.9241
 3989SOL    HW223430   1.485   0.601   3.089  2.0459 -0.4082 -1.1071
 3990SOL     OW23431   2.763   1.246   9.061  0.2007 -0.7932 -0.5141
 3990SOL    HW123432   2.714   1.296   9.127  1.7115  0.6396 -0.4603
 3990SOL    HW223433   2.733   1.157   9.079  0.2340 -0.7646 -0.3116
 3991SOL     OW23434   4.021   0.448   0.468 -0.5040 -0.0233  0.1968
 3991SOL    HW123435   4.116   0.443   0.458 -0.6528 -0.5244 -0.8970
 3991SOL    HW223436   4.005   0.354   0.472 -1.3695  0.1157 -0.1549
 3992SOL     OW23437   3.858   2.759   9.526 -0.0305  0.1876 -0.3122
 3992SOL    HW123438   3.783   2.741   9.469 -1.5939 -2.0493  2.4755
 3992SOL    HW223439   3.937   2.711   9.499 -0.4632 -0.1458 -0.9975
 3993SOL     OW23440   3.940   0.323   9.184 -0.3467  0.1714  0.1857
 3993SOL    HW123441   3.996   0.399   9.171 -1.1950  0.8011  0.1654
 3993SOL    HW223442   3.865   0.364   9.228  1.2315  1.6463  1.4764
 3994SOL     OW23443   3.688   0.668   9.195 -0.0346 -0.2791  0.2817
 3994SOL    HW123444   3.731   0.592   9.156 -0.8224  0.5483 -2.1700
 3994SOL    HW223445   3.660   0.714   9.116 -0.1482  0.6906  0.8819
 3995SOL     OW23446   1.439   0.281   7.278  0.0071 -0.0336 -0.1446
 3995SOL    HW123447   1.419   0.351   7.216  0.3470 -0.0092 -0.2284
 3995SOL    HW223448   1.528   0.261   7.247  1.3021 -0.3348  3.8508
 3996SOL     OW23449   2.687   2.399   1.736 -0.1207  0.1319  0.2404
 3996SOL    HW123450   2.771   2.418   1.779  0.7171 -0.8204 -0.9757
 3996SOL    HW223451   2.711   2.400   1.644 -2.5094  2.3466 -0.3369
 3997SOL     OW23452   0.484   2.718  16.541  0.4754 -0.0927 -0.3992
 3997SOL    HW123453   0.519   2.722  16.630 -0.2536 -1.5914 -0.0312
 3997SOL    HW223454   0.549   2.763  16.488  0.3969  0.4640 -0.0137
 3998SOL     OW23455   4.078   2.303   7.135 -0.1536  0.0684 -0.0595
 3998SOL    HW123456   3.988   2.323   7.162  0.8672  3.1587  0.9793
 3998SOL    HW223457   4.061   2.221   7.088  1.0716  0.0899 -0.5349
 3999SOL     OW23458   0.928   3.855  11.337 -0.3205 -0.7331 -0.0267
 3999SOL    HW123459   0.852   3.839  11.393 -2.2208  1.7670 -1.9165
 3999SOL    HW223460   0.885   3.835  11.254 -2.4021  1.8952  0.4162
 4000SOL     OW23461   2.728   0.399  16.885 -0.4575  0.0120 -0.4545
 4000SOL    HW123462   2.724   0.482  16.933  0.9049  0.0022 -0.3216
 4000SOL    HW223463   2.707   0.432  16.797 -2.6057  2.1576  0.8935
 4001SOL     OW23464   4.244   0.414   1.521 -0.1227  0.4156  0.3154
 4001SOL    HW123465   4.305   0.488   1.531  2.1713 -1.2842 -0.8422
 4001SOL    HW223466   4.238   0.425   1.426  1.1100 -0.4264  0.1264
 4002SOL     OW23467   3.471   2.433   9.407 -0.0578  0.4029 -0.7369
 4002SOL    HW123468   3.506   2.359   9.457  1.2965  2.0262  0.7264
 4002SOL    HW223469   3.423   2.479   9.476  0.0382 -0.0940 -0.3348
 4003SOL     OW23470   1.390   4.691  14.340  0.3775 -0.1616  0.4844
 4003SOL    HW123471   1.327   4.620  14.327  1.1439 -0.6354 -0.7648
 4003SOL    HW223472   1.361   0.033  14.277  2.7603  0.2850 -0.1656
 4004SOL     OW23473   0.141   4.067   2.263 -0.0268  0.3572  0.3023
 4004SOL    HW123474   0.108   4.153   2.289  0.4890  0.7640 -0.3522
 4004SOL    HW223475   0.159   4.031   2.349  0.2377  0.6484  0.3720
 4005SOL     OW23476   3.804   3.260  13.056 -0.1847  0.2982  0.3076
 4005SOL    HW123477   3.893   3.227  13.063 -0.4460 -0.5759 -0.5054
 4005SOL    HW223478   3.780   3.210  13.133 -0.3265  0.3596  0.3043
 4006SOL     OW23479   2.462   0.106   5.972  0.4690 -0.2123 -0.3415
 4006SOL    HW123480   2.410   0.033   6.006  1.5695 -0.1420  1.5113
 4006SOL    HW223481   2.446   0.093   5.878 -0.2516  1.7919 -0.4887
 4007SOL     OW23482   3.233   3.824   9.525  0.1976 -0.4805 -0.0702
 4007SOL    HW123483   3.201   3.896   9.470  0.6963 -1.0889 -1.1463
 4007SOL    HW223484   3.293   3.872   9.582  1.4624 -3.5346  1.1304
 4008SOL     OW23485   1.549   3.456  10.513 -0.5572 -0.0673  0.0388
 4008SOL    HW123486   1.577   3.544  10.535  0.7228 -0.4915  0.1165
 4008SOL    HW223487   1.628   3.405  10.534  0.2034  0.7591 -0.8230
 4009SOL     OW23488   2.910   3.412  13.577  0.1423  0.3443 -0.9334
 4009SOL    HW123489   2.955   3.376  13.500 -0.0932  1.9300 -1.8303
 4009SOL    HW223490   2.912   3.507  13.562 -1.4905  0.2378 -1.8215
 4010SOL     OW23491   1.949   0.367  13.970 -0.1058  0.3408  0.0157
 4010SOL    HW123492   2.031   0.318  13.973 -1.5389 -2.0802 -0.3830
 4010SOL    HW223493   1.963   0.401  13.882  0.9711  0.4166  0.2206
 4011SOL     OW23494   1.532   3.958  13.021  0.1301 -0.4487  0.1647
 4011SOL    HW123495   1.516   3.955  12.926  1.8435  0.5954 -0.1406
 4011SOL    HW223496   1.626   3.943  13.022 -0.1346 -2.2102 -0.5035
 4012SOL     OW23497   3.711   4.643   4.776  0.1589  0.4993  0.7618
 4012SOL    HW123498   3.709   4.699   4.854 -0.3520 -0.8055  1.6938
 4012SOL    HW223499   3.800   4.669   4.752 -1.2242  4.0442 -0.4277
 4013SOL     OW23500   4.032   0.968   1.044  0.0113 -0.6288 -0.8977
 4013SOL    HW123501   3.981   1.020   1.106  3.5773  1.0880  0.5614
 4013SOL    HW223502   3.967   0.923   0.990 -1.0821  1.4419 -1.2868
 4014SOL     OW23503   1.890   0.344  15.037  0.2537 -0.5879  0.1191
 4014SOL    HW123504   1.925   0.255  15.039  2.8450  0.3497 -4.0201
 4014SOL    HW223505   1.883   0.340  14.941 -1.8982 -1.2135  0.3058
 4015SOL     OW23506   3.525   1.111   6.939 -0.1498 -0.3264 -0.2344
 4015SOL    HW123507   3.514   1.063   6.857  1.8619  0.5110 -0.9746
 4015SOL    HW223508   3.609   1.086   6.975 -0.6816 -0.2656  1.0546
 4016SOL     OW23509   0.183   2.894  11.382 -0.2204 -0.6630  0.2485
 4016SOL    HW123510   0.274   2.866  11.381  0.4660  1.5553  2.8811
 4016SOL    HW223511   0.184   2.930  11.293 -1.3863 -4.0743 -1.1755
 4017SOL     OW23512   1.113   4.114  11.184  0.1560  0.0567 -0.1642
 4017SOL    HW123513   1.136   4.040  11.129  0.9357  1.0198 -1.1338
 4017SOL    HW223514   1.126   4.187  11.124  0.4026  0.7638  0.7473
 4018SOL     OW23515   3.050   0.135   4.761  0.1943 -0.0849  0.3147
 4018SOL    HW123516   2.959   0.133   4.731 -0.0829 -0.5551  1.1974
 4018SOL    HW223517   3.093   0.076   4.699 -0.2600 -0.4335  0.3312
 4019SOL     OW23518   3.648   0.553  11.800 -0.9508 -0.1914 -0.0936
 4019SOL    HW123519   3.700   0.517  11.728 -2.7448 -0.6537 -1.1285
 4019SOL    HW223520   3.556   0.538  11.781 -0.6078 -2.0149 -0.3073
 4020SOL     OW23521   3.694   3.720   5.548 -0.1850 -0.3805  0.8815
 4020SOL    HW123522   3.734   3.802   5.519 -0.4316 -0.9146 -1.0134
 4020SOL    HW223523   3.728   3.710   5.637  1.2538 -2.3254  0.1248
 4021SOL     OW23524   1.523   1.319   8.879  1.0895  0.3215  0.1788
 4021SOL    HW123525   1.530   1.409   8.912 -1.7443  0.3167  0.7898
 4021SOL    HW223526   1.551   1.326   8.788 -1.6703  0.7706 -0.6204
 4022SOL     OW23527   0.618   4.075  17.098 -0.4569 -0.2142  0.5989
 4022SOL    HW123528   0.695   4.125  17.125 -0.8831  0.2356  0.9951
 4022SOL    HW223529   0.660   3.997  17.061 -1.4758 -0.5552  0.1528
 4023SOL     OW23530   0.053   4.336   4.099  0.1641 -0.7015  0.3073
 4023SOL    HW123531   0.085   4.344   4.009  1.1909  0.5041  0.7755
 4023SOL    HW223532   0.122   4.286   4.142  0.8471 -0.5859 -0.6540
 4024SOL     OW23533   4.060   4.217   9.966 -0.2652 -0.2303  0.1587
 4024SOL    HW123534   4.121   4.171  10.023 -0.5546  0.4637  1.0342
 4024SOL    HW223535   4.064   4.171   9.883 -0.5891 -1.4425  0.8130
 4025SOL     OW23536   3.017   3.966   4.382 -0.0709 -0.0957  0.1812
 4025SOL    HW123537   3.090   3.972   4.443  0.3045 -0.3549 -0.2445
 4025SOL    HW223538   3.027   4.044   4.329  0.2534 -0.7099 -0.6621
 4026SOL     OW23539   1.161   0.907   7.285 -0.0255  0.2971  0.4654
 4026SOL    HW123540   1.156   0.970   7.214  0.2700  2.7084  2.5764
 4026SOL    HW223541   1.256   0.906   7.294 -0.0601  0.7115  0.8726
 4027SOL     OW23542   2.283   1.334   8.992 -0.1636 -0.4693  0.6516
 4027SOL    HW123543   2.319   1.354   9.079  0.9073 -3.1967  0.8335
 4027SOL    HW223544   2.252   1.422   8.970  4.1171  0.4141 -1.7735
 4028SOL     OW23545   3.600   2.930  13.070  0.7907 -0.2653  0.4277
 4028SOL    HW123546   3.524   2.881  13.101 -0.7399  0.8084 -1.6268
 4028SOL    HW223547   3.556   3.005  13.030  0.1697 -1.7777 -1.7071
 4029SOL     OW23548   0.164   3.457  14.455 -0.1761 -0.4321 -0.3111
 4029SOL    HW123549   0.141   3.532  14.400 -0.1275 -0.0126  0.2371
 4029SOL    HW223550   0.229   3.417  14.397  0.6198  0.8931 -0.3296
 4030SOL     OW23551   2.411   0.288   2.636  0.3286 -0.1515 -0.7873
 4030SOL    HW123552   2.423   0.196   2.660  1.5968  0.5453  1.2900
 4030SOL    HW223553   2.360   0.318   2.711  1.4319 -0.1051 -0.0411
 4031SOL     OW23554   3.317   1.842   7.048 -1.1365  0.5200 -0.5945
 4031SOL    HW123555   3.228   1.826   7.080 -1.0642 -0.5239 -0.9157
 4031SOL    HW223556   3.353   1.847   7.137  0.1817 -1.2113 -1.0393
 4032SOL     OW23557   0.811   1.282  14.319  0.3080 -0.4655  0.5396
 4032SOL    HW123558   0.886   1.332  14.351 -1.0925  3.4607 -2.3599
 4032SOL    HW223559   0.839   1.190  14.314 -2.9055 -1.4045 -0.5401
 4033SOL     OW23560   3.391   4.719  17.087  0.2853 -0.1256 -0.0268
 4033SOL    HW123561   3.338   0.008  17.009  0.8735 -0.6340 -0.5107
 4033SOL    HW223562   3.418   0.085  17.108  1.3136 -0.0743 -1.5987
 4034SOL     OW23563   2.092   1.591   3.906 -1.4133  0.7044  0.2345
 4034SOL    HW123564   2.079   1.609   3.999 -0.5559  2.6102 -0.0151
 4034SOL    HW223565   2.106   1.676   3.866 -3.0902  1.0859  0.4874
 4035SOL     OW23566   3.732   2.671   2.999  0.2365 -0.3851  0.0281
 4035SOL    HW123567   3.755   2.580   3.018 -0.4297 -0.3797  0.8586
 4035SOL    HW223568   3.697   2.664   2.910 -0.9621 -2.5324  0.6627
 4036SOL     OW23569   3.677   1.515  13.122  0.5910  0.8384  0.2637
 4036SOL    HW123570   3.769   1.520  13.149  0.9955 -0.6227 -0.8752
 4036SOL    HW223571   3.655   1.422  13.116  1.5568  0.5961  0.4812
 4037SOL     OW23572   1.401   3.543   7.920 -0.1257  0.1508  0.1201
 4037SOL    HW123573   1.403   3.585   7.834 -1.3049  0.5641  0.2942
 4037SOL    HW223574   1.456   3.467   7.902  0.0732  0.5545 -0.9936
 4038SOL     OW23575   3.932   4.642   8.297 -0.3098 -0.1556  0.1642
 4038SOL    HW123576   3.865   4.701   8.263 -0.7469  0.8075  2.6836
 4038SOL    HW223577   3.972   4.613   8.215  0.5625  1.0647  0.1458
 4039SOL     OW23578   3.131   3.407   6.336  0.2877  0.2973 -0.0492
 4039SOL    HW123579   3.065   3.338   6.324 -1.4172  2.2119 -1.6690
 4039SOL    HW223580   3.140   3.445   6.249  0.9755  2.2570  0.8793
 4040SOL     OW23581   2.049   0.860  11.899 -0.4428 -0.2752 -0.2472
 4040SOL    HW123582   1.980   0.835  11.837  1.4877  0.1678 -2.5961
 4040SOL    HW223583   2.126   0.872  11.842 -1.3600 -1.1288 -1.6685
 4041SOL     OW23584   1.322   4.407  14.788  0.2159  0.3032 -0.3382
 4041SOL    HW123585   1.258   4.394  14.858 -0.6388  1.8823 -0.8152
 4041SOL    HW223586   1.273   4.382  14.710 -0.5497  1.7932 -0.3340
 4042SOL     OW23587   4.539   3.934   8.791  0.8405 -0.2234  0.4399
 4042SOL    HW123588   4.512   3.934   8.883 -0.2950  1.7985  0.1048
 4042SOL    HW223589   4.502   3.857   8.748  1.3395  0.1094 -0.5980
 4043SOL     OW23590   0.259   1.007   3.507 -0.1486  0.5192  0.2276
 4043SOL    HW123591   0.299   0.922   3.487  0.5055  0.4401  1.8546
 4043SOL    HW223592   0.201   1.022   3.433 -2.0511  2.3414  2.0826
 4044SOL     OW23593   3.715   1.756  10.059  0.0488 -0.4517 -0.2261
 4044SOL    HW123594   3.620   1.758  10.069 -0.2078 -1.1065 -2.6145
 4044SOL    HW223595   3.726   1.662  10.077  0.5200 -0.6552 -1.5475
 4045SOL     OW23596   1.768   1.638   0.395  0.3336  0.1900  0.2095
 4045SOL    HW123597   1.777   1.545   0.418  0.7745 -0.3254 -2.0443
 4045SOL    HW223598   1.719   1.629   0.313  0.7209 -0.4555  0.0474
 4046SOL     OW23599   2.830   0.699  16.846  0.4712  0.3220 -0.2196
 4046SOL    HW123600   2.797   0.663  16.929 -1.4405 -1.5242 -1.7814
 4046SOL    HW223601   2.901   0.750  16.884  0.4491 -1.9000  2.8809
 4047SOL     OW23602   4.721   0.753   5.316  0.1336 -0.2295  0.2660
 4047SOL    HW123603   0.062   0.807   5.362  0.6708 -0.5147 -0.1569
 4047SOL    HW223604   0.001   0.672   5.367 -0.7517 -0.7096 -0.4301
 4048SOL     OW23605   2.275   0.465   6.776 -0.6047 -0.4058 -0.1698
 4048SOL    HW123606   2.286   0.518   6.854 -1.2964 -3.4952  2.0414
 4048SOL    HW223607   2.366   0.457   6.747 -0.8721 -0.6885 -0.9465
 4049SOL     OW23608   2.865   2.178   8.155  0.8400 -0.8490 -0.1810
 4049SOL    HW123609   2.851   2.237   8.081  2.4163  0.7620  0.8287
 4049SOL    HW223610   2.960   2.168   8.160  0.9876 -0.0663 -1.3321
 4050SOL     OW23611   0.536   3.813   6.759 -0.6754 -0.1120  0.2800
 4050SOL    HW123612   0.615   3.804   6.705 -0.7962  3.4551 -0.4853
 4050SOL    HW223613   0.470   3.772   6.703 -1.8003 -0.7423  2.0772
 4051SOL     OW23614   4.641   0.945   4.035 -0.3365 -0.2526 -0.2775
 4051SOL    HW123615   4.576   0.992   3.982 -0.4219  0.6747  0.6383
 4051SOL    HW223616   4.595   0.861   4.033 -0.9014  0.0356  0.4240
 4052SOL     OW23617   3.454   1.511   4.966 -0.2878 -0.1113 -0.0815
 4052SOL    HW123618   3.474   1.513   4.872  0.5508  1.3880  0.1315
 4052SOL    HW223619   3.468   1.602   4.991 -2.5178  0.7111 -1.7424
 4053SOL     OW23620   2.226   0.494   9.317 -0.3371 -0.8468  0.5847
 4053SOL    HW123621   2.163   0.483   9.388  0.0957 -2.0687  0.7626
 4053SOL    HW223622   2.178   0.465   9.239 -0.1213 -1.3747  0.6492
 4054SOL     OW23623   0.046   1.513  15.790 -0.5030  0.2632 -0.0010
 4054SOL    HW123624   4.679   1.485  15.779 -0.2413 -0.2327 -0.9128
 4054SOL    HW223625   0.048   1.599  15.747 -0.2327  0.5067  0.4974
 4055SOL     OW23626   2.152   0.755   9.524 -0.5605  0.6574  0.4773
 4055SOL    HW123627   2.115   0.670   9.546 -0.4704  0.0476 -1.7523
 4055SOL    HW223628   2.125   0.754   9.432 -0.7324 -0.7412  0.5423
 4056SOL     OW23629   0.069   1.305   7.214  0.1753  0.2035 -0.4851
 4056SOL    HW123630   0.017   1.289   7.135  2.0052  0.1938 -1.6839
 4056SOL    HW223631   0.121   1.224   7.217 -0.7307 -0.4307 -2.0411
 4057SOL     OW23632   1.272   1.521   3.663  0.2039 -0.5082 -0.8520
 4057SOL    HW123633   1.215   1.445   3.652 -1.2243  0.6468 -1.4694
 4057SOL    HW223634   1.210   1.589   3.636  1.7094  2.1145  2.2993
 4058SOL     OW23635   0.914   0.533  12.359  0.1537 -0.0551  0.1369
 4058SOL    HW123636   0.981   0.467  12.342  1.6015  1.6127 -0.6150
 4058SOL    HW223637   0.936   0.603  12.299 -0.6813  0.9983  1.0547
 4059SOL     OW23638   4.666   3.077   6.920 -0.2136  0.3549 -0.3240
 4059SOL    HW123639   4.718   3.146   6.961  1.3050 -0.7301 -0.4322
 4059SOL    HW223640   4.697   3.091   6.831  3.0070  2.1603  1.0914
 4060SOL     OW23641   0.840   1.284   6.577 -0.2278 -0.2021  0.0393
 4060SOL    HW123642   0.784   1.361   6.584  0.6040  0.3221  0.9691
 4060SOL    HW223643   0.796   1.219   6.522  2.0624 -1.0435 -0.7956
 4061SOL     OW23644   1.788   2.927  14.198 -0.0822  0.1246  0.5436
 4061SOL    HW123645   1.823   2.984  14.266  0.3030 -0.0949  0.5286
 4061SOL    HW223646   1.770   2.994  14.132 -1.7754 -1.2328 -0.3663
 4062SOL     OW23647   3.092   4.712   2.232 -0.2135  0.0384 -0.3281
 4062SOL    HW123648   3.030   0.043   2.280 -1.2416 -0.9627 -0.5472
 4062SOL    HW223649   3.157   0.055   2.207  0.5225 -0.8475 -0.7566
 4063SOL     OW23650   2.790   0.989   3.289  0.3340  0.1727 -0.2550
 4063SOL    HW123651   2.864   1.012   3.345  0.0807 -0.7450  0.4586
 4063SOL    HW223652   2.787   1.068   3.235  1.5239 -0.7532 -1.6649
 4064SOL     OW23653   2.090   1.995  16.822  0.2069  1.4764  0.3815
 4064SOL    HW123654   2.034   1.995  16.745 -1.6140  0.1527  1.6990
 4064SOL    HW223655   2.034   2.044  16.883 -0.0271  1.6142  0.0572
 4065SOL     OW23656   2.594   0.921   7.992  0.2268  0.0884 -0.0923
 4065SOL    HW123657   2.612   0.829   7.978  1.2158 -0.1482  2.8200
 4065SOL    HW223658   2.506   0.925   8.031  0.0122 -2.1890 -0.3603
 4066SOL     OW23659   3.704   3.291   3.363  0.4963  0.2753 -0.1971
 4066SOL    HW123660   3.698   3.221   3.298 -1.2537  0.0806  0.1833
 4066SOL    HW223661   3.795   3.313   3.342  0.9986  0.2208  1.9117
 4067SOL     OW23662   0.756   3.791   8.233 -0.3284  0.0677 -0.2249
 4067SOL    HW123663   0.793   3.822   8.316 -2.6742 -0.3089  0.9812
 4067SOL    HW223664   0.675   3.747   8.261 -0.8731  1.4871  0.4457
 4068SOL     OW23665   1.659   4.203   8.956  0.4848 -0.2221 -0.4600
 4068SOL    HW123666   1.647   4.204   9.051 -1.2587 -0.5449 -0.6868
 4068SOL    HW223667   1.661   4.297   8.935  3.1245 -0.4208 -1.1460
 4069SOL     OW23668   1.526   1.828   2.453  0.2376  0.3825 -0.2985
 4069SOL    HW123669   1.463   1.816   2.381  0.1277 -0.4914 -0.0628
 4069SOL    HW223670   1.514   1.747   2.503  0.1891  0.7918  0.3373
 4070SOL     OW23671   4.287   0.877   5.877  0.3977  0.3990  0.1045
 4070SOL    HW123672   4.292   0.795   5.927  4.1678 -0.3133 -1.4447
 4070SOL    HW223673   4.246   0.848   5.795  0.7499  0.9012 -0.2420
 4071SOL     OW23674   0.292   3.214  16.014 -0.6136 -0.2727 -0.1443
 4071SOL    HW123675   0.288   3.148  16.083 -0.1183 -0.3260 -0.1722
 4071SOL    HW223676   0.374   3.190  15.972  0.2201 -0.3737  1.5162
 4072SOL     OW23677   2.916   4.065  12.286 -0.2215 -0.2451 -0.0058
 4072SOL    HW123678   3.010   4.082  12.293 -0.1252 -0.9268  0.2846
 4072SOL    HW223679   2.913   4.027  12.198 -0.5023 -1.2017  0.4208
 4073SOL     OW23680   1.079   1.299   3.103 -0.0176  0.4656 -0.2923
 4073SOL    HW123681   1.144   1.328   3.039 -0.8118 -0.4126 -1.4752
 4073SOL    HW223682   1.058   1.378   3.154  0.8462  0.8247 -0.4759
 4074SOL     OW23683   1.147   0.838  11.595  0.1725 -0.3458 -0.1627
 4074SOL    HW123684   1.133   0.798  11.509 -0.9125  0.3670 -0.3219
 4074SOL    HW223685   1.187   0.770  11.648 -1.1175  0.0132  1.2731
 4075SOL     OW23686   3.848   3.126   3.078 -1.0388 -0.5221  0.0164
 4075SOL    HW123687   3.938   3.094   3.081 -0.8032  0.2646  1.4522
 4075SOL    HW223688   3.800   3.046   3.099  1.5545 -1.6522  1.6273
 4076SOL     OW23689   0.624   0.590  15.667 -1.3625  0.2105 -0.2887
 4076SOL    HW123690   0.574   0.521  15.625 -2.6150  1.2733 -0.5657
 4076SOL    HW223691   0.692   0.540  15.711 -1.8043  0.5682  0.8207
 4077SOL     OW23692   0.836   4.046   8.762 -0.4329 -0.0511  0.0547
 4077SOL    HW123693   0.763   4.058   8.823 -0.7402  2.1857 -0.7595
 4077SOL    HW223694   0.785   4.042   8.681 -2.3143  1.7480  1.1453
 4078SOL     OW23695   1.451   0.265   6.476 -0.4864  0.2063  0.1160
 4078SOL    HW123696   1.432   0.282   6.384  2.8323  1.4470 -0.3262
 4078SOL    HW223697   1.447   0.170   6.477 -1.4345  0.2666  1.4522
 4079SOL     OW23698   4.319   4.000   9.940  0.6726  0.1693 -0.0089
 4079SOL    HW123699   4.310   3.959   9.854  1.6436 -0.5723  0.2433
 4079SOL    HW223700   4.266   3.954  10.006 -0.2030  0.1353 -0.7320
 4080SOL     OW23701   3.277   3.982   5.859 -0.2802 -0.2102 -0.3741
 4080SOL    HW123702   3.302   4.020   5.943 -0.3516  1.6892 -1.2210
 4080SOL    HW223703   3.323   4.043   5.802 -0.6489  0.0483 -0.3956
 4081SOL     OW23704   4.331   3.004   9.143  0.0506 -0.0480  0.1452
 4081SOL    HW123705   4.320   2.911   9.160  1.6091 -0.3615 -0.5514
 4081SOL    HW223706   4.287   3.036   9.221  0.4617 -1.0868  0.7963
 4082SOL     OW23707   3.382   0.107   2.626 -0.4111  0.0251  0.1541
 4082SOL    HW123708   3.430   0.149   2.697 -2.6197 -1.3330  2.4525
 4082SOL    HW223709   3.423   0.020   2.623  1.3936  0.8328  1.5113
 4083SOL     OW23710   4.551   1.397   4.013 -0.1150 -0.2047  0.0618
 4083SOL    HW123711   4.612   1.330   3.983 -0.7847 -0.5971 -0.4084
 4083SOL    HW223712   4.470   1.348   3.998 -0.0547 -0.0883 -0.6362
 4084SOL     OW23713   0.687   0.013   6.139 -0.1566 -0.7828  0.1116
 4084SOL    HW123714   0.717   0.102   6.158  2.6554 -1.8333  0.6550
 4084SOL    HW223715   0.762   4.708   6.087 -0.6711  1.0918 -1.6522
 4085SOL     OW23716   2.004   0.902   2.441  0.3968 -0.2064  0.5642
 4085SOL    HW123717   2.089   0.932   2.408 -1.7586  3.8576 -1.2747
 4085SOL    HW223718   1.977   0.988   2.473  0.0203  0.4336 -1.5138
 4086SOL     OW23719   3.800   3.557  10.873  0.0371 -0.9448 -0.3732
 4086SOL    HW123720   3.726   3.613  10.896 -0.7895 -2.2692  0.1374
 4086SOL    HW223721   3.871   3.621  10.879 -0.2328 -0.4568 -2.3003
 4087SOL     OW23722   0.445   0.028  14.394  0.5751 -0.8180  0.3798
 4087SOL    HW123723   0.469   4.677  14.448 -0.4645 -1.2295  0.2515
 4087SOL    HW223724   0.476   4.701  14.319 -1.9475 -1.2800 -0.3321
 4088SOL     OW23725   4.586   1.422   3.649  0.1495 -0.2171  0.3213
 4088SOL    HW123726   4.595   1.337   3.607  0.9005  0.0830 -0.1253
 4088SOL    HW223727   4.603   1.392   3.738  2.4212 -1.8433 -0.6575
 4089SOL     OW23728   2.708   2.913   8.864 -0.0296 -0.8717  0.2858
 4089SOL    HW123729   2.697   2.887   8.772 -1.1785 -3.9086  1.2714
 4089SOL    HW223730   2.788   2.965   8.863 -1.1484  0.7939 -2.7515
 4090SOL     OW23731   0.677   3.010   0.971  0.2333 -0.1380  0.7822
 4090SOL    HW123732   0.706   3.070   1.039 -2.1530  1.7891  0.1085
 4090SOL    HW223733   0.623   2.942   1.011  0.3670 -0.5345  0.2932
 4091SOL     OW23734   0.589   4.152   4.123  0.2560  0.5622 -0.0273
 4091SOL    HW123735   0.553   4.092   4.057 -1.0915  0.9583  0.3694
 4091SOL    HW223736   0.684   4.138   4.116  0.1930  0.1970 -0.1498
 4092SOL     OW23737   2.662   3.905  17.619 -0.0883  0.0731 -0.2043
 4092SOL    HW123738   2.646   3.922   0.015  1.4096  1.3337 -0.1785
 4092SOL    HW223739   2.700   3.818  17.616 -0.1059  0.0134  1.0646
 4093SOL     OW23740   0.060   2.254   8.339 -0.2631  0.9953 -0.1847
 4093SOL    HW123741   0.053   2.319   8.270  0.3497  0.9737 -0.2690
 4093SOL    HW223742   0.004   2.295   8.405 -0.4220  1.6812 -0.7545
 4094SOL     OW23743   2.836   0.351   3.786 -0.2222 -0.1641  0.3652
 4094SOL    HW123744   2.828   0.298   3.866  0.2188 -1.9216 -0.7633
 4094SOL    HW223745   2.789   0.296   3.724  0.7211 -0.8852  0.3060
 4095SOL     OW23746   0.474   2.193   7.409  0.2986 -0.1600  0.5728
 4095SOL    HW123747   0.503   2.127   7.473  0.0088 -0.7031  0.1371
 4095SOL    HW223748   0.484   2.146   7.327  1.0658  1.3862 -0.2186
 4096SOL     OW23749   2.014   2.364   7.046  0.2265 -0.2375 -0.1458
 4096SOL    HW123750   2.023   2.429   7.116  0.8245 -0.7234  0.2302
 4096SOL    HW223751   2.027   2.417   6.968 -0.0599 -1.8334 -1.2706
 4097SOL     OW23752   3.442   3.340  10.933 -0.0320 -0.0477  0.7127
 4097SOL    HW123753   3.495   3.288  10.872 -2.6740 -0.2731 -1.4120
 4097SOL    HW223754   3.364   3.354  10.879 -0.6703 -3.2755  0.7727
 4098SOL     OW23755   1.720   1.840   8.338 -0.0483  0.4612  0.0626
 4098SOL    HW123756   1.670   1.889   8.273 -0.3529  2.0107  1.4453
 4098SOL    HW223757   1.640   1.794   8.365  1.0773 -2.9726 -2.4985
 4099SOL     OW23758   0.425   4.251   8.635  0.3762 -0.1073 -0.2458
 4099SOL    HW123759   0.519   4.267   8.621  0.4970 -0.7441 -0.1766
 4099SOL    HW223760   0.399   4.310   8.705  0.3990 -2.4741  1.7178
 4100SOL     OW23761   3.006   4.140   4.172 -0.3891  0.3168  0.3644
 4100SOL    HW123762   2.933   4.189   4.210 -0.5327  0.2828  0.1338
 4100SOL    HW223763   2.986   4.151   4.079  1.6550 -1.9621 -0.3561
 4101SOL     OW23764   0.659   2.708  14.619  0.9908 -0.6082  0.3177
 4101SOL    HW123765   0.615   2.625  14.637 -1.4271  0.5147 -0.4340
 4101SOL    HW223766   0.659   2.748  14.706  2.4148  1.4837 -0.6569
 4102SOL     OW23767   3.456   0.249   6.783  0.7303 -0.4346  0.2709
 4102SOL    HW123768   3.383   0.205   6.741  0.7130  1.0589 -1.2565
 4102SOL    HW223769   3.463   0.336   6.743  0.2132  0.3060  1.7746
 4103SOL     OW23770   3.776   2.467   6.886 -0.2986  0.4436 -0.3461
 4103SOL    HW123771   3.782   2.429   6.974 -1.4260 -0.2869 -0.5788
 4103SOL    HW223772   3.837   2.414   6.834  2.3247  2.6405  0.5593
 4104SOL     OW23773   1.727   0.894   8.813  0.2679 -0.1764  0.0374
 4104SOL    HW123774   1.786   0.952   8.766  0.5903 -0.4795  0.0708
 4104SOL    HW223775   1.791   0.856   8.874 -0.7896 -0.6897  0.8329
 4105SOL     OW23776   1.046   3.810   6.027 -0.1889 -0.1215 -0.0759
 4105SOL    HW123777   1.098   3.742   5.986  1.0641 -0.6793  2.4087
 4105SOL    HW223778   1.029   3.765   6.110 -1.1412 -2.7072 -1.6905
 4106SOL     OW23779   1.014   4.566  15.626  0.2703 -0.0736  0.1603
 4106SOL    HW123780   0.964   4.632  15.580 -1.0653  0.1342  1.8898
 4106SOL    HW223781   0.997   4.502  15.557 -0.7865  0.6267 -0.2229
 4107SOL     OW23782   0.510   3.942   0.426  0.3343  0.1730  0.1319
 4107SOL    HW123783   0.605   3.948   0.417  0.5898 -2.1440  1.3403
 4107SOL    HW223784   0.504   3.849   0.404 -1.8733  0.8140 -1.9788
 4108SOL     OW23785   4.291   0.803  15.923  0.0615 -0.3387 -0.1275
 4108SOL    HW123786   4.230   0.755  15.866  0.4820 -1.7089  0.5846
 4108SOL    HW223787   4.367   0.803  15.865 -0.1357 -1.2350 -0.3807
 4109SOL     OW23788   0.254   0.714   7.049 -0.3197  0.2805  0.1791
 4109SOL    HW123789   0.242   0.744   7.139  0.2823 -1.9931  1.0239
 4109SOL    HW223790   0.293   0.630   7.075 -0.2292 -0.0685 -1.0919
 4110SOL     OW23791   4.654   3.841   2.521 -0.6432  0.2927 -0.0226
 4110SOL    HW123792   0.023   3.853   2.544 -1.4873  4.0162  1.4001
 4110SOL    HW223793   4.660   3.863   2.428  0.1523 -2.2054 -0.5522
 4111SOL     OW23794   0.373   0.860   4.743  0.1276 -0.0135 -0.2986
 4111SOL    HW123795   0.413   0.933   4.790 -1.1686  1.2726 -1.1954
 4111SOL    HW223796   0.297   0.841   4.796 -0.0025 -3.5971 -1.8040
 4112SOL     OW23797   3.635   2.693   5.243  0.0133 -0.4630  0.7042
 4112SOL    HW123798   3.619   2.668   5.152 -1.0438 -0.7246  0.9668
 4112SOL    HW223799   3.700   2.761   5.225  0.5344 -1.7087 -2.1072
 4113SOL     OW23800   3.766   1.955  15.992 -0.0369  0.8023 -0.2674
 4113SOL    HW123801   3.672   1.968  15.979 -0.4589  0.7900  2.6854
 4113SOL    HW223802   3.767   1.881  16.053  1.4903 -0.4478 -1.8058
 4114SOL     OW23803   4.059   4.644   3.084  0.0014  0.6503 -0.0121
 4114SOL    HW123804   3.992   4.677   3.024 -2.1188 -1.5400  1.1488
 4114SOL    HW223805   4.038   4.551   3.084 -2.4667  1.1829  0.7832
 4115SOL     OW23806   2.812   3.167   8.595 -0.0025 -0.3170 -0.0575
 4115SOL    HW123807   2.846   3.244   8.642  0.9627 -0.4184 -0.5918
 4115SOL    HW223808   2.880   3.111   8.634  0.4986 -0.3278 -0.9608
 4116SOL     OW23809   4.239   1.475   8.399  0.2137  0.0143 -0.0459
 4116SOL    HW123810   4.207   1.393   8.437  0.4468  0.0596  0.2506
 4116SOL    HW223811   4.309   1.445   8.340 -0.3698 -0.8436 -0.2992
 4117SOL     OW23812   0.049   3.673  16.326 -0.1030 -0.2813 -0.0412
 4117SOL    HW123813   0.021   3.761  16.302  2.4017  1.2287  2.6803
 4117SOL    HW223814   0.119   3.674  16.261  0.8207 -0.3592  0.9591
 4118SOL     OW23815   1.076   1.551  17.445  0.2783  0.5154 -0.3197
 4118SOL    HW123816   1.114   1.639  17.454  1.1052 -0.0245  1.4577
 4118SOL    HW223817   1.044   1.554  17.355 -0.4796 -2.1837 -0.1243
 4119SOL     OW23818   2.831   1.873  11.639  0.0355  0.0770 -0.0501
 4119SOL    HW123819   2.876   1.794  11.607 -0.1126  0.1570 -0.4597
 4119SOL    HW223820   2.781   1.896  11.561 -0.9807 -0.5599  0.4110
 4120SOL     OW23821   3.526   2.783  12.050 -0.3296 -0.2776  0.8588
 4120SOL    HW123822   3.606   2.731  12.039  0.7735  1.6008  0.0155
 4120SOL    HW223823   3.457   2.751  11.992  1.4048 -3.8352  0.7216
 4121SOL     OW23824   3.601   3.472  10.686 -0.2617  0.0009 -0.3747
 4121SOL    HW123825   3.605   3.376  10.689  0.7905  0.0017 -2.1090
 4121SOL    HW223826   3.685   3.489  10.728 -0.1329  0.0362 -0.6473
 4122SOL     OW23827   1.402   1.084  11.698 -0.1336  0.1651  0.2174
 4122SOL    HW123828   1.421   1.116  11.610 -0.0990 -1.9530 -0.5482
 4122SOL    HW223829   1.308   1.100  11.706 -0.1725 -0.0794  0.2378
 4123SOL     OW23830   4.004   0.395   0.820  0.3795  0.1009 -0.7969
 4123SOL    HW123831   4.088   0.373   0.781  0.6749  0.3888 -0.3246
 4123SOL    HW223832   3.959   0.312   0.805  1.5017 -0.7350  0.4559
 4124SOL     OW23833   0.881   3.784   5.194 -0.0045 -0.1872  0.1047
 4124SOL    HW123834   0.949   3.824   5.140  0.1427 -0.5758 -0.0012
 4124SOL    HW223835   0.870   3.845   5.267 -0.5342 -0.1232 -0.0255
 4125SOL     OW23836   4.018   4.441   2.782  0.2241 -0.1680 -0.1972
 4125SOL    HW123837   4.095   4.471   2.829  0.9624 -0.9188 -0.9355
 4125SOL    HW223838   4.033   4.490   2.700 -1.7304 -1.4776 -1.3339
 4126SOL     OW23839   3.686   3.381   5.117 -1.1384 -0.1959  0.0805
 4126SOL    HW123840   3.780   3.361   5.115 -1.1385 -0.2876  0.9925
 4126SOL    HW223841   3.683   3.443   5.190 -1.7335  0.4812 -0.5210
 4127SOL     OW23842   0.339   3.654   3.721  0.3870 -0.0065  0.1272
 4127SOL    HW123843   0.389   3.735   3.719 -0.5751  0.5597 -0.7795
 4127SOL    HW223844   0.278   3.660   3.794  1.1990 -0.3848  0.8396
 4128SOL     OW23845   3.485   4.599   7.626 -0.4619 -0.3309 -0.0740
 4128SOL    HW123846   3.448   4.606   7.715 -0.4909  1.3829 -0.2370
 4128SOL    HW223847   3.559   4.658   7.639 -1.6181  1.0318  0.2819
 4129SOL     OW23848   1.553   0.543   5.414 -0.1972 -0.5832  0.0893
 4129SOL    HW123849   1.623   0.564   5.477  1.2845 -1.7193 -1.1759
 4129SOL    HW223850   1.582   0.455   5.390  1.0273 -0.0517 -0.3822
 4130SOL     OW23851   1.855   4.711   5.925  0.3121  0.5634 -0.1292
 4130SOL    HW123852   1.840   4.653   5.850  0.0482  0.7195 -0.1947
 4130SOL    HW223853   1.924   4.668   5.975  0.4117  1.4543  0.4889
 4131SOL     OW23854   4.611   4.332   7.740  1.2053  0.1136 -0.3596
 4131SOL    HW123855   4.561   4.410   7.763  0.4953 -0.6103  0.5350
 4131SOL    HW223856   4.651   4.309   7.824 -2.0046  0.7815  1.3296
 4132SOL     OW23857   3.401   2.828   7.808  0.1297 -0.0962 -0.1024
 4132SOL    HW123858   3.477   2.811   7.752 -0.4195 -1.8933 -0.3058
 4132SOL    HW223859   3.356   2.900   7.766 -1.0350 -0.2542  0.8854
 4133SOL     OW23860   0.592   2.898  13.237  0.3041 -0.3305  0.5336
 4133SOL    HW123861   0.521   2.933  13.292 -0.4947  0.2587 -0.8589
 4133SOL    HW223862   0.651   2.867  13.305  0.1779 -0.4984  0.5671
 4134SOL     OW23863   2.728   3.337   5.381 -0.0156 -0.2432  0.2459
 4134SOL    HW123864   2.792   3.311   5.314  0.4867 -1.1263  1.0664
 4134SOL    HW223865   2.673   3.395   5.329  2.5567 -0.5893 -2.9156
 4135SOL     OW23866   2.530   2.162   2.191 -0.3034  0.5431  0.1365
 4135SOL    HW123867   2.459   2.226   2.180  0.1037  0.9008 -0.4164
 4135SOL    HW223868   2.489   2.083   2.225 -0.5908  1.3398  1.6712
 4136SOL     OW23869   4.500   2.866   4.979 -0.2758  0.3605  0.7794
 4136SOL    HW123870   4.481   2.958   4.964  0.0571  0.1713 -0.8226
 4136SOL    HW223871   4.419   2.832   5.017  0.6382 -1.1464  1.4156
 4137SOL     OW23872   4.146   0.264  10.732 -0.4346 -0.0618  0.1565
 4137SOL    HW123873   4.189   0.195  10.681 -0.4740  0.5230 -0.6816
 4137SOL    HW223874   4.178   0.348  10.698 -0.5685 -0.2516 -0.4390
 4138SOL     OW23875   1.685   0.936   5.131  0.2015  0.2849 -0.2647
 4138SOL    HW123876   1.617   0.978   5.183 -0.9705 -0.8112 -0.8993
 4138SOL    HW223877   1.653   0.940   5.041 -0.5724  0.6095  0.0255
 4139SOL     OW23878   3.291   1.883   9.378 -0.5846 -0.2517 -0.1776
 4139SOL    HW123879   3.280   1.978   9.381  1.5452 -0.0343  0.1634
 4139SOL    HW223880   3.288   1.864   9.472 -0.4396 -1.7207 -0.4636
 4140SOL     OW23881   3.804   0.025   3.314  0.0238 -0.0657  0.0940
 4140SOL    HW123882   3.754   4.706   3.384 -2.0062 -0.1484 -1.4015
 4140SOL    HW223883   3.885   0.041   3.362  0.4109  1.1046 -0.9529
 4141SOL     OW23884   2.647   2.806  13.264 -0.1158  0.6165 -0.9085
 4141SOL    HW123885   2.568   2.776  13.221 -0.0097 -0.5844 -0.2741
 4141SOL    HW223886   2.708   2.777  13.196 -0.5760  1.3947 -1.6407
 4142SOL     OW23887   1.575   0.437   8.240  0.0788 -0.1974  1.1532
 4142SOL    HW123888   1.502   0.469   8.187  1.7479  0.6953 -0.6308
 4142SOL    HW223889   1.610   0.394   8.161 -1.0625  1.4589 -0.2558
 4143SOL     OW23890   2.522   2.037   8.403  0.1096  0.7652 -1.0659
 4143SOL    HW123891   2.450   2.098   8.420  1.3232  1.3405  2.1237
 4143SOL    HW223892   2.601   2.088   8.423  0.4581 -0.3720  0.4960
 4144SOL     OW23893   0.683   1.918   8.212 -0.1797 -0.0324  0.2233
 4144SOL    HW123894   0.605   1.950   8.257 -2.1807 -3.6304 -0.6119
 4144SOL    HW223895   0.747   1.906   8.281  0.0413  0.9705  0.1850
 4145SOL     OW23896   3.248   2.559   2.001 -0.3694  0.5701  0.5173
 4145SOL    HW123897   3.174   2.620   1.995 -0.0804  0.7668 -1.1018
 4145SOL    HW223898   3.290   2.570   1.916  0.0561 -0.0399  0.6548
 4146SOL     OW23899   3.476   3.369   0.253  0.2929  0.3500 -1.5713
 4146SOL    HW123900   3.558   3.377   0.302 -1.3040  0.0115  1.1371
 4146SOL    HW223901   3.506   3.319   0.177 -0.5958 -1.6348 -0.6055
 4147SOL     OW23902   3.313   3.242   7.534 -0.4717 -0.4280 -0.1337
 4147SOL    HW123903   3.316   3.330   7.572  1.7083 -1.0057  1.0498
 4147SOL    HW223904   3.390   3.258   7.479  0.0889 -1.5058  0.3530
 4148SOL     OW23905   2.045   2.141   7.263 -0.3228 -0.4436  0.1868
 4148SOL    HW123906   2.124   2.134   7.316  0.2316  0.5495 -0.5170
 4148SOL    HW223907   2.065   2.224   7.219 -2.6820  0.1000  0.1352
 4149SOL     OW23908   0.994   4.252   4.741 -0.9804  0.1935  0.0574
 4149SOL    HW123909   0.978   4.197   4.664  2.8984 -0.4299 -0.3335
 4149SOL    HW223910   1.031   4.336   4.715 -0.2689  0.7025  2.6639
 4150SOL     OW23911   4.026   3.388   4.925  0.1109 -0.0567  0.2407
 4150SOL    HW123912   3.971   3.309   4.924 -0.2401  0.1927 -0.0464
 4150SOL    HW223913   4.040   3.403   5.018  1.3599  1.1259 -0.1341
 4151SOL     OW23914   3.426   2.390   8.523  0.4569  0.1155 -0.1212
 4151SOL    HW123915   3.417   2.310   8.574  1.7021 -0.1352 -0.3000
 4151SOL    HW223916   3.336   2.423   8.519 -0.6899 -2.9849  0.0463
 4152SOL     OW23917   4.640   3.177   4.523 -0.1013 -0.5516 -0.9516
 4152SOL    HW123918   4.679   3.097   4.556  0.9479 -0.1526 -1.2266
 4152SOL    HW223919   4.565   3.194   4.579 -1.2837 -1.4843 -2.2644
 4153SOL     OW23920   2.656   1.945  11.409  0.3383 -1.1118  0.6347
 4153SOL    HW123921   2.577   1.921  11.458  0.7305 -0.6055  1.5049
 4153SOL    HW223922   2.645   1.885  11.335  0.9999 -0.6607  0.1786
 4154SOL     OW23923   2.387   2.347   7.737 -0.9848 -0.0161 -0.3389
 4154SOL    HW123924   2.366   2.322   7.827  0.2518  0.3554  0.0452
 4154SOL    HW223925   2.397   2.441   7.752  0.5972 -0.3046  0.3567
 4155SOL     OW23926   4.256   0.134  11.598  0.0185  0.8040 -0.1345
 4155SOL    HW123927   4.200   0.211  11.586  0.7972  1.4345  0.3245
 4155SOL    HW223928   4.203   0.077  11.654 -1.0500  2.0228  0.1298
 4156SOL     OW23929   3.003   1.361  12.274 -0.2472  0.3085 -0.4984
 4156SOL    HW123930   2.991   1.455  12.288 -1.6383 -0.1534  1.3562
 4156SOL    HW223931   2.963   1.339  12.358 -0.7655 -0.4844 -0.9478
 4157SOL     OW23932   4.309   0.833   8.854 -0.2772 -0.3299  0.2879
 4157SOL    HW123933   4.220   0.866   8.862  0.1133  0.3574  1.9449
 4157SOL    HW223934   4.336   0.876   8.936  0.7678  2.1192 -1.3615
 4158SOL     OW23935   0.689   1.465   7.393  0.4280  0.8662 -0.3137
 4158SOL    HW123936   0.774   1.421   7.389 -0.4537 -0.7862 -1.2555
 4158SOL    HW223937   0.673   1.470   7.487 -1.0644  3.1522 -0.7049
 4159SOL     OW23938   1.093   2.191   2.298 -0.4197  0.4093  0.0798
 4159SOL    HW123939   1.099   2.180   2.203 -1.6885 -1.7504  0.2532
 4159SOL    HW223940   1.025   2.258   2.305 -2.9622 -2.2093  0.2999
 4160SOL     OW23941   3.610   3.488  10.007 -0.2986 -0.0129 -0.1368
 4160SOL    HW123942   3.616   3.401  10.046  3.0247 -0.3423 -1.4123
 4160SOL    HW223943   3.518   3.505  10.026  0.2450  2.5879  0.2586
 4161SOL     OW23944   2.235   4.112   2.600 -0.3663  0.1472  0.1251
 4161SOL    HW123945   2.258   4.141   2.688  0.7885  2.3247 -0.8938
 4161SOL    HW223946   2.312   4.123   2.544 -0.3948 -0.0919  0.0371
 4162SOL     OW23947   3.060   0.760   6.754  0.2457 -0.0381  0.1265
 4162SOL    HW123948   3.110   0.711   6.689  1.5500  1.1929  0.1958
 4162SOL    HW223949   3.126   0.807   6.807  2.5341 -0.2623 -2.5072
 4163SOL     OW23950   2.563   3.564   2.633 -0.0646 -0.3826  0.1019
 4163SOL    HW123951   2.633   3.597   2.577 -0.4111 -0.8968 -0.6276
 4163SOL    HW223952   2.498   3.542   2.567  0.9327  2.3321 -1.7971
 4164SOL     OW23953   2.401   3.203   6.079  0.1667 -0.0949  0.3198
 4164SOL    HW123954   2.465   3.146   6.121  0.1999  1.2587  2.0860
 4164SOL    HW223955   2.453   3.282   6.062 -2.0603  1.0611 -1.1900
 4165SOL     OW23956   1.783   1.725   0.883 -0.6616 -0.2700  0.2517
 4165SOL    HW123957   1.771   1.767   0.798  2.7239 -0.6578 -0.4458
 4165SOL    HW223958   1.829   1.647   0.853  0.9318  0.5301  0.5834
 4166SOL     OW23959   1.856   3.319   2.047 -0.2044 -0.2781 -0.3445
 4166SOL    HW123960   1.796   3.372   1.995 -0.9551 -2.2795 -1.5130
 4166SOL    HW223961   1.907   3.397   2.070 -2.1246  0.3368  1.8800
 4167SOL     OW23962   3.267   0.830   4.635 -0.5099  0.2320  0.2340
 4167SOL    HW123963   3.282   0.898   4.701 -1.0804  1.5315 -0.9692
 4167SOL    HW223964   3.182   0.794   4.660  0.6196 -2.9110 -0.4348
 4168SOL     OW23965   2.430   2.386   8.243  0.3662  0.4061  0.0935
 4168SOL    HW123966   2.520   2.363   8.220  0.7282  0.6552  1.2652
 4168SOL    HW223967   2.448   2.427   8.328 -0.1733 -1.9251  1.3346
 4169SOL     OW23968   1.512   2.106   9.096  0.2710 -0.5756 -0.4285
 4169SOL    HW123969   1.421   2.106   9.125  1.8602  1.6814  4.5737
 4169SOL    HW223970   1.519   2.013   9.075  1.1809 -0.5326 -0.3309
 4170SOL     OW23971   3.310   4.591   1.397  0.1778 -0.3529  0.4776
 4170SOL    HW123972   3.305   4.681   1.428 -0.3929  0.2283 -1.2993
 4170SOL    HW223973   3.354   4.554   1.474 -1.4153  0.4016  1.7580
 4171SOL     OW23974   1.417   2.492  12.490 -0.3692 -0.0379 -0.1657
 4171SOL    HW123975   1.483   2.542  12.443 -1.8783 -0.4492 -2.6902
 4171SOL    HW223976   1.455   2.479  12.577  0.7870 -1.5343 -0.9059
 4172SOL     OW23977   2.733   3.046  14.941  0.8411  0.1991  0.0355
 4172SOL    HW123978   2.822   3.036  14.905 -0.6051 -2.1721 -2.8501
 4172SOL    HW223979   2.671   3.042  14.869 -0.0809 -2.3132  0.9539
 4173SOL     OW23980   0.793   2.533   1.330 -0.7605 -0.6310  0.1060
 4173SOL    HW123981   0.729   2.597   1.364 -0.6782 -1.2481  1.4225
 4173SOL    HW223982   0.874   2.579   1.309 -0.9256  1.3669  3.7955
 4174SOL     OW23983   2.616   3.357   8.193  0.1142 -0.2077 -0.3543
 4174SOL    HW123984   2.634   3.312   8.276  1.1390  0.4118 -0.2292
 4174SOL    HW223985   2.560   3.290   8.155  0.4297 -1.1751  0.8675
 4175SOL     OW23986   1.091   2.377   9.060 -0.0551 -0.1680  0.1014
 4175SOL    HW123987   1.015   2.368   9.003  2.2402  0.0879 -2.9888
 4175SOL    HW223988   1.082   2.467   9.091  0.8017 -0.0211 -0.0585
 4176SOL     OW23989   0.459   4.386   8.876  0.2947  0.3878  0.0084
 4176SOL    HW123990   0.423   4.472   8.851 -1.1401  0.1060  1.0738
 4176SOL    HW223991   0.392   4.374   8.943  0.5784  1.1222  0.4320
 4177SOL     OW23992   4.706   1.602   2.096 -0.6137 -0.2834 -0.4117
 4177SOL    HW123993   0.026   1.684   2.122 -1.4920 -0.1032  0.5220
 4177SOL    HW223994   4.683   1.619   2.005 -2.9891 -0.4798  0.1400
 4178SOL     OW23995   4.645   3.034   7.510 -0.6880  0.1943 -0.2571
 4178SOL    HW123996   0.011   3.051   7.482 -0.3778 -2.4857 -0.8324
 4178SOL    HW223997   4.604   3.121   7.520 -2.2377 -0.4341 -1.1245
 4179SOL     OW23998   3.573   1.246  10.533 -0.0047  0.1306 -0.4957
 4179SOL    HW123999   3.544   1.227  10.444  1.1430 -1.0605 -0.6045
 4179SOL    HW224000   3.617   1.166  10.561  0.2194  0.6056  0.4931
 4180SOL     OW24001   4.180   3.085   4.973  0.5135 -0.3929  0.6710
 4180SOL    HW124002   4.219   3.003   5.001  0.3770 -0.6203  0.1919
 4180SOL    HW224003   4.174   3.137   5.053 -0.4507  1.5669 -0.6612
 4181SOL     OW24004   3.838   2.826  12.984  0.1296  0.1975 -0.4077
 4181SOL    HW124005   3.768   2.880  13.020  0.7192  1.0863 -0.5940
 4181SOL    HW224006   3.892   2.884  12.931 -0.8799  0.0845 -1.5676
 4182SOL     OW24007   2.368   3.304   2.118  0.1123  0.1747  0.0267
 4182SOL    HW124008   2.384   3.383   2.169 -0.0472  0.6286 -0.6303
 4182SOL    HW224009   2.307   3.332   2.050  0.7879  1.8480  0.1046
 4183SOL     OW24010   1.968   2.144   9.053 -0.4584  0.2926  0.5358
 4183SOL    HW124011   2.005   2.057   9.067  1.2446  0.6402 -1.8617
 4183SOL    HW224012   1.885   2.138   9.101 -0.9347  1.6077 -0.1185
 4184SOL     OW24013   2.544   1.666  15.021 -0.2332 -0.3228 -0.1000
 4184SOL    HW124014   2.538   1.680  15.116  1.3738 -1.1428  0.1270
 4184SOL    HW224015   2.635   1.639  15.007 -0.0261  0.6377 -0.6797
 4185SOL     OW24016   1.376   2.280   4.323 -0.0598 -0.2994  0.3700
 4185SOL    HW124017   1.413   2.236   4.399 -0.3720 -0.6965  0.2913
 4185SOL    HW224018   1.430   2.359   4.322 -0.3473 -0.1310 -1.0859
 4186SOL     OW24019   2.113   1.280   7.164  0.1493  0.5962  0.1192
 4186SOL    HW124020   2.085   1.275   7.073 -1.5216  1.8428  0.5703
 4186SOL    HW224021   2.107   1.374   7.184 -1.4858  0.7700 -1.2270
 4187SOL     OW24022   1.970   1.319   2.752  0.1991  0.4284  0.6389
 4187SOL    HW124023   2.021   1.383   2.801  3.1456 -1.4131 -0.0349
 4187SOL    HW224024   2.030   1.303   2.679  1.2458  0.7685  1.4249
 4188SOL     OW24025   2.619   1.484   4.510  0.0987 -0.0090 -0.6033
 4188SOL    HW124026   2.692   1.458   4.566  0.9968  1.2883 -1.1621
 4188SOL    HW224027   2.633   1.579   4.509  0.5217 -0.0599  1.0506
 4189SOL     OW24028   1.238   2.444   7.099  0.0792 -0.1847 -0.1159
 4189SOL    HW124029   1.219   2.512   7.164 -0.5147  1.3549 -1.8919
 4189SOL    HW224030   1.325   2.411   7.122 -0.1195 -0.2908  0.4887
 4190SOL     OW24031   2.002   2.970   4.018 -0.0314 -0.2226  0.2297
 4190SOL    HW124032   2.087   2.976   4.062  0.1534  0.3716 -0.2033
 4190SOL    HW224033   2.010   3.019   3.936  0.9211  1.1906  1.1582
 4191SOL     OW24034   3.950   4.241   7.615 -0.0942  0.0486  0.1772
 4191SOL    HW124035   3.946   4.240   7.520  0.7068 -1.6876  0.1502
 4191SOL    HW224036   3.948   4.333   7.641  0.7737  0.7425 -2.2325
 4192SOL     OW24037   3.008   2.232   4.687  0.4317  0.0490 -0.1466
 4192SOL    HW124038   2.924   2.267   4.657  0.3418  0.5023  0.6420
 4192SOL    HW224039   3.070   2.294   4.648 -0.0427  0.8425  0.3673
 4193SOL     OW24040   0.631   1.576   7.928 -0.0489 -0.0783  0.2434
 4193SOL    HW124041   0.666   1.500   7.975  0.3487 -0.1819 -0.2187
 4193SOL    HW224042   0.549   1.584   7.977  0.2736  3.2450  0.2636
 4194SOL     OW24043   1.804   0.691   3.060 -0.2433  0.3496 -0.1173
 4194SOL    HW124044   1.854   0.770   3.040 -0.9414  0.6028 -0.8835
 4194SOL    HW224045   1.714   0.723   3.050 -0.4583 -0.6930 -1.5419
 4195SOL     OW24046   4.266   1.237   8.183  0.1570  0.2903  0.6221
 4195SOL    HW124047   4.310   1.257   8.100 -0.5208  0.3078  0.2741
 4195SOL    HW224048   4.179   1.239   8.144  0.9420 -0.9038 -1.2038
 4196SOL     OW24049   2.653   3.943   1.818 -0.0360 -0.1110  0.2876
 4196SOL    HW124050   2.578   3.887   1.799 -0.6878  0.5129  0.9947
 4196SOL    HW224051   2.658   3.924   1.912 -2.4537 -0.3663  0.3847
 4197SOL     OW24052   0.260   3.454   7.517  0.2574 -0.3846 -0.1858
 4197SOL    HW124053   0.252   3.541   7.479  1.2915 -0.4663 -0.6007
 4197SOL    HW224054   0.199   3.469   7.589  1.3765 -0.4260  0.7854
 4198SOL     OW24055   4.190   4.003   3.788  0.4878 -0.2492 -0.3102
 4198SOL    HW124056   4.153   3.928   3.833 -0.2830  0.5753  0.4232
 4198SOL    HW224057   4.281   4.009   3.817  1.1703  0.2989 -2.5720
 4199SOL     OW24058   0.539   1.860  15.871  0.1551 -0.1242 -0.6025
 4199SOL    HW124059   0.629   1.889  15.853 -0.4543  1.2669 -1.4035
 4199SOL    HW224060   0.542   1.765  15.862 -1.2684 -0.2146 -0.0220
 4200SOL     OW24061   4.057   3.407   2.807 -0.6429 -0.1975  0.1191
 4200SOL    HW124062   4.110   3.418   2.728 -1.2231 -1.5778 -0.4637
 4200SOL    HW224063   4.048   3.312   2.803 -1.6836 -0.1684  1.6840
 4201SOL     OW24064   3.410   1.960   2.833 -0.4045  0.0282  0.2851
 4201SOL    HW124065   3.360   2.016   2.774 -1.5420 -1.4557 -0.1692
 4201SOL    HW224066   3.502   1.983   2.821 -0.6901  0.2779 -1.5341
 4202SOL     OW24067   0.968   3.457  14.171  0.1386  0.6395  0.1022
 4202SOL    HW124068   1.020   3.408  14.235 -0.9491 -3.6827 -2.3239
 4202SOL    HW224069   1.035   3.459  14.103 -0.4324  1.6461 -0.4248
 4203SOL     OW24070   3.472   0.027   4.648 -0.0456 -0.3784  0.5291
 4203SOL    HW124071   3.558   4.712   4.663  0.7075  1.3908  0.8826
 4203SOL    HW224072   3.457   0.085   4.723 -0.3544 -0.4579  0.5278
 4204SOL     OW24073   4.452   0.034   3.418  0.1842 -0.1524 -0.2303
 4204SOL    HW124074   4.511   4.684   3.436  1.5842  1.0867  0.3735
 4204SOL    HW224075   4.384   0.015   3.483  0.3865 -2.5436 -0.7374
 4205SOL     OW24076   0.969   4.415  14.835  0.9748  0.0700  0.2248
 4205SOL    HW124077   0.966   4.505  14.869 -0.5330 -0.3484  1.1947
 4205SOL    HW224078   1.022   4.369  14.900  0.1491 -0.1277  0.7660
 4206SOL     OW24079   2.097   4.353   4.445 -0.1667  0.1040 -0.5874
 4206SOL    HW124080   2.087   4.414   4.372 -2.5086  1.0565  0.5555
 4206SOL    HW224081   2.078   4.272   4.398  0.1791  1.0956 -2.4221
 4207SOL     OW24082   1.395   3.605   4.380 -0.2542 -0.0494  0.9566
 4207SOL    HW124083   1.431   3.628   4.466  1.8602 -0.5312  0.2074
 4207SOL    HW224084   1.423   3.513   4.382 -0.9320 -0.2756 -0.5316
 4208SOL     OW24085   1.218   4.286   7.418  0.1110 -0.0715  0.4328
 4208SOL    HW124086   1.238   4.283   7.324  0.2473 -1.4324  0.5043
 4208SOL    HW224087   1.146   4.223   7.425 -0.1331  0.1248 -0.3200
 4209SOL     OW24088   4.540   1.447   2.209  0.5639 -0.6251 -0.0563
 4209SOL    HW124089   4.480   1.520   2.219  0.4881 -0.5880 -0.8131
 4209SOL    HW224090   4.621   1.493   2.188 -0.1109  0.5186 -0.1438
 4210SOL     OW24091   1.457   3.392   1.810  0.6104 -0.0535  0.0433
 4210SOL    HW124092   1.471   3.483   1.836  0.6625  0.0874 -0.4764
 4210SOL    HW224093   1.393   3.405   1.740  0.5836 -0.9502 -0.1059
 4211SOL     OW24094   1.569   4.431   1.221 -0.3960 -0.2681 -0.1763
 4211SOL    HW124095   1.526   4.515   1.206 -0.1694 -0.1439 -0.1226
 4211SOL    HW224096   1.528   4.399   1.302 -0.7589 -2.0870 -1.0610
 4212SOL     OW24097   1.317   3.730   3.418  0.0039 -0.1834 -0.1384
 4212SOL    HW124098   1.330   3.820   3.388  0.9021 -0.8103 -1.6581
 4212SOL    HW224099   1.384   3.717   3.485  0.9227 -0.7327 -1.1654
 4213SOL     OW24100   0.559   3.174   3.805  0.0486 -0.4242 -0.5891
 4213SOL    HW124101   0.498   3.100   3.804 -0.0179 -0.3977  3.2991
 4213SOL    HW224102   0.497   3.247   3.796 -0.5397 -0.6037  2.1726
 4214SOL     OW24103   3.521   2.147  15.553  0.0753 -0.0486  0.0865
 4214SOL    HW124104   3.467   2.108  15.485  1.8437 -1.3164 -0.5944
 4214SOL    HW224105   3.599   2.092  15.547  0.6798  0.6855  1.2193
 4215SOL     OW24106   1.631   3.302   8.067 -0.8876 -0.0291  0.1524
 4215SOL    HW124107   1.562   3.246   8.103  1.6684 -1.7128  2.4960
 4215SOL    HW224108   1.705   3.240   8.069 -0.2796  0.6424 -1.5890
 4216SOL     OW24109   3.002   1.524   7.820  0.4762  0.3092  0.0919
 4216SOL    HW124110   2.997   1.494   7.729 -0.8534 -1.8100  0.8489
 4216SOL    HW224111   3.021   1.616   7.808  1.3189 -0.3174 -3.3720
 4217SOL     OW24112   2.828   3.202  13.733  0.3076  0.1079 -0.0332
 4217SOL    HW124113   2.878   3.250  13.667 -0.6051 -2.2748 -2.4485
 4217SOL    HW224114   2.792   3.272  13.788  0.7729  0.6943 -0.4777
 4218SOL     OW24115   0.573   1.450   6.734  0.4072 -0.1840 -0.3403
 4218SOL    HW124116   0.604   1.539   6.714  2.1368 -0.2479  2.0954
 4218SOL    HW224117   0.542   1.422   6.648  1.8233  1.4178 -1.3997
 4219SOL     OW24118   2.392   1.628  10.015 -0.0266 -0.8105 -0.1417
 4219SOL    HW124119   2.385   1.666   9.927  0.5679 -0.5972 -0.1036
 4219SOL    HW224120   2.425   1.693  10.078 -1.5905 -0.5341  0.3731
 4220SOL     OW24121   0.493   2.925   7.855  0.6554 -0.6229 -0.2572
 4220SOL    HW124122   0.463   3.008   7.820  1.0600  0.7351  2.5792
 4220SOL    HW224123   0.454   2.862   7.794  0.4807 -0.8236  0.0586
 4221SOL     OW24124   3.695   3.679   8.765 -0.4339 -0.2177  0.0984
 4221SOL    HW124125   3.728   3.590   8.772 -0.5718 -0.2854 -0.1378
 4221SOL    HW224126   3.609   3.650   8.796  0.4364 -0.0766  2.6230
 4222SOL     OW24127   0.798   4.690   7.291 -0.7348  0.2162  0.0806
 4222SOL    HW124128   0.798   0.055   7.255  0.5379  0.5480  0.9115
 4222SOL    HW224129   0.759   4.641   7.217  0.8357 -0.8307 -0.0499
 4223SOL     OW24130   2.424   2.120  11.162 -0.1243 -0.7597 -0.3418
 4223SOL    HW124131   2.419   2.149  11.253 -1.6881 -0.8257 -0.4128
 4223SOL    HW224132   2.398   2.029  11.166  0.5464 -0.8367  2.3561
 4224SOL     OW24133   4.215   1.822   5.966 -0.2390  0.5628  0.6990
 4224SOL    HW124134   4.160   1.827   6.044 -0.8137 -2.2014  0.4696
 4224SOL    HW224135   4.166   1.748   5.930 -0.4802 -0.5288  3.2754
 4225SOL     OW24136   1.655   3.986   5.187  0.2348 -0.7804 -0.0653
 4225SOL    HW124137   1.641   3.904   5.139  1.9474 -1.3752  0.4272
 4225SOL    HW224138   1.658   3.954   5.278  0.9021 -0.2048  0.1127
 4226SOL     OW24139   1.943   2.344   3.497  0.1395 -0.0447 -0.4302
 4226SOL    HW124140   1.964   2.437   3.495 -3.0112  0.6730 -0.6782
 4226SOL    HW224141   2.010   2.317   3.435  2.4420  2.0511  1.1791
 4227SOL     OW24142   0.087   0.901   4.884  0.4641 -0.1465  0.4670
 4227SOL    HW124143   0.100   0.977   4.940  1.2864  0.5804 -0.6975
 4227SOL    HW224144   0.005   0.930   4.844  2.3169 -0.3023 -3.4407
 4228SOL     OW24145   4.095   4.398   0.754 -0.0426 -0.2839  0.5319
 4228SOL    HW124146   4.018   4.416   0.700 -0.8221 -0.8389  1.4669
 4228SOL    HW224147   4.055   4.343   0.821 -2.0693  0.0561 -0.3935
 4229SOL     OW24148   2.544   1.123   9.825  0.3443  1.1487 -0.5218
 4229SOL    HW124149   2.589   1.120   9.740 -0.2813 -0.3483 -0.8081
 4229SOL    HW224150   2.571   1.038   9.860 -2.1342 -0.3106 -2.1331
 4230SOL     OW24151   3.034   2.437  16.665  0.5825  0.3171  0.1355
 4230SOL    HW124152   2.985   2.497  16.608  2.4397  1.5149 -0.1823
 4230SOL    HW224153   2.961   2.396  16.711  1.0061  0.1317  0.6402
 4231SOL     OW24154   2.302   0.616   8.542 -0.2505 -0.2719  0.3659
 4231SOL    HW124155   2.261   0.655   8.620 -0.6664 -0.8410  0.4285
 4231SOL    HW224156   2.238   0.615   8.472  1.4501 -3.1810 -1.1298
 4232SOL     OW24157   4.312   3.834   6.972 -0.2388 -0.3561 -0.0216
 4232SOL    HW124158   4.347   3.909   7.019 -2.3195 -0.6827  2.0909
 4232SOL    HW224159   4.220   3.860   6.979  0.5776  2.6359 -0.2116
 4233SOL     OW24160   3.742   1.963  16.352  0.2987 -0.4562 -0.3098
 4233SOL    HW124161   3.688   1.884  16.342 -0.3566 -0.2885  1.9013
 4233SOL    HW224162   3.683   2.012  16.411  0.5644 -1.3229  0.6713
 4234SOL     OW24163   2.935   3.095   2.637  0.0998  0.2832 -0.1387
 4234SOL    HW124164   2.911   3.015   2.684  0.8338  0.7464  1.0341
 4234SOL    HW224165   2.976   3.139   2.712  0.6964  0.1868 -0.4157
 4235SOL     OW24166   3.782   1.520   2.474 -0.0254 -0.8237 -0.3650
 4235SOL    HW124167   3.780   1.590   2.408 -0.6846 -0.2413  0.2618
 4235SOL    HW224168   3.693   1.490   2.456 -1.7837  3.5878  0.9775
 4236SOL     OW24169   2.973   0.189   7.745 -0.6384  0.1872 -0.6324
 4236SOL    HW124170   3.041   0.254   7.729  0.7917 -1.1576  0.0085
 4236SOL    HW224171   3.018   0.118   7.791  0.7202  3.5717  3.2264
 4237SOL     OW24172   0.830   2.648  13.141  0.0760  0.2843  0.1589
 4237SOL    HW124173   0.737   2.642  13.161 -0.3065  0.9080 -1.4354
 4237SOL    HW224174   0.828   2.718  13.076 -1.2111  1.0907  1.0691
 4238SOL     OW24175   3.237   3.319   5.409  0.1338 -0.1776  0.5636
 4238SOL    HW124176   3.285   3.241   5.435  1.0361  0.6217  1.2814
 4238SOL    HW224177   3.295   3.390   5.436  0.6847 -0.3678 -0.1383
 4239SOL     OW24178   0.031   0.459   3.752  0.0677  0.1952 -0.5520
 4239SOL    HW124179   4.659   0.448   3.746  0.1771 -0.8822 -0.4280
 4239SOL    HW224180   0.041   0.379   3.701  0.6397  0.3980 -0.7563
 4240SOL     OW24181   4.115   0.632   8.667  0.2133  0.2112 -0.3390
 4240SOL    HW124182   4.120   0.591   8.752  1.8457 -0.7224 -0.8961
 4240SOL    HW224183   4.063   0.566   8.621  0.2020 -0.9631  1.3890
 4241SOL     OW24184   0.121   4.380   5.110 -0.9698  0.0157  0.2450
 4241SOL    HW124185   0.114   4.285   5.117 -0.3060 -0.1008 -0.6676
 4241SOL    HW224186   0.043   4.401   5.060 -1.8321 -0.2023  1.5140
 4242SOL     OW24187   0.639   1.821   4.590 -0.1288  0.1869 -0.0096
 4242SOL    HW124188   0.569   1.866   4.543  0.5713  1.7455  0.4340
 4242SOL    HW224189   0.598   1.738   4.614  0.0844  0.0605 -0.0864
 4243SOL     OW24190   2.560   3.408   4.049  0.3440 -0.0337 -0.0090
 4243SOL    HW124191   2.628   3.441   3.990  1.3473  0.4591  1.4233
 4243SOL    HW224192   2.622   3.378   4.116 -0.8533 -0.4882  0.9145
 4244SOL     OW24193   1.671   3.306  13.044  0.4596  0.2234  0.6848
 4244SOL    HW124194   1.619   3.385  13.028 -0.2335 -0.8370 -2.3468
 4244SOL    HW224195   1.653   3.253  12.966  0.1770  1.9937 -0.4609
 4245SOL     OW24196   3.887   2.917  11.919  0.1146 -0.4042 -0.5394
 4245SOL    HW124197   3.918   3.007  11.906 -0.8224 -0.1841 -1.2605
 4245SOL    HW224198   3.850   2.934  12.006 -1.5473 -0.2392 -1.2815
 4246SOL     OW24199   0.437   3.865   2.605 -0.0768 -0.4664 -0.1400
 4246SOL    HW124200   0.465   3.774   2.613  1.7483  0.0678 -0.3891
 4246SOL    HW224201   0.496   3.902   2.671  0.1638  1.0181 -1.1772
 4247SOL     OW24202   0.871   3.027   2.163  0.5215 -0.2713 -0.2781
 4247SOL    HW124203   0.818   3.057   2.088 -0.4050  1.5794  1.1099
 4247SOL    HW224204   0.809   3.049   2.233  0.9062 -2.3423  0.7130
 4248SOL     OW24205   1.481   4.682   2.571 -0.2619 -0.5139 -0.6178
 4248SOL    HW124206   1.482   4.641   2.485 -1.8970  0.9110 -1.3152
 4248SOL    HW224207   1.397   0.004   2.562  0.7250  1.4133 -0.0407
 4249SOL     OW24208   2.185   3.836   0.978 -0.2165 -0.0230  0.1842
 4249SOL    HW124209   2.220   3.914   1.020 -0.5114  0.5555 -0.6432
 4249SOL    HW224210   2.098   3.861   0.947  0.4425  0.8502 -0.9736
 4250SOL     OW24211   2.484   3.215   2.511  0.4505  0.0441 -0.1759
 4250SOL    HW124212   2.512   3.234   2.422  1.2094  2.1924  0.5220
 4250SOL    HW224213   2.429   3.137   2.504  1.0838 -0.4351  0.2409
 4251SOL     OW24214   2.042   4.128   4.946 -0.2129 -0.2590 -0.0765
 4251SOL    HW124215   1.955   4.154   4.976 -0.4874 -3.1063  1.5394
 4251SOL    HW224216   2.046   4.182   4.867  1.4940 -0.8283 -0.3809
 4252SOL     OW24217   4.164   2.127   8.675 -0.8326  0.3263 -0.4578
 4252SOL    HW124218   4.106   2.119   8.600  0.6047 -2.0133 -1.3375
 4252SOL    HW224219   4.218   2.200   8.645 -0.7739  1.0410  1.4130
 4253SOL     OW24220   2.508   4.026  15.113 -0.5505  0.2001  0.0467
 4253SOL    HW124221   2.431   3.983  15.150 -0.2490 -2.4589 -2.4934
 4253SOL    HW224222   2.466   4.065  15.036  3.1103  1.4908 -1.2945
 4254SOL     OW24223   1.209   1.972  15.051  0.8534  0.3972 -0.3080
 4254SOL    HW124224   1.272   1.935  15.113  1.4735  1.3568 -0.3624
 4254SOL    HW224225   1.242   2.061  15.068 -0.2263  0.9783 -1.2686
 4255SOL     OW24226   1.275   0.329  17.028  0.4187  0.3038  0.2859
 4255SOL    HW124227   1.227   0.395  16.977  0.9216  0.3768 -0.0932
 4255SOL    HW224228   1.364   0.361  17.019  1.4736 -2.5761  0.5689
 4256SOL     OW24229   1.955   0.880   2.902  0.5260 -0.3292  0.1266
 4256SOL    HW124230   2.043   0.902   2.871  1.7651  0.1650  4.0934
 4256SOL    HW224231   1.927   0.831   2.824  0.5259 -0.7908  0.4165
 4257SOL     OW24232   2.438   2.637   4.020  0.2271  0.3589  0.1573
 4257SOL    HW124233   2.417   2.684   3.939  0.7469 -0.4060 -0.4244
 4257SOL    HW224234   2.527   2.604   4.011  1.1317  2.0627  3.0392
 4258SOL     OW24235   2.963   3.135   6.328  0.0284  0.6370 -0.1177
 4258SOL    HW124236   3.038   3.075   6.333 -1.0512 -0.7763 -1.0053
 4258SOL    HW224237   2.920   3.127   6.413 -1.6227 -0.9849 -1.1093
 4259SOL     OW24238   4.553   4.461   7.255  0.4810 -0.3531  0.4976
 4259SOL    HW124239   4.552   4.527   7.186 -2.4002 -1.4574 -0.5150
 4259SOL    HW224240   4.502   4.501   7.326  0.2197 -0.4347  0.3554
 4260SOL     OW24241   1.470   0.427   4.728 -0.1125  0.2574  0.1948
 4260SOL    HW124242   1.502   0.382   4.649 -1.0095  1.1810 -0.6897
 4260SOL    HW224243   1.379   0.399   4.722 -0.2644  1.2141 -1.8923
 4261SOL     OW24244   3.026   1.995  17.008  0.5137 -0.4264  0.2254
 4261SOL    HW124245   2.947   2.023  16.962  0.3843  1.3037  1.4660
 4261SOL    HW224246   3.033   1.905  16.977  0.9607  0.6551 -2.8457
 4262SOL     OW24247   0.149   2.257   4.891  0.4901  0.2520  0.3387
 4262SOL    HW124248   0.124   2.164   4.896  0.9487  0.0420 -1.3589
 4262SOL    HW224249   0.115   2.292   4.973  2.6286  1.0760  0.8650
 4263SOL     OW24250   2.605   4.403  10.315  0.3975 -0.9003  0.5917
 4263SOL    HW124251   2.520   4.438  10.341  0.3366  0.0899 -0.9382
 4263SOL    HW224252   2.668   4.440  10.378  1.0322 -1.9120  0.5606
 4264SOL     OW24253   1.460   3.265   9.560  0.1908 -0.2734  0.6553
 4264SOL    HW124254   1.519   3.340   9.557  0.1309 -0.2566 -0.2228
 4264SOL    HW224255   1.415   3.272   9.475  1.3719 -2.6942 -0.1810
 4265SOL     OW24256   2.340   3.550   1.468 -0.1086  0.5228 -0.1539
 4265SOL    HW124257   2.277   3.572   1.400 -0.6929 -0.1899  0.1650
 4265SOL    HW224258   2.390   3.632   1.461  0.7523  0.2228  2.3304
 4266SOL     OW24259   1.420   2.783   4.571 -0.2710  0.0115 -0.4093
 4266SOL    HW124260   1.381   2.818   4.491 -0.5230  0.7912  0.0565
 4266SOL    HW224261   1.469   2.860   4.598  1.9860 -0.8984 -1.9081
 4267SOL     OW24262   0.277   4.213   8.222 -0.1217 -0.0418  0.1106
 4267SOL    HW124263   0.208   4.150   8.243 -0.5256  0.3851  0.0673
 4267SOL    HW224264   0.261   4.273   8.295 -2.7607  0.9717 -1.2728
 4268SOL     OW24265   2.171   4.029   6.122  0.0205  0.2348 -0.5264
 4268SOL    HW124266   2.176   3.975   6.201 -2.8804 -2.2655 -2.0438
 4268SOL    HW224267   2.251   4.082   6.129  0.3102  0.0910 -2.6040
 4269SOL     OW24268   4.291   2.919   1.904 -0.1425 -0.3263  0.3284
 4269SOL    HW124269   4.261   2.943   1.817  0.2081 -2.2017 -0.3093
 4269SOL    HW224270   4.386   2.907   1.897  0.0666  0.8940  1.0450
 4270SOL     OW24271   3.536   1.750   7.547 -0.2553  0.0730  0.0284
 4270SOL    HW124272   3.619   1.745   7.593  0.2699 -3.5508 -1.3196
 4270SOL    HW224273   3.469   1.759   7.615  1.6290 -3.1774  2.2681
 4271SOL     OW24274   4.208   3.403  10.932 -0.2726  0.1484 -0.3863
 4271SOL    HW124275   4.164   3.403  11.017 -1.8446 -0.4414 -1.1931
 4271SOL    HW224276   4.300   3.377  10.940  0.1804  2.0073  0.5222
 4272SOL     OW24277   3.664   3.528   8.417 -0.0614  0.0383 -0.4260
 4272SOL    HW124278   3.594   3.532   8.482 -0.1555 -1.3109 -0.4417
 4272SOL    HW224279   3.684   3.621   8.415  2.6539 -0.5224 -0.1721
 4273SOL     OW24280   1.391   2.531   2.829 -0.7903  0.0227 -0.1274
 4273SOL    HW124281   1.486   2.525   2.835 -1.1714 -1.3534  4.2723
 4273SOL    HW224282   1.376   2.600   2.894 -0.3070 -0.5649  0.6045
 4274SOL     OW24283   4.610   3.402  15.956 -0.0735  0.2820 -0.0739
 4274SOL    HW124284   4.626   3.394  16.049 -0.3477  3.6174  0.2715
 4274SOL    HW224285   4.543   3.471  15.953  0.6238  1.0220  1.3888
 4275SOL     OW24286   3.706   1.928   6.012  0.2800  0.1654 -0.3935
 4275SOL    HW124287   3.733   1.886   6.093 -0.4769  0.0524 -0.1937
 4275SOL    HW224288   3.725   2.019   6.032  1.7256 -0.3741  0.6665
 4276SOL     OW24289   1.030   1.506  13.135  0.3747 -0.5478  0.0005
 4276SOL    HW124290   0.935   1.492  13.125 -0.0191  0.9408  1.7843
 4276SOL    HW224291   1.064   1.487  13.048 -1.4737 -1.5463 -0.5290
 4277SOL     OW24292   4.021   1.331   3.844 -0.1016 -0.2461  0.0236
 4277SOL    HW124293   3.971   1.249   3.846 -0.4028 -0.0460  0.7132
 4277SOL    HW224294   4.068   1.327   3.926 -0.3381  0.1623  0.1795
 4278SOL     OW24295   0.221   3.250  10.979 -0.1060  0.1047 -0.0214
 4278SOL    HW124296   0.303   3.246  11.028 -0.9832 -0.1304  1.4301
 4278SOL    HW224297   0.213   3.344  10.958 -1.1687 -0.2311 -1.1191
 4279SOL     OW24298   0.863   2.640   4.687  0.4005 -0.1789 -0.4300
 4279SOL    HW124299   0.958   2.650   4.696  0.0279  3.1043 -0.0837
 4279SOL    HW224300   0.837   2.637   4.779 -0.6135 -2.2377 -0.7896
 4280SOL     OW24301   0.391   3.718   0.154 -0.0881  0.3571  0.3690
 4280SOL    HW124302   0.307   3.729   0.197 -0.9480 -0.5658 -1.0834
 4280SOL    HW224303   0.454   3.748   0.220 -0.0340  1.6649 -0.2589
 4281SOL     OW24304   0.463   2.331   2.649  0.3608  0.4220  0.5667
 4281SOL    HW124305   0.526   2.293   2.588 -2.2526 -0.6886 -1.4076
 4281SOL    HW224306   0.498   2.420   2.640  0.5149  0.6968  3.7100
 4282SOL     OW24307   3.361   2.210   8.052 -0.0046 -0.3033 -0.3461
 4282SOL    HW124308   3.450   2.234   8.079 -0.5145  0.0995  0.9634
 4282SOL    HW224309   3.353   2.264   7.974  2.5247 -0.1650 -0.5069
 4283SOL     OW24310   1.906   3.268  14.568 -0.1327  0.2384  0.7149
 4283SOL    HW124311   1.986   3.291  14.521  1.2989  0.1755  3.1471
 4283SOL    HW224312   1.845   3.341  14.554  0.1456  0.1703 -0.7954
 4284SOL     OW24313   0.655   1.947  17.644  0.1709  0.1480  0.5165
 4284SOL    HW124314   0.580   1.993  17.606  0.2591  1.4965  1.9521
 4284SOL    HW224315   0.635   1.860  17.610  0.9838 -0.1600  0.8346
 4285SOL     OW24316   2.716   0.857   4.172  0.4600  0.1271  0.2821
 4285SOL    HW124317   2.649   0.822   4.231 -1.2956 -1.3500 -2.5577
 4285SOL    HW224318   2.692   0.949   4.159 -0.8712 -0.1289  0.9246
 4286SOL     OW24319   3.889   3.841   6.453  0.2812 -0.2873 -0.3779
 4286SOL    HW124320   3.849   3.797   6.529  0.3081 -0.9215 -0.7290
 4286SOL    HW224321   3.945   3.777   6.409 -0.5029  0.4405 -2.4460
 4287SOL     OW24322   1.147   0.918  14.901 -0.3435 -0.7833 -0.0931
 4287SOL    HW124323   1.063   0.873  14.909  0.5448 -2.3527  0.5413
 4287SOL    HW224324   1.195   0.876  14.830 -0.2322 -4.3675  2.1105
 4288SOL     OW24325   3.670   4.202   8.324 -0.3467 -1.0727 -0.2756
 4288SOL    HW124326   3.717   4.137   8.376  0.2768 -2.7696 -2.9803
 4288SOL    HW224327   3.665   4.162   8.237 -0.8338 -1.1967 -0.1936
 4289SOL     OW24328   1.031   1.848   0.486  0.3151 -0.3962 -0.0950
 4289SOL    HW124329   1.083   1.859   0.406  3.2910 -2.9941  1.4647
 4289SOL    HW224330   1.085   1.875   0.561 -2.3929  2.1915  0.9170
 4290SOL     OW24331   4.643   1.919   5.070 -0.1122  0.5780  0.3162
 4290SOL    HW124332   4.605   1.917   5.158  1.2436  2.2688  0.9316
 4290SOL    HW224333   4.638   1.827   5.041  0.7515 -0.2125  2.6369
 4291SOL     OW24334   3.572   1.439  17.368 -0.0512 -0.5736 -0.2288
 4291SOL    HW124335   3.557   1.531  17.348 -1.7681 -0.8682 -0.3123
 4291SOL    HW224336   3.597   1.434  17.460 -1.6620 -0.8917  0.1881
 4292SOL     OW24337   1.203   3.614   5.928 -0.0866  0.2129  0.0057
 4292SOL    HW124338   1.292   3.636   5.900 -0.0891 -0.4667 -0.5503
 4292SOL    HW224339   1.206   3.520   5.944  0.1964  0.3370  0.6618
 4293SOL     OW24340   1.900   3.684   2.621  0.1526  0.1994  0.0863
 4293SOL    HW124341   1.969   3.710   2.682 -1.8822  1.3584  1.8874
 4293SOL    HW224342   1.941   3.619   2.565 -1.4912 -0.6932 -0.0704
 4294SOL     OW24343   3.709   2.827   7.248  0.2803 -0.0753  0.0941
 4294SOL    HW124344   3.659   2.841   7.328 -2.1647  0.2262 -1.4776
 4294SOL    HW224345   3.799   2.810   7.276  0.3055  0.0196  0.0707
 4295SOL     OW24346   2.698   0.390  14.136  0.2649 -0.0455  0.0140
 4295SOL    HW124347   2.680   0.452  14.065  0.6875  2.7608  2.3729
 4295SOL    HW224348   2.790   0.414  14.145 -0.0080  2.3473 -3.7834
 4296SOL     OW24349   4.207   4.219   7.300 -0.1141  0.6914 -0.1716
 4296SOL    HW124350   4.116   4.246   7.315 -0.7783 -2.0132  0.7700
 4296SOL    HW224351   4.243   4.207   7.388 -0.5524 -1.6545 -0.3054
 4297SOL     OW24352   2.791   1.815   2.546 -0.1793 -0.3320 -0.1187
 4297SOL    HW124353   2.755   1.772   2.469  1.8939 -1.8286 -0.2505
 4297SOL    HW224354   2.728   1.887   2.551  0.3827  0.3048 -2.4530
 4298SOL     OW24355   0.438   3.168  10.574 -0.0188  0.2116  0.7755
 4298SOL    HW124356   0.441   3.112  10.651  1.1140 -2.6824 -1.3854
 4298SOL    HW224357   0.378   3.120  10.517  0.5637  2.5378 -1.8168
 4299SOL     OW24358   1.541   2.066   2.811 -0.2625 -0.1796 -0.0454
 4299SOL    HW124359   1.458   2.093   2.851  0.8663  1.3333  1.2561
 4299SOL    HW224360   1.600   2.122   2.861 -0.1589 -1.0698  0.8124
 4300SOL     OW24361   2.999   4.235  17.379  0.6826  0.4486 -0.3840
 4300SOL    HW124362   3.019   4.314  17.427  1.9302 -0.1215  0.0343
 4300SOL    HW224363   2.920   4.207  17.426  0.7688  1.5199  0.3804
 4301SOL     OW24364   4.263   2.870  13.134  0.2232  0.2874 -0.0483
 4301SOL    HW124365   4.354   2.844  13.149  0.2236 -0.5565 -1.5482
 4301SOL    HW224366   4.265   2.965  13.134 -1.3391  0.3473  1.5708
 4302SOL     OW24367   0.780   2.457   8.524  0.1695  0.0994 -0.1942
 4302SOL    HW124368   0.840   2.504   8.466  1.6555 -2.5341 -0.8167
 4302SOL    HW224369   0.815   2.481   8.610 -0.7978  0.1969  0.1775
 4303SOL     OW24370   4.591   2.807   7.368  0.0708  0.2036  0.2295
 4303SOL    HW124371   4.503   2.814   7.404 -0.8635  0.1174 -2.0312
 4303SOL    HW224372   4.620   2.882   7.420  0.9680 -1.5830  2.3063
 4304SOL     OW24373   4.114   1.175   2.182 -0.1054 -0.7817  0.8472
 4304SOL    HW124374   4.041   1.234   2.202  0.1789  0.2008 -0.9824
 4304SOL    HW224375   4.168   1.200   2.257 -1.5525  2.2498  0.9080
 4305SOL     OW24376   0.398   3.625   6.445  0.4265 -0.0108 -0.0310
 4305SOL    HW124377   0.404   3.530   6.456  0.5277  0.1639  1.4323
 4305SOL    HW224378   0.350   3.649   6.525  0.4891 -0.3898  0.1243
 4306SOL     OW24379   3.524   3.098  10.050 -0.5215 -0.6109  0.0216
 4306SOL    HW124380   3.576   3.169  10.087  0.1857 -1.6808  1.0592
 4306SOL    HW224381   3.593   3.035  10.029 -0.2955 -0.9608  1.8375
 4307SOL     OW24382   2.954   2.816   1.800  0.0550 -0.1946  0.1832
 4307SOL    HW124383   2.917   2.842   1.884  0.6417  1.7125 -0.1396
 4307SOL    HW224384   2.953   2.720   1.802  1.6615 -0.2330 -1.0527
 4308SOL     OW24385   0.333   1.460  10.912  0.1592 -0.3860  0.1203
 4308SOL    HW124386   0.270   1.483  10.980 -0.1463  0.9116 -0.5999
 4308SOL    HW224387   0.277   1.407  10.855 -0.9095  0.1368  0.6747
 4309SOL     OW24388   1.684   3.419  14.538 -0.0154  0.0102 -0.2821
 4309SOL    HW124389   1.601   3.444  14.499 -0.5229 -0.7996  0.2902
 4309SOL    HW224390   1.662   3.387  14.626  1.0572 -0.4164 -0.1659
 4310SOL     OW24391   1.723   1.015   4.668 -0.0532  0.0300  0.1615
 4310SOL    HW124392   1.804   1.064   4.683  0.6120 -0.7338 -0.9475
 4310SOL    HW224393   1.745   0.935   4.620  1.9844 -0.4285  1.8426
 4311SOL     OW24394   0.810   0.759   4.517 -0.6432  0.1303  0.9600
 4311SOL    HW124395   0.756   0.742   4.594 -2.9092  0.3609 -0.5992
 4311SOL    HW224396   0.895   0.767   4.561  0.1438  1.0191 -0.6873
 4312SOL     OW24397   3.235   4.415  15.414 -0.7532 -0.2284  0.1150
 4312SOL    HW124398   3.195   4.402  15.501 -0.5989  1.5963  0.4638
 4312SOL    HW224399   3.306   4.476  15.431  0.3982 -0.9415 -2.1615
 4313SOL     OW24400   4.073   2.856  14.353 -0.0843  0.1443 -0.1048
 4313SOL    HW124401   3.993   2.901  14.380 -0.4071  1.0809 -2.6080
 4313SOL    HW224402   4.108   2.848  14.441 -0.1353 -0.2666 -0.1215
 4314SOL     OW24403   0.632   1.059   3.757  0.3063 -0.0226 -0.7862
 4314SOL    HW124404   0.697   1.107   3.705  0.5528 -0.3446 -0.7782
 4314SOL    HW224405   0.625   1.100   3.843  2.8318  2.3332 -1.7007
 4315SOL     OW24406   0.069   1.663   6.475 -0.6420  0.2446  0.0777
 4315SOL    HW124407   0.111   1.708   6.548  2.0422 -1.4703 -0.4298
 4315SOL    HW224408   4.705   1.701   6.485 -0.3682  0.6076  1.1787
 4316SOL     OW24409   3.789   0.784   8.534  0.0862  0.3973  0.1978
 4316SOL    HW124410   3.801   0.781   8.629  2.0928  0.8977 -0.0326
 4316SOL    HW224411   3.858   0.849   8.515 -1.3521  1.5161 -1.1719
 4317SOL     OW24412   0.930   1.910   2.470  0.2092 -0.5745 -0.4684
 4317SOL    HW124413   0.986   1.842   2.509  1.7750 -1.5960 -4.4508
 4317SOL    HW224414   0.957   1.884   2.381 -2.0885 -0.0171 -1.3050
 4318SOL     OW24415   3.731   4.556   1.478  0.5879  0.7122  0.1742
 4318SOL    HW124416   3.652   4.513   1.510  1.2710 -0.9801 -0.4400
 4318SOL    HW224417   3.725   4.646   1.511 -0.8996  0.8596 -0.4648
 4319SOL     OW24418   1.007   0.374   6.363  0.3076  0.1100  0.4101
 4319SOL    HW124419   0.930   0.317   6.360 -0.4541  1.1292  0.5851
 4319SOL    HW224420   0.981   0.441   6.299 -1.1449 -0.1297  0.7486
 4320SOL     OW24421   2.115   0.633   3.636  0.0288  0.9382 -0.1083
 4320SOL    HW124422   2.190   0.580   3.662  0.0627  1.0860  0.0932
 4320SOL    HW224423   2.121   0.627   3.540  0.7406 -1.1789  0.0703
 4321SOL     OW24424   2.620   0.972   7.590 -0.1348 -0.7001 -0.7084
 4321SOL    HW124425   2.659   0.994   7.675  0.5696 -0.9422 -0.9665
 4321SOL    HW224426   2.535   1.015   7.591  0.5387  0.5829  1.1085
 4322SOL     OW24427   1.990   0.680  14.993  0.0759  0.5159  1.0767
 4322SOL    HW124428   1.943   0.677  14.910  0.8825 -0.1557  0.6444
 4322SOL    HW224429   1.921   0.645  15.050  1.6117 -3.1773  0.6636
 4323SOL     OW24430   1.594   4.454  14.677 -0.2958  1.1290  0.0664
 4323SOL    HW124431   1.646   4.378  14.703 -1.6542  0.6590  1.4283
 4323SOL    HW224432   1.632   4.475  14.592  1.2965  1.2027  0.7980
 4324SOL     OW24433   3.288   1.760   2.582  0.3704 -0.2967 -0.1901
 4324SOL    HW124434   3.200   1.786   2.553  0.7657  1.3158  0.0850
 4324SOL    HW224435   3.281   1.703   2.658  1.8762 -1.4133 -0.8790
 4325SOL     OW24436   1.192   4.147   1.760  0.2955  0.4050  0.2881
 4325SOL    HW124437   1.120   4.143   1.823 -1.6837 -1.1698 -2.0848
 4325SOL    HW224438   1.198   4.057   1.729  1.2308  0.1644  1.1513
 4326SOL     OW24439   1.600   0.459   0.874 -0.3239  0.2631  0.4015
 4326SOL    HW124440   1.568   0.383   0.923 -1.0407  0.1501 -0.2260
 4326SOL    HW224441   1.519   0.504   0.850 -0.0075  0.7917  0.3337
 4327SOL     OW24442   0.240   1.021   0.267 -0.1930  0.2731 -0.1611
 4327SOL    HW124443   0.180   1.087   0.302 -2.0533 -1.8685  0.6733
 4327SOL    HW224444   0.326   1.032   0.307  0.0979  3.5930 -1.6384
 4328SOL     OW24445   1.940   4.518   2.864 -0.1595  0.1833  0.0098
 4328SOL    HW124446   1.891   4.522   2.946 -0.9471 -0.1663 -0.4457
 4328SOL    HW224447   2.007   4.585   2.881 -0.0331 -0.4101  1.8809
 4329SOL     OW24448   1.673   3.944   9.391 -0.1701 -0.3623  0.7031
 4329SOL    HW124449   1.622   4.007   9.442 -1.2392 -1.6440  1.2092
 4329SOL    HW224450   1.604   3.906   9.337  0.0671 -1.1181  0.9352
 4330SOL     OW24451   0.981   2.326   5.263  0.5173  0.1675 -0.2571
 4330SOL    HW124452   1.016   2.392   5.323 -0.6153 -0.0395  0.6345
 4330SOL    HW224453   0.889   2.327   5.291  0.7320  1.3653  0.3748
 4331SOL     OW24454   4.252   4.291  11.601  0.0061  0.1580 -0.2712
 4331SOL    HW124455   4.204   4.345  11.537 -1.2116 -0.6675 -0.0461
 4331SOL    HW224456   4.185   4.273  11.667  0.5772 -0.0716  0.2494
 4332SOL     OW24457   1.975   4.232   4.700  0.7866  0.7810 -0.5597
 4332SOL    HW124458   2.020   4.273   4.626  0.2900 -1.4399 -2.1166
 4332SOL    HW224459   1.886   4.209   4.671  0.5848  1.4308 -0.4447
 4333SOL     OW24460   0.271   4.467  11.959 -0.0096 -0.3221  0.5953
 4333SOL    HW124461   0.288   4.534  11.893 -0.6050  1.2693  2.0380
 4333SOL    HW224462   0.270   4.389  11.904 -2.0508 -0.6648  1.1253
 4334SOL     OW24463   4.092   4.089  12.528 -0.2277  0.0719 -0.3705
 4334SOL    HW124464   4.006   4.131  12.524  0.5460  1.6327 -0.5258
 4334SOL    HW224465   4.095   4.063  12.436 -0.8710 -0.5742 -0.2045
 4335SOL     OW24466   1.488   4.479   8.935  0.0122 -0.5519  0.4081
 4335SOL    HW124467   1.491   4.488   8.840 -0.7833 -1.0628  0.3302
 4335SOL    HW224468   1.576   4.506   8.961  1.2201 -2.1701 -2.0775
 4336SOL     OW24469   1.098   3.356   6.114  0.3911  0.4373  0.1075
 4336SOL    HW124470   1.159   3.329   6.046 -1.0275 -1.0924 -0.5471
 4336SOL    HW224471   1.156   3.394   6.180  0.7325 -0.9741  0.6218
 4337SOL     OW24472   0.693   3.378   8.070  0.5021  0.3181 -0.2522
 4337SOL    HW124473   0.776   3.370   8.022  0.6761  0.2323  0.0612
 4337SOL    HW224474   0.641   3.424   8.004  0.6092  0.8870  0.0644
 4338SOL     OW24475   0.572   3.188   8.228 -0.5241  0.0204 -0.1112
 4338SOL    HW124476   0.634   3.251   8.190 -3.1371  1.1404 -2.4733
 4338SOL    HW224477   0.493   3.241   8.238 -0.6185 -0.0894 -0.2868
 4339SOL     OW24478   4.045   0.339   5.869  0.1036 -0.1106  0.3457
 4339SOL    HW124479   4.082   0.252   5.888  0.5518 -0.3527 -1.6052
 4339SOL    HW224480   3.965   0.340   5.921 -1.2815 -1.2004 -1.7408
 4340SOL     OW24481   3.981   1.150   7.707  0.0421  0.3352  0.5423
 4340SOL    HW124482   4.007   1.241   7.720 -2.7154  1.7235 -4.0964
 4340SOL    HW224483   3.975   1.124   7.799 -2.6133  1.4633  0.6845
 4341SOL     OW24484   0.715   1.549   4.296  0.0108  0.1441  0.6521
 4341SOL    HW124485   0.649   1.480   4.294  0.3739 -0.0929 -2.2505
 4341SOL    HW224486   0.667   1.632   4.286  0.3854  0.3152  0.2743
 4342SOL     OW24487   3.878   1.312   8.945 -0.1826  0.1608  0.4988
 4342SOL    HW124488   3.835   1.274   8.870  0.5185  3.2385 -1.4735
 4342SOL    HW224489   3.801   1.337   8.996  0.6374  0.6880  1.4781
 4343SOL     OW24490   0.592   2.978   8.419 -0.8475  0.3261  0.1007
 4343SOL    HW124491   0.621   3.043   8.354 -1.0394  1.8378  1.5382
 4343SOL    HW224492   0.649   2.901   8.412 -0.3463  0.6455  0.6236
 4344SOL     OW24493   0.334   0.271   3.600  0.6750  0.1512 -0.0696
 4344SOL    HW124494   0.244   0.238   3.598  0.7676 -0.0694 -0.4565
 4344SOL    HW224495   0.332   0.316   3.685  0.8167 -1.1512  0.6313
 4345SOL     OW24496   2.033   3.188   0.773  0.2297 -0.6965  0.5919
 4345SOL    HW124497   2.127   3.199   0.761 -0.0162  1.6391  0.9433
 4345SOL    HW224498   2.017   3.097   0.748 -2.0252 -0.3222  0.6509
 4346SOL     OW24499   0.674   1.654   3.300 -0.3630  0.1123 -0.2637
 4346SOL    HW124500   0.617   1.727   3.322 -1.5827 -0.7290 -0.6120
 4346SOL    HW224501   0.758   1.691   3.272 -0.8626  1.7041  0.3400
 4347SOL     OW24502   1.225   2.575   4.173 -0.3558  0.0902 -0.0165
 4347SOL    HW124503   1.166   2.505   4.145  1.8115 -1.4726 -0.6965
 4347SOL    HW224504   1.201   2.570   4.265 -0.2397 -0.2693 -0.0065
 4348SOL     OW24505   2.542   3.308  10.504 -0.0638 -0.0371  0.0604
 4348SOL    HW124506   2.478   3.367  10.544 -1.2686 -0.2214 -1.6251
 4348SOL    HW224507   2.498   3.225  10.521 -0.2993  0.2202  0.6904
 4349SOL     OW24508   2.879   1.659   2.729 -0.4024  0.6552  0.2661
 4349SOL    HW124509   2.973   1.677   2.723 -0.5221  1.5499  1.1060
 4349SOL    HW224510   2.848   1.725   2.667 -2.5160  0.5429  1.2251
 4350SOL     OW24511   4.395   4.657   5.007  0.8801 -0.5726  0.2264
 4350SOL    HW124512   4.439   0.017   4.989  0.3326 -0.1909  0.6989
 4350SOL    HW224513   4.349   4.651   4.923 -2.5912  0.3074  2.0629
 4351SOL     OW24514   1.993   4.578   6.863  0.0585  0.0851  0.6935
 4351SOL    HW124515   1.998   4.630   6.943 -0.2893  2.0818 -0.5737
 4351SOL    HW224516   2.085   4.571   6.839 -0.5682  0.4487 -1.8382
 4352SOL     OW24517   1.166   0.730   7.065  0.3615  0.8679 -0.4340
 4352SOL    HW124518   1.136   0.780   7.141  1.4150  2.2201 -0.9240
 4352SOL    HW224519   1.082   0.723   7.019  0.9963  1.5483 -1.7136
 4353SOL     OW24520   0.149   2.372   7.314  0.0344 -0.0877 -0.0705
 4353SOL    HW124521   0.180   2.336   7.397 -0.7672  2.1267  1.1919
 4353SOL    HW224522   0.112   2.453   7.349 -2.5932 -1.5069  0.3835
 4354SOL     OW24523   3.035   1.883   0.963  0.6571 -0.4914  0.1419
 4354SOL    HW124524   2.945   1.890   0.995  0.3326  1.1076 -1.1587
 4354SOL    HW224525   3.054   1.975   0.943  0.9094 -0.4969  0.3556
 4355SOL     OW24526   1.438   4.298   8.256  0.6289 -1.0970 -0.5621
 4355SOL    HW124527   1.471   4.210   8.270  1.2319 -0.6405  0.9726
 4355SOL    HW224528   1.367   4.282   8.194 -0.7647 -0.4138  0.8621
 4356SOL     OW24529   0.952   3.699  16.891 -0.1954  0.2295 -0.2489
 4356SOL    HW124530   1.027   3.746  16.856 -0.7895  1.2072 -0.2392
 4356SOL    HW224531   1.000   3.618  16.903  0.5335  0.4328 -1.8114
 4357SOL     OW24532   4.231   2.784   4.584 -0.0911  0.9889  0.1078
 4357SOL    HW124533   4.167   2.840   4.627 -1.1786  0.0826 -0.3234
 4357SOL    HW224534   4.182   2.706   4.555 -1.9221  2.4864 -0.8280
 4358SOL     OW24535   4.055   1.076   2.561 -0.7032  0.6173 -0.3274
 4358SOL    HW124536   4.107   1.157   2.570  0.9942 -0.5660  0.5534
 4358SOL    HW224537   3.972   1.100   2.519 -0.9623 -0.0434 -0.1854
 4359SOL     OW24538   3.445   0.421   6.236  0.4362  0.1765 -0.0874
 4359SOL    HW124539   3.354   0.421   6.206 -0.0227 -1.2778  1.2478
 4359SOL    HW224540   3.431   0.443   6.328  1.6969 -0.8858  0.3539
 4360SOL     OW24541   3.289   3.383  12.967 -0.1903 -0.1820 -0.2263
 4360SOL    HW124542   3.206   3.403  12.923 -0.8587  0.8595  1.5338
 4360SOL    HW224543   3.345   3.356  12.894  0.3978  0.4375 -0.0011
 4361SOL     OW24544   1.349   0.437   3.812 -0.2097  0.1049  0.1066
 4361SOL    HW124545   1.385   0.381   3.881 -1.5204 -1.6591 -0.6541
 4361SOL    HW224546   1.428   0.492   3.807 -1.0703  1.2299 -1.0136
 4362SOL     OW24547   3.677   2.047   0.931  0.7910  0.3905  0.0609
 4362SOL    HW124548   3.616   2.049   0.857 -0.9947  2.0665  1.5750
 4362SOL    HW224549   3.655   2.135   0.963 -2.1379 -0.5636  0.6861
 4363SOL     OW24550   3.936   4.111   6.795  0.4058 -0.1996 -0.0382
 4363SOL    HW124551   3.885   4.191   6.782 -1.6047 -1.1241  2.1910
 4363SOL    HW224552   3.895   4.057   6.727  0.7140  0.2782 -0.6083
 4364SOL     OW24553   1.776   2.908   3.490 -0.4780 -0.6473  0.7536
 4364SOL    HW124554   1.734   2.825   3.514 -2.3894  0.3403  0.8143
 4364SOL    HW224555   1.778   2.895   3.395 -1.8037 -1.6311  0.8621
 4365SOL     OW24556   1.302   3.283   6.698 -0.0958 -0.5068  0.8509
 4365SOL    HW124557   1.240   3.241   6.638 -1.0690  1.5986  0.3813
 4365SOL    HW224558   1.366   3.319   6.636 -2.0998 -0.2433 -1.0689
 4366SOL     OW24559   0.958   1.556  16.406  0.3105  0.5407 -0.2846
 4366SOL    HW124560   0.926   1.541  16.317  1.0873 -3.1814  0.0718
 4366SOL    HW224561   0.877   1.568  16.457  0.2576 -0.2541 -0.1922
 4367SOL     OW24562   0.122   2.333   3.714  0.6357  0.7682  0.1300
 4367SOL    HW124563   0.167   2.249   3.727 -2.4845 -1.0501 -0.7539
 4367SOL    HW224564   0.109   2.322   3.620 -0.1881  0.1257  0.3187
 4368SOL     OW24565   3.939   2.266   3.228 -0.4367 -0.4327  0.1292
 4368SOL    HW124566   3.919   2.225   3.312  0.3269 -1.6318 -0.2780
 4368SOL    HW224567   3.911   2.355   3.251 -0.2562 -0.5791  0.9348
 4369SOL     OW24568   3.228   4.104  10.029  0.0201 -0.1726 -0.4827
 4369SOL    HW124569   3.184   4.162   9.966 -1.6537 -0.9306 -0.0042
 4369SOL    HW224570   3.319   4.132  10.020 -0.1797  0.5694 -0.1920
 4370SOL     OW24571   1.487   1.236   4.163  0.1585  0.2001  0.6663
 4370SOL    HW124572   1.524   1.243   4.251  0.7630  1.9109  0.2935
 4370SOL    HW224573   1.450   1.148   4.163 -1.1857  0.7464 -1.5306
 4371SOL     OW24574   4.005   2.446   9.987  0.3800 -0.6505  0.1151
 4371SOL    HW124575   3.943   2.376  10.007  0.9073 -1.8306 -2.3146
 4371SOL    HW224576   4.050   2.468  10.068  0.0965 -0.2565  0.1656
 4372SOL     OW24577   3.085   3.677   8.817 -0.2849  0.5232 -0.1976
 4372SOL    HW124578   3.119   3.676   8.907  2.1267 -1.6028 -1.1502
 4372SOL    HW224579   3.141   3.751   8.793  1.4691 -0.9718 -0.7107
 4373SOL     OW24580   0.595   2.564   2.649  0.3090 -0.2910 -0.4724
 4373SOL    HW124581   0.578   2.599   2.737 -0.9858 -1.0747 -0.4272
 4373SOL    HW224582   0.637   2.638   2.604  2.4542  0.1500  2.2167
 4374SOL     OW24583   4.286   2.182   7.742  0.5969  0.3676 -0.0018
 4374SOL    HW124584   4.301   2.215   7.654 -4.0144 -0.6637 -1.1540
 4374SOL    HW224585   4.349   2.236   7.791  1.8028  0.0660 -1.2237
 4375SOL     OW24586   2.033   0.232   5.835  0.4355  0.2324  0.0780
 4375SOL    HW124587   2.008   0.141   5.852  0.3411  0.9687  3.8881
 4375SOL    HW224588   1.981   0.255   5.758  0.8862 -3.5227 -1.3772
 4376SOL     OW24589   1.588   1.903   6.473 -0.2267  0.4885 -0.5143
 4376SOL    HW124590   1.590   1.999   6.467  1.9777  0.5212  0.9802
 4376SOL    HW224591   1.515   1.882   6.414 -0.3714 -2.5004  0.7366
 4377SOL     OW24592   3.714   0.337   4.961  0.0080  0.4947  0.2157
 4377SOL    HW124593   3.627   0.357   4.927 -0.3411  0.4016  1.0585
 4377SOL    HW224594   3.701   0.246   4.987  0.7702  0.5860  0.9456
 4378SOL     OW24595   1.252   1.161   7.957 -0.1969  0.1791  0.0070
 4378SOL    HW124596   1.254   1.252   7.928  1.9865  0.3626  0.7894
 4378SOL    HW224597   1.334   1.130   7.920  0.7782  1.2726  1.2709
 4379SOL     OW24598   3.985   2.767   1.520  0.7307 -0.1430  0.4058
 4379SOL    HW124599   4.034   2.714   1.456  1.6085  2.2499 -0.8841
 4379SOL    HW224600   3.920   2.702   1.548  0.1644 -0.2454 -1.1313
 4380SOL     OW24601   4.221   0.261   2.309 -0.0090 -0.2368 -0.3823
 4380SOL    HW124602   4.187   0.189   2.255  0.9115 -1.0785  0.1562
 4380SOL    HW224603   4.195   0.338   2.259 -1.0180 -1.0865 -1.1812
 4381SOL     OW24604   4.152   1.998   4.691 -0.1204 -0.7072 -0.0207
 4381SOL    HW124605   4.095   2.026   4.763 -1.6956 -2.2278 -0.6596
 4381SOL    HW224606   4.225   2.059   4.694 -0.5710 -0.1401 -0.9951
 4382SOL     OW24607   2.497   2.223  10.105 -0.0857 -0.1231 -0.1526
 4382SOL    HW124608   2.496   2.132  10.133  2.1351  0.3674  1.4511
 4382SOL    HW224609   2.571   2.252  10.158  0.4479  1.3198 -1.6668
 4383SOL     OW24610   3.265   0.039   8.353  0.2758  0.0672 -0.2589
 4383SOL    HW124611   3.278   0.116   8.409  0.9117  1.2750 -2.0725
 4383SOL    HW224612   3.252   0.079   8.267  0.6569  0.1665 -0.2716
 4384SOL     OW24613   2.842   1.314   9.787 -0.1978  0.3634  0.1374
 4384SOL    HW124614   2.923   1.363   9.776  0.1897 -0.3252 -0.1025
 4384SOL    HW224615   2.860   1.224   9.759 -0.4079  0.5039 -0.4465
 4385SOL     OW24616   0.529   3.567  12.516 -0.1755 -0.3099 -0.1022
 4385SOL    HW124617   0.512   3.661  12.525 -1.2427 -0.4758 -0.3599
 4385SOL    HW224618   0.445   3.541  12.477 -0.3095 -1.6883  1.0763
 4386SOL     OW24619   3.586   2.962  17.491 -0.1063 -0.2273 -0.2140
 4386SOL    HW124620   3.635   3.043  17.503  1.0451 -0.5341 -2.9448
 4386SOL    HW224621   3.659   2.899  17.492 -1.7992 -2.2030 -2.1818
 4387SOL     OW24622   1.623   3.051  14.679  0.4163 -0.4993 -0.4942
 4387SOL    HW124623   1.645   3.135  14.719 -0.2524 -1.0562  1.0233
 4387SOL    HW224624   1.659   2.989  14.743 -1.7472 -0.6651  0.5441
 4388SOL     OW24625   1.927   2.639  11.139 -0.0798  0.5266 -0.4116
 4388SOL    HW124626   1.840   2.604  11.117 -0.2980  0.3239  0.7887
 4388SOL    HW224627   1.915   2.732  11.122  2.8280  0.5183 -2.5937
 4389SOL     OW24628   0.685   1.936   3.051 -0.7733 -0.0914 -0.0912
 4389SOL    HW124629   0.760   1.971   3.002 -1.5947  4.4040  1.8700
 4389SOL    HW224630   0.634   1.905   2.976 -2.3475  0.5641  0.7276
 4390SOL     OW24631   1.419   4.115  17.511 -0.0395 -0.3060 -0.7220
 4390SOL    HW124632   1.414   4.209  17.529  0.6861 -0.3382 -0.3766
 4390SOL    HW224633   1.340   4.085  17.557 -0.8153  0.5109 -1.5017
 4391SOL     OW24634   3.602   0.987   4.895  0.0310 -0.0310 -0.2193
 4391SOL    HW124635   3.610   1.006   4.989  2.3279 -1.3445 -0.1359
 4391SOL    HW224636   3.512   1.010   4.874 -0.3292 -0.5147  0.7687
 4392SOL     OW24637   0.095   0.417   7.127  0.0374  0.2610 -0.3054
 4392SOL    HW124638   0.127   0.422   7.037 -1.6785  1.0314 -0.8694
 4392SOL    HW224639   0.139   0.485   7.177  0.2742  0.4050 -0.7142
 4393SOL     OW24640   1.077   1.276   0.296  0.5760  0.0936 -1.0357
 4393SOL    HW124641   0.999   1.253   0.346  0.7813 -4.2019 -2.6532
 4393SOL    HW224642   1.081   1.370   0.312 -1.2526  0.1911 -1.1918
 4394SOL     OW24643   1.593   1.934  15.671  0.3818 -0.3632 -0.0435
 4394SOL    HW124644   1.658   1.980  15.723  0.6005 -0.6199 -0.0894
 4394SOL    HW224645   1.518   1.991  15.687  0.7775  0.9541 -3.0171
 4395SOL     OW24646   0.872   2.623  14.348  0.8203  0.0521 -0.3079
 4395SOL    HW124647   0.956   2.663  14.370  0.8848  0.3888 -1.2019
 4395SOL    HW224648   0.867   2.646  14.256 -0.9978  1.6367  0.1872
 4396SOL     OW24649   2.895   0.205   8.112 -0.1058 -0.3630 -0.5681
 4396SOL    HW124650   2.887   0.136   8.178  2.6506 -0.5438 -0.4214
 4396SOL    HW224651   2.876   0.284   8.162 -0.8178 -1.9502  1.6749
 4397SOL     OW24652   4.365   1.061   8.590 -0.1729  0.0524 -0.2403
 4397SOL    HW124653   4.278   1.021   8.586 -1.2967  2.5917 -0.9792
 4397SOL    HW224654   4.367   1.075   8.685  0.2376  0.5193 -0.3206
 4398SOL     OW24655   1.519   1.966   0.350 -0.0078  0.3081 -0.1438
 4398SOL    HW124656   1.604   1.924   0.340 -0.4335 -0.7498  0.7104
 4398SOL    HW224657   1.496   1.975   0.257  0.4795 -0.6524 -0.3621
 4399SOL     OW24658   2.329   1.326  17.335  0.4237  0.4110 -0.4151
 4399SOL    HW124659   2.364   1.259  17.394  0.2633 -0.1371 -0.9517
 4399SOL    HW224660   2.237   1.334  17.361  0.4172 -0.6563 -0.1289
 4400SOL     OW24661   1.364   4.453  13.225 -0.2404  0.1042  0.2462
 4400SOL    HW124662   1.337   4.365  13.251 -1.0552  0.2174 -0.2299
 4400SOL    HW224663   1.448   4.467  13.269 -0.8021  0.6616  1.1338
 4401SOL     OW24664   0.100   1.273   5.649  0.3817  0.0944 -0.2277
 4401SOL    HW124665   0.188   1.259   5.685 -0.3227 -2.6956  0.3641
 4401SOL    HW224666   0.042   1.211   5.692 -1.3958  1.3430 -0.8396
 4402SOL     OW24667   4.365   4.023   7.196 -0.8049  0.8225 -0.2825
 4402SOL    HW124668   4.412   4.096   7.156  1.5234 -0.4217  0.1966
 4402SOL    HW224669   4.298   4.070   7.245  0.2184  0.3271  1.6128
 4403SOL     OW24670   0.477   3.246  12.262 -0.0336 -1.0712 -0.2407
 4403SOL    HW124671   0.534   3.196  12.320 -0.5147 -2.2945 -0.8202
 4403SOL    HW224672   0.530   3.306  12.210 -2.3452 -0.4628 -1.9032
 4404SOL     OW24673   1.474   0.524   1.277  0.0843  0.1374  0.0266
 4404SOL    HW124674   1.432   0.439   1.289  1.5893 -0.8795 -2.0004
 4404SOL    HW224675   1.546   0.503   1.219  0.8744 -3.2329  2.2186
 4405SOL     OW24676   1.862   0.009   6.260  0.2536 -0.3000 -0.4511
 4405SOL    HW124677   1.924   0.082   6.264 -0.3914  0.1966  0.4365
 4405SOL    HW224678   1.782   0.054   6.234  0.5770  0.7538  0.3891
 4406SOL     OW24679   0.153   0.026  11.305 -0.1622 -0.5060  0.0247
 4406SOL    HW124680   0.178   4.658  11.311 -0.8759 -0.8221 -1.8884
 4406SOL    HW224681   0.148   0.030  11.209  0.9804 -2.5222 -0.1179
 4407SOL     OW24682   3.484   0.711   3.816  0.0172 -0.1207  0.0990
 4407SOL    HW124683   3.437   0.753   3.744 -2.9599  1.2701  2.8792
 4407SOL    HW224684   3.518   0.787   3.863  2.2503 -1.7154  1.0481
 4408SOL     OW24685   4.116   4.648   3.348 -0.3072 -0.0466  0.1964
 4408SOL    HW124686   4.086   4.639   3.258 -0.0838  0.4869  0.0701
 4408SOL    HW224687   4.132   0.018   3.358 -0.5696  0.0546 -0.3229
 4409SOL     OW24688   0.698   0.353  16.364 -0.3247 -0.1971  0.5169
 4409SOL    HW124689   0.743   0.294  16.424  1.5985 -0.2562 -0.9698
 4409SOL    HW224690   0.635   0.391  16.425 -0.1829 -1.6032  1.5202
 4410SOL     OW24691   0.055   1.557   6.233  0.2180  0.2492  0.0850
 4410SOL    HW124692   0.084   1.469   6.256  2.9606  0.7451 -1.4663
 4410SOL    HW224693   0.078   1.606   6.312 -0.5196 -1.8831  1.5967
 4411SOL     OW24694   2.589   1.401   6.452 -0.5370  0.0461  0.2192
 4411SOL    HW124695   2.624   1.312   6.454 -0.7873 -0.1184 -2.1384
 4411SOL    HW224696   2.665   1.452   6.480  0.3398 -0.4957 -1.1450
 4412SOL     OW24697   1.784   3.502   4.612  0.4824  0.3119  0.3074
 4412SOL    HW124698   1.695   3.535   4.623 -0.1456 -1.8608  1.6063
 4412SOL    HW224699   1.837   3.572   4.649 -1.0360  0.4416  2.2431
 4413SOL     OW24700   0.734   3.220   3.493 -0.4264 -0.1244  0.6454
 4413SOL    HW124701   0.703   3.133   3.516  0.6532 -1.1181 -1.6091
 4413SOL    HW224702   0.769   3.252   3.576  0.9316 -2.0776  0.8318
 4414SOL     OW24703   3.461   4.147   5.690 -0.2283 -0.2011 -0.6709
 4414SOL    HW124704   3.477   4.083   5.620  3.7249 -0.5061  0.5161
 4414SOL    HW224705   3.551   4.173   5.710  0.3573 -0.7356 -2.6183
 4415SOL     OW24706   4.154   0.179   9.814 -0.0195 -0.7569 -0.3435
 4415SOL    HW124707   4.220   0.112   9.799  2.1325  0.8005  2.1466
 4415SOL    HW224708   4.083   0.139   9.764  0.1721 -0.5320 -0.7993
 4416SOL     OW24709   3.389   4.210   8.261 -0.2641  0.2234  0.2761
 4416SOL    HW124710   3.467   4.234   8.311  0.0495  0.0335 -0.1252
 4416SOL    HW224711   3.359   4.132   8.308 -3.9825  1.8092  0.5638
 4417SOL     OW24712   3.134   1.354   6.190  0.3008  0.2826 -0.0638
 4417SOL    HW124713   3.188   1.385   6.263  2.2376  1.6845 -2.0852
 4417SOL    HW224714   3.045   1.368   6.224  0.8010 -0.7726  1.6567
 4418SOL     OW24715   2.956   1.188   6.956  0.2271 -0.2028 -0.5229
 4418SOL    HW124716   2.975   1.116   6.896 -0.7353 -0.1749 -0.8526
 4418SOL    HW224717   2.866   1.175   6.986  0.7564  4.1340  2.9245
 4419SOL     OW24718   4.256   0.210  16.268 -0.2133  0.2504  0.6179
 4419SOL    HW124719   4.293   0.240  16.185 -0.0743 -0.8096  0.2937
 4419SOL    HW224720   4.163   0.214  16.247  0.2375  0.6276 -1.2975
 4420SOL     OW24721   0.854   1.789  12.010  0.2023 -0.6316 -0.0505
 4420SOL    HW124722   0.939   1.792  11.965 -0.9557 -3.4669 -2.3879
 4420SOL    HW224723   0.881   1.815  12.098  0.4622 -1.8002  0.2202
 4421SOL     OW24724   4.649   2.166   1.165 -0.4828 -0.3191  0.5317
 4421SOL    HW124725   4.556   2.148   1.151 -0.3013 -0.9865  0.1812
 4421SOL    HW224726   4.673   2.210   1.083  0.4855 -0.9872  0.4538
 4422SOL     OW24727   2.068   0.489  15.531  0.2625  0.8835  0.3093
 4422SOL    HW124728   2.143   0.532  15.571  0.4517 -1.4971  2.5361
 4422SOL    HW224729   2.093   0.398  15.549 -1.5309  0.2176 -0.4851
 4423SOL     OW24730   2.306   3.012   8.804 -0.2181 -1.0750  0.3749
 4423SOL    HW124731   2.369   3.058   8.860 -1.1393  1.4295 -0.6853
 4423SOL    HW224732   2.295   2.936   8.862 -1.4139 -0.4194  0.9871
 4424SOL     OW24733   1.403   4.356   4.578 -0.4528 -0.2130 -0.0306
 4424SOL    HW124734   1.384   4.433   4.632  2.3512  1.3971 -1.2988
 4424SOL    HW224735   1.324   4.363   4.523 -1.3807  0.0394  1.3305
 4425SOL     OW24736   1.792   4.120   8.223  0.6877 -0.2954 -0.5189
 4425SOL    HW124737   1.865   4.155   8.275  0.1907 -0.9437  0.6218
 4425SOL    HW224738   1.776   4.206   8.184  0.1012  0.4969  1.4633
 4426SOL     OW24739   0.609   4.510   2.730 -0.5400 -0.0652 -0.0961
 4426SOL    HW124740   0.583   4.425   2.694 -0.6676 -0.3634  0.7196
 4426SOL    HW224741   0.651   4.544   2.650  2.5791 -1.0994  1.0796
 4427SOL     OW24742   2.086   0.580   7.177 -0.1903  0.4029  0.6180
 4427SOL    HW124743   2.021   0.649   7.162 -0.0374 -0.0319 -2.0426
 4427SOL    HW224744   2.048   0.511   7.123 -0.8235  2.8010 -2.0067
 4428SOL     OW24745   2.565   1.607  16.782 -0.0547 -0.3665 -0.5506
 4428SOL    HW124746   2.473   1.580  16.782 -0.3921  0.7928  0.5411
 4428SOL    HW224747   2.566   1.676  16.716 -0.7396 -0.9250 -1.1341
 4429SOL     OW24748   0.787   3.166  10.796  0.7489  0.2508 -0.1424
 4429SOL    HW124749   0.771   3.096  10.732 -1.1301 -1.0935  1.8286
 4429SOL    HW224750   0.821   3.235  10.739 -1.0402  0.4257 -0.9948
 4430SOL     OW24751   2.499   0.109   3.551 -0.1904 -0.1417 -0.0883
 4430SOL    HW124752   2.432   0.126   3.484  1.2851 -0.1106 -1.5606
 4430SOL    HW224753   2.559   0.182   3.536  1.5475 -0.7962  3.7279
 4431SOL     OW24754   3.789   1.071   1.961  0.0224 -0.5476 -0.2523
 4431SOL    HW124755   3.772   0.988   1.918 -0.6873  0.1267 -1.2650
 4431SOL    HW224756   3.876   1.083   1.922  0.8060 -0.6416  1.4396
 4432SOL     OW24757   2.269   4.171  16.316  0.0596 -0.3726 -0.5397
 4432SOL    HW124758   2.326   4.225  16.371 -2.3639  0.5722  1.0388
 4432SOL    HW224759   2.327   4.153  16.242 -0.1071  1.8205 -1.1883
 4433SOL     OW24760   0.309   3.859  14.524 -0.2882  0.2205  0.4466
 4433SOL    HW124761   0.299   3.823  14.436 -1.9626 -1.0662  1.1759
 4433SOL    HW224762   0.405   3.857  14.520 -0.2358 -0.7609  2.2001
 4434SOL     OW24763   3.759   3.254   9.782 -0.0632 -0.0842  0.3140
 4434SOL    HW124764   3.777   3.165   9.750  0.7920  0.3932 -0.5579
 4434SOL    HW224765   3.800   3.267   9.867 -1.3784  0.3264  0.8831
 4435SOL     OW24766   3.015   2.676   4.613  0.3131  0.0857  0.2522
 4435SOL    HW124767   3.050   2.752   4.658  0.0391 -1.0055  2.3412
 4435SOL    HW224768   2.998   2.707   4.524 -1.7716 -3.2729 -0.5502
 4436SOL     OW24769   3.289   2.770   9.762 -0.5720 -0.0306 -0.1096
 4436SOL    HW124770   3.194   2.773   9.748 -0.4584  0.3094 -0.8021
 4436SOL    HW224771   3.300   2.716   9.840 -2.0976 -1.5667 -0.9501
 4437SOL     OW24772   1.388   4.379  12.962 -0.1894 -0.0200  0.1007
 4437SOL    HW124773   1.376   4.400  13.055  1.8678 -0.4588  0.4617
 4437SOL    HW224774   1.399   4.467  12.926 -0.5297  0.3685  0.9317
 4438SOL     OW24775   4.359   0.891   2.384  0.2259 -0.0116 -0.2043
 4438SOL    HW124776   4.264   0.890   2.380  0.2266 -1.7702  0.4730
 4438SOL    HW224777   4.379   0.903   2.477 -0.8195 -0.5426  0.0886
 4439SOL     OW24778   0.285   2.986   8.343 -0.7125 -0.1917 -0.6584
 4439SOL    HW124779   0.358   3.009   8.400 -1.3785  0.1323  0.0679
 4439SOL    HW224780   0.290   3.051   8.272  1.5763  1.0327  0.6449
 4440SOL     OW24781   0.792   0.930   5.035 -0.2616 -0.3953  0.1425
 4440SOL    HW124782   0.883   0.959   5.039 -0.2657 -0.2927 -0.4318
 4440SOL    HW224783   0.767   0.936   5.127 -0.4366 -4.1377  0.3345
 4441SOL     OW24784   4.646   0.404  17.183  0.0885 -0.4258  0.9714
 4441SOL    HW124785   4.700   0.459  17.240  0.8976  0.9614 -1.1435
 4441SOL    HW224786   4.698   0.324  17.170 -0.2662 -0.3860 -0.6755
 4442SOL     OW24787   2.942   4.041   3.365 -0.8685  0.3888 -0.0540
 4442SOL    HW124788   2.853   4.013   3.385  0.1006 -1.3084  1.9780
 4442SOL    HW224789   2.958   3.965   3.308 -0.7333  1.4747 -1.4537
 4443SOL     OW24790   0.938   3.268   2.638 -0.8010 -0.9122 -0.2848
 4443SOL    HW124791   1.014   3.267   2.580 -1.4163 -0.6130 -1.0943
 4443SOL    HW224792   0.983   3.254   2.722 -2.7616 -0.6892  0.8124
 4444SOL     OW24793   1.779   1.669  16.427  0.0943 -0.1855 -0.5574
 4444SOL    HW124794   1.844   1.651  16.360  0.9048 -1.9145  0.6810
 4444SOL    HW224795   1.706   1.704  16.376  2.3894  2.5817 -1.9554
 4445SOL     OW24796   0.428   1.753   6.497 -0.5778 -0.3409 -0.6818
 4445SOL    HW124797   0.358   1.817   6.508 -2.5057 -2.4392 -0.7465
 4445SOL    HW224798   0.395   1.692   6.432  0.1659 -2.3806  0.8396
 4446SOL     OW24799   2.288   2.960  10.767 -0.0541 -0.3434 -0.7286
 4446SOL    HW124800   2.238   2.879  10.775 -0.1434 -0.0486  1.9353
 4446SOL    HW224801   2.347   2.955  10.843  0.2258  0.7069 -0.8823
 4447SOL     OW24802   0.021   3.331   4.022 -0.0357  0.0899 -0.7366
 4447SOL    HW124803   4.695   3.256   4.053  0.3240 -0.1222 -0.6789
 4447SOL    HW224804   0.051   3.297   3.937  0.4582  1.3367 -1.0616
 4448SOL     OW24805   3.831   2.726   6.999 -0.3950 -0.4809 -0.5456
 4448SOL    HW124806   3.819   2.636   6.970 -1.8302 -0.7343  0.8413
 4448SOL    HW224807   3.790   2.730   7.085 -1.4055  0.7153 -1.0906
 4449SOL     OW24808   0.494   4.143   8.098  0.2518  0.2020  0.4336
 4449SOL    HW124809   0.548   4.139   8.177 -0.9506  0.9620  1.2778
 4449SOL    HW224810   0.411   4.161   8.141 -0.1333 -1.4935  0.4339
 4450SOL     OW24811   2.619   1.753   8.636 -0.2609 -0.2707 -0.0412
 4450SOL    HW124812   2.536   1.734   8.592 -0.1397  1.0548 -0.8254
 4450SOL    HW224813   2.588   1.769   8.725 -0.4379 -0.9161  0.0153
 4451SOL     OW24814   2.207   0.285   4.143 -0.4763 -0.0464  0.4761
 4451SOL    HW124815   2.198   0.228   4.220 -0.1978 -0.6230  0.0820
 4451SOL    HW224816   2.125   0.264   4.100 -0.8245  0.7888  0.7450
 4452SOL     OW24817   4.613   2.181  11.511  0.0951 -0.3119 -0.2076
 4452SOL    HW124818   4.581   2.101  11.470 -2.3278  0.9351 -0.8104
 4452SOL    HW224819   4.539   2.242  11.506 -0.2875 -0.8301 -0.8349
 4453SOL     OW24820   1.168   2.621   5.195 -0.1313 -0.3018 -0.1378
 4453SOL    HW124821   1.188   2.575   5.113  1.4061 -1.1945  0.7291
 4453SOL    HW224822   1.127   2.705   5.178  1.4155  0.2778 -1.0260
 4454SOL     OW24823   1.776   1.072   9.206  0.0976 -1.1617  0.0835
 4454SOL    HW124824   1.690   1.094   9.170 -0.0584 -2.2254 -0.1852
 4454SOL    HW224825   1.828   1.075   9.125  0.0964 -2.7080  0.0346
 4455SOL     OW24826   1.326   2.535   6.869 -0.2664  0.2296  0.4364
 4455SOL    HW124827   1.297   2.502   6.955  4.2049  0.4307  2.0279
 4455SOL    HW224828   1.280   2.618   6.858  0.7888  0.8048  0.3847
 4456SOL     OW24829   2.962   0.750   2.258 -0.1106  0.1946  0.0534
 4456SOL    HW124830   2.997   0.789   2.178 -0.1395 -1.7272 -0.8912
 4456SOL    HW224831   2.940   0.837   2.292 -0.9460  0.1063 -0.2413
 4457SOL     OW24832   0.254   1.092   2.585 -1.1549 -0.5412 -0.6734
 4457SOL    HW124833   0.346   1.075   2.607 -1.1970 -1.9998 -1.6145
 4457SOL    HW224834   0.270   1.176   2.542 -2.3871 -0.3103 -0.6795
 4458SOL     OW24835   3.060   2.002   4.807  0.0454 -0.0307 -0.3904
 4458SOL    HW124836   2.977   1.966   4.838  0.2738 -1.7148 -1.6726
 4458SOL    HW224837   3.031   2.087   4.774  0.5591  0.2163 -0.2023
 4459SOL     OW24838   3.625   2.247   8.118  0.3780  1.1450  0.1824
 4459SOL    HW124839   3.717   2.220   8.121  0.0460  0.1758  1.9395
 4459SOL    HW224840   3.627   2.315   8.185 -2.6033  0.9591  0.4789
 4460SOL     OW24841   4.466   0.817   2.634  0.2173 -0.4521  0.3604
 4460SOL    HW124842   4.473   0.746   2.698 -0.6221  0.3333  1.3299
 4460SOL    HW224843   4.558   0.844   2.642  0.5738 -1.1978 -1.1505
 4461SOL     OW24844   0.910   3.292   9.579 -0.1627 -0.1027 -0.0204
 4461SOL    HW124845   0.993   3.306   9.533  1.0660  0.9890  2.5321
 4461SOL    HW224846   0.892   3.209   9.534  1.0975 -0.4204  0.0535
 4462SOL     OW24847   4.201   2.730   7.214 -0.0846  0.3554 -0.6024
 4462SOL    HW124848   4.276   2.744   7.156  0.7403 -0.2680  0.3095
 4462SOL    HW224849   4.244   2.737   7.300  1.8889 -0.0624 -1.5556
 4463SOL     OW24850   4.469   3.730  17.113  0.3332  0.0755  0.1201
 4463SOL    HW124851   4.434   3.764  17.195 -0.3818  0.1206 -0.2102
 4463SOL    HW224852   4.450   3.638  17.130 -0.0058  0.2649  0.7844
 4464SOL     OW24853   3.640   3.717   6.248 -0.1095  0.7324 -0.1605
 4464SOL    HW124854   3.655   3.785   6.183 -1.0646  0.7916 -0.3168
 4464SOL    HW224855   3.728   3.681   6.257  0.0394  1.7226  2.3800
 4465SOL     OW24856   2.831   1.924   6.297  0.5663 -0.3982  0.2391
 4465SOL    HW124857   2.810   1.877   6.377 -1.7888  0.6267  0.2453
 4465SOL    HW224858   2.769   1.997   6.292  0.7480 -0.0089  3.6692
 4466SOL     OW24859   0.555   1.246  14.502 -1.2108  0.6290  0.1891
 4466SOL    HW124860   0.555   1.153  14.526  0.8112  0.2552 -1.3062
 4466SOL    HW224861   0.644   1.261  14.471 -1.8034  1.4813 -1.0822
 4467SOL     OW24862   0.105   0.221  17.088  0.1735  0.0864 -0.1206
 4467SOL    HW124863   0.068   0.184  17.008  2.0941 -2.1803  0.0411
 4467SOL    HW224864   0.196   0.191  17.077  0.3089  0.9111 -1.3006
 4468SOL     OW24865   4.067   0.857   2.728  0.5883  0.0987  0.0679
 4468SOL    HW124866   4.066   0.898   2.642 -0.1425  0.7416  0.3756
 4468SOL    HW224867   4.045   0.934   2.780 -0.8517 -0.2614 -0.0047
 4469SOL     OW24868   3.612   0.285  14.806 -0.5261  0.0011 -0.6884
 4469SOL    HW124869   3.688   0.228  14.801 -0.3649  0.2287 -0.8714
 4469SOL    HW224870   3.642   0.375  14.790  0.2680 -0.1985 -0.2621
 4470SOL     OW24871   3.293   0.042   6.669 -0.6399  0.5853  0.0638
 4470SOL    HW124872   3.276   0.023   6.576 -0.1947 -1.2135  0.3426
 4470SOL    HW224873   3.222   4.717   6.711  0.1613  0.1426  0.9047
 4471SOL     OW24874   3.097   2.955   9.361  0.0333 -0.3265  0.0858
 4471SOL    HW124875   3.190   2.974   9.371  0.3481 -1.1289 -1.2197
 4471SOL    HW224876   3.059   3.037   9.391 -0.4144 -0.8048  0.8313
 4472SOL     OW24877   2.855   0.164   9.092 -0.1364  0.0074 -0.0780
 4472SOL    HW124878   2.871   0.240   9.147 -0.4988  0.2313 -0.2821
 4472SOL    HW224879   2.782   0.123   9.138 -0.1461  0.3085  0.1692
 4473SOL     OW24880   3.095   1.075  13.554 -0.1629  0.3435 -0.0492
 4473SOL    HW124881   3.176   1.028  13.538 -1.0768 -1.1053 -0.4463
 4473SOL    HW224882   3.047   1.020  13.493  0.5582 -1.4357  0.9994
 4474SOL     OW24883   4.365   0.515  14.257 -0.3600  0.4302 -0.2436
 4474SOL    HW124884   4.275   0.485  14.252 -1.0984  2.5587  0.1682
 4474SOL    HW224885   4.360   0.583  14.325  0.2031 -1.6576  1.8763
 4475SOL     OW24886   4.335   2.247   7.484 -0.2112  0.3080 -0.3460
 4475SOL    HW124887   4.293   2.312   7.427  1.6512  1.5843 -0.2570
 4475SOL    HW224888   4.427   2.273   7.481  0.5114 -1.8809  3.6233
 4476SOL     OW24889   4.285   3.742  17.632  0.0242 -0.1001 -0.2516
 4476SOL    HW124890   4.227   3.691  17.576  1.3918 -1.0244 -0.8378
 4476SOL    HW224891   4.353   3.677  17.647  0.1765  0.3870  1.1231
 4477SOL     OW24892   2.548   4.375   7.917 -0.0390 -0.5168  0.3326
 4477SOL    HW124893   2.471   4.319   7.930  1.2695 -2.2289  0.8360
 4477SOL    HW224894   2.614   4.307   7.901  0.2084 -0.2592  0.2625
 4478SOL     OW24895   1.196   1.478   8.383 -0.1572  0.0678  0.2856
 4478SOL    HW124896   1.125   1.538   8.364  0.7975  0.8392 -0.8001
 4478SOL    HW224897   1.264   1.498   8.319  1.2574  0.6545  1.9758
 4479SOL     OW24898   1.005   4.712  11.805  0.1117 -0.5380 -0.2581
 4479SOL    HW124899   1.091   0.030  11.809  0.5164 -1.5750  1.7791
 4479SOL    HW224900   0.965   0.030  11.882  1.8213 -1.2804  0.9991
 4480SOL     OW24901   1.288   2.563   8.118 -0.1712 -0.2929 -0.1300
 4480SOL    HW124902   1.364   2.585   8.065 -0.6180 -1.0258 -1.0567
 4480SOL    HW224903   1.221   2.619   8.078 -0.6263  0.4563  1.6267
 4481SOL     OW24904   1.696   3.284   5.209  0.7698 -0.2206 -0.0724
 4481SOL    HW124905   1.628   3.296   5.275  0.2274 -0.2311 -0.6251
 4481SOL    HW224906   1.733   3.195   5.205 -1.1874 -1.0441  0.2572
 4482SOL     OW24907   3.432   2.237   1.352 -0.2368 -0.4630 -0.6939
 4482SOL    HW124908   3.340   2.219   1.372 -1.0034  3.5392 -0.4561
 4482SOL    HW224909   3.421   2.332   1.365 -1.3964 -0.4678 -1.5997
 4483SOL     OW24910   2.891   1.274  10.715  1.2116 -0.2159  0.4876
 4483SOL    HW124911   2.986   1.270  10.721  1.3501 -0.4953 -1.6439
 4483SOL    HW224912   2.858   1.184  10.706  0.2269  0.2254 -0.3566
 4484SOL     OW24913   2.620   2.496   7.832 -0.0450 -0.1922  0.5888
 4484SOL    HW124914   2.662   2.545   7.762 -1.7423  1.0341  0.4361
 4484SOL    HW224915   2.534   2.520   7.799  0.1933 -0.0361  0.0806
 4485SOL     OW24916   3.626   2.356   6.165 -0.7195 -0.3584  0.6292
 4485SOL    HW124917   3.676   2.281   6.197  0.0399  0.0376  0.3791
 4485SOL    HW224918   3.614   2.327   6.075  0.4022 -0.8653  0.6368
 4486SOL     OW24919   1.478   4.378   2.607  0.0413  0.0403  0.5121
 4486SOL    HW124920   1.478   4.472   2.588 -0.2668 -0.5214 -2.2787
 4486SOL    HW224921   1.556   4.380   2.662 -1.1498  0.2590  2.1745
 4487SOL     OW24922   0.071   1.318  14.716 -0.5307 -0.4513  0.1981
 4487SOL    HW124923   0.088   1.335  14.623 -0.0327 -1.9104  0.0229
 4487SOL    HW224924   0.078   1.223  14.714 -1.5500 -0.5137 -0.5836
 4488SOL     OW24925   4.437   0.480   5.319  0.5043  0.7584 -0.2808
 4488SOL    HW124926   4.529   0.504   5.307  0.9834 -0.2231  1.5588
 4488SOL    HW224927   4.444   0.461   5.412  1.1019  0.5444 -0.3639
 4489SOL     OW24928   3.237   3.980   6.298 -0.3122 -0.1362 -0.2901
 4489SOL    HW124929   3.280   4.001   6.381 -1.7946 -1.4326  0.8017
 4489SOL    HW224930   3.149   4.017   6.308 -1.3316 -2.5717 -0.2484
 4490SOL     OW24931   2.924   4.450   4.187 -0.1585 -0.2790 -0.1980
 4490SOL    HW124932   2.997   4.506   4.213 -2.1444  2.4080 -0.4244
 4490SOL    HW224933   2.887   4.433   4.273 -1.4575  0.1148 -0.6790
 4491SOL     OW24934   0.367   2.930   1.400  0.2195  0.4106  0.1621
 4491SOL    HW124935   0.327   2.864   1.457 -0.7796  1.1969  0.3765
 4491SOL    HW224936   0.287   2.954   1.353  0.2260  0.1035 -0.0051
 4492SOL     OW24937   1.713   2.077  10.609  0.4771  1.1042  0.3355
 4492SOL    HW124938   1.733   2.079  10.702 -1.2474 -0.6414  0.7426
 4492SOL    HW224939   1.639   2.137  10.596 -0.3575 -0.3196 -1.5002
 4493SOL     OW24940   0.345   3.372   2.990 -0.1607 -0.0108 -0.4579
 4493SOL    HW124941   0.418   3.370   3.052  0.1333  0.4473 -0.7863
 4493SOL    HW224942   0.312   3.460   3.006  0.0619  0.1894 -1.0628
 4494SOL     OW24943   1.412   4.541  16.630 -0.1776  0.4433  0.0611
 4494SOL    HW124944   1.471   4.495  16.571  0.2372  1.7449 -0.5276
 4494SOL    HW224945   1.483   4.576  16.685 -0.0366  0.6802 -0.2705
 4495SOL     OW24946   2.660   0.559  13.213  0.1216  0.6312 -0.4310
 4495SOL    HW124947   2.591   0.501  13.178  0.0153  0.0640  0.7050
 4495SOL    HW224948   2.617   0.574  13.297  0.4569  0.8047 -0.2918
 4496SOL     OW24949   1.728   2.606  17.470  0.1807 -0.5907 -0.3244
 4496SOL    HW124950   1.793   2.661  17.427  1.3399  0.3535  2.5881
 4496SOL    HW224951   1.769   2.605  17.557  0.7084  1.3919 -0.5488
 4497SOL     OW24952   3.841   0.692   7.165  0.0446  0.0018 -0.2287
 4497SOL    HW124953   3.751   0.724   7.154 -1.2683 -2.7959  2.0893
 4497SOL    HW224954   3.897   0.768   7.150 -0.6052  0.1590 -1.8157
 4498SOL     OW24955   2.534   2.702  13.746  0.8306  0.4644  0.4913
 4498SOL    HW124956   2.580   2.748  13.816 -1.1688  0.8976  1.5387
 4498SOL    HW224957   2.581   2.738  13.671  0.6932 -1.4878 -0.5293
 4499SOL     OW24958   1.636   2.267   6.947  0.3575 -0.1985 -0.5008
 4499SOL    HW124959   1.622   2.325   6.872  0.0352 -0.2883 -0.5107
 4499SOL    HW224960   1.646   2.181   6.907 -1.2804 -1.1698  1.1851
 4500SOL     OW24961   2.182   1.195   2.586  0.3259  0.3248 -0.0492
 4500SOL    HW124962   2.211   1.175   2.675  4.4827  0.1335 -1.4628
 4500SOL    HW224963   2.220   1.120   2.540  0.5258 -0.3242  1.1562
 4501SOL     OW24964   1.923   3.031   0.558 -0.2171  0.1695 -0.2689
 4501SOL    HW124965   1.853   3.017   0.494 -1.2316  0.9555  0.6698
 4501SOL    HW224966   1.926   3.127   0.561 -0.2162  0.1810 -0.6366
 4502SOL     OW24967   4.393   3.322   9.318  0.5931 -0.8262  0.1958
 4502SOL    HW124968   4.417   3.256   9.383 -0.1211 -1.6232 -0.3515
 4502SOL    HW224969   4.438   3.397   9.357 -1.1787 -0.3853  1.4046
 4503SOL     OW24970   2.641   0.414   1.697  0.3411  0.1769 -0.7549
 4503SOL    HW124971   2.582   0.481   1.731 -0.8474 -0.5129 -1.4306
 4503SOL    HW224972   2.731   0.445   1.700  0.0339  1.0953 -0.9754
 4504SOL     OW24973   0.227   1.305   4.577 -0.1720 -0.1772 -0.2101
 4504SOL    HW124974   0.312   1.279   4.614 -0.5789  0.1487  0.9571
 4504SOL    HW224975   0.194   1.227   4.533 -0.6677 -1.2900  2.0791
 4505SOL     OW24976   1.785   4.340   8.062  0.2836  0.3546  0.4264
 4505SOL    HW124977   1.760   4.425   8.098 -0.8828  1.0261 -1.9980
 4505SOL    HW224978   1.729   4.344   7.984 -0.6254 -0.9413  1.0215
 4506SOL     OW24979   2.001   4.136   0.181 -0.1785 -0.0709 -0.4512
 4506SOL    HW124980   2.004   4.112   0.088 -0.3996  0.8601 -0.6900
 4506SOL    HW224981   1.914   4.170   0.197  0.3516  0.4784  1.2057
 4507SOL     OW24982   3.001   0.987   3.791 -0.3697 -0.7874  0.2464
 4507SOL    HW124983   2.937   0.932   3.745  0.1299 -0.3197 -1.0035
 4507SOL    HW224984   3.082   0.959   3.749 -0.4787 -0.7355 -0.0016
 4508SOL     OW24985   1.671   0.046  10.449 -0.4924  0.3748 -0.1156
 4508SOL    HW124986   1.705   0.135  10.441  3.4939 -1.1205  0.1263
 4508SOL    HW224987   1.637   0.029  10.362  0.8819  0.2138 -0.6328
 4509SOL     OW24988   2.860   0.426  10.877 -0.4817  0.0682  0.0541
 4509SOL    HW124989   2.943   0.465  10.850  0.0510 -0.4989  0.8790
 4509SOL    HW224990   2.877   0.431  10.971 -0.5572 -0.5153  0.0983
 4510SOL     OW24991   4.604   2.779   2.415 -0.5637 -0.0025 -0.3865
 4510SOL    HW124992   4.571   2.756   2.502 -1.9511  1.4707 -0.5282
 4510SOL    HW224993   4.692   2.806   2.440 -0.8269 -0.0630  0.5903
 4511SOL     OW24994   4.601   3.561   2.542 -0.4161  0.0053 -0.2840
 4511SOL    HW124995   4.679   3.557   2.488  0.5671 -0.8183  1.1950
 4511SOL    HW224996   4.588   3.654   2.525  0.5049  0.1984  0.0764
 4512SOL     OW24997   3.483   1.003  12.086 -0.0469  0.2412  0.4072
 4512SOL    HW124998   3.523   1.040  12.165 -3.1115 -0.3219  2.2501
 4512SOL    HW224999   3.437   0.931  12.129  2.8196 -3.1646 -2.2976
 4513SOL     OW25000   3.574   0.108   2.125 -0.3347 -0.1430 -0.7798
 4513SOL    HW125001   3.640   0.163   2.081  0.6482  1.0330  2.1654
 4513SOL    HW225002   3.622   0.026   2.135 -0.9826 -0.4408 -0.1641
 4514SOL     OW25003   1.571   0.921   4.870 -0.5693  0.1203 -0.4768
 4514SOL    HW125004   1.624   0.956   4.798 -0.3350  1.0864  0.1616
 4514SOL    HW225005   1.502   0.882   4.817  0.7211  0.0145 -2.1122
 4515SOL     OW25006   1.884   1.686   2.189 -0.0731 -0.4181  0.0826
 4515SOL    HW125007   1.819   1.653   2.127 -1.8497 -0.4137  1.9335
 4515SOL    HW225008   1.932   1.747   2.132  0.8316 -2.7297 -1.6235
 4516SOL     OW25009   0.336   3.883  11.507 -0.6061  0.2728 -0.1191
 4516SOL    HW125010   0.306   3.960  11.555  1.8540  1.7223 -0.9225
 4516SOL    HW225011   0.401   3.850  11.569 -0.3555 -0.7568 -0.9336
 4517SOL     OW25012   1.536   3.666   2.990  0.0793  0.1843 -0.1068
 4517SOL    HW125013   1.526   3.709   2.905  0.4928 -1.8696 -1.1948
 4517SOL    HW225014   1.548   3.574   2.964 -1.6982 -0.7510  2.3357
 4518SOL     OW25015   2.904   3.546   3.183 -0.1580  0.2009  0.0232
 4518SOL    HW125016   2.962   3.523   3.110  1.0396  1.9768  0.4290
 4518SOL    HW225017   2.824   3.500   3.158 -0.2609  0.9602 -1.0382
 4519SOL     OW25018   1.716   1.582   8.573 -0.7054  0.1286  0.5455
 4519SOL    HW125019   1.794   1.565   8.627 -1.9258  0.9792  2.5785
 4519SOL    HW225020   1.669   1.500   8.591 -0.1224 -0.4181 -0.4459
 4520SOL     OW25021   0.581   2.268   8.389 -0.7687 -0.2129 -0.0353
 4520SOL    HW125022   0.646   2.334   8.416 -0.5281 -0.0477 -1.0253
 4520SOL    HW225023   0.626   2.251   8.306  0.9071 -1.0501  1.0538
 4521SOL     OW25024   0.908   2.957  11.878 -0.2246 -0.1673  0.3067
 4521SOL    HW125025   0.997   2.980  11.906 -0.7450  0.9514  1.0100
 4521SOL    HW225026   0.933   2.941  11.787  1.3111 -0.7710  0.8333
 4522SOL     OW25027   4.680   1.174   3.542 -0.2627  0.5879  0.0389
 4522SOL    HW125028   0.021   1.117   3.585 -1.9044 -0.1918  1.4526
 4522SOL    HW225029   4.673   1.129   3.457 -0.4931 -1.8259  1.3326
 4523SOL     OW25030   1.134   3.228   2.122 -0.0712 -0.7564  0.1849
 4523SOL    HW125031   1.086   3.220   2.040 -0.1350  1.1797  0.0465
 4523SOL    HW225032   1.224   3.196   2.112  0.1695  0.0107 -0.0798
 4524SOL     OW25033   3.538   2.214   4.786  0.0693  0.3251 -0.2295
 4524SOL    HW125034   3.467   2.165   4.827 -0.2680  0.1460 -1.0373
 4524SOL    HW225035   3.560   2.146   4.722  1.4521  0.9945 -0.4608
 4525SOL     OW25036   0.934   4.437   8.443  0.1431  0.3538  0.3286
 4525SOL    HW125037   0.927   4.516   8.390  1.4809 -0.1907 -0.6673
 4525SOL    HW225038   0.950   4.475   8.529 -1.1402  2.0877 -0.2084
 4526SOL     OW25039   2.951   2.956   0.872  0.1605  0.5456  0.0192
 4526SOL    HW125040   2.894   3.033   0.886 -1.2572 -0.5681  0.3714
 4526SOL    HW225041   3.035   3.001   0.868  0.9499 -1.1081 -1.6517
 4527SOL     OW25042   2.464   0.815   0.159  0.0148 -0.1197 -0.2386
 4527SOL    HW125043   2.487   0.907   0.157  0.2349 -0.1718 -0.0992
 4527SOL    HW225044   2.542   0.778   0.200  0.6702  1.3139 -0.2011
 4528SOL     OW25045   1.181   2.082  12.372 -0.2562 -0.3487 -0.0080
 4528SOL    HW125046   1.218   2.166  12.345 -0.3298 -0.1154  0.6212
 4528SOL    HW225047   1.262   2.034  12.350 -0.3302 -1.2524  1.6991
 4529SOL     OW25048   2.501   0.066  11.344  0.4828  0.0732  0.3209
 4529SOL    HW125049   2.453   0.137  11.387  1.9683  2.2433 -1.5741
 4529SOL    HW225050   2.445   4.716  11.370 -0.1973  0.1169 -1.0155
 4530SOL     OW25051   4.663   3.770   4.770  0.3097 -0.3545 -0.5241
 4530SOL    HW125052   4.603   3.800   4.702 -1.1581  0.6219  1.2014
 4530SOL    HW225053   4.719   3.716   4.715  0.1407  0.3766 -1.4061
 4531SOL     OW25054   0.135   2.752  15.455 -0.0287 -0.7101 -0.6578
 4531SOL    HW125055   0.212   2.792  15.494  0.2340  0.4827 -2.4061
 4531SOL    HW225056   0.064   2.791  15.507  0.3831 -0.0789 -0.5688
 4532SOL     OW25057   3.311   0.764  17.105 -0.0255  0.5673  0.3875
 4532SOL    HW125058   3.347   0.694  17.159  1.4505  0.6264 -0.5278
 4532SOL    HW225059   3.349   0.841  17.146  1.6249 -0.6095  1.0326
 4533SOL     OW25060   3.300   3.031   9.700  0.7516 -0.1460  0.1594
 4533SOL    HW125061   3.395   3.031   9.690  0.4052  1.0022 -3.1508
 4533SOL    HW225062   3.293   2.939   9.725  1.7191 -0.0787  0.6847
 4534SOL     OW25063   3.964   4.394   3.121  0.2798  0.2156 -0.0309
 4534SOL    HW125064   3.948   4.408   3.215  0.3268  1.7540 -0.2406
 4534SOL    HW225065   3.883   4.431   3.086  0.2675  0.1116 -0.1094
 4535SOL     OW25066   4.433   0.485   4.666 -0.3564  0.2187  0.9670
 4535SOL    HW125067   4.408   0.512   4.755 -1.8228  0.9306  0.3338
 4535SOL    HW225068   4.354   0.492   4.612  0.6466 -0.7658 -0.6292
 4536SOL     OW25069   0.004   1.372   8.711  0.3927 -0.2753 -0.5184
 4536SOL    HW125070   0.061   1.411   8.644  1.9553  0.0632  0.9907
 4536SOL    HW225071   4.708   1.449   8.764  2.5552 -1.3419  1.8284
 4537SOL     OW25072   3.259   3.489   4.825 -0.2383 -0.4188 -0.2195
 4537SOL    HW125073   3.325   3.506   4.758 -1.1033  0.5930 -0.8052
 4537SOL    HW225074   3.193   3.476   4.757 -0.6119  0.4326 -0.0221
 4538SOL     OW25075   1.007   3.712   6.890  0.3119 -0.4883 -0.0426
 4538SOL    HW125076   0.926   3.756   6.914  0.1617  0.5254 -2.3958
 4538SOL    HW225077   0.976   3.664   6.813 -1.1986 -0.0324  0.2812
 4539SOL     OW25078   3.023   4.490   6.112 -0.2648 -0.1595  0.3471
 4539SOL    HW125079   2.946   4.435   6.099 -1.0420  1.0458 -0.0570
 4539SOL    HW225080   3.077   4.468   6.036 -2.1307 -0.3342 -0.9098
 4540SOL     OW25081   1.318   3.667   3.916  0.0202 -0.2207  0.4634
 4540SOL    HW125082   1.269   3.692   3.994 -0.1227 -0.0021  0.3029
 4540SOL    HW225083   1.253   3.659   3.847  0.4385  2.4106 -0.2096
 4541SOL     OW25084   4.641   0.414   4.992  0.2823 -0.3635  0.4652
 4541SOL    HW125085   0.011   0.420   4.976  0.1256  0.7044 -0.0784
 4541SOL    HW225086   4.620   0.508   4.988  0.8811 -0.3213 -1.6503
 4542SOL     OW25087   0.635   0.970   4.445 -0.3148 -0.0701 -0.6616
 4542SOL    HW125088   0.680   0.889   4.471 -1.2497 -1.0067 -1.9290
 4542SOL    HW225089   0.604   0.951   4.357 -0.2648  0.7038 -0.8413
 4543SOL     OW25090   2.460   4.076   2.415 -0.4142  0.2159  0.1933
 4543SOL    HW125091   2.486   4.001   2.361  1.7056  1.9737 -1.2475
 4543SOL    HW225092   2.472   4.148   2.354  2.5198 -0.0019  0.4930
 4544SOL     OW25093   4.080   1.632   1.433 -0.1685  0.4607  0.0633
 4544SOL    HW125094   4.092   1.549   1.480  0.2757  0.9042  0.7342
 4544SOL    HW225095   4.010   1.611   1.371 -0.0440  0.7954 -0.1917
 4545SOL     OW25096   0.052   2.590   2.676  0.1646  0.2206 -0.5155
 4545SOL    HW125097   0.116   2.598   2.747 -2.2347 -1.0697  1.7973
 4545SOL    HW225098   0.078   2.672   2.635  3.0264 -1.1840 -1.4812
 4546SOL     OW25099   3.883   3.500   3.603 -0.2806 -0.0049 -0.5375
 4546SOL    HW125100   3.860   3.470   3.515  0.3813 -4.3045  0.7167
 4546SOL    HW225101   3.935   3.427   3.636  0.7050  1.1405  0.4019
 4547SOL     OW25102   2.927   2.264  12.925  0.4591 -0.1287 -0.4001
 4547SOL    HW125103   2.960   2.336  12.978 -1.1910 -0.8133  1.5914
 4547SOL    HW225104   2.997   2.258  12.861 -0.1154 -1.6005 -0.8936
 4548SOL     OW25105   2.969   2.992   7.228  0.0455  0.1016  0.1418
 4548SOL    HW125106   2.931   3.000   7.316  1.4829  0.2520  0.7620
 4548SOL    HW225107   3.060   3.008   7.252  0.6781 -2.3035 -0.7237
 4549SOL     OW25108   0.635   0.264   6.770 -0.1820 -0.6254 -0.5055
 4549SOL    HW125109   0.630   0.182   6.819 -0.5836 -1.6815 -2.2774
 4549SOL    HW225110   0.614   0.252   6.677  0.0468 -0.2274 -0.6066
 4550SOL     OW25111   3.177   3.329   3.159  0.2113  0.3479  0.6004
 4550SOL    HW125112   3.259   3.304   3.116 -0.1350  0.1824  0.0416
 4550SOL    HW225113   3.150   3.392   3.092  1.6157 -1.0096 -1.2795
 4551SOL     OW25114   3.630   2.986   7.030 -0.1103 -0.0644  0.5772
 4551SOL    HW125115   3.637   2.925   7.103 -1.2515  1.3532  1.8778
 4551SOL    HW225116   3.585   2.927   6.969  0.2361 -0.2018  0.4530
 4552SOL     OW25117   2.428   1.559  15.687 -0.0283 -0.5546  0.4440
 4552SOL    HW125118   2.397   1.498  15.755  0.6113 -1.3835 -0.0045
 4552SOL    HW225119   2.522   1.554  15.702 -0.3834  0.1282  2.9372
 4553SOL     OW25120   4.161   2.131   3.942 -0.9379 -0.1806  0.2335
 4553SOL    HW125121   4.174   2.036   3.938 -1.6054 -0.3961  3.3491
 4553SOL    HW225122   4.100   2.144   3.869 -0.6047 -2.3118 -0.4456
 4554SOL     OW25123   0.585   4.235   6.785  0.6373 -0.2144 -0.2148
 4554SOL    HW125124   0.605   4.153   6.740 -2.5215 -1.6001  0.8583
 4554SOL    HW225125   0.640   4.301   6.742 -0.4280  1.8131  1.5230
 4555SOL     OW25126   2.713   3.791   2.045  0.2218  0.7002 -0.2594
 4555SOL    HW125127   2.649   3.721   2.033 -0.4593  0.7756  3.0531
 4555SOL    HW225128   2.791   3.744   2.014 -0.3500  0.3068 -1.0901
 4556SOL     OW25129   4.444   1.974  14.237 -0.2452 -0.2216  0.3227
 4556SOL    HW125130   4.412   1.914  14.304  0.7008 -1.5966 -0.4426
 4556SOL    HW225131   4.401   1.937  14.160  1.8597 -0.3058 -0.8128
 4557SOL     OW25132   4.443   0.030   4.424 -0.0288  0.5988  0.9804
 4557SOL    HW125133   4.499   4.685   4.461 -2.9895 -2.2362  0.1233
 4557SOL    HW225134   4.507   0.097   4.399 -0.5950  0.8649  0.2529
 4558SOL     OW25135   3.352   4.325   9.769  0.1593 -0.8726  0.4663
 4558SOL    HW125136   3.272   4.364   9.806  1.6347  2.4456  0.1132
 4558SOL    HW225137   3.394   4.403   9.733 -0.8249  0.1992  1.6045
 4559SOL     OW25138   2.142   0.039  13.713  0.0394  0.4574 -0.5186
 4559SOL    HW125139   2.131   4.704  13.639  0.1598 -0.8498  0.4924
 4559SOL    HW225140   2.054   0.028  13.749  0.6285 -2.1656  0.1195
 4560SOL     OW25141   3.166   2.192   5.692  0.6900  0.4752  0.0198
 4560SOL    HW125142   3.215   2.253   5.636 -0.1176 -0.2718 -1.4967
 4560SOL    HW225143   3.076   2.205   5.662  0.4051 -0.5298  0.4461
 4561SOL     OW25144   3.830   2.874   3.386 -0.0099  0.1269 -0.1044
 4561SOL    HW125145   3.816   2.929   3.463 -2.2197 -0.2637 -0.2423
 4561SOL    HW225146   3.920   2.874   3.353 -0.9480  0.8351 -2.7099
 4562SOL     OW25147   3.802   3.859   9.666  0.0595 -0.3461  0.3871
 4562SOL    HW125148   3.753   3.848   9.748 -1.9990  2.0057 -0.5348
 4562SOL    HW225149   3.724   3.844   9.612  0.4871 -1.2159  0.0058
 4563SOL     OW25150   3.566   3.185  14.223 -0.2336 -0.1986  0.4542
 4563SOL    HW125151   3.571   3.175  14.318 -0.1683 -1.7714  0.2767
 4563SOL    HW225152   3.583   3.097  14.191 -2.0550 -0.6875  0.8117
 4564SOL     OW25153   3.955   2.037   0.924 -0.2384 -0.2169 -0.5899
 4564SOL    HW125154   3.862   2.029   0.902 -0.3007 -0.5279 -0.2125
 4564SOL    HW225155   3.976   1.944   0.932  0.2134 -0.0586  0.0000
 4565SOL     OW25156   1.543   0.092   2.826  0.2505 -0.0992 -0.3255
 4565SOL    HW125157   1.520   0.016   2.773  0.3130  0.0929 -0.6280
 4565SOL    HW225158   1.604   0.135   2.766  0.7601 -0.7849 -0.2977
 4566SOL     OW25159   3.673   1.020   2.676  0.1011  0.0719 -0.7134
 4566SOL    HW125160   3.678   0.956   2.747  1.6841  1.0510  0.0724
 4566SOL    HW225161   3.728   0.985   2.606  2.0304 -0.2876  0.9709
 4567SOL     OW25162   4.644   3.998   6.310  0.0932 -0.6251 -0.3429
 4567SOL    HW125163   4.548   3.997   6.304  0.1631 -1.7377 -1.4620
 4567SOL    HW225164   4.656   4.074   6.367  2.0688 -0.7383 -0.5922
 4568SOL     OW25165   0.480   0.837  14.035 -0.3126 -0.3618  0.1954
 4568SOL    HW125166   0.401   0.869  13.991  0.0346 -0.4585 -0.5013
 4568SOL    HW225167   0.547   0.898  14.004 -2.7923  0.0683 -4.3116
 4569SOL     OW25168   1.957   2.955  15.046  0.0953 -0.3580 -0.7219
 4569SOL    HW125169   2.024   2.897  15.084 -0.2604  0.9439  1.8657
 4569SOL    HW225170   1.908   2.899  14.986 -2.2565 -0.7936  1.5838
 4570SOL     OW25171   2.896   1.519  16.972 -0.0536 -0.3702  0.1080
 4570SOL    HW125172   2.897   1.506  17.067 -0.5878 -3.0436 -0.2458
 4570SOL    HW225173   2.889   1.431  16.934  0.3268 -0.2426 -0.2639
 4571SOL     OW25174   4.274   2.878   9.636 -0.0251  0.4484  0.1884
 4571SOL    HW125175   4.277   2.971   9.659  0.5876  0.6277 -0.6240
 4571SOL    HW225176   4.214   2.848   9.704  1.4514 -1.1678  0.7761
 4572SOL     OW25177   4.224   0.040  10.586  0.1144 -0.1509  0.2038
 4572SOL    HW125178   4.139   4.723  10.602 -0.0151  0.7516  1.7614
 4572SOL    HW225179   4.275   4.686  10.563 -2.1598 -1.1770 -1.4138
 4573SOL     OW25180   3.192   4.367   5.100 -0.3468 -0.2996  0.1917
 4573SOL    HW125181   3.175   4.285   5.054  0.0671  0.0331 -0.5615
 4573SOL    HW225182   3.116   4.418   5.071 -1.1229 -1.1167  0.7967
 4574SOL     OW25183   3.781   3.963  11.482  0.0241 -0.0479 -1.0962
 4574SOL    HW125184   3.783   3.873  11.450 -1.5029 -0.4899  0.0216
 4574SOL    HW225185   3.868   3.959  11.523 -0.3895 -0.7422 -0.2759
 4575SOL     OW25186   3.650   1.269  13.810 -0.0396 -0.4094  0.3944
 4575SOL    HW125187   3.709   1.196  13.792  1.2049  0.7629 -0.2164
 4575SOL    HW225188   3.579   1.216  13.847  0.5702 -0.4312  1.5328
 4576SOL     OW25189   0.722   4.562   8.061 -0.4015 -0.1184  0.3834
 4576SOL    HW125190   0.711   4.516   7.978  1.3205  1.1670 -0.5698
 4576SOL    HW225191   0.779   4.633   8.030 -1.2499  1.2159  1.9105
 4577SOL     OW25192   4.575   0.306   1.215  0.0882 -0.4986  0.5041
 4577SOL    HW125193   4.576   0.212   1.199 -1.5747 -0.5423  0.5938
 4577SOL    HW225194   4.506   0.337   1.156  1.3016  1.7589  0.2426
 4578SOL     OW25195   0.171   2.443   4.359  0.2280 -0.0347  0.2416
 4578SOL    HW125196   0.220   2.375   4.405  0.0641  0.6071  1.3456
 4578SOL    HW225197   0.100   2.392   4.320  0.8559  0.5545 -1.6876
 4579SOL     OW25198   2.995   3.495   9.519  0.0757 -0.2178 -0.0743
 4579SOL    HW125199   2.968   3.526   9.605  1.7455 -3.3133  1.5685
 4579SOL    HW225200   2.905   3.495   9.484  0.2571 -0.1310 -0.5437
 4580SOL     OW25201   1.837   0.561  12.839 -0.6679  0.3466 -0.2904
 4580SOL    HW125202   1.809   0.652  12.849 -1.5919  0.0553 -0.2004
 4580SOL    HW225203   1.834   0.536  12.931 -1.3800 -0.1830 -0.4605
 4581SOL     OW25204   4.571   1.898  15.325  0.3862  0.4805  0.2552
 4581SOL    HW125205   4.567   1.803  15.317 -1.7951  0.5081  0.8644
 4581SOL    HW225206   4.648   1.918  15.273 -0.4973  4.1936  0.3954
 4582SOL     OW25207   2.735   0.196   2.726  0.6563  0.4704 -0.1673
 4582SOL    HW125208   2.721   0.136   2.653 -0.6058  0.1610  0.3277
 4582SOL    HW225209   2.829   0.205   2.710  1.0847 -2.2295  0.8800
 4583SOL     OW25210   0.724   2.915   7.434  0.2900 -0.1314 -0.5375
 4583SOL    HW125211   0.759   2.944   7.350 -0.0001  0.4774 -0.4516
 4583SOL    HW225212   0.757   2.983   7.492 -0.3200 -0.6573  0.4416
 4584SOL     OW25213   0.831   4.058  10.003  0.5474  0.2861  0.2553
 4584SOL    HW125214   0.747   4.056   9.956  1.0177  2.7376 -0.6827
 4584SOL    HW225215   0.869   3.971   9.991 -1.0898 -0.4015 -0.0436
 4585SOL     OW25216   4.707   3.483   6.301 -0.0292  0.1947  0.3928
 4585SOL    HW125217   4.647   3.433   6.246  0.4797  1.0533 -0.9520
 4585SOL    HW225218   4.680   3.573   6.281 -0.9345 -0.3237 -0.6744
 4586SOL     OW25219   4.386   4.573   1.001  0.6776 -0.0630 -0.4440
 4586SOL    HW125220   4.389   4.635   0.928 -0.3253  1.5839  0.9345
 4586SOL    HW225221   4.432   4.620   1.070 -1.4113  1.4159 -0.0559
 4587SOL     OW25222   0.391   0.840   3.726  0.1184 -0.0024 -0.0396
 4587SOL    HW125223   0.481   0.865   3.747 -0.9360  1.7680  2.3544
 4587SOL    HW225224   0.359   0.924   3.695 -1.3173 -0.7937 -0.7022
 4588SOL     OW25225   2.235   0.774   5.617  0.1567  0.5658 -0.7733
 4588SOL    HW125226   2.318   0.818   5.597  0.8760  0.3088  1.7247
 4588SOL    HW225227   2.217   0.786   5.710  1.2423  0.6069 -0.5653
 4589SOL     OW25228   0.748   0.115  15.666 -0.8316  0.3326 -0.4050
 4589SOL    HW125229   0.678   0.139  15.605 -2.5478 -2.3627  0.5415
 4589SOL    HW225230   0.803   0.074  15.599  0.3658  0.2246  0.6565
 4590SOL     OW25231   3.105   0.558   0.040  0.6241 -0.3484  0.4302
 4590SOL    HW125232   3.064   0.514   0.115 -0.2453  0.4683  0.4434
 4590SOL    HW225233   3.180   0.597   0.085  0.7354 -0.6818  0.5335
 4591SOL     OW25234   0.638   1.743   5.533 -0.1136  0.6869  0.1341
 4591SOL    HW125235   0.656   1.836   5.543  0.7881  0.4751  0.4740
 4591SOL    HW225236   0.542   1.734   5.530  0.1053 -1.9100  0.7484
 4592SOL     OW25237   3.085   4.583   1.247 -0.4685 -0.1881  0.7038
 4592SOL    HW125238   3.167   4.608   1.291 -1.4165  4.7442 -0.3592
 4592SOL    HW225239   3.064   4.508   1.303 -0.9773  0.1596  0.9812
 4593SOL     OW25240   0.529   4.592   4.318  0.3800 -0.2322 -0.1372
 4593SOL    HW125241   0.504   4.661   4.257 -0.1361  0.3398  0.7150
 4593SOL    HW225242   0.566   4.539   4.248 -1.2094 -0.9212 -0.4651
 4594SOL     OW25243   2.702   0.058   9.272  0.2488 -0.7627  0.2945
 4594SOL    HW125244   2.778   0.031   9.323  0.1878 -3.3383 -1.0059
 4594SOL    HW225245   2.639   0.090   9.337 -0.4903  0.5966 -1.0671
 4595SOL     OW25246   1.232   4.240   8.085  0.1548  0.3626  0.2103
 4595SOL    HW125247   1.217   4.192   8.004 -0.3829  0.0054  0.5167
 4595SOL    HW225248   1.157   4.211   8.138  1.3799 -1.9284  0.6866
 4596SOL     OW25249   3.922   4.422   6.826  0.2840  0.6893  0.1327
 4596SOL    HW125250   4.007   4.391   6.857 -0.7451 -3.1438 -0.8992
 4596SOL    HW225251   3.945   4.500   6.774  2.7935  0.6951  1.2349
 4597SOL     OW25252   0.863   2.284   4.053  0.3396  0.0700 -0.0436
 4597SOL    HW125253   0.924   2.315   3.987 -0.8084  1.2998 -0.5241
 4597SOL    HW225254   0.914   2.315   4.128 -0.3336 -1.4386  1.0432
 4598SOL     OW25255   1.578   1.868   3.098 -0.0909  0.1261 -0.1080
 4598SOL    HW125256   1.626   1.890   3.178  1.6885 -2.7362 -0.4174
 4598SOL    HW225257   1.490   1.850   3.131  0.4430 -0.9797  0.7019
 4599SOL     OW25258   2.767   0.370   2.390  0.0176 -0.2828  0.8371
 4599SOL    HW125259   2.777   0.399   2.299  0.1230 -0.2385  0.8628
 4599SOL    HW225260   2.820   0.433   2.438 -1.6954  0.1826  2.0954
 4600SOL     OW25261   0.162   0.619   7.893 -0.1031 -0.0723 -0.2732
 4600SOL    HW125262   0.180   0.629   7.986 -1.0807 -1.5289  0.0639
 4600SOL    HW225263   0.091   0.555   7.890 -1.7987  1.7071  2.2132
 4601SOL     OW25264   2.901   2.570   0.659  0.2496  0.1145 -0.2183
 4601SOL    HW125265   2.941   2.568   0.746 -0.0691 -0.1939 -0.0807
 4601SOL    HW225266   2.845   2.492   0.653  1.0995 -0.7810  3.1248
 4602SOL     OW25267   3.924   1.781   2.658 -0.3299  0.7168  0.0013
 4602SOL    HW125268   3.830   1.761   2.655 -0.6131  2.0332  0.0608
 4602SOL    HW225269   3.920   1.867   2.699  0.8228  0.3262  0.9394
 4603SOL     OW25270   3.267   0.514   6.437  0.0966  0.3126  0.4424
 4603SOL    HW125271   3.308   0.558   6.512  0.5233  1.7605 -0.6431
 4603SOL    HW225272   3.244   0.436   6.488 -1.0233  0.4652  0.1668
 4604SOL     OW25273   4.442   4.560   5.694 -0.6331  0.4092  0.1468
 4604SOL    HW125274   4.527   4.528   5.665 -0.3643 -0.5349  1.9680
 4604SOL    HW225275   4.429   4.640   5.643  2.2491  1.5393  1.1743
 4605SOL     OW25276   2.589   0.589   7.699  0.0617 -0.5878 -0.4843
 4605SOL    HW125277   2.524   0.591   7.769  0.5781 -0.3762 -0.0122
 4605SOL    HW225278   2.660   0.547   7.748 -0.0893 -0.4726 -0.1669
 4606SOL     OW25279   0.501   2.502   9.421  0.2960  0.1609  0.6698
 4606SOL    HW125280   0.413   2.478   9.392  1.1787 -0.9424 -1.1026
 4606SOL    HW225281   0.534   2.414   9.405 -1.2326  0.0162 -1.6922
 4607SOL     OW25282   4.470   3.490   9.519  0.1682  0.0135 -0.6065
 4607SOL    HW125283   4.508   3.577   9.512 -0.2524  0.0417 -2.4989
 4607SOL    HW225284   4.409   3.504   9.592  1.4570  0.3669  0.4053
 4608SOL     OW25285   2.893   3.478   8.130 -0.6732 -0.0515 -0.1599
 4608SOL    HW125286   2.854   3.543   8.071  0.9013 -0.5915 -1.8209
 4608SOL    HW225287   2.814   3.450   8.175  0.3573 -0.2248  1.5435
 4609SOL     OW25288   0.697   1.298   5.584 -0.1267  0.3501  0.2311
 4609SOL    HW125289   0.746   1.247   5.648 -2.2218  0.3376  1.7934
 4609SOL    HW225290   0.763   1.364   5.562  0.8513 -0.2984  1.2488
 4610SOL     OW25291   0.978   2.559   6.794 -0.4742  0.4766  0.4190
 4610SOL    HW125292   1.033   2.515   6.728 -0.6287 -1.1177  1.3626
 4610SOL    HW225293   0.895   2.517   6.771  1.8427 -2.3826 -2.8352
 4611SOL     OW25294   2.094   1.603  16.656 -0.7062  0.2623 -0.1011
 4611SOL    HW125295   2.111   1.553  16.576 -1.8049  0.4397 -0.4550
 4611SOL    HW225296   2.166   1.573  16.711 -0.2948  1.0162 -0.2302
 4612SOL     OW25297   2.624   4.162   6.216  0.1220  0.3525 -0.5352
 4612SOL    HW125298   2.669   4.078   6.210 -1.5061 -0.6672  1.5507
 4612SOL    HW225299   2.684   4.219   6.264  0.4636 -0.2279 -0.2771
 4613SOL     OW25300   0.928   2.337  15.247 -0.3182 -0.5955 -0.0354
 4613SOL    HW125301   0.837   2.350  15.274  0.1624  1.0270  0.8031
 4613SOL    HW225302   0.929   2.373  15.158  2.5936 -1.8065 -0.4869
 4614SOL     OW25303   0.503   2.248   4.424 -0.1902 -0.3675  0.1157
 4614SOL    HW125304   0.561   2.324   4.428  0.7764 -1.2385  2.8066
 4614SOL    HW225305   0.471   2.270   4.337 -1.9885 -2.5449  0.2099
 4615SOL     OW25306   1.267   2.728   0.603 -0.1671  0.0680  0.3854
 4615SOL    HW125307   1.294   2.805   0.552 -0.0108  0.2986  0.8168
 4615SOL    HW225308   1.237   2.761   0.688  1.1714 -0.0031  0.8763
 4616SOL     OW25309   2.564   4.685  17.041  0.0363 -0.3781  0.0183
 4616SOL    HW125310   2.597   0.015  17.113 -0.6177  1.6705 -1.2110
 4616SOL    HW225311   2.643   4.667  16.990  2.0464  0.6329  2.8105
 4617SOL     OW25312   3.919   1.022   1.571  0.0322  0.1990  0.5025
 4617SOL    HW125313   4.003   1.005   1.615 -0.0930 -1.6563  0.0142
 4617SOL    HW225314   3.893   0.932   1.549 -0.4467  0.6980 -0.9376
 4618SOL     OW25315   3.122   1.288  13.716  0.3204  0.3710 -0.3883
 4618SOL    HW125316   3.114   1.218  13.650 -0.8430 -0.9883  1.2043
 4618SOL    HW225317   3.187   1.342  13.671  1.8672 -0.6780  0.5651
 4619SOL     OW25318   3.476   3.856   8.041  0.4283  0.6336  0.1608
 4619SOL    HW125319   3.389   3.851   8.002  0.0359  1.0315  1.0097
 4619SOL    HW225320   3.467   3.777   8.094 -2.8488 -0.6839 -2.3575
 4620SOL     OW25321   3.369   2.688   6.656 -0.1132 -0.3916 -0.0973
 4620SOL    HW125322   3.383   2.611   6.711  0.3405  0.6188  1.2042
 4620SOL    HW225323   3.280   2.671   6.623  0.3305 -1.1844 -0.8745
 4621SOL     OW25324   4.222   2.575  13.107  0.1435  0.0612 -0.6626
 4621SOL    HW125325   4.132   2.588  13.076 -0.1830  0.5960  0.5243
 4621SOL    HW225326   4.264   2.616  13.031 -0.0484 -0.2676 -0.9462
 4622SOL     OW25327   2.353   4.160   7.995  0.1237 -0.5072  0.0370
 4622SOL    HW125328   2.327   4.167   8.087 -1.1471 -2.2986 -0.1715
 4622SOL    HW225329   2.337   4.068   7.974  0.5160 -0.4070 -0.7044
 4623SOL     OW25330   3.374   0.486   9.524 -0.3354  0.4498  0.7945
 4623SOL    HW125331   3.461   0.523   9.506 -0.3911  0.4470  0.5161
 4623SOL    HW225332   3.328   0.538   9.458  1.1503  1.7279  0.7544
 4624SOL     OW25333   1.416   3.480   8.173 -0.4057  0.4231  0.3555
 4624SOL    HW125334   1.408   3.510   8.082 -0.9700 -4.0728 -1.0402
 4624SOL    HW225335   1.485   3.535   8.211  0.6869 -0.1064 -0.8563
 4625SOL     OW25336   3.088   1.491   4.357 -0.5955 -0.0906 -0.4712
 4625SOL    HW125337   3.137   1.507   4.277 -0.8432  1.8119 -0.2388
 4625SOL    HW225338   2.998   1.484   4.328 -1.6339  2.3611  2.1372
 4626SOL     OW25339   3.698   1.788   6.497  0.0271  0.8908  0.0878
 4626SOL    HW125340   3.730   1.804   6.586  1.4820  0.2429 -0.3088
 4626SOL    HW225341   3.609   1.763   6.523  0.6891 -2.1226 -0.4690
 4627SOL     OW25342   3.653   0.429   7.273 -0.8632 -0.5739 -0.4167
 4627SOL    HW125343   3.609   0.346   7.255 -1.5169 -0.7291  1.8671
 4627SOL    HW225344   3.685   0.458   7.188  2.1294  1.4837  1.4260
 4628SOL     OW25345   0.020   0.177   5.100 -0.3309  0.7668 -0.5776
 4628SOL    HW125346   0.099   0.177   5.047 -0.8248  1.3513 -1.3092
 4628SOL    HW225347   0.004   0.271   5.112 -0.4457  0.6441  0.2160
 4629SOL     OW25348   4.351   0.698  14.457 -0.1505  0.2866  0.1521
 4629SOL    HW125349   4.296   0.695  14.535 -1.3888 -1.4040 -0.7980
 4629SOL    HW225350   4.433   0.678  14.503 -0.2585 -0.6845 -0.0885
 4630SOL     OW25351   3.978   2.063   9.080  0.1661 -0.1792  0.3433
 4630SOL    HW125352   3.971   2.117   9.001 -0.0575 -0.6114  0.0668
 4630SOL    HW225353   3.986   2.127   9.151  0.5684  0.4326 -0.2563
 4631SOL     OW25354   1.618   3.560   0.486 -0.3394 -0.0987 -0.2965
 4631SOL    HW125355   1.588   3.631   0.429 -1.1954 -0.3671 -0.1801
 4631SOL    HW225356   1.542   3.556   0.544 -0.2104 -0.1063 -0.1290
 4632SOL     OW25357   3.771   1.108   1.093  0.0643 -0.2228 -0.2026
 4632SOL    HW125358   3.779   1.062   1.009 -2.9407  0.2163 -0.7166
 4632SOL    HW225359   3.682   1.143   1.085  0.4863  0.8342 -0.2663
 4633SOL     OW25360   2.045   2.617  12.960 -0.1471 -0.1785  0.0184
 4633SOL    HW125361   1.996   2.544  12.998  0.3180  0.2683  1.4690
 4633SOL    HW225362   1.994   2.619  12.879 -1.9091 -0.0615  1.1218
 4634SOL     OW25363   4.371   4.015   3.054  0.2064 -0.0956 -0.1853
 4634SOL    HW125364   4.388   4.087   3.115 -1.0255 -1.3183  1.6126
 4634SOL    HW225365   4.275   4.020   3.052  0.0984 -0.8447  2.5611
 4635SOL     OW25366   3.757   0.212   5.599  0.4871 -0.6407  0.3055
 4635SOL    HW125367   3.725   0.266   5.527 -1.8444  1.0967  2.6409
 4635SOL    HW225368   3.729   0.132   5.555  0.1442 -0.9029  1.0070
 4636SOL     OW25369   2.021   3.087   8.287  0.1176 -0.6544 -0.1226
 4636SOL    HW125370   2.028   3.176   8.322  0.4321 -0.6057 -0.3114
 4636SOL    HW225371   2.096   3.043   8.327  0.0030 -0.2334  0.5599
 4637SOL     OW25372   3.569   0.863   2.249  0.2491 -0.2310  0.4608
 4637SOL    HW125373   3.543   0.811   2.326 -1.3743  1.5803  1.1219
 4637SOL    HW225374   3.663   0.847   2.252  0.5723  2.0955  2.1123
 4638SOL     OW25375   4.222   4.330   9.047 -0.3295 -0.4691 -0.3162
 4638SOL    HW125376   4.253   4.352   9.134 -0.0162  0.8553 -0.7705
 4638SOL    HW225377   4.203   4.417   9.012 -0.5495 -0.5741 -0.4575
 4639SOL     OW25378   4.489   2.535   4.695 -0.0942 -0.0724  1.3812
 4639SOL    HW125379   4.572   2.496   4.669 -0.6460 -0.1422 -0.2624
 4639SOL    HW225380   4.484   2.495   4.782 -3.4690  1.5311  1.9291
 4640SOL     OW25381   2.286   0.810   4.119 -0.2255  1.0654  0.3983
 4640SOL    HW125382   2.203   0.773   4.090  0.5663  1.7020 -2.6426
 4640SOL    HW225383   2.305   0.746   4.187  0.8583  2.1215  1.1052
 4641SOL     OW25384   0.736   0.709  10.771 -0.2830 -0.4057 -0.1216
 4641SOL    HW125385   0.763   0.684  10.683  0.7982  0.5977 -0.0678
 4641SOL    HW225386   0.821   0.723  10.813  0.2625  0.6443 -1.5954
 4642SOL     OW25387   3.859   0.236   2.433  0.3879  0.2927  0.4482
 4642SOL    HW125388   3.867   0.254   2.527  2.4113  0.8750  0.1637
 4642SOL    HW225389   3.783   0.178   2.427 -1.3587  2.7995 -1.9894
 4643SOL     OW25390   3.242   1.838  10.220  0.2875 -0.4767  0.0828
 4643SOL    HW125391   3.200   1.841  10.306 -1.4193 -1.8643 -0.7094
 4643SOL    HW225392   3.230   1.931  10.198  0.6797 -0.9249 -2.0735
 4644SOL     OW25393   0.795   2.073   4.608 -0.2186  0.1277 -0.4833
 4644SOL    HW125394   0.861   2.087   4.675  2.9334  1.1140 -3.8065
 4644SOL    HW225395   0.823   2.149   4.556  1.9604  1.6381  2.9341
 4645SOL     OW25396   0.910   3.871  13.471  0.0097 -0.5919 -0.0230
 4645SOL    HW125397   0.816   3.858  13.457 -0.0378 -1.6408  1.2247
 4645SOL    HW225398   0.939   3.795  13.522  0.4459 -1.5150 -1.6671
 4646SOL     OW25399   0.265   1.796   7.871 -0.4362  0.6237  0.2798
 4646SOL    HW125400   0.260   1.802   7.967 -1.0642 -0.9893  0.3591
 4646SOL    HW225401   0.291   1.704   7.861 -0.8842  0.6818 -1.3720
 4647SOL     OW25402   1.595   3.409  17.123  0.4249  0.1858 -0.0217
 4647SOL    HW125403   1.672   3.463  17.106  0.4918 -0.0658 -0.4963
 4647SOL    HW225404   1.521   3.470  17.125  0.1918 -0.0896 -0.4449
 4648SOL     OW25405   0.980   0.997   7.512  0.1030  0.3466 -0.3155
 4648SOL    HW125406   1.018   1.078   7.548 -4.4768  2.2493  0.3187
 4648SOL    HW225407   0.899   1.005   7.563  0.3713 -0.5136  0.2546
 4649SOL     OW25408   2.927   3.199  13.366 -0.0388  0.6934  0.3042
 4649SOL    HW125409   2.982   3.173  13.440  2.1977 -0.4321 -1.7414
 4649SOL    HW225410   2.985   3.188  13.291  1.5802 -2.1505  1.9743
 4650SOL     OW25411   1.931   2.631   6.825  0.1090 -0.1270 -0.6733
 4650SOL    HW125412   1.871   2.690   6.780  2.0202  1.1567 -1.5143
 4650SOL    HW225413   1.890   2.626   6.912  0.9430  0.2326 -0.2564
 4651SOL     OW25414   2.304   0.012   6.443  0.6754  0.4576  0.3653
 4651SOL    HW125415   2.380   0.040   6.494  0.2436  0.6356  0.9119
 4651SOL    HW225416   2.344   4.655   6.411 -1.3213  0.2646 -1.6413
 4652SOL     OW25417   0.955   4.249   7.732 -0.1469 -0.2729  0.2041
 4652SOL    HW125418   0.873   4.294   7.714 -0.2157  0.2107  1.7393
 4652SOL    HW225419   1.005   4.321   7.771 -2.4146  0.7583  1.1713
 4653SOL     OW25420   1.145   3.165  14.117  0.3380 -0.4449 -0.3510
 4653SOL    HW125421   1.176   3.074  14.126  1.9519  0.2109  0.8243
 4653SOL    HW225422   1.081   3.158  14.047  1.2920 -1.4023 -1.1266
 4654SOL     OW25423   1.167   3.043   5.864 -0.2295 -0.1595  0.0741
 4654SOL    HW125424   1.248   3.013   5.905 -0.2295  2.1116  1.7451
 4654SOL    HW225425   1.202   3.123   5.823 -0.6483  0.4019  0.8068
 4655SOL     OW25426   1.877   1.008   0.284  0.2860 -0.6073  0.2135
 4655SOL    HW125427   1.860   1.065   0.359  2.0865  1.4296 -0.9104
 4655SOL    HW225428   1.810   0.942   0.297 -0.4938  0.9930  4.1420
 4656SOL     OW25429   3.151   1.335   8.508  0.6130  0.3995  0.0267
 4656SOL    HW125430   3.207   1.344   8.585  0.8479  0.9479 -0.2094
 4656SOL    HW225431   3.064   1.335   8.546  0.4468  0.2295 -0.3537
 4657SOL     OW25432   3.248   0.820  12.997  0.0540 -0.1702  0.1088
 4657SOL    HW125433   3.187   0.754  12.965  0.5640 -1.4101  1.6365
 4657SOL    HW225434   3.232   0.882  12.926 -0.9094 -1.2642 -0.6127
 4658SOL     OW25435   3.785   3.487   4.553  0.4851  0.4010  0.0665
 4658SOL    HW125436   3.710   3.430   4.567 -1.0130  2.3844  0.1107
 4658SOL    HW225437   3.813   3.464   4.465 -0.5516  0.9234 -0.3938
 4659SOL     OW25438   3.535   4.468   6.697 -0.0602  0.9819  0.0469
 4659SOL    HW125439   3.598   4.401   6.724 -0.8645  0.6651  1.0968
 4659SOL    HW225440   3.486   4.484   6.777  1.2842  0.3271  1.0042
 4660SOL     OW25441   0.337   3.110   4.602 -0.0187 -0.3764  0.2272
 4660SOL    HW125442   0.330   3.039   4.666 -0.4226 -0.7348 -0.2047
 4660SOL    HW225443   0.357   3.061   4.522 -1.3189 -0.4933 -0.0300
 4661SOL     OW25444   4.255   3.165  12.200  0.2681  0.3128 -0.0333
 4661SOL    HW125445   4.182   3.116  12.239  1.2153 -1.9881 -1.1582
 4661SOL    HW225446   4.318   3.128  12.262 -0.3833 -0.3397  0.2534
 4662SOL     OW25447   1.991   2.823   1.132 -0.3073 -0.4433  0.5803
 4662SOL    HW125448   2.024   2.807   1.044  0.6534  4.0398  0.1368
 4662SOL    HW225449   1.936   2.746   1.147 -2.1447  0.9945  1.2516
 4663SOL     OW25450   0.280   4.666   9.354 -0.5083  0.4015  0.3922
 4663SOL    HW125451   0.368   4.651   9.320 -0.7809 -0.0849 -0.1159
 4663SOL    HW225452   0.254   4.582   9.393  0.3100 -0.9674 -2.0183
 4664SOL     OW25453   0.750   3.155   7.571 -0.5958 -0.4999  0.5877
 4664SOL    HW125454   0.674   3.190   7.617 -1.8421 -1.4409 -0.7608
 4664SOL    HW225455   0.775   3.090   7.637  0.1362 -0.1743  0.6275
 4665SOL     OW25456   4.295   2.608  14.234 -0.5002  0.0094 -0.0176
 4665SOL    HW125457   4.319   2.640  14.321 -1.9608  2.0753 -0.3616
 4665SOL    HW225458   4.295   2.696  14.195 -0.6891  0.0236  0.0127
 4666SOL     OW25459   4.563   2.716   1.778  0.0902  0.2330 -0.0099
 4666SOL    HW125460   4.475   2.683   1.760  0.2699  0.4033 -1.1999
 4666SOL    HW225461   4.561   2.784   1.711  1.3170  1.1449  0.9024
 4667SOL     OW25462   2.069   0.578   1.060  0.4888 -0.4640 -0.0604
 4667SOL    HW125463   2.038   0.669   1.061 -0.2450 -0.7168  0.5169
 4667SOL    HW225464   2.047   0.554   1.150  2.3798  0.3781  0.6270
 4668SOL     OW25465   3.738   2.322   8.811 -0.1681  0.0810  0.9228
 4668SOL    HW125466   3.724   2.344   8.903  2.8511  1.5714  0.9986
 4668SOL    HW225467   3.660   2.269   8.793 -0.0473  0.7866 -1.5901
 4669SOL     OW25468   1.045   4.572   3.626 -0.0655  1.0134  0.3771
 4669SOL    HW125469   1.127   4.618   3.610  0.0773  0.3286 -0.8879
 4669SOL    HW225470   1.007   4.631   3.691 -2.1044  0.5435 -0.3838
 4670SOL     OW25471   1.027   1.549   0.664 -0.1306  0.2586  0.0898
 4670SOL    HW125472   0.965   1.622   0.670 -0.2192  0.3192 -1.5324
 4670SOL    HW225473   1.072   1.570   0.582 -2.8339  2.2980 -0.8589
 4671SOL     OW25474   2.035   3.585   6.660  0.5128 -0.0225 -0.2657
 4671SOL    HW125475   2.026   3.601   6.566  2.8433  0.0857 -0.4767
 4671SOL    HW225476   2.057   3.676   6.679 -0.2093  0.2671 -0.8371
 4672SOL     OW25477   4.638   0.038  10.990  0.2534  0.1201  0.0412
 4672SOL    HW125478   0.008   0.057  10.990 -0.0777  1.7908 -0.7148
 4672SOL    HW225479   4.600   0.104  10.932 -1.2210  1.5227  2.5833
 4673SOL     OW25480   0.904   0.403   0.859 -0.2564 -0.1729 -0.1839
 4673SOL    HW125481   0.833   0.344   0.884 -0.9814  0.7954  0.0307
 4673SOL    HW225482   0.899   0.416   0.764 -0.1895 -0.9929 -0.3024
 4674SOL     OW25483   3.315   0.472  10.999  0.1872 -0.3663  0.2280
 4674SOL    HW125484   3.383   0.408  10.980 -0.2768 -0.1418 -2.1190
 4674SOL    HW225485   3.358   0.557  10.999 -0.2132 -0.1631 -0.7306
 4675SOL     OW25486   1.431   1.984  13.773 -0.6134 -0.5459 -0.1795
 4675SOL    HW125487   1.519   1.967  13.807 -0.8921 -1.4086  0.1072
 4675SOL    HW225488   1.452   1.998  13.680  1.7331 -3.0211 -0.0181
 4676SOL     OW25489   3.128   3.695   5.275  0.0840 -0.0926 -0.4794
 4676SOL    HW125490   3.172   3.616   5.246 -1.0573  0.4659 -3.8022
 4676SOL    HW225491   3.135   3.760   5.204 -0.3681  0.3856 -0.0874
 4677SOL     OW25492   3.514   2.004   0.701 -0.1840  0.3296  0.5318
 4677SOL    HW125493   3.427   2.023   0.734 -0.7803 -2.3232  0.4852
 4677SOL    HW225494   3.534   2.071   0.636 -1.8008 -1.4746 -1.8013
 4678SOL     OW25495   1.349   0.818   6.851 -0.2022 -0.0455 -0.5702
 4678SOL    HW125496   1.295   0.789   6.924 -0.6226  3.1464  0.3761
 4678SOL    HW225497   1.414   0.876   6.891  1.5209 -1.3981 -1.4052
 4679SOL     OW25498   2.578   2.209   6.248 -0.3307 -0.0520 -0.3673
 4679SOL    HW125499   2.505   2.254   6.205 -0.7781 -0.4944 -0.0688
 4679SOL    HW225500   2.604   2.277   6.310 -1.9401  1.0287 -0.8816
 4680SOL     OW25501   4.205   4.354   6.835 -0.3772  0.0999 -0.2193
 4680SOL    HW125502   4.218   4.353   6.930 -3.2570 -1.2067  0.1752
 4680SOL    HW225503   4.282   4.305   6.804 -0.4980 -0.9583  1.1045
 4681SOL     OW25504   3.956   4.663   6.711  0.1509  0.5446 -0.2259
 4681SOL    HW125505   3.878   4.705   6.749  0.2548  2.1368 -1.7939
 4681SOL    HW225506   4.016   0.013   6.716  0.6878  0.1020 -0.1192
 4682SOL     OW25507   1.976   3.354   6.406 -0.0821  0.4352 -0.6623
 4682SOL    HW125508   2.051   3.299   6.383  0.8780  1.2861  0.4995
 4682SOL    HW225509   2.005   3.443   6.388 -0.5782  1.0004  1.3843
 4683SOL     OW25510   2.821   0.254   5.724  0.3660 -0.3347  0.1985
 4683SOL    HW125511   2.750   0.201   5.687  1.0291 -1.1074  0.0411
 4683SOL    HW225512   2.889   0.246   5.658  0.2505 -2.0899  0.2976
 4684SOL     OW25513   2.677   2.376   0.663 -0.4471 -0.9227 -0.4779
 4684SOL    HW125514   2.652   2.371   0.755 -2.5480  0.3311 -0.9750
 4684SOL    HW225515   2.688   2.283   0.640  1.5978 -0.3806 -1.6940
 4685SOL     OW25516   2.657   2.120   9.511  0.6453  0.6193  0.1319
 4685SOL    HW125517   2.653   2.134   9.605  2.0865 -0.6776  0.3903
 4685SOL    HW225518   2.606   2.198   9.490 -0.3455 -0.2492 -0.6568
 4686SOL     OW25519   0.451   1.536  15.625  0.4859  0.0832 -0.2948
 4686SOL    HW125520   0.376   1.593  15.611 -0.1341 -0.5267  0.5810
 4686SOL    HW225521   0.520   1.576  15.572  0.4904  1.0801  0.4742
 4687SOL     OW25522   1.352   0.313   7.769 -0.2552  0.2380 -0.2392
 4687SOL    HW125523   1.404   0.387   7.802  2.1045 -1.2903 -0.5691
 4687SOL    HW225524   1.264   0.349   7.779  0.5485  2.5081 -1.3624
 4688SOL     OW25525   4.596   0.275   4.677  0.0809 -0.2085  0.5026
 4688SOL    HW125526   4.542   0.215   4.728  1.2732  1.5032  3.7370
 4688SOL    HW225527   4.534   0.348   4.679  0.2936  0.0891 -2.7174
 4689SOL     OW25528   0.319   1.617   2.173 -0.7099 -0.2723 -0.0935
 4689SOL    HW125529   0.292   1.649   2.259 -1.1266 -2.3795  0.5611
 4689SOL    HW225530   0.350   1.697   2.131 -0.0893 -0.3095  0.3037
 4690SOL     OW25531   1.514   4.225   5.031 -0.8281  0.8535 -0.1165
 4690SOL    HW125532   1.505   4.130   5.043  0.4541  0.9180  1.3362
 4690SOL    HW225533   1.484   4.238   4.941  0.3200  0.9590 -0.4854
 4691SOL     OW25534   2.849   3.806   0.330 -0.2223  0.1589 -0.1552
 4691SOL    HW125535   2.854   3.788   0.424  1.2468 -1.7971 -0.6126
 4691SOL    HW225536   2.938   3.797   0.297 -0.7257 -0.2360 -1.4021
 4692SOL     OW25537   0.407   1.078   8.656  0.3330  0.4353 -0.6387
 4692SOL    HW125538   0.419   1.005   8.717  1.8620  1.1121 -0.1281
 4692SOL    HW225539   0.315   1.063   8.636  0.0789  2.6363 -1.0303
 4693SOL     OW25540   2.733   2.602   9.586 -0.8209  0.2689 -0.0757
 4693SOL    HW125541   2.647   2.572   9.617 -1.2710 -0.0617 -1.6307
 4693SOL    HW225542   2.721   2.696   9.574  2.5013  0.4400 -1.9339
 4694SOL     OW25543   3.997   1.769   5.671  0.1613  0.2100  0.4786
 4694SOL    HW125544   3.975   1.851   5.714 -2.8000 -0.8088  0.8781
 4694SOL    HW225545   4.008   1.707   5.743  1.6723 -0.3301 -0.1961
 4695SOL     OW25546   3.365   3.645   6.051  0.1075 -0.1691 -0.1477
 4695SOL    HW125547   3.458   3.625   6.063  0.5403  1.3573 -0.9687
 4695SOL    HW225548   3.378   3.690   5.967  3.4328  1.1333  1.0846
 4696SOL     OW25549   3.302   3.237  13.453  0.0078 -0.1991  0.5897
 4696SOL    HW125550   3.385   3.238  13.406  0.0178 -1.7179  0.6047
 4696SOL    HW225551   3.291   3.333  13.452  3.3365  0.1793  0.5131
 4697SOL     OW25552   3.578   2.836   8.059 -0.4878  0.5985  0.6315
 4697SOL    HW125553   3.565   2.804   7.970  1.0984  1.3313  0.1318
 4697SOL    HW225554   3.662   2.880   8.047  0.1846 -0.9624 -0.3639
 4698SOL     OW25555   3.776   3.958   3.204  0.5309  0.1057  0.4927
 4698SOL    HW125556   3.761   3.995   3.117 -0.5033  0.8121  0.9674
 4698SOL    HW225557   3.685   3.946   3.231  0.4040 -2.7200 -1.1842
 4699SOL     OW25558   1.410   4.366  14.459 -0.1073  0.7856 -0.3798
 4699SOL    HW125559   1.429   4.390  14.550  1.7881  2.1594 -1.1259
 4699SOL    HW225560   1.496   4.328  14.440 -0.5558 -0.7964  0.7023
 4700SOL     OW25561   3.971   3.605  16.825 -0.1030 -0.6773 -0.1946
 4700SOL    HW125562   4.031   3.537  16.856  0.4490  0.6015  1.4929
 4700SOL    HW225563   3.932   3.558  16.751  1.2528 -3.2296  0.7089
 4701SOL     OW25564   1.973   0.714   0.689 -0.2568 -0.3079 -0.2239
 4701SOL    HW125565   1.931   0.662   0.620 -0.1312  0.4017 -0.8381
 4701SOL    HW225566   1.916   0.791   0.689 -1.0757 -0.9059 -1.5610
 4702SOL     OW25567   3.193   3.710   6.576  0.5574  0.4232  0.1181
 4702SOL    HW125568   3.279   3.679   6.606 -0.0173 -0.5223  0.7894
 4702SOL    HW225569   3.208   3.710   6.482 -0.3722 -0.2748 -0.0187
 4703SOL     OW25570   1.477   2.352  11.313 -0.5487  0.3561  0.3442
 4703SOL    HW125571   1.468   2.257  11.316 -1.5101  0.4535  0.4873
 4703SOL    HW225572   1.569   2.376  11.328  0.0062 -1.4540 -0.2433
 4704SOL     OW25573   0.472   0.460   8.018 -0.0515  0.6379 -0.0111
 4704SOL    HW125574   0.497   0.409   8.095  1.4460  2.0309  0.4180
 4704SOL    HW225575   0.381   0.480   8.035 -0.4286 -3.2404  2.5962
 4705SOL     OW25576   1.508   0.803  13.162  0.3455 -0.2479 -0.0176
 4705SOL    HW125577   1.462   0.884  13.184  0.2355 -0.6033  1.0217
 4705SOL    HW225578   1.582   0.795  13.222  1.1642  1.2555 -0.8089
 4706SOL     OW25579   1.635   2.148   2.236 -0.1178 -0.0193 -0.5192
 4706SOL    HW125580   1.647   2.216   2.303  0.3589 -0.8421  0.2187
 4706SOL    HW225581   1.552   2.109   2.262  1.3673 -2.3248  0.7519
 4707SOL     OW25582   3.709   1.392   6.598  0.7462  0.1045 -0.4481
 4707SOL    HW125583   3.696   1.300   6.576 -0.6141  0.5470 -1.5126
 4707SOL    HW225584   3.744   1.428   6.516  0.2994  0.0575 -0.6604
 4708SOL     OW25585   3.580   4.450   2.908 -0.0942 -0.3090  0.1242
 4708SOL    HW125586   3.647   4.495   2.960  1.1313 -2.2442  0.2586
 4708SOL    HW225587   3.648   4.406   2.856  0.4844  2.3786 -1.3991
 4709SOL     OW25588   1.055   0.910   5.431  0.7577 -0.1731  0.5374
 4709SOL    HW125589   0.980   0.852   5.446  0.5064 -0.2894 -1.1587
 4709SOL    HW225590   1.067   0.898   5.336  2.0149  0.3521  0.6331
 4710SOL     OW25591   4.550   3.028   1.925 -0.3605  0.6107 -0.2529
 4710SOL    HW125592   4.619   3.094   1.931 -0.6240  0.9241 -0.6897
 4710SOL    HW225593   4.543   3.010   2.019  0.3981 -1.0592 -0.5198
 4711SOL     OW25594   3.137   2.439  16.992  0.1799 -0.2975  0.0309
 4711SOL    HW125595   3.148   2.353  16.952 -1.0649 -0.4372 -0.0282
 4711SOL    HW225596   3.206   2.451  17.057  0.8251 -0.3369 -0.6418
 4712SOL     OW25597   0.999   4.493   3.959 -0.3803 -0.0634 -0.2209
 4712SOL    HW125598   1.088   4.467   3.981 -0.1345  0.7999 -0.2117
 4712SOL    HW225599   0.958   4.407   3.953  0.4810 -0.2092 -3.7926
 4713SOL     OW25600   0.831   2.117   8.532  0.2267  0.2896 -0.7076
 4713SOL    HW125601   0.906   2.138   8.589 -1.0723  1.6848  0.4968
 4713SOL    HW225602   0.807   2.204   8.502 -1.1319  0.3436  0.5123
 4714SOL     OW25603   3.588   3.703  10.949 -1.0752  0.2976 -0.2225
 4714SOL    HW125604   3.517   3.765  10.969 -0.2726  1.2099 -0.2396
 4714SOL    HW225605   3.594   3.713  10.854  1.1461 -0.1757 -0.1116
 4715SOL     OW25606   0.231   1.099   7.272  0.2160 -0.2994 -0.0659
 4715SOL    HW125607   0.214   1.007   7.296  0.9187 -0.7500 -1.3212
 4715SOL    HW225608   0.324   1.097   7.250  0.2383  0.7530 -0.0378
 4716SOL     OW25609   0.278   2.945   6.137 -0.1862  0.2234 -0.5277
 4716SOL    HW125610   0.205   2.927   6.196  0.9824 -3.8908 -0.2842
 4716SOL    HW225611   0.354   2.923   6.191 -2.6371 -0.5125  2.5901
 4717SOL     OW25612   4.099   2.851   6.505  0.3738 -0.0172  0.1037
 4717SOL    HW125613   4.059   2.783   6.560 -1.5279 -0.4767 -1.8578
 4717SOL    HW225614   4.032   2.884   6.445  0.9824 -0.3307 -0.7400
 4718SOL     OW25615   3.080   1.753   8.053  0.3747  0.2180  0.0797
 4718SOL    HW125616   3.036   1.833   8.026  1.3654  0.5212 -0.6393
 4718SOL    HW225617   3.032   1.717   8.127  0.0154  0.4649 -0.0369
 4719SOL     OW25618   1.097   3.153   0.607 -0.4314  0.2922 -0.7502
 4719SOL    HW125619   1.043   3.083   0.643  1.0813 -0.6316 -0.2512
 4719SOL    HW225620   1.136   3.174   0.692 -1.1834  3.1205 -1.1225
 4720SOL     OW25621   1.082   0.353  16.352  0.5549 -0.0076  0.1052
 4720SOL    HW125622   1.055   0.277  16.301 -1.0559 -0.1707  1.2110
 4720SOL    HW225623   1.035   0.427  16.312 -0.7165  0.4414  2.3817
 4721SOL     OW25624   4.358   3.351   8.626 -0.3175  0.3588  0.2338
 4721SOL    HW125625   4.335   3.373   8.535 -1.0584 -0.4847  0.2096
 4721SOL    HW225626   4.389   3.261   8.612  1.8888  0.9364  1.5097
 4722SOL     OW25627   1.272   1.779   7.832  0.3509 -0.1702 -0.5557
 4722SOL    HW125628   1.303   1.820   7.913 -2.8279 -0.0527  0.6255
 4722SOL    HW225629   1.192   1.830   7.819 -0.6323 -1.4476  0.5896
 4723SOL     OW25630   4.237   0.440   3.226 -0.1184 -0.2043  0.0555
 4723SOL    HW125631   4.312   0.473   3.176 -1.8847  1.9244 -1.1999
 4723SOL    HW225632   4.261   0.353   3.258  4.0366  0.3361 -1.5521
 4724SOL     OW25633   1.690   4.011   7.932 -0.0925  0.4164  0.1424
 4724SOL    HW125634   1.748   4.024   8.007 -2.8147  0.8129  2.1806
 4724SOL    HW225635   1.615   3.981   7.983  1.3299  0.5422  2.3096
 4725SOL     OW25636   4.559   3.489   8.362 -0.0895  0.0630  0.2048
 4725SOL    HW125637   4.554   3.572   8.315 -1.6623 -0.5915 -0.7781
 4725SOL    HW225638   4.465   3.470   8.356  0.1620 -0.1226 -3.0360
 4726SOL     OW25639   2.138   2.092   9.330 -0.1994  0.6603  0.0006
 4726SOL    HW125640   2.078   2.024   9.297  1.2812 -0.9142  0.5665
 4726SOL    HW225641   2.165   2.047   9.410 -0.4385 -0.5171 -0.5860
 4727SOL     OW25642   2.826   3.671   5.155 -0.1881 -0.4244  0.0853
 4727SOL    HW125643   2.890   3.611   5.193 -0.2399 -0.0356  0.7827
 4727SOL    HW225644   2.840   3.663   5.061  0.2178 -0.8120  0.1805
 4728SOL     OW25645   1.297   4.349   5.747 -0.2415 -0.5705 -0.2212
 4728SOL    HW125646   1.259   4.377   5.830 -0.2994  1.2542 -0.8498
 4728SOL    HW225647   1.370   4.290   5.770  0.2026  0.7207  1.7280
 4729SOL     OW25648   4.496   4.328   8.832  0.0152  0.7288  0.2485
 4729SOL    HW125649   4.559   4.266   8.869 -1.4415 -0.7522  0.2453
 4729SOL    HW225650   4.413   4.280   8.836  1.1480 -1.2997 -0.3261
 4730SOL     OW25651   1.408   0.943   0.956 -0.3635 -0.0645  0.2882
 4730SOL    HW125652   1.398   0.916   1.048 -0.7489 -1.5473 -0.1793
 4730SOL    HW225653   1.472   1.014   0.960 -1.3970  0.9371 -1.4453
 4731SOL     OW25654   2.311   3.417   8.597 -0.1876 -0.0569 -0.1719
 4731SOL    HW125655   2.401   3.388   8.586 -0.2981  0.1167 -1.5592
 4731SOL    HW225656   2.268   3.332   8.601 -2.1183  1.0954  3.2659
 4732SOL     OW25657   2.721   2.116   6.042  0.6142  0.2649 -0.0456
 4732SOL    HW125658   2.739   2.022   6.048  0.1359  0.1430 -0.4701
 4732SOL    HW225659   2.676   2.137   6.124  0.0986 -1.4057  0.0988
 4733SOL     OW25660   2.702   0.954   0.544 -0.3446  0.0673 -0.2026
 4733SOL    HW125661   2.630   0.952   0.607  0.3710  1.1873  0.6465
 4733SOL    HW225662   2.770   1.015   0.572  0.9129 -0.4023 -2.1739
 4734SOL     OW25663   1.483   3.030   7.917  0.2395  0.6065 -0.1167
 4734SOL    HW125664   1.570   3.030   7.876  0.0541 -1.0120 -0.5296
 4734SOL    HW225665   1.491   2.965   7.987 -0.1911  1.0323  0.3287
 4735SOL     OW25666   4.516   0.794  13.741  0.2595  0.4452 -0.2612
 4735SOL    HW125667   4.444   0.732  13.750  0.4256  0.2636 -0.1714
 4735SOL    HW225668   4.583   0.760  13.801 -0.7319 -0.1775  0.4910
 4736SOL     OW25669   3.588   3.521   2.291 -0.1996  0.2760  0.2472
 4736SOL    HW125670   3.515   3.553   2.238  1.7549  0.1725 -2.5264
 4736SOL    HW225671   3.554   3.438   2.325 -2.6060  0.8416 -0.7710
 4737SOL     OW25672   1.509   3.492   4.890 -0.1538 -0.1550  0.1496
 4737SOL    HW125673   1.602   3.496   4.915  0.3138 -0.3933 -1.5284
 4737SOL    HW225674   1.469   3.530   4.967  0.9567 -0.4507  0.8761
 4738SOL     OW25675   1.552   4.624  13.430 -0.3193  0.0472  0.8906
 4738SOL    HW125676   1.624   4.603  13.371 -0.6683  0.5166  0.2975
 4738SOL    HW225677   1.598   4.679  13.494  2.2200 -1.5756  0.4431
 4739SOL     OW25678   4.669   2.563   9.299 -0.0347  0.2645 -0.2061
 4739SOL    HW125679   4.688   2.571   9.392  0.6135 -0.7115 -0.2525
 4739SOL    HW225680   4.671   2.469   9.281 -2.2573  0.4476 -1.3237
 4740SOL     OW25681   2.263   3.308   3.803  0.1820  0.3074 -0.3845
 4740SOL    HW125682   2.187   3.347   3.759  0.3266  1.0614  0.0331
 4740SOL    HW225683   2.279   3.242   3.736  0.7695 -0.7227  0.7741
 4741SOL     OW25684   4.039   2.268  13.799  0.4691 -0.0320 -0.1311
 4741SOL    HW125685   3.987   2.344  13.822 -3.4153 -2.3952 -1.1598
 4741SOL    HW225686   4.071   2.240  13.885  1.9856  0.9095 -0.3742
 4742SOL     OW25687   0.544   2.226   2.979  0.2943  0.3916 -1.0130
 4742SOL    HW125688   0.486   2.242   2.905 -0.5453 -1.1322 -0.6982
 4742SOL    HW225689   0.629   2.222   2.934 -0.3336  0.6009 -2.2230
 4743SOL     OW25690   1.259   0.881   3.984 -0.3109 -0.4483  0.5173
 4743SOL    HW125691   1.354   0.886   3.968 -0.3265 -1.4249  0.0950
 4743SOL    HW225692   1.226   0.951   3.929  1.7201  2.0595  2.4934
 4744SOL     OW25693   1.999   2.537   5.714  0.3526 -0.0182  0.5533
 4744SOL    HW125694   1.955   2.525   5.629  0.5987  0.1173  0.4061
 4744SOL    HW225695   2.060   2.464   5.705  2.3428  1.7977 -0.6583
 4745SOL     OW25696   2.892   1.701   4.570  0.3134 -0.4741 -0.0233
 4745SOL    HW125697   2.881   1.617   4.615  0.0010 -0.1950  0.4161
 4745SOL    HW225698   2.973   1.729   4.611  0.6210 -2.0275  0.4213
 4746SOL     OW25699   0.171   1.669  17.346  0.2482 -0.4917  0.2212
 4746SOL    HW125700   0.203   1.592  17.298 -0.6285 -0.0410 -1.0752
 4746SOL    HW225701   0.226   1.675  17.424  0.2734  0.4266  0.1296
 4747SOL     OW25702   0.697   2.549   6.772 -0.3187  0.0705  0.5092
 4747SOL    HW125703   0.715   2.637   6.737 -0.0795 -0.5500 -0.9537
 4747SOL    HW225704   0.697   2.493   6.694  1.2930 -1.0345  1.3006
 4748SOL     OW25705   4.190   1.288   4.569  0.3158  0.3363  0.9753
 4748SOL    HW125706   4.169   1.330   4.652 -1.8932  1.0764  0.0617
 4748SOL    HW225707   4.134   1.211   4.567 -0.0473  0.5938  1.2809
 4749SOL     OW25708   3.583   0.626   9.442  0.0421  0.0324  0.0874
 4749SOL    HW125709   3.639   0.630   9.365  1.2001 -1.1120  0.8800
 4749SOL    HW225710   3.633   0.651   9.520  1.0461  1.4007 -0.9935
 4750SOL     OW25711   2.274   1.247   7.998  0.3563 -0.2574 -0.3810
 4750SOL    HW125712   2.286   1.315   7.932 -0.6204  0.3110  0.0220
 4750SOL    HW225713   2.246   1.173   7.943 -1.3760  1.4319 -1.7622
 4751SOL     OW25714   0.094   2.165  13.868 -0.6268 -0.2551 -0.4315
 4751SOL    HW125715   0.158   2.214  13.817 -2.1284  0.2925 -1.7929
 4751SOL    HW225716   0.046   2.228  13.921  1.1886  1.4885 -0.8593
 4752SOL     OW25717   3.314   1.970   8.510 -0.0609 -0.0075  0.0626
 4752SOL    HW125718   3.295   1.969   8.417  0.3698 -1.2339 -0.0070
 4752SOL    HW225719   3.303   1.876   8.524  0.2265  0.1138  1.1070
 4753SOL     OW25720   2.750   0.723   3.928  0.0127 -0.5885 -0.2908
 4753SOL    HW125721   2.826   0.692   3.977 -0.6139  2.3954  2.5715
 4753SOL    HW225722   2.700   0.774   3.992 -2.2014 -1.6204 -1.1893
 4754SOL     OW25723   2.300   0.501   8.898 -0.6050 -0.1290  0.4246
 4754SOL    HW125724   2.315   0.415   8.858  1.4472  1.5582 -2.4777
 4754SOL    HW225725   2.382   0.546   8.879 -0.4093  0.0417  1.6939
 4755SOL     OW25726   4.529   4.495   4.720 -0.4097 -0.0384  0.0847
 4755SOL    HW125727   4.487   4.513   4.636  1.4054  1.2591 -0.5299
 4755SOL    HW225728   4.608   4.548   4.720 -0.4531  0.0181 -0.5138
 4756SOL     OW25729   2.427   0.507  11.232 -0.2882 -0.0222 -0.0699
 4756SOL    HW125730   2.452   0.546  11.148  0.0116  0.6151  0.3261
 4756SOL    HW225731   2.381   0.424  11.215  2.1012 -1.1780 -0.8755
 4757SOL     OW25732   3.240   2.305   6.913  0.1989  0.1079 -0.3141
 4757SOL    HW125733   3.309   2.243   6.887  0.3631 -0.1542  0.7646
 4757SOL    HW225734   3.169   2.251   6.947  1.2327 -1.1455 -0.1231
 4758SOL     OW25735   0.123   0.840   7.741  0.4164  0.1109  0.3310
 4758SOL    HW125736   0.069   0.907   7.782 -0.5061 -1.1939  1.2298
 4758SOL    HW225737   0.132   0.773   7.808 -3.0509 -2.8042 -2.1862
 4759SOL     OW25738   3.886   3.001   9.939 -0.3550  0.3258 -0.2872
 4759SOL    HW125739   3.870   2.989   9.845 -0.5053  0.6460 -0.3035
 4759SOL    HW225740   3.928   3.087   9.949  2.2477 -1.0874  1.0739
 4760SOL     OW25741   0.517   1.104   5.827 -0.0385  0.2247 -0.4416
 4760SOL    HW125742   0.590   1.160   5.801 -2.1821  3.4820  0.4945
 4760SOL    HW225743   0.566   1.032   5.866 -0.7042 -0.9555 -1.7914
 4761SOL     OW25744   4.486   4.471  16.978  0.6298  1.0707  0.2123
 4761SOL    HW125745   4.468   4.394  16.923  1.1235  0.6318  0.6658
 4761SOL    HW225746   4.405   4.519  16.959 -0.7665 -1.6910 -0.9014
 4762SOL     OW25747   2.287   2.193   7.405  0.0031 -0.0585 -0.2487
 4762SOL    HW125748   2.372   2.195   7.363 -0.0592  1.5941 -0.2932
 4762SOL    HW225749   2.296   2.281   7.442  3.1231  0.6810 -2.7705
 4763SOL     OW25750   3.785   4.276   2.784 -0.1659  0.3491 -0.1504
 4763SOL    HW125751   3.861   4.335   2.792 -1.3981  1.8694  0.4032
 4763SOL    HW225752   3.760   4.280   2.692  1.1710  0.7807 -0.4981
 4764SOL     OW25753   1.271   0.872   5.828 -0.3001 -0.3046  0.9179
 4764SOL    HW125754   1.273   0.787   5.783  0.4083  0.7083 -0.9461
 4764SOL    HW225755   1.363   0.861   5.850 -0.0456 -0.5922 -0.2695
 4765SOL     OW25756   3.245   2.188  17.490  0.5511 -0.0708  0.8122
 4765SOL    HW125757   3.202   2.271  17.470  1.4829  0.2883  0.3303
 4765SOL    HW225758   3.228   2.139  17.410 -0.7343  2.2077 -0.3229
 4766SOL     OW25759   0.031   4.602  14.292 -0.2312  0.1399 -0.3253
 4766SOL    HW125760   0.062   4.692  14.297  2.1439 -0.6372 -1.0059
 4766SOL    HW225761   0.065   4.561  14.371 -0.4208 -1.8318 -1.2602
 4767SOL     OW25762   4.287   4.304   6.452  0.8262  0.2053  0.1722
 4767SOL    HW125763   4.279   4.347   6.366  0.5276  0.2450  0.2179
 4767SOL    HW225764   4.196   4.320   6.477 -0.4250 -1.4827 -3.1804
 4768SOL     OW25765   0.652   4.418   4.146 -0.2420  0.2480  0.5328
 4768SOL    HW125766   0.738   4.381   4.165  0.1509 -0.2894 -2.2657
 4768SOL    HW225767   0.601   4.342   4.171 -0.3266  1.3116  3.5135
 4769SOL     OW25768   0.032   1.217   7.459 -0.2344 -0.3300 -0.4578
 4769SOL    HW125769   0.110   1.197   7.511  0.3645 -0.0741 -1.2460
 4769SOL    HW225770   0.066   1.248   7.375 -0.1461 -0.6973 -0.5590
 4770SOL     OW25771   0.187   1.292  15.825  0.1044 -0.3552  0.0580
 4770SOL    HW125772   0.142   1.371  15.795  0.3042  0.2297  1.3362
 4770SOL    HW225773   0.267   1.306  15.773  0.0710  0.2903  0.1840
 4771SOL     OW25774   2.008   4.173   5.449  0.3492  0.5156 -0.0591
 4771SOL    HW125775   1.973   4.103   5.504  2.1034  0.1569  0.5880
 4771SOL    HW225776   2.069   4.122   5.396 -2.2640  0.2130 -2.7502
 4772SOL     OW25777   1.939   0.953   6.320 -0.0350 -0.1871 -0.2197
 4772SOL    HW125778   1.849   0.957   6.353 -0.0801 -1.1784 -0.2330
 4772SOL    HW225779   1.950   1.034   6.269  1.5706 -0.4651 -0.3050
 4773SOL     OW25780   1.533   1.978   8.190  0.2113 -0.3075 -0.1481
 4773SOL    HW125781   1.471   1.938   8.130 -1.0858 -0.1659  1.1014
 4773SOL    HW225782   1.492   2.063   8.206  1.8946  0.2649  1.2176
 4774SOL     OW25783   0.181   0.285   2.495  0.0169 -0.0311  0.8233
 4774SOL    HW125784   0.243   0.345   2.537 -0.1223  0.0769  0.8758
 4774SOL    HW225785   0.116   0.344   2.456 -1.2438 -2.2659 -0.4612
 4775SOL     OW25786   2.689   0.194   6.086  0.1405 -0.2999 -0.2096
 4775SOL    HW125787   2.608   0.174   6.040 -0.0300  1.6676 -0.8000
 4775SOL    HW225788   2.657   0.182   6.175 -2.6985 -1.1181 -1.3520
 4776SOL     OW25789   1.108   3.525   7.593 -0.3006 -0.7985 -0.1415
 4776SOL    HW125790   1.155   3.485   7.520  1.1332 -2.4151  1.6807
 4776SOL    HW225791   1.128   3.462   7.662  2.0103 -0.4612 -0.5066
 4777SOL     OW25792   0.510   1.048   4.854  1.0272  0.2296 -0.3340
 4777SOL    HW125793   0.563   1.128   4.862 -3.4007  3.2281 -0.8455
 4777SOL    HW225794   0.542   0.997   4.929  1.4023  1.9593  0.6941
 4778SOL     OW25795   3.831   1.666   7.362 -0.1923  0.2811  0.6146
 4778SOL    HW125796   3.793   1.720   7.432 -1.5614  1.7296 -1.2223
 4778SOL    HW225797   3.908   1.631   7.405 -0.0921 -0.3561 -0.0827
 4779SOL     OW25798   0.936   1.145   8.570  0.0798 -0.3508 -0.0484
 4779SOL    HW125799   0.843   1.123   8.573  0.1371 -0.8582 -1.6042
 4779SOL    HW225800   0.973   1.079   8.628  1.4564  0.1266 -0.3815
 4780SOL     OW25801   3.057   1.413   3.205 -0.0306  0.1735 -0.1612
 4780SOL    HW125802   3.074   1.319   3.213 -0.6054  0.1811  1.0692
 4780SOL    HW225803   3.108   1.438   3.128 -1.6031  0.2487 -1.1768
 4781SOL     OW25804   3.275   2.715   9.178 -0.5808  0.4515  0.1431
 4781SOL    HW125805   3.332   2.791   9.165  1.5995 -1.2117  0.1158
 4781SOL    HW225806   3.329   2.638   9.162 -0.2135  0.2811  2.2908
 4782SOL     OW25807   2.155   1.026  11.156  0.3859  0.0080 -0.0000
 4782SOL    HW125808   2.109   1.104  11.187 -0.5997 -0.0578 -1.3108
 4782SOL    HW225809   2.079   0.975  11.130  0.8091  0.1565 -1.5322
 4783SOL     OW25810   4.399   4.479   2.287 -0.8610  0.4987 -0.5629
 4783SOL    HW125811   4.474   4.537   2.299 -0.1280 -0.6063  0.1546
 4783SOL    HW225812   4.345   4.540   2.237 -0.1778 -0.1973 -2.1777
 4784SOL     OW25813   1.381   3.255   4.786 -0.0291  0.4019 -0.1969
 4784SOL    HW125814   1.412   3.204   4.861 -0.1375  1.3822  0.5071
 4784SOL    HW225815   1.396   3.340   4.827  3.1812 -0.0540 -0.4146
 4785SOL     OW25816   1.540   3.857   4.681  0.0194 -0.5880 -0.1514
 4785SOL    HW125817   1.511   3.769   4.657 -0.5632 -0.9308  1.7947
 4785SOL    HW225818   1.633   3.836   4.690 -0.3386 -1.5955  1.1874
 4786SOL     OW25819   2.050   3.132   5.401  0.0942 -0.3490  0.2944
 4786SOL    HW125820   2.042   3.198   5.332  3.3262  1.0250  1.1776
 4786SOL    HW225821   2.134   3.159   5.440  0.9688 -2.3830 -0.2015
 4787SOL     OW25822   1.520   2.223   6.099 -0.0424  0.5194  0.0498
 4787SOL    HW125823   1.526   2.141   6.049  0.5310  0.4259  0.2753
 4787SOL    HW225824   1.591   2.279   6.067  0.7602 -0.4246  0.1844
 4788SOL     OW25825   2.947   2.526   5.557 -0.1132  0.1699 -0.4681
 4788SOL    HW125826   2.874   2.586   5.547 -0.2821  0.0510  0.0468
 4788SOL    HW225827   3.016   2.567   5.504 -0.4710 -0.4073 -1.3728
 4789SOL     OW25828   4.294   0.289  13.652 -0.2223  0.3087 -0.0933
 4789SOL    HW125829   4.311   0.322  13.740 -1.7810  1.6568 -0.2976
 4789SOL    HW225830   4.201   0.302  13.636 -0.5802 -0.9561  0.9832
 4790SOL     OW25831   0.698   2.243   0.556  0.2181 -0.5353 -0.5335
 4790SOL    HW125832   0.729   2.164   0.512 -1.6692 -1.1540 -0.7398
 4790SOL    HW225833   0.648   2.296   0.494  0.8199 -1.3796 -1.7350
 4791SOL     OW25834   2.421   2.281   3.419 -0.2909 -0.9540 -0.5659
 4791SOL    HW125835   2.366   2.354   3.389 -0.1680 -0.5688  0.1385
 4791SOL    HW225836   2.511   2.310   3.403  0.2995 -2.7413 -0.4675
 4792SOL     OW25837   1.534   2.699   4.212 -1.2143  0.3146 -0.1256
 4792SOL    HW125838   1.441   2.678   4.216 -1.2715  1.0374  2.4448
 4792SOL    HW225839   1.546   2.725   4.303  0.8974  0.8299 -0.5380
 4793SOL     OW25840   3.531   3.147  16.492  0.0800 -0.3926  0.2971
 4793SOL    HW125841   3.589   3.072  16.505 -1.9789 -2.6878 -3.7809
 4793SOL    HW225842   3.556   3.175  16.404 -0.0419 -0.6317  0.1863
 4794SOL     OW25843   2.607   1.683   5.336  0.1687  0.2294 -0.1164
 4794SOL    HW125844   2.547   1.738   5.286 -0.5112 -0.3216  0.0877
 4794SOL    HW225845   2.545   1.628   5.384  1.5294  0.4108  1.8191
 4795SOL     OW25846   1.487   4.564   2.346 -0.7171  0.5362 -0.0309
 4795SOL    HW125847   1.548   4.605   2.284 -1.5590 -1.2043 -2.0279
 4795SOL    HW225848   1.532   4.482   2.369  0.7981  0.5336 -2.9279
 4796SOL     OW25849   1.814   3.193   5.603 -0.3332 -0.0169  0.8680
 4796SOL    HW125850   1.896   3.179   5.650 -0.1658  0.1845  0.6324
 4796SOL    HW225851   1.817   3.116   5.547 -0.5839 -1.4909  2.8604
 4797SOL     OW25852   2.729   3.234   2.908 -0.0336  0.0631  0.6211
 4797SOL    HW125853   2.771   3.246   2.823 -2.9404 -0.0791 -0.8324
 4797SOL    HW225854   2.634   3.245   2.897  0.2054 -0.9495 -2.3781
 4798SOL     OW25855   2.115   1.565   6.154  0.1768 -0.4173 -0.3149
 4798SOL    HW125856   2.112   1.474   6.184  1.3137 -0.1886  0.4803
 4798SOL    HW225857   2.028   1.584   6.120  0.5742  1.5028 -0.2695
 4799SOL     OW25858   3.898   0.129   6.498  0.3220  0.0604  0.3068
 4799SOL    HW125859   3.823   0.076   6.525 -0.2767  0.4424 -0.5904
 4799SOL    HW225860   3.856   0.175   6.425  0.6293  2.6242  1.7616
 4800SOL     OW25861   0.224   0.636   6.046  0.2811  0.4259  0.1275
 4800SOL    HW125862   0.248   0.547   6.019  1.9449  1.1966 -0.9532
 4800SOL    HW225863   0.238   0.633   6.140  1.3913  0.5347 -0.0322
 4801SOL     OW25864   3.003   4.579  14.844 -0.4648  0.0742 -0.1539
 4801SOL    HW125865   3.066   4.508  14.858 -1.8005 -0.9043  0.7683
 4801SOL    HW225866   3.015   4.631  14.923 -0.8276  1.7930 -1.2281
 4802SOL     OW25867   2.666   0.036   2.520  0.0878 -0.3784 -0.1565
 4802SOL    HW125868   2.689   0.063   2.431  1.1800 -2.8573 -0.6162
 4802SOL    HW225869   2.632   4.674   2.495  0.9293 -0.7172 -0.1524
 4803SOL     OW25870   1.160   1.438   5.065  0.3946 -0.3298 -0.9185
 4803SOL    HW125871   1.136   1.347   5.082  0.2829 -0.6053 -2.5123
 4803SOL    HW225872   1.156   1.450   4.970  1.5267 -0.5561 -0.9943
 4804SOL     OW25873   1.050   0.576   3.883  0.3127 -0.4116  0.3785
 4804SOL    HW125874   0.989   0.640   3.847  0.2354  0.8544  2.7926
 4804SOL    HW225875   1.072   0.615   3.967  1.3388 -0.4868  0.1472
 4805SOL     OW25876   1.030   3.133   9.832  0.0261 -0.7595  0.1352
 4805SOL    HW125877   1.026   3.057   9.775  0.4471  0.0423 -0.9688
 4805SOL    HW225878   1.123   3.146   9.850 -0.1113  0.7501 -0.1926
 4806SOL     OW25879   3.423   0.509   5.148 -0.4995 -0.1360  0.0547
 4806SOL    HW125880   3.464   0.471   5.225  1.2288 -1.9736 -1.7758
 4806SOL    HW225881   3.332   0.527   5.170 -0.4798  0.4104 -0.3001
 4807SOL     OW25882   4.550   4.604  17.187 -0.2830 -0.2649 -0.3269
 4807SOL    HW125883   4.544   4.544  17.113 -0.2227 -0.2800 -0.3192
 4807SOL    HW225884   4.508   4.686  17.161 -0.0480 -0.1266 -0.2638
 4808SOL     OW25885   0.374   3.776   5.814  0.1518 -0.3255  0.3395
 4808SOL    HW125886   0.344   3.846   5.757  1.1117 -0.5143 -0.3871
 4808SOL    HW225887   0.414   3.822   5.888  0.1765  0.1226  0.0464
 4809SOL     OW25888   4.279   3.612   7.522  0.0721 -0.1967 -0.5799
 4809SOL    HW125889   4.261   3.705   7.510  1.5673  0.3184  1.2834
 4809SOL    HW225890   4.263   3.583   7.432 -1.3142  0.7489 -0.6308
 4810SOL     OW25891   0.145   0.104  15.579 -0.5180 -0.8340  0.8425
 4810SOL    HW125892   0.117   0.120  15.488  0.1497 -3.2419  0.2190
 4810SOL    HW225893   0.165   0.194  15.607  2.9311 -0.3700 -2.9967
 4811SOL     OW25894   4.463   0.897   7.967  0.0159 -0.2700 -0.0381
 4811SOL    HW125895   4.418   0.900   8.051 -0.3983 -0.7309 -0.2392
 4811SOL    HW225896   4.399   0.929   7.904  1.0189  0.1583 -0.8515
 4812SOL     OW25897   4.683   0.198  14.451 -0.0025  0.5353 -0.4107
 4812SOL    HW125898   4.647   0.286  14.437 -0.8607  0.1064 -0.8949
 4812SOL    HW225899   0.033   0.201  14.390 -0.7772  0.5881 -1.3456
 4813SOL     OW25900   4.125   4.149   4.819 -0.4277  0.1175  0.2048
 4813SOL    HW125901   4.168   4.230   4.793  0.8185 -0.5068  0.3214
 4813SOL    HW225902   4.145   4.137   4.912  1.2758  1.5021  0.0090
 4814SOL     OW25903   1.655   0.750   6.256 -0.5370 -0.3020  0.1427
 4814SOL    HW125904   1.659   0.818   6.189 -1.7068 -2.4030 -2.0406
 4814SOL    HW225905   1.603   0.682   6.215 -0.2687 -0.5467  0.2077
 4815SOL     OW25906   3.177   1.641   4.115 -0.2125  0.1388  0.1677
 4815SOL    HW125907   3.200   1.715   4.172  0.3616  0.0460  0.0584
 4815SOL    HW225908   3.091   1.661   4.078 -0.4477 -0.5014  0.3671
 4816SOL     OW25909   4.719   2.309   6.873  0.2786  0.4894 -0.4800
 4816SOL    HW125910   4.650   2.292   6.938  2.1169 -0.9915  1.0762
 4816SOL    HW225911   4.668   2.375   6.825 -0.0993 -0.7490 -1.7907
 4817SOL     OW25912   1.247   3.565  14.041 -0.8010 -0.1113 -0.8280
 4817SOL    HW125913   1.194   3.502  13.992 -0.1055  0.4140 -2.2700
 4817SOL    HW225914   1.311   3.506  14.081  0.2829  1.0606 -0.8359
 4818SOL     OW25915   0.048   4.616   2.733 -0.0265  0.3711  0.2091
 4818SOL    HW125916   0.118   4.656   2.681 -0.3627 -1.0183 -1.3327
 4818SOL    HW225917   0.045   4.674   2.809 -0.0732 -1.6676  1.7734
 4819SOL     OW25918   3.065   0.560   8.783 -0.0895  0.2595 -0.1876
 4819SOL    HW125919   2.997   0.602   8.731 -0.7849  0.4815  0.8910
 4819SOL    HW225920   3.143   0.605   8.750 -1.0569  1.3735 -0.9441
 4820SOL     OW25921   3.772   2.974   2.538  0.0987 -0.1251  0.4883
 4820SOL    HW125922   3.767   3.069   2.533  0.9053 -0.1429 -0.7650
 4820SOL    HW225923   3.858   2.959   2.498  0.9786 -0.4976  2.5268
 4821SOL     OW25924   3.554   3.240  13.371  0.0256  0.2972 -0.1536
 4821SOL    HW125925   3.593   3.297  13.305  2.5769 -1.8246 -0.4545
 4821SOL    HW225926   3.623   3.174  13.364 -1.1998 -0.7064 -2.8061
 4822SOL     OW25927   1.351   3.188  12.107 -0.3517  0.4480  0.0624
 4822SOL    HW125928   1.436   3.183  12.149 -0.8566 -0.8891  0.8888
 4822SOL    HW225929   1.334   3.280  12.131 -0.8376 -0.0251  1.5206
 4823SOL     OW25930   0.798   1.805   6.905  0.1888 -0.1288 -0.0682
 4823SOL    HW125931   0.743   1.774   6.833 -0.2084 -0.0556  0.2070
 4823SOL    HW225932   0.806   1.723   6.953 -1.4225 -0.1158  0.2183
 4824SOL     OW25933   0.484   2.709   4.163  0.7448  0.3616  0.1837
 4824SOL    HW125934   0.397   2.719   4.123  0.5595 -0.5938  0.3380
 4824SOL    HW225935   0.463   2.698   4.255  1.3446  3.1765  0.6373
 4825SOL     OW25936   2.294   0.837   7.251  0.7105  0.3128 -0.6583
 4825SOL    HW125937   2.314   0.857   7.159 -0.8986 -0.1014 -1.1031
 4825SOL    HW225938   2.374   0.817   7.299 -1.6084 -1.0474  2.6410
 4826SOL     OW25939   2.525   3.945   0.765 -0.8828 -0.2139 -0.3938
 4826SOL    HW125940   2.533   4.041   0.761 -0.1286 -0.2704 -0.3387
 4826SOL    HW225941   2.447   3.929   0.712 -0.4231 -1.5195 -0.6553
 4827SOL     OW25942   3.170   1.914   7.418  0.2394  0.1224 -0.1504
 4827SOL    HW125943   3.165   1.897   7.512  0.8064 -2.2446 -0.5353
 4827SOL    HW225944   3.243   1.861   7.383  0.6308  0.1929  0.5664
 4828SOL     OW25945   1.471   0.242   5.234  0.4602 -0.2011 -0.4357
 4828SOL    HW125946   1.562   0.229   5.206  0.2195 -0.1327 -1.2581
 4828SOL    HW225947   1.451   0.313   5.172 -0.0675  1.5687  1.7726
 4829SOL     OW25948   3.668   3.587   5.300  0.8457 -0.3289  0.2667
 4829SOL    HW125949   3.638   3.661   5.247  2.1252  0.1577  0.2113
 4829SOL    HW225950   3.681   3.632   5.384 -0.6253 -1.4740  1.1013
 4830SOL     OW25951   2.523   3.431   0.195  0.1785 -0.6522  0.4612
 4830SOL    HW125952   2.480   3.516   0.196  0.9642 -0.2703  1.3374
 4830SOL    HW225953   2.507   3.403   0.105  0.7733 -0.2501  0.2259
 4831SOL     OW25954   3.273   1.891   4.975  0.4099 -0.1185  0.2344
 4831SOL    HW125955   3.211   1.867   4.907 -2.1675  0.4835  2.3471
 4831SOL    HW225956   3.219   1.904   5.053 -1.3052  0.3986 -1.0406
 4832SOL     OW25957   3.676   3.782  16.739  0.1841 -0.3284  0.1864
 4832SOL    HW125958   3.593   3.820  16.709  0.8540  1.4074  0.5097
 4832SOL    HW225959   3.666   3.688  16.751  0.2747 -0.4594 -0.7300
 4833SOL     OW25960   2.871   3.172   6.575  0.0924 -0.0657 -0.1867
 4833SOL    HW125961   2.854   3.263   6.597 -0.5399 -0.4870  1.1052
 4833SOL    HW225962   2.808   3.126   6.631  1.6682 -1.9928  0.0316
 4834SOL     OW25963   2.941   0.435  15.997  0.0237  0.0590  0.0754
 4834SOL    HW125964   2.892   0.516  16.014 -0.7709 -0.4945  0.3868
 4834SOL    HW225965   2.992   0.459  15.920 -2.3856  1.5781 -1.0535
 4835SOL     OW25966   1.351   2.050  15.759 -0.2658 -0.8190  0.5521
 4835SOL    HW125967   1.337   1.958  15.783 -0.4224 -1.7418 -3.1322
 4835SOL    HW225968   1.273   2.055  15.705  0.4532 -1.0778 -0.5131
 4836SOL     OW25969   2.445   1.709  13.092  0.2461 -0.2645  0.1830
 4836SOL    HW125970   2.490   1.755  13.163  0.5092 -0.2380 -0.0021
 4836SOL    HW225971   2.357   1.747  13.082  0.9732  0.6419 -2.6623
 4837SOL     OW25972   4.556   2.768   4.263 -0.5723 -0.1664 -0.6849
 4837SOL    HW125973   4.536   2.677   4.285  0.2148 -0.1222  0.2347
 4837SOL    HW225974   4.530   2.804   4.348  0.6135  0.3775 -0.5571
 4838SOL     OW25975   0.530   0.268   8.235  0.2219 -0.4511  0.1788
 4838SOL    HW125976   0.551   0.178   8.211  0.6350 -0.0467 -0.9609
 4838SOL    HW225977   0.440   0.273   8.201 -0.4223 -0.9699  1.8044
 4839SOL     OW25978   2.654   4.103   4.759 -0.0995 -0.1510  0.1230
 4839SOL    HW125979   2.581   4.094   4.698  0.3385  0.8763 -0.5531
 4839SOL    HW225980   2.708   4.161   4.706 -0.1670  1.0762  1.4125
 4840SOL     OW25981   2.151   0.548   6.351  0.4181 -0.5384 -0.1070
 4840SOL    HW125982   2.109   0.462   6.342  0.9935 -0.6731 -1.4516
 4840SOL    HW225983   2.072   0.600   6.366  0.4625 -1.4091  3.3275
 4841SOL     OW25984   1.016   2.647   7.996  0.2657  0.2877  0.7694
 4841SOL    HW125985   0.941   2.692   7.956  1.8284 -0.0052 -2.5043
 4841SOL    HW225986   1.077   2.720   7.999  1.2783 -0.5177 -0.1139
 4842SOL     OW25987   0.963   3.399  17.395 -0.6446 -0.0715 -0.3428
 4842SOL    HW125988   1.002   3.312  17.396 -0.0278  0.1732 -1.8987
 4842SOL    HW225989   0.905   3.381  17.321  2.1511 -0.6834 -2.3985
 4843SOL     OW25990   1.645   0.731   8.611  0.7371 -0.2196  0.3452
 4843SOL    HW125991   1.655   0.778   8.694 -0.8026  0.1999  0.2793
 4843SOL    HW225992   1.694   0.795   8.559 -2.8351 -0.2194 -2.9328
 4844SOL     OW25993   3.127   4.630   4.252  0.1216  0.3020 -0.2082
 4844SOL    HW125994   3.201   4.569   4.246  0.9775  1.3844 -0.6901
 4844SOL    HW225995   3.159   4.690   4.320  0.7689  0.3545 -0.5564
 4845SOL     OW25996   1.890   4.210  11.433 -0.0106  0.3017  0.4442
 4845SOL    HW125997   1.826   4.204  11.504  1.9552 -1.4630  2.0753
 4845SOL    HW225998   1.858   4.274  11.369  0.0843  0.8216  0.9189
 4846SOL     OW25999   3.833   1.184   6.300  0.4847  0.0265  0.7004
 4846SOL    HW126000   3.815   1.115   6.236  2.2830  0.4648 -0.2919
 4846SOL    HW226001   3.755   1.191   6.356  1.5577  2.3897  1.9085
 4847SOL     OW26002   3.755   1.148   5.619 -0.4171 -0.5045 -0.1917
 4847SOL    HW126003   3.846   1.152   5.647 -0.4651  3.1510 -0.5164
 4847SOL    HW226004   3.764   1.097   5.538 -3.3353  2.2993 -2.2840
 4848SOL     OW26005   1.704   3.214   4.545 -0.2085  0.0433 -0.3209
 4848SOL    HW126006   1.735   3.299   4.576 -0.5710 -0.4297  1.3819
 4848SOL    HW226007   1.782   3.160   4.555 -0.9461 -1.0479 -0.3286
 4849SOL     OW26008   4.392   4.382   8.471  0.0076  0.0342  0.7876
 4849SOL    HW126009   4.333   4.309   8.490 -0.5421  0.3649  0.3490
 4849SOL    HW226010   4.402   4.392   8.377  2.4783 -0.0185  1.0476
 4850SOL     OW26011   0.078   3.581   2.350  0.2149 -0.6290 -0.3157
 4850SOL    HW126012   0.013   3.618   2.291 -0.0056 -0.4738  0.0230
 4850SOL    HW226013   0.165   3.584   2.312  0.4344  0.1200  0.2483
 4851SOL     OW26014   3.222   0.794  15.304 -0.1136  0.5533 -0.0614
 4851SOL    HW126015   3.141   0.802  15.355  0.9752  0.6558  1.6793
 4851SOL    HW226016   3.287   0.850  15.347 -2.0323  0.9279  2.3862
 4852SOL     OW26017   4.633   4.379   5.420 -0.1986  0.2151  0.2640
 4852SOL    HW126018   4.702   4.316   5.402 -1.4508 -0.9706 -0.4293
 4852SOL    HW226019   4.654   4.391   5.512  0.1694 -0.2979  0.2427
 4853SOL     OW26020   0.481   4.623   5.177  0.4495 -0.2609  0.2465
 4853SOL    HW126021   0.456   4.549   5.233  1.1400 -0.5191  0.2105
 4853SOL    HW226022   0.569   4.594   5.153  0.3546 -0.4022  0.0677
 4854SOL     OW26023   2.785   3.662   7.315 -0.5277  0.4767  0.0701
 4854SOL    HW126024   2.743   3.593   7.366 -0.9671 -1.7058 -3.2329
 4854SOL    HW226025   2.802   3.623   7.229  0.3465 -1.5724  1.1850
 4855SOL     OW26026   0.722   1.993   6.626  1.0534 -0.4459 -0.7190
 4855SOL    HW126027   0.781   2.049   6.676  0.7254  0.1836 -1.0457
 4855SOL    HW226028   0.655   2.061   6.622  0.5044 -0.9464 -0.1187
 4856SOL     OW26029   2.203   0.563  16.305  0.2738 -0.4820 -0.1013
 4856SOL    HW126030   2.177   0.650  16.274  0.1605 -0.3135  0.4844
 4856SOL    HW226031   2.186   0.513  16.225 -2.7363 -0.0810  0.3219
 4857SOL     OW26032   3.194   1.869   0.670 -0.2961 -0.0096  0.2226
 4857SOL    HW126033   3.172   1.890   0.760  1.7172 -2.7686  1.3313
 4857SOL    HW226034   3.222   1.778   0.674  1.7881  0.5519 -1.5675
 4858SOL     OW26035   1.806   0.197   3.025  0.0432 -0.0054  0.5524
 4858SOL    HW126036   1.799   0.290   3.006 -0.6621  0.1324  1.5513
 4858SOL    HW226037   1.716   0.166   3.027  0.4426 -1.4161 -2.7260
 4859SOL     OW26038   3.102   1.518   8.290  0.0740 -0.0622 -0.2162
 4859SOL    HW126039   3.121   1.446   8.351 -0.2211  0.5352  0.5814
 4859SOL    HW226040   3.092   1.476   8.205 -2.1302 -1.7923  0.8887
 4860SOL     OW26041   3.052   4.243   3.908  1.1028 -0.1848 -0.1893
 4860SOL    HW126042   3.077   4.243   3.816  0.9477 -0.2331 -0.2314
 4860SOL    HW226043   3.111   4.307   3.947  0.4340  0.7935 -0.8043
 4861SOL     OW26044   3.498   0.197   2.847  0.0841  0.1760 -0.6373
 4861SOL    HW126045   3.574   0.254   2.856  1.2599 -1.5563  0.3654
 4861SOL    HW226046   3.449   0.217   2.927  0.4390  3.0627 -1.1518
 4862SOL     OW26047   3.276   4.187   4.113 -0.1351 -0.2501 -0.3156
 4862SOL    HW126048   3.185   4.173   4.142 -0.3721  2.2637  0.1436
 4862SOL    HW226049   3.289   4.122   4.044 -1.2005  0.0469 -0.7984
 4863SOL     OW26050   2.615   0.537   6.340  0.1068 -0.1321 -0.3040
 4863SOL    HW126051   2.533   0.523   6.293 -0.3676 -1.0153  0.7648
 4863SOL    HW226052   2.670   0.565   6.267  1.1738 -0.0048  0.5448
 4864SOL     OW26053   0.784   0.632  10.046 -0.1629 -0.0893  0.2890
 4864SOL    HW126054   0.833   0.560  10.085  2.0042  0.7954 -0.7933
 4864SOL    HW226055   0.853   0.653   9.982 -0.6336  0.7613  0.0638
 4865SOL     OW26056   3.761   4.306   8.669 -0.8150 -0.2321  0.3828
 4865SOL    HW126057   3.697   4.333   8.603 -1.0060  0.1179  0.7106
 4865SOL    HW226058   3.743   4.358   8.747 -0.1017  2.6079 -1.3331
 4866SOL     OW26059   2.865   2.421   5.261  0.0698 -0.1879  0.7186
 4866SOL    HW126060   2.840   2.513   5.249 -0.6320 -0.3051  1.2710
 4866SOL    HW226061   2.959   2.434   5.273  0.6854 -2.7667 -1.3384
 4867SOL     OW26062   4.380   1.527   1.339  0.6440 -0.1274  0.0222
 4867SOL    HW126063   4.305   1.523   1.399  0.9947 -3.3337  0.2665
 4867SOL    HW226064   4.433   1.453   1.369  1.5797  0.8228  0.6914
 4868SOL     OW26065   3.133   2.832   6.914  0.5869  0.3879 -0.3277
 4868SOL    HW126066   3.039   2.836   6.930  0.3656 -0.7938 -1.3230
 4868SOL    HW226067   3.157   2.767   6.980 -0.6000 -0.1795 -0.4595
 4869SOL     OW26068   3.693   2.786  14.601 -0.2105  0.2777 -0.1452
 4869SOL    HW126069   3.616   2.832  14.632  0.3084 -0.6736  2.5314
 4869SOL    HW226070   3.727   2.866  14.561 -1.2330  1.2266  0.9094
 4870SOL     OW26071   1.342   0.019   6.420 -0.2648  0.1384 -0.0112
 4870SOL    HW126072   1.251   0.002   6.395 -0.8985  4.6894 -0.7282
 4870SOL    HW226073   1.361   4.660   6.464 -2.7599 -0.3473  0.1744
 4871SOL     OW26074   1.306   2.209  15.120 -0.3650 -0.0749  0.0191
 4871SOL    HW126075   1.310   2.302  15.097 -2.5303  0.1548  0.5065
 4871SOL    HW226076   1.318   2.222  15.214  1.1430  0.6900 -0.2874
 4872SOL     OW26077   4.131   2.074   4.432  0.0826 -0.5846 -0.5208
 4872SOL    HW126078   4.225   2.055   4.428  0.1861 -0.6550  2.3082
 4872SOL    HW226079   4.112   2.042   4.520  0.1089  3.4233  0.9398
 4873SOL     OW26080   0.887   1.514  16.146 -0.2589 -0.4727  0.3139
 4873SOL    HW126081   0.935   1.455  16.088 -0.9903 -1.6938  0.9502
 4873SOL    HW226082   0.856   1.584  16.088  1.3854 -1.2134 -1.4751
 4874SOL     OW26083   3.058   3.477   3.812 -0.1109  0.0497 -0.3300
 4874SOL    HW126084   3.080   3.549   3.871 -2.6758 -1.1640  2.1328
 4874SOL    HW226085   3.135   3.476   3.756  0.1295 -0.2067  0.0079
 4875SOL     OW26086   2.792   1.276   3.263  0.7001 -0.5697 -0.3787
 4875SOL    HW126087   2.875   1.316   3.289 -0.4473  0.9914  0.9170
 4875SOL    HW226088   2.743   1.302   3.342 -0.5933  1.3791 -1.8098
 4876SOL     OW26089   4.367   4.040   1.299  0.5015  0.5351  0.6707
 4876SOL    HW126090   4.341   3.989   1.222  0.1597 -0.4418  1.4272
 4876SOL    HW226091   4.308   4.004   1.365  2.6402  0.4269  2.5399
 4877SOL     OW26092   4.668   1.130  11.941  0.3227 -0.0817  0.2841
 4877SOL    HW126093   4.578   1.157  11.926  0.1399 -1.3351 -0.8025
 4877SOL    HW226094   4.702   1.127  11.852  1.5216  1.9423  0.6796
 4878SOL     OW26095   2.010   0.754   4.148  0.4042  0.1440 -0.0859
 4878SOL    HW126096   1.969   0.841   4.152 -0.7322 -0.3013 -2.3380
 4878SOL    HW226097   1.968   0.712   4.073 -2.6280  1.6285  0.7531
 4879SOL     OW26098   4.048   2.268   6.046 -1.2584  0.5903  0.4658
 4879SOL    HW126099   4.057   2.225   6.131  0.3196 -2.3098 -1.1469
 4879SOL    HW226100   4.071   2.355   6.079  0.5846  0.7211 -1.1132
 4880SOL     OW26101   2.631   0.554  16.092 -0.2367  0.5892  0.1269
 4880SOL    HW126102   2.564   0.614  16.126  0.7929 -0.1186  3.3130
 4880SOL    HW226103   2.662   0.593  16.010 -0.0336 -0.8465 -0.4852
 4881SOL     OW26104   2.139   1.599   9.758  0.5257 -0.5724 -0.8618
 4881SOL    HW126105   2.219   1.649   9.772 -1.3246  2.5283 -1.3997
 4881SOL    HW226106   2.083   1.646   9.696 -0.6514 -0.2407  0.4425
 4882SOL     OW26107   2.583   4.005  14.019 -0.0120  0.1160 -0.3817
 4882SOL    HW126108   2.642   4.039  13.952 -0.3036 -0.8634 -1.1303
 4882SOL    HW226109   2.497   3.994  13.979  1.1104 -2.5122 -2.0370
 4883SOL     OW26110   2.103   4.348   1.200 -0.0846  0.0784  0.5842
 4883SOL    HW126111   2.009   4.348   1.182  0.1693 -1.6306 -0.7446
 4883SOL    HW226112   2.139   4.287   1.136 -1.0004  0.0520  0.1044
 4884SOL     OW26113   0.484   2.454   4.855 -0.1787  0.1770 -0.1907
 4884SOL    HW126114   0.418   2.411   4.801 -1.6571  0.6566  1.2297
 4884SOL    HW226115   0.468   2.418   4.943 -1.0457  0.7263 -0.1212
 4885SOL     OW26116   0.230   3.662   3.963 -0.4623 -0.2467  0.5679
 4885SOL    HW126117   0.226   3.620   4.049 -1.4768 -0.2850  0.5068
 4885SOL    HW226118   0.158   3.723   3.977 -0.4849  0.3802 -2.4756
 4886SOL     OW26119   2.794   2.205   8.672 -0.2154  0.1704 -0.1771
 4886SOL    HW126120   2.751   2.182   8.590 -1.8369  0.6670  0.5207
 4886SOL    HW226121   2.872   2.253   8.645  1.4201 -2.5641 -0.3250
 4887SOL     OW26122   3.052   2.257   0.772 -0.1938  0.6085  0.5562
 4887SOL    HW126123   3.065   2.342   0.814  1.0599  0.6717  0.0488
 4887SOL    HW226124   2.979   2.223   0.824 -1.9612  0.5552 -1.9655
 4888SOL     OW26125   3.472   1.959   5.714 -0.4085 -0.3525  0.5192
 4888SOL    HW126126   3.416   1.912   5.652 -0.6213  1.7174 -0.8392
 4888SOL    HW226127   3.407   1.998   5.772 -0.2748 -1.3440  1.3401
 4889SOL     OW26128   2.966   4.571   5.270  0.5722 -0.2482 -0.0335
 4889SOL    HW126129   3.017   4.598   5.193 -0.4054  0.1926 -0.5255
 4889SOL    HW226130   2.937   4.485   5.239 -0.1535 -0.0304  0.0521
 4890SOL     OW26131   2.060   1.674   4.169 -0.2544  0.1976  0.1838
 4890SOL    HW126132   2.106   1.614   4.228 -2.6707 -2.2083 -0.3637
 4890SOL    HW226133   1.985   1.696   4.224  0.0886 -0.3280  0.8588
 4891SOL     OW26134   0.968   3.072   5.182 -0.1940  0.3328  0.2438
 4891SOL    HW126135   1.031   3.126   5.135  2.6917 -2.5385  0.8731
 4891SOL    HW226136   0.905   3.051   5.113  1.4351 -2.0494 -0.5016
 4892SOL     OW26137   2.635   0.353   3.567  0.3858  0.0424 -0.4894
 4892SOL    HW126138   2.594   0.381   3.485 -0.2894 -0.7918 -0.4420
 4892SOL    HW226139   2.663   0.435   3.607 -0.2252  1.0741 -2.1597
 4893SOL     OW26140   0.999   4.115   7.484 -0.5539  0.0753 -0.0195
 4893SOL    HW126141   0.904   4.116   7.468 -0.4097  1.6869 -0.8082
 4893SOL    HW226142   0.993   4.140   7.577 -0.3313  0.6592 -0.1599
 4894SOL     OW26143   1.915   1.575   9.934 -0.0643 -0.4992 -0.0235
 4894SOL    HW126144   1.889   1.482   9.935 -1.4319 -0.1206 -2.1698
 4894SOL    HW226145   1.993   1.570   9.879 -0.9947 -0.7967 -1.3181
 4895SOL     OW26146   3.944   4.087   9.484 -0.3192  0.2959  0.3589
 4895SOL    HW126147   3.961   4.179   9.464 -2.4250  0.7788  0.8376
 4895SOL    HW226148   3.985   4.077   9.570  0.9991 -2.5732 -0.6145
 4896SOL     OW26149   2.103   4.138   2.855 -0.5095 -0.6555  0.3615
 4896SOL    HW126150   2.151   4.221   2.865 -0.1423 -0.8463  0.1899
 4896SOL    HW226151   2.019   4.180   2.837  0.0737  0.9339  1.2972
 4897SOL     OW26152   4.261   2.828  15.977  0.0374  0.6108  0.0066
 4897SOL    HW126153   4.205   2.886  15.924 -1.4216 -0.5181  0.3148
 4897SOL    HW226154   4.267   2.877  16.059 -1.1526  0.3595  0.2515
 4898SOL     OW26155   0.242   3.095   8.057  0.1462 -0.2753  0.2477
 4898SOL    HW126156   0.147   3.103   8.053  0.1880 -0.9949 -2.3697
 4898SOL    HW226157   0.270   3.173   8.105  0.9154  0.2769 -1.1027
 4899SOL     OW26158   0.470   1.707   3.839 -0.6933  0.8340 -0.4457
 4899SOL    HW126159   0.448   1.666   3.755 -1.5342 -0.3751  0.3592
 4899SOL    HW226160   0.560   1.676   3.851 -0.7485  0.2263 -1.5559
 4900SOL     OW26161   2.046   4.255   6.633 -0.3120  0.3399  0.3676
 4900SOL    HW126162   1.985   4.199   6.585 -0.1769  0.7495 -0.2746
 4900SOL    HW226163   2.110   4.285   6.569 -1.1736 -0.3764 -0.8170
 4901SOL     OW26164   1.131   4.030   6.809  0.2281  0.0811  0.8725
 4901SOL    HW126165   1.171   4.023   6.896 -0.9361  1.2915  1.5090
 4901SOL    HW226166   1.207   4.023   6.750 -1.2399  2.0326 -1.2261
 4902SOL     OW26167   2.953   4.395   1.392 -0.4541  0.3760  0.3193
 4902SOL    HW126168   2.934   4.342   1.314  0.7495 -0.5579  0.6475
 4902SOL    HW226169   3.001   4.335   1.449 -0.4245 -1.6695 -1.8596
 4903SOL     OW26170   0.273   2.328   7.543 -0.3134  0.4522  0.0760
 4903SOL    HW126171   0.342   2.350   7.605  0.3092 -2.7649  0.5047
 4903SOL    HW226172   0.317   2.267   7.484  2.6176  2.8305 -0.1860
 4904SOL     OW26173   2.536   4.379   3.931 -0.6556 -0.8461 -0.0325
 4904SOL    HW126174   2.628   4.401   3.940 -0.2773 -2.1445 -0.6791
 4904SOL    HW226175   2.502   4.418   4.012  1.9776  0.1245  0.5915
 4905SOL     OW26176   3.642   2.300  11.359 -0.2453 -0.5352 -0.1668
 4905SOL    HW126177   3.620   2.381  11.313  1.4884  1.1959  2.0550
 4905SOL    HW226178   3.735   2.294  11.340 -0.5571  1.9671 -2.5886
 4906SOL     OW26179   1.502   2.452   8.932 -0.0786  0.4410 -0.3646
 4906SOL    HW126180   1.497   2.532   8.879 -1.8590  0.6968  0.2169
 4906SOL    HW226181   1.595   2.433   8.918  0.1533  1.5383 -0.3336
 4907SOL     OW26182   1.389   2.078   1.266 -0.1187 -0.6782  0.7593
 4907SOL    HW126183   1.376   2.012   1.198  0.1236  0.8265 -0.7403
 4907SOL    HW226184   1.315   2.136   1.250  0.6355 -0.5838 -2.3175
 4908SOL     OW26185   4.301   2.310  12.347 -0.3755 -0.1437  0.4640
 4908SOL    HW126186   4.292   2.279  12.257 -2.5951 -0.1107  0.6581
 4908SOL    HW226187   4.353   2.386  12.321 -1.0632  0.2495  0.2168
 4909SOL     OW26188   1.338   2.092   1.998  0.3280  0.1048 -0.2317
 4909SOL    HW126189   1.261   2.149   1.997  1.4930  1.6246 -1.4673
 4909SOL    HW226190   1.361   2.092   2.091 -1.3351 -0.0712  0.1852
 4910SOL     OW26191   1.292   1.807   2.677 -0.2212  0.4721  0.0378
 4910SOL    HW126192   1.333   1.840   2.597  0.4899  2.9271  1.4091
 4910SOL    HW226193   1.219   1.758   2.640  2.8772 -2.0842 -2.6321
 4911SOL     OW26194   4.098   2.987  15.812  0.1922 -0.7569  0.3673
 4911SOL    HW126195   4.117   3.068  15.764  0.4235 -2.0125 -1.6460
 4911SOL    HW226196   4.056   2.948  15.735  1.8364 -1.3524 -0.2289
 4912SOL     OW26197   2.475   1.799   6.473  0.0046  0.5841 -0.2724
 4912SOL    HW126198   2.493   1.842   6.389 -2.2494  2.5032  0.2194
 4912SOL    HW226199   2.497   1.878   6.522 -1.1145  0.5664  0.2474
 4913SOL     OW26200   3.724   0.088  14.495 -0.3071  0.0186 -0.2228
 4913SOL    HW126201   3.743   4.722  14.521 -1.7994  0.2842  1.8106
 4913SOL    HW226202   3.769   0.138  14.563  1.9940 -2.8029  0.3242
 4914SOL     OW26203   0.863   3.321   2.210  0.7379 -0.0896  0.0288
 4914SOL    HW126204   0.823   3.250   2.260  0.1757 -0.0300 -0.3418
 4914SOL    HW226205   0.944   3.281   2.176  0.9444 -0.2749  0.7484
 4915SOL     OW26206   2.699   4.312  13.590 -0.2030  0.3313  0.4374
 4915SOL    HW126207   2.668   4.322  13.499 -0.9900 -0.6791  0.5928
 4915SOL    HW226208   2.739   4.398  13.605  1.3487 -0.7184  2.1456
 4916SOL     OW26209   1.754   0.697   5.567 -0.4677  0.4283 -0.4166
 4916SOL    HW126210   1.778   0.683   5.475 -0.8168 -2.5087 -0.0817
 4916SOL    HW226211   1.823   0.643   5.606 -0.3318  1.5171  0.8400
 4917SOL     OW26212   2.765   0.607   4.740  0.1112  0.1727 -0.0976
 4917SOL    HW126213   2.676   0.575   4.726  0.5675 -0.6418 -1.1478
 4917SOL    HW226214   2.789   0.536   4.800 -0.7193  0.2508  0.3221
 4918SOL     OW26215   3.110   0.966   0.155 -0.6086 -0.2875  0.6211
 4918SOL    HW126216   3.138   1.000   0.240 -0.5820  1.3693 -0.0506
 4918SOL    HW226217   3.017   0.986   0.162 -0.8950 -1.4049  0.0914
 4919SOL     OW26218   3.013   1.278   8.960  0.3314  0.1226  0.9421
 4919SOL    HW126219   2.930   1.260   9.003 -1.4903  1.3313 -2.0840
 4919SOL    HW226220   3.029   1.372   8.969  0.4537  0.1842  0.1193
 4920SOL     OW26221   3.530   3.528   3.654  0.0631  0.2932  0.0136
 4920SOL    HW126222   3.439   3.553   3.641 -0.4854 -0.7502  1.8876
 4920SOL    HW226223   3.573   3.561   3.575 -0.7700  0.3989 -0.3966
 4921SOL     OW26224   3.470   1.612  15.930 -0.4754 -0.4671  0.2071
 4921SOL    HW126225   3.455   1.676  16.000 -1.1494  0.5377 -0.8675
 4921SOL    HW226226   3.491   1.665  15.854  1.3488 -2.6891 -0.8561
 4922SOL     OW26227   3.606   1.656   5.314 -0.0871 -0.0278 -0.1620
 4922SOL    HW126228   3.607   1.747   5.343 -1.3209 -0.4110  1.0519
 4922SOL    HW226229   3.517   1.637   5.286  0.1431  0.0221 -0.9195
 4923SOL     OW26230   4.204   0.978   7.405  0.0251 -0.2813 -0.1622
 4923SOL    HW126231   4.262   1.000   7.478  1.0988 -0.9080 -0.8287
 4923SOL    HW226232   4.195   1.066   7.368  0.0263 -1.3898 -2.7570
 4924SOL     OW26233   4.051   3.088   7.301 -0.1792  0.3221  0.0068
 4924SOL    HW126234   4.115   3.053   7.238 -1.0976  1.5701 -1.6144
 4924SOL    HW226235   4.070   3.182   7.299 -1.0464  0.5372  2.7917
 4925SOL     OW26236   3.473   0.716   8.487 -0.6926  0.3541 -0.0008
 4925SOL    HW126237   3.539   0.779   8.514 -0.5869  0.5325 -0.6750
 4925SOL    HW226238   3.469   0.736   8.393 -2.3666 -2.5103 -0.5607
 4926SOL     OW26239   3.369   3.967   3.963 -0.1222 -0.6406 -0.1549
 4926SOL    HW126240   3.323   3.911   3.901  1.8626 -1.7141 -0.6546
 4926SOL    HW226241   3.412   3.899   4.014  1.0701 -1.8034 -2.7100
 4927SOL     OW26242   2.302   1.791   2.615 -0.1079 -0.7322 -0.3770
 4927SOL    HW126243   2.367   1.721   2.616 -0.3163 -0.9223 -0.0807
 4927SOL    HW226244   2.354   1.869   2.598 -1.3855  0.0697 -0.6423
 4928SOL     OW26245   4.708   0.142  12.888  0.1895  0.1579 -0.0178
 4928SOL    HW126246   4.634   0.191  12.853  0.8015  1.0608 -0.0484
 4928SOL    HW226247   4.677   0.052  12.880 -2.1045  0.8399  1.3536
 4929SOL     OW26248   3.830   2.336   4.425 -0.3854 -0.1796  0.2350
 4929SOL    HW126249   3.789   2.374   4.346 -0.6771 -0.3916  0.2837
 4929SOL    HW226250   3.857   2.417   4.469  0.0701  0.0066 -0.3876
 4930SOL     OW26251   4.715   1.140   6.968  0.5246  0.0862  0.6445
 4930SOL    HW126252   0.060   1.132   6.902 -0.0669 -0.4663  0.0975
 4930SOL    HW226253   4.645   1.190   6.927  1.4554  1.5552  0.8536
 4931SOL     OW26254   3.575   2.650  13.842  0.0542 -0.4058 -0.1222
 4931SOL    HW126255   3.587   2.610  13.756 -1.3087  0.6531 -0.8008
 4931SOL    HW226256   3.631   2.728  13.835  0.7405 -0.6871  2.2860
 4932SOL     OW26257   0.623   0.604   6.810 -0.2714 -0.5131  0.4770
 4932SOL    HW126258   0.644   0.651   6.890 -1.1740 -0.5386  0.7266
 4932SOL    HW226259   0.709   0.567   6.788  0.0389 -0.9606  2.4443
 4933SOL     OW26260   2.370   2.662   5.696 -0.7741 -0.3678  0.2794
 4933SOL    HW126261   2.440   2.635   5.755  2.4780  1.7995 -2.5621
 4933SOL    HW226262   2.389   2.617   5.613 -2.3130  1.7826 -1.2289
 4934SOL     OW26263   0.299   2.284   5.369  0.2089  0.2547  0.2799
 4934SOL    HW126264   0.380   2.331   5.387  0.0365  0.4784  0.4668
 4934SOL    HW226265   0.288   2.248   5.457 -0.5222  1.9246  0.8801
 4935SOL     OW26266   2.529   1.027   2.310  0.0831 -0.2340 -0.7206
 4935SOL    HW126267   2.546   1.063   2.223  1.6273  1.0276  0.1117
 4935SOL    HW226268   2.576   0.945   2.327  1.2233  0.1694 -1.9237
 4936SOL     OW26269   0.279   1.510   8.212 -0.2200  0.2061 -0.1351
 4936SOL    HW126270   0.353   1.569   8.223 -0.1057 -0.2348  1.5769
 4936SOL    HW226271   0.210   1.558   8.259 -0.0913 -1.3382  1.6071
 4937SOL     OW26272   2.769   1.394   2.748  0.6943 -0.4424 -0.5714
 4937SOL    HW126273   2.796   1.399   2.840  0.0218 -1.9569 -0.2944
 4937SOL    HW226274   2.809   1.475   2.718 -1.5989  1.4124  1.3350
 4938SOL     OW26275   0.193   0.119  14.299  0.0406 -0.4846  0.1042
 4938SOL    HW126276   0.277   0.076  14.318  1.3804  1.5570 -1.3542
 4938SOL    HW226277   0.219   0.210  14.293  1.7933 -1.1590 -2.0642
 4939SOL     OW26278   2.136   3.805  11.025  0.7634  0.2259 -0.1691
 4939SOL    HW126279   2.178   3.891  11.025  0.1030  0.5433 -1.4849
 4939SOL    HW226280   2.110   3.807  10.933 -0.0100 -0.0652  0.0459
 4940SOL     OW26281   4.365   1.933  12.367  0.0165 -0.3148 -0.5120
 4940SOL    HW126282   4.451   1.968  12.390  0.5027 -1.3912 -0.7018
 4940SOL    HW226283   4.387   1.860  12.309  1.5933  1.1210 -1.7096
 4941SOL     OW26284   2.777   0.145   4.933 -0.1415 -0.1591 -0.0722
 4941SOL    HW126285   2.695   0.132   4.980  0.2525  0.1894  0.7221
 4941SOL    HW226286   2.775   0.059   4.890  0.7369 -0.7380  1.0235
 4942SOL     OW26287   1.685   0.920   1.189  0.3279  0.4877  0.2326
 4942SOL    HW126288   1.619   0.851   1.186  0.7167  0.0580  1.3644
 4942SOL    HW226289   1.702   0.920   1.284  0.5753 -1.7184  0.1944
 4943SOL     OW26290   0.668   1.002   6.894  0.3577  0.9621  0.1225
 4943SOL    HW126291   0.614   1.080   6.906 -0.4363  0.7215 -1.9279
 4943SOL    HW226292   0.748   1.049   6.870  0.2885  0.1173 -1.7860
 4944SOL     OW26293   2.507   2.994  10.313 -0.2772  0.2844  0.2806
 4944SOL    HW126294   2.566   3.063  10.284  1.5358 -1.6960 -0.7017
 4944SOL    HW226295   2.518   3.011  10.407  1.7273  2.3775 -0.3236
 4945SOL     OW26296   0.836   2.365  14.461 -0.5667  0.2657 -0.4340
 4945SOL    HW126297   0.865   2.443  14.414  3.3180 -0.3005  1.0242
 4945SOL    HW226298   0.745   2.357  14.432 -0.2945  2.7212 -1.8827
 4946SOL     OW26299   0.668   0.488   6.322 -0.0932 -0.2723 -0.2053
 4946SOL    HW126300   0.625   0.573   6.330 -2.8149 -1.3651 -2.8760
 4946SOL    HW226301   0.731   0.516   6.256  0.5461 -1.3186 -0.0277
 4947SOL     OW26302   0.973   1.493   2.639  0.1171  0.0018 -0.4397
 4947SOL    HW126303   0.906   1.555   2.668 -0.8270 -1.0409 -0.3986
 4947SOL    HW226304   0.983   1.451   2.724 -0.9061  0.9080  0.1245
 4948SOL     OW26305   3.767   0.056   9.273  0.0290  0.3702  0.3765
 4948SOL    HW126306   3.818   0.075   9.194 -2.1256  1.3532 -0.7926
 4948SOL    HW226307   3.718   4.707   9.234  1.5675  0.0561 -0.9504
 4949SOL     OW26308   2.735   4.175   8.878  0.1437 -0.3553  1.1282
 4949SOL    HW126309   2.802   4.154   8.812  0.2883 -0.7559  1.4019
 4949SOL    HW226310   2.786   4.174   8.959  2.7306  1.9246 -0.4804
 4950SOL     OW26311   3.981   2.228   9.753  0.0236  0.0258 -0.3163
 4950SOL    HW126312   3.901   2.281   9.763  0.9251  0.9795  1.7547
 4950SOL    HW226313   3.990   2.198   9.843  0.5052 -2.4302 -1.2051
 4951SOL     OW26314   3.926   3.881   7.376 -0.0036 -0.3844  0.1017
 4951SOL    HW126315   3.891   3.941   7.443  0.2571  1.0974 -1.0959
 4951SOL    HW226316   4.020   3.893   7.393  0.0376 -0.5066 -0.0498
 4952SOL     OW26317   2.980   2.314   3.940 -0.3839 -0.7956 -0.3767
 4952SOL    HW126318   3.054   2.296   3.883 -0.3039 -0.6726 -0.3121
 4952SOL    HW226319   2.921   2.365   3.884 -0.6348  0.2615  0.8291
 4953SOL     OW26320   0.080   1.460   9.823 -0.4660 -0.0721 -0.2800
 4953SOL    HW126321   0.068   1.552   9.849 -0.9925 -0.2430  0.0881
 4953SOL    HW226322   0.055   1.473   9.731 -1.6587  2.4265  0.3900
 4954SOL     OW26323   4.056   3.631   8.873 -0.2204 -0.3867 -0.5288
 4954SOL    HW126324   4.053   3.634   8.968  0.7258 -0.2382 -0.5068
 4954SOL    HW226325   4.125   3.565   8.866  0.7461  0.5483  0.2676
 4955SOL     OW26326   0.671   0.198  16.065  0.3687  0.3047  0.3455
 4955SOL    HW126327   0.580   0.225  16.072 -0.4785 -2.0540 -1.4030
 4955SOL    HW226328   0.677   0.251  15.985  1.2218 -0.0424  0.1735
 4956SOL     OW26329   3.335   1.412   6.384 -0.5355  0.8354 -0.2308
 4956SOL    HW126330   3.284   1.336   6.415  0.1257  0.1943 -0.7043
 4956SOL    HW226331   3.318   1.482   6.447  0.2658 -0.0412  0.9865
 4957SOL     OW26332   1.134   1.856   5.850 -0.0951  0.5141  0.6186
 4957SOL    HW126333   1.209   1.800   5.832  0.9102  2.5351 -1.4458
 4957SOL    HW226334   1.170   1.939   5.818  1.1773 -0.7249 -1.0730
 4958SOL     OW26335   1.557   0.612   0.615  0.3717  0.7934  0.1669
 4958SOL    HW126336   1.489   0.603   0.548 -0.2482 -1.3352  1.0718
 4958SOL    HW226337   1.511   0.654   0.687 -1.1530  0.0044 -0.3335
 4959SOL     OW26338   0.293   1.418   9.081 -0.0255  0.4517 -0.4562
 4959SOL    HW126339   0.330   1.345   9.129 -0.9187 -1.5991 -2.8970
 4959SOL    HW226340   0.305   1.498   9.132 -0.4736  1.0046 -1.2085
 4960SOL     OW26341   3.429   2.637   8.248  0.3315 -0.6751  0.2526
 4960SOL    HW126342   3.489   2.693   8.199  1.2786 -0.7236  1.3490
 4960SOL    HW226343   3.481   2.598   8.318 -0.8796 -1.1052  0.9161
 4961SOL     OW26344   4.341   2.212   8.908 -0.2903  0.2450  0.1312
 4961SOL    HW126345   4.298   2.181   8.828  3.2006  0.7162 -1.9093
 4961SOL    HW226346   4.299   2.297   8.920  0.5865  0.7644 -0.4894
 4962SOL     OW26347   2.032   1.453   5.297 -0.0116 -0.2180 -0.0862
 4962SOL    HW126348   1.939   1.437   5.283  0.0720 -2.6954  2.2315
 4962SOL    HW226349   2.041   1.547   5.285  1.6146 -0.1094  1.8322
 4963SOL     OW26350   2.020   3.910  11.500 -0.2625 -0.0819  0.0343
 4963SOL    HW126351   2.008   3.946  11.588 -0.4378 -1.9414  0.7482
 4963SOL    HW226352   1.981   3.986  11.455 -1.2242 -0.7615 -0.2729
 4964SOL     OW26353   0.876   1.571  16.889  0.5255  0.0938 -0.2892
 4964SOL    HW126354   0.888   1.520  16.970  0.5057  2.3074  1.1011
 4964SOL    HW226355   0.919   1.515  16.825  1.8397 -1.2513  1.7436
 4965SOL     OW26356   1.967   2.688   2.523 -0.4723 -0.1735  0.3478
 4965SOL    HW126357   1.939   2.716   2.610 -0.8241  0.9156 -0.1159
 4965SOL    HW226358   2.021   2.763   2.498  0.4173 -0.6299  0.9133
 4966SOL     OW26359   0.780   1.565  11.024  0.5586 -0.2337  0.3042
 4966SOL    HW126360   0.768   1.657  10.999  0.9941 -0.2863 -0.1009
 4966SOL    HW226361   0.875   1.560  11.032  0.6651  0.1299 -0.7255
 4967SOL     OW26362   2.193   3.813   3.168 -0.0736  0.6513 -0.0311
 4967SOL    HW126363   2.212   3.720   3.181  0.3757  1.1105  2.5436
 4967SOL    HW226364   2.281   3.846   3.185  0.0400  0.5066 -0.3238
 4968SOL     OW26365   0.359   1.463   6.231  0.7985 -0.1147 -0.6661
 4968SOL    HW126366   0.391   1.423   6.150  0.0537 -0.1399 -0.9515
 4968SOL    HW226367   0.347   1.556   6.212  2.9809  0.1854 -0.5471
 4969SOL     OW26368   2.396   4.070  14.644  0.1669  0.2477 -0.5879
 4969SOL    HW126369   2.414   4.121  14.723  1.0653 -0.4682 -0.3221
 4969SOL    HW226370   2.479   4.085  14.599  0.5326  0.6384  0.2009
 4970SOL     OW26371   4.187   3.922   1.445 -0.2061  0.2682 -0.0876
 4970SOL    HW126372   4.183   3.829   1.424  1.7482 -0.3976  2.4253
 4970SOL    HW226373   4.099   3.959   1.439  0.5647  1.8525 -1.9142
 4971SOL     OW26374   1.266   2.625   6.076 -0.0180  0.5184  0.5317
 4971SOL    HW126375   1.343   2.675   6.046  0.8095 -1.8148 -1.2150
 4971SOL    HW226376   1.242   2.576   5.998 -1.4421  1.6503  0.2681
 4972SOL     OW26377   3.244   3.135  15.021  0.0278  1.0527  0.2707
 4972SOL    HW126378   3.248   3.132  14.925 -2.5416 -1.8195  0.2583
 4972SOL    HW226379   3.181   3.205  15.039 -1.2679 -0.0004 -0.0732
 4973SOL     OW26380   0.039   1.870   3.385  0.1661  0.7099 -0.5905
 4973SOL    HW126381   4.721   1.946   3.425  0.4040  1.4189 -1.6944
 4973SOL    HW226382   0.014   1.805   3.450  2.2383 -0.6815 -1.1861
 4974SOL     OW26383   0.605   0.943   8.039  0.1206  0.3720 -0.0369
 4974SOL    HW126384   0.607   0.852   8.009 -0.1266  0.6612 -0.9563
 4974SOL    HW226385   0.589   0.941   8.133  3.1983  0.0881  0.4594
 4975SOL     OW26386   3.640   0.993   9.471  0.0580  0.6411 -0.0155
 4975SOL    HW126387   3.679   0.925   9.526  1.5742  1.2294 -0.3659
 4975SOL    HW226388   3.714   1.035   9.427  0.4573  1.4232  1.3882
 4976SOL     OW26389   1.396   3.543  11.312 -0.0949 -0.2809 -0.3324
 4976SOL    HW126390   1.305   3.561  11.334 -0.1393 -3.1216  1.8719
 4976SOL    HW226391   1.424   3.564  11.401 -0.0675 -1.0089 -0.1689
 4977SOL     OW26392   4.029   4.189   7.879  0.6510 -0.0707  0.0532
 4977SOL    HW126393   3.997   4.263   7.930 -0.8885 -1.5227  1.2127
 4977SOL    HW226394   3.994   4.204   7.791 -2.1792 -2.7531  0.7287
 4978SOL     OW26395   2.307   3.189   0.763  0.5195  0.0692 -0.4014
 4978SOL    HW126396   2.335   3.268   0.808 -3.3307 -0.8327  3.5957
 4978SOL    HW226397   2.360   3.120   0.803  1.8986  0.4808 -1.5136
 4979SOL     OW26398   4.601   1.647   5.778  0.0865  0.1102  0.4478
 4979SOL    HW126399   4.562   1.569   5.739  1.5465  0.7534 -2.2725
 4979SOL    HW226400   4.648   1.604   5.849 -0.1795 -2.6589 -1.0667
 4980SOL     OW26401   1.515   1.935  11.462 -0.1338  0.1064  0.3062
 4980SOL    HW126402   1.439   1.982  11.429  1.5381  1.1993 -2.0215
 4980SOL    HW226403   1.520   1.975  11.549 -0.8048 -0.2938  0.5233
 4981SOL     OW26404   1.687   0.963   3.041 -0.4972 -0.1461  0.4057
 4981SOL    HW126405   1.745   1.025   2.998  1.2047 -2.0795 -0.0847
 4981SOL    HW226406   1.728   0.966   3.127 -2.7170 -1.5062  1.5230
 4982SOL     OW26407   1.995   3.463   5.659  0.4827  0.0346 -0.3300
 4982SOL    HW126408   1.999   3.369   5.678  2.7010  0.4076  0.9421
 4982SOL    HW226409   2.029   3.466   5.569 -2.9725  2.3578 -1.5769
 4983SOL     OW26410   2.558   0.841   9.849  0.0405 -0.6089  0.1923
 4983SOL    HW126411   2.621   0.771   9.867 -0.1276 -0.7444  0.2595
 4983SOL    HW226412   2.478   0.797   9.880 -0.1605 -0.2601  0.1728
 4984SOL     OW26413   0.059   3.601   5.728 -0.3401 -0.0469  0.4046
 4984SOL    HW126414   0.143   3.568   5.759  0.6681  0.9395 -1.2988
 4984SOL    HW226415   0.083   3.675   5.672  1.4724 -1.3953 -0.5651
 4985SOL     OW26416   3.480   0.930  17.263 -0.2835  0.3446 -0.1400
 4985SOL    HW126417   3.494   0.910  17.355  2.4989  1.6570 -0.2896
 4985SOL    HW226418   3.495   1.024  17.264  3.4970 -0.2673 -0.3200
 4986SOL     OW26419   1.436   1.991   7.713 -0.0730 -0.0345 -0.3218
 4986SOL    HW126420   1.471   1.931   7.647  3.2360  0.7450  0.7162
 4986SOL    HW226421   1.355   1.950   7.742  0.0492 -0.8989 -1.1812
 4987SOL     OW26422   2.753   0.691   4.465 -0.1511  0.0240 -0.0012
 4987SOL    HW126423   2.664   0.697   4.432 -0.3333 -1.3333  0.2785
 4987SOL    HW226424   2.744   0.641   4.546 -0.0184 -1.4524 -0.8993
 4988SOL     OW26425   2.741   3.900  13.358 -0.1221  0.8090 -0.1333
 4988SOL    HW126426   2.815   3.885  13.299 -0.8002  1.6917 -1.2085
 4988SOL    HW226427   2.737   3.995  13.369  0.2237  0.7480  0.5104
 4989SOL     OW26428   1.795   0.421   6.805  0.5608 -0.2422 -0.0702
 4989SOL    HW126429   1.788   0.361   6.731 -3.1917 -0.9105  0.8287
 4989SOL    HW226430   1.707   0.411   6.839  1.1718 -0.9963  1.2601
 4990SOL     OW26431   3.473   3.994   1.862  0.5651 -0.2332  0.0794
 4990SOL    HW126432   3.551   3.972   1.913 -1.1242 -1.2700  2.2019
 4990SOL    HW226433   3.407   3.975   1.928 -0.4531 -1.9843 -1.4346
 4991SOL     OW26434   0.545   1.580   4.701 -0.5501 -0.0678  0.3300
 4991SOL    HW126435   0.477   1.550   4.640 -0.6230 -0.6866  0.7189
 4991SOL    HW226436   0.558   1.497   4.746 -1.6574 -1.0086 -1.0618
 4992SOL     OW26437   2.616   2.708   3.164 -0.2999 -0.7281 -0.2906
 4992SOL    HW126438   2.536   2.678   3.120 -0.2965 -0.9054 -0.1764
 4992SOL    HW226439   2.651   2.777   3.108  0.4286 -1.9636 -1.3623
 4993SOL     OW26440   1.715   2.158   4.256  0.2928  0.6030  0.1078
 4993SOL    HW126441   1.695   2.205   4.175  1.1145  0.2126 -0.3211
 4993SOL    HW226442   1.660   2.082   4.237  0.6589  0.6115 -0.9618
 4994SOL     OW26443   2.368   4.104   4.637 -0.0342 -0.3524 -0.0177
 4994SOL    HW126444   2.351   4.197   4.619 -2.6392 -0.7128  0.5261
 4994SOL    HW226445   2.279   4.072   4.623 -0.0550  0.1514 -1.0189
 4995SOL     OW26446   0.053   4.608   3.546  0.4259 -0.4881  0.0284
 4995SOL    HW126447   0.072   4.517   3.569  1.3568 -0.1257  0.7100
 4995SOL    HW226448   4.707   4.631   3.607 -0.7762 -0.8177 -1.2158
 4996SOL     OW26449   2.126   2.552   1.268  0.0088 -0.1367  0.3694
 4996SOL    HW126450   2.051   2.582   1.217  1.5709  0.6726 -1.4718
 4996SOL    HW226451   2.111   2.458   1.265 -1.0001 -0.0658  2.9541
 4997SOL     OW26452   1.835   4.195   3.599 -0.4486  0.2522  0.0505
 4997SOL    HW126453   1.855   4.222   3.509 -0.2226  1.3324  0.4335
 4997SOL    HW226454   1.862   4.103   3.604 -1.5603 -0.0862 -0.2661
 4998SOL     OW26455   2.087   2.754  15.158  0.0492 -0.0186  0.4006
 4998SOL    HW126456   2.122   2.687  15.099  0.9822  0.1413  0.7682
 4998SOL    HW226457   2.124   2.734  15.244 -0.0283 -1.2508  0.1496
 4999SOL     OW26458   1.116   0.914   8.615  0.0722  0.0412  0.3707
 4999SOL    HW126459   1.195   0.953   8.577 -0.9540 -0.1157 -1.9454
 4999SOL    HW226460   1.114   0.825   8.579  0.6493  0.0124  0.4063
 5000SOL     OW26461   3.472   4.589   8.317 -0.0558 -0.6161  0.4718
 5000SOL    HW126462   3.390   4.638   8.308  0.2335 -0.3977 -0.9871
 5000SOL    HW226463   3.519   4.651   8.373  0.6253 -1.0050  0.3303
 5001SOL     OW26464   2.025   1.718   8.124  0.0153 -0.0767  0.2312
 5001SOL    HW126465   1.932   1.695   8.128 -0.6777  2.8710  1.2009
 5001SOL    HW226466   2.017   1.767   8.205 -1.4396 -1.8011  1.1263
 5002SOL     OW26467   4.041   2.702   2.287 -0.1336 -0.1366  0.0644
 5002SOL    HW126468   4.123   2.747   2.265 -0.7887  1.0080 -0.0761
 5002SOL    HW226469   4.065   2.610   2.293  2.2495  0.5335  0.8095
 5003SOL     OW26470   2.374   3.855   5.764  0.1466 -0.5802 -0.1109
 5003SOL    HW126471   2.442   3.802   5.722 -0.3093 -0.8602 -0.4969
 5003SOL    HW226472   2.420   3.937   5.776  1.2347 -1.0615 -0.9645
 5004SOL     OW26473   2.231   2.065   4.653  0.3883 -0.8198 -0.3161
 5004SOL    HW126474   2.308   2.035   4.605  0.5893  0.5001 -0.8132
 5004SOL    HW226475   2.249   2.063   4.747  1.3205 -1.4843 -0.5114
 5005SOL     OW26476   2.339   0.341   8.458  0.3389  0.2940  0.4793
 5005SOL    HW126477   2.266   0.315   8.514  0.7961 -3.6142 -0.7399
 5005SOL    HW226478   2.329   0.436   8.458  4.0083  0.6646  0.3745
 5006SOL     OW26479   2.365   3.771   4.619 -0.1921  0.4421 -0.2734
 5006SOL    HW126480   2.349   3.692   4.671  0.0976  2.0730  2.3310
 5006SOL    HW226481   2.321   3.755   4.536  1.6139  0.6474 -1.2623
 5007SOL     OW26482   2.499   0.047  12.786 -0.2677  0.5187 -0.1704
 5007SOL    HW126483   2.518   0.111  12.854  0.3554  0.4512 -0.2810
 5007SOL    HW226484   2.454   4.709  12.843  0.9500  0.4623  0.7034
 5008SOL     OW26485   3.608   1.804   4.757  0.2073 -0.1184  0.0162
 5008SOL    HW126486   3.562   1.787   4.840  0.3978 -0.1252  0.1216
 5008SOL    HW226487   3.698   1.814   4.788  0.1257 -1.4701  0.7073
 5009SOL     OW26488   3.675   3.029  10.453 -0.2107 -0.2129  0.4421
 5009SOL    HW126489   3.740   3.090  10.416 -1.3560  1.2016  0.7549
 5009SOL    HW226490   3.721   2.989  10.527 -1.9944 -1.6755  0.7422
 5010SOL     OW26491   3.580   1.418   1.751  0.5906  1.1985 -0.1406
 5010SOL    HW126492   3.611   1.504   1.723 -1.5919  1.8714 -0.4815
 5010SOL    HW226493   3.530   1.391   1.674  0.1854  2.9071 -0.4878
 5011SOL     OW26494   4.332   1.445   8.768 -0.7935 -0.2558  0.2508
 5011SOL    HW126495   4.238   1.445   8.749 -0.5846  2.6479 -0.8347
 5011SOL    HW226496   4.344   1.363   8.816  0.3498  0.1511  0.6609
 5012SOL     OW26497   1.827   4.038   6.577 -0.3773 -0.1327 -0.2036
 5012SOL    HW126498   1.744   4.056   6.533 -0.2870 -1.7645 -1.0709
 5012SOL    HW226499   1.806   4.081   6.659 -1.9524 -0.8972 -0.1954
 5013SOL     OW26500   1.459   2.511   8.338 -0.0575  0.6699 -0.6057
 5013SOL    HW126501   1.388   2.542   8.281 -2.4738 -0.8048  1.6044
 5013SOL    HW226502   1.430   2.537   8.425  0.8977 -0.3137 -0.0048
 5014SOL     OW26503   1.720   4.114   2.508  0.2453  0.1209  0.2580
 5014SOL    HW126504   1.666   4.080   2.579 -1.4905  2.3519  0.0031
 5014SOL    HW226505   1.807   4.097   2.543  0.2802 -0.0112  0.1104
 5015SOL     OW26506   1.842   3.776   4.412  0.3047  0.0372 -0.2494
 5015SOL    HW126507   1.759   3.806   4.376  0.5262  1.1827  0.1883
 5015SOL    HW226508   1.857   3.851   4.470 -1.7629 -0.4828  0.9589
 5016SOL     OW26509   2.926   0.385   9.282  0.0221 -0.2622 -0.0393
 5016SOL    HW126510   2.995   0.367   9.346 -2.4218 -3.7489  1.5892
 5016SOL    HW226511   2.986   0.427   9.220  1.0945 -0.0895  1.1114
 5017SOL     OW26512   2.470   0.075   3.178  0.6039  0.1651 -0.1056
 5017SOL    HW126513   2.471   0.161   3.219  0.3149  0.1736 -0.1178
 5017SOL    HW226514   2.491   0.103   3.089 -1.2836 -0.4612 -0.7571
 5018SOL     OW26515   1.845   1.952   2.302  0.1401 -0.1511 -0.3914
 5018SOL    HW126516   1.817   1.865   2.272  0.7112 -0.4682 -0.0161
 5018SOL    HW226517   1.783   1.977   2.370  2.5078 -1.2444  2.1579
 5019SOL     OW26518   2.200   1.192   6.678  0.1674  0.1846  0.4205
 5019SOL    HW126519   2.235   1.243   6.605  3.3728 -4.0811 -1.0114
 5019SOL    HW226520   2.167   1.116   6.631  1.3526 -0.1791  0.1720
 5020SOL     OW26521   3.630   1.198   4.340 -0.0498 -0.8246 -0.1324
 5020SOL    HW126522   3.553   1.178   4.287 -1.3218  1.6201  0.8339
 5020SOL    HW226523   3.592   1.266   4.396 -0.5836 -0.5527 -0.8221
 5021SOL     OW26524   2.512   2.459   7.182  0.0767 -0.1248 -0.8053
 5021SOL    HW126525   2.500   2.552   7.166  1.1803  0.0052 -0.8623
 5021SOL    HW226526   2.536   2.425   7.096 -1.7193 -0.8751 -1.0213
 5022SOL     OW26527   3.813   3.226   2.506  0.0694 -0.1704 -0.1647
 5022SOL    HW126528   3.846   3.271   2.429 -0.0773 -1.7114 -1.1491
 5022SOL    HW226529   3.749   3.291   2.536  0.0477 -0.4036  0.3064
 5023SOL     OW26530   3.462   1.148   7.312  0.4613 -0.4329  0.4426
 5023SOL    HW126531   3.518   1.225   7.303  0.0098  0.1376  2.4748
 5023SOL    HW226532   3.505   1.105   7.386  0.1047  1.0545  1.5044
 5024SOL     OW26533   2.617   0.137   6.830  0.3111  0.2295 -0.3757
 5024SOL    HW126534   2.697   0.100   6.792  1.0490 -2.7023  3.9547
 5024SOL    HW226535   2.614   0.229   6.804 -0.6657  0.1749 -0.4332
 5025SOL     OW26536   2.158   2.590   0.557  0.1527 -0.2408  0.1483
 5025SOL    HW126537   2.064   2.579   0.568 -0.0981  0.9090 -0.9158
 5025SOL    HW226538   2.157   2.684   0.540 -2.0388  0.1010  2.1739
 5026SOL     OW26539   3.573   3.407   6.810  0.0133  0.0266  0.3729
 5026SOL    HW126540   3.543   3.352   6.883 -2.7132  1.5009  0.3819
 5026SOL    HW226541   3.629   3.470   6.856  0.0269 -1.3324  2.2433
 5027SOL     OW26542   0.163   4.444   1.624  0.9100  0.0917 -0.3644
 5027SOL    HW126543   0.126   4.367   1.666 -1.1570  0.7540 -1.0131
 5027SOL    HW226544   0.232   4.397   1.576  1.3470 -0.8887  1.2313
 5028SOL     OW26545   0.627   0.257  12.889  0.2261  0.3966  0.6344
 5028SOL    HW126546   0.702   0.216  12.932 -0.5391 -0.3539  1.2622
 5028SOL    HW226547   0.650   0.245  12.796 -0.1608  1.1516  0.4495
 5029SOL     OW26548   3.382   4.153   0.789 -0.8103 -0.1688  0.2789
 5029SOL    HW126549   3.341   4.206   0.857 -1.7200 -0.3730 -0.1115
 5029SOL    HW226550   3.455   4.109   0.832 -1.2121 -1.4893 -0.3799
 5030SOL     OW26551   2.947   0.024   6.274 -0.0526 -0.0120  0.0198
 5030SOL    HW126552   2.989   4.671   6.237  0.7531  1.1321 -1.4614
 5030SOL    HW226553   2.953   0.089   6.203 -0.0115  0.7154  0.6936
 5031SOL     OW26554   1.929   1.049   7.919 -0.3185  0.0535 -0.2504
 5031SOL    HW126555   1.837   1.075   7.918  0.1520  1.7119 -0.8051
 5031SOL    HW226556   1.924   0.975   7.980  0.4513 -0.1959 -0.4934
 5032SOL     OW26557   2.943   4.059  10.997 -0.1399 -0.1912  0.0789
 5032SOL    HW126558   2.994   4.132  10.961 -1.2981  1.2637  1.4498
 5032SOL    HW226559   2.989   3.979  10.972  0.7556 -0.3107  2.0771
 5033SOL     OW26560   0.346   3.483   5.764  0.0969  0.7281  0.1254
 5033SOL    HW126561   0.347   3.576   5.783 -0.0557  1.2688 -2.5340
 5033SOL    HW226562   0.441   3.472   5.753  0.2644 -0.6376  2.8409
 5034SOL     OW26563   4.209   1.871   3.906  0.1457 -0.0298  0.2430
 5034SOL    HW126564   4.260   1.859   3.826  1.1415  0.1753  0.8377
 5034SOL    HW226565   4.124   1.832   3.889 -0.2661 -0.1934  2.6429
 5035SOL     OW26566   3.869   2.240  11.109 -0.0878 -0.4552  0.1595
 5035SOL    HW126567   3.854   2.150  11.080  1.5164 -0.4055 -0.8321
 5035SOL    HW226568   3.913   2.212  11.189  1.7871 -1.6305 -1.2577
 5036SOL     OW26569   4.055   3.804  12.511 -0.4062  0.2420 -0.1900
 5036SOL    HW126570   4.108   3.734  12.550 -0.5902  0.7016  0.8782
 5036SOL    HW226571   4.067   3.884  12.563 -1.3145  0.3769 -0.1961
 5037SOL     OW26572   0.522   2.458   6.463  0.1167  0.3435 -0.1743
 5037SOL    HW126573   0.571   2.471   6.382  0.7385 -1.7563 -0.1359
 5037SOL    HW226574   0.452   2.402   6.429  0.4992 -2.0157  2.9181
 5038SOL     OW26575   3.663   1.631   8.308  0.1638 -0.3597 -0.2015
 5038SOL    HW126576   3.576   1.594   8.322  0.9286 -1.5115  1.5872
 5038SOL    HW226577   3.651   1.724   8.325  1.4969 -0.2995  0.4600
 5039SOL     OW26578   0.122   4.514   8.712 -0.2378 -0.6650 -0.1654
 5039SOL    HW126579   0.066   4.466   8.650 -2.0704  0.8774  0.2995
 5039SOL    HW226580   0.082   4.601   8.709  1.4233  0.0971 -0.0301
 5040SOL     OW26581   3.792   2.111   4.581 -0.1016 -0.2487  0.1429
 5040SOL    HW126582   3.809   2.024   4.545  4.1360  0.6980 -0.1102
 5040SOL    HW226583   3.827   2.172   4.517  1.9487 -1.5312  0.0396
 5041SOL     OW26584   3.365   1.538  11.484 -0.1710  0.4078  0.2004
 5041SOL    HW126585   3.298   1.593  11.525  1.6664  1.0654  2.2974
 5041SOL    HW226586   3.446   1.574  11.520  0.0840  0.2094 -0.1733
 5042SOL     OW26587   2.176   2.084   2.384 -0.4485 -0.0702 -0.1821
 5042SOL    HW126588   2.095   2.047   2.348  0.3562 -1.8968 -0.1520
 5042SOL    HW226589   2.183   2.171   2.345  1.8386 -1.0765 -1.9953
 5043SOL     OW26590   3.839   1.018   5.376  0.0320 -0.3102  0.0028
 5043SOL    HW126591   3.750   0.986   5.359  0.0116 -0.6444  0.7272
 5043SOL    HW226592   3.861   1.065   5.296 -2.0094 -0.6694 -0.7814
 5044SOL     OW26593   0.268   2.766   7.294 -0.6291 -0.0527 -0.4214
 5044SOL    HW126594   0.214   2.835   7.256  0.1019  0.8981  0.2566
 5044SOL    HW226595   0.207   2.705   7.335  1.3215 -2.3930 -1.0608
 5045SOL     OW26596   1.620   3.531  13.518 -0.5837 -0.2686  0.4590
 5045SOL    HW126597   1.601   3.457  13.576 -0.1899 -2.2667 -1.9066
 5045SOL    HW226598   1.542   3.548  13.465  1.1161  0.9420 -1.6639
 5046SOL     OW26599   4.406   0.719   4.343  0.0136 -0.0955 -0.3904
 5046SOL    HW126600   4.355   0.705   4.422 -1.1682  0.2950 -1.0753
 5046SOL    HW226601   4.401   0.636   4.295 -0.3706  0.5701 -1.5200
 5047SOL     OW26602   0.721   2.691  10.821 -0.7288 -0.1652  0.5100
 5047SOL    HW126603   0.657   2.637  10.867 -0.0086  0.4200  2.2101
 5047SOL    HW226604   0.770   2.719  10.899  0.3750 -0.0895 -0.2096
 5048SOL     OW26605   2.045   3.450   1.235  0.0685  0.3051  0.3454
 5048SOL    HW126606   2.044   3.521   1.171  2.2045  1.3876  1.4892
 5048SOL    HW226607   2.044   3.502   1.316 -0.3565 -0.4888  0.8444
 5049SOL     OW26608   1.892   3.032   2.736 -0.0942 -0.0924 -0.2020
 5049SOL    HW126609   1.824   3.001   2.677 -0.0334  0.7640 -0.7252
 5049SOL    HW226610   1.857   3.113   2.773  0.4834  0.0355  0.0655
 5050SOL     OW26611   3.388   4.607   5.037 -0.2561 -0.3029 -0.0540
 5050SOL    HW126612   3.304   4.584   5.075  1.5890 -2.7328  2.5400
 5050SOL    HW226613   3.406   4.533   4.979  0.4512 -0.7391  0.7349
 5051SOL     OW26614   0.708   1.296   2.699 -0.0632  0.0909  0.2636
 5051SOL    HW126615   0.754   1.292   2.783  1.2603  0.2471 -0.4627
 5051SOL    HW226616   0.785   1.305   2.643 -0.3691 -0.5804 -0.2628
 5052SOL     OW26617   1.631   2.304   4.050 -0.4399  0.0570  0.3407
 5052SOL    HW126618   1.547   2.348   4.033  0.6353  1.8778 -0.2410
 5052SOL    HW226619   1.659   2.307   3.959 -2.1217 -0.6824 -0.2012
 5053SOL     OW26620   2.356   1.457   3.596  0.6377  0.1367 -0.2890
 5053SOL    HW126621   2.389   1.410   3.673 -0.0525  0.2018  0.0518
 5053SOL    HW226622   2.408   1.410   3.531 -0.7941 -2.4659  0.4367
 5054SOL     OW26623   4.108   1.826   9.126 -0.0567 -0.7550  0.0421
 5054SOL    HW126624   4.045   1.898   9.136  1.0259  0.1773  0.2780
 5054SOL    HW226625   4.124   1.831   9.032  0.0262  2.4581  0.2223
 5055SOL     OW26626   1.900   3.211  15.402 -0.0089 -0.3692  0.2022
 5055SOL    HW126627   1.988   3.203  15.365 -0.0002 -1.7443  0.5190
 5055SOL    HW226628   1.911   3.293  15.450  0.1272 -0.5796  0.5255
 5056SOL     OW26629   0.242   0.294   7.609  0.3733  0.0259 -0.1025
 5056SOL    HW126630   0.333   0.317   7.594  0.4076  1.6393  2.7121
 5056SOL    HW226631   0.223   0.266   7.519 -0.6321  0.3888  0.0003
 5057SOL     OW26632   0.324   0.344  14.193 -0.2795 -0.2380  0.7883
 5057SOL    HW126633   0.359   0.411  14.134 -0.9499 -2.1056 -1.7347
 5057SOL    HW226634   0.391   0.276  14.193  0.2551  0.2892  0.2135
 5058SOL     OW26635   2.697   3.654   4.473 -0.1118  0.2568 -0.1915
 5058SOL    HW126636   2.605   3.653   4.499 -0.4341  3.6383 -1.0861
 5058SOL    HW226637   2.697   3.724   4.407  1.4199  0.8459  0.4374
 5059SOL     OW26638   1.661   0.556   0.280 -0.1890 -0.4476  0.6203
 5059SOL    HW126639   1.596   0.488   0.298 -0.1797 -0.3015  1.2023
 5059SOL    HW226640   1.709   0.517   0.207 -0.1578 -1.5988  1.2533
 5060SOL     OW26641   1.561   0.836  11.828  0.1648  0.0408 -0.0086
 5060SOL    HW126642   1.533   0.900  11.763  1.6377  1.5422  0.8420
 5060SOL    HW226643   1.481   0.808  11.872 -0.9144  2.2537 -0.5967
 5061SOL     OW26644   0.978   1.953  15.204 -0.1012  0.2341 -0.7831
 5061SOL    HW126645   0.995   2.022  15.268  0.4890  0.9277 -1.6969
 5061SOL    HW226646   1.060   1.950  15.155  0.1747  0.6989 -0.3549
 5062SOL     OW26647   3.164   2.200  16.900  0.4323 -0.1618 -0.9219
 5062SOL    HW126648   3.141   2.112  16.931  0.4630  0.1233 -0.0859
 5062SOL    HW226649   3.110   2.201  16.821 -1.8522  0.4046  0.6197
 5063SOL     OW26650   2.585   2.209   7.576 -0.0312 -0.3928 -0.2560
 5063SOL    HW126651   2.599   2.287   7.522 -0.2383 -0.9933 -1.1729
 5063SOL    HW226652   2.528   2.246   7.644 -0.1908  0.0776 -0.6475
 5064SOL     OW26653   1.585   1.181   6.836  0.9601 -0.3911  0.9820
 5064SOL    HW126654   1.667   1.174   6.787  0.2772  1.2610 -0.4048
 5064SOL    HW226655   1.530   1.151   6.763 -0.0518 -0.0241  1.6059
 5065SOL     OW26656   3.959   4.036   3.370 -0.4606  0.6285  0.3415
 5065SOL    HW126657   3.875   4.024   3.325 -0.9789 -1.0551  1.7721
 5065SOL    HW226658   4.022   3.978   3.328  2.2902  1.7788  2.9287
 5066SOL     OW26659   0.589   2.333   1.598 -0.1905  0.3260  0.5568
 5066SOL    HW126660   0.645   2.269   1.642  1.9466  0.9360 -1.3061
 5066SOL    HW226661   0.624   2.320   1.510  1.8542 -0.8480  1.5441
 5067SOL     OW26662   1.489   2.368   7.175 -0.2006 -0.5743  0.6306
 5067SOL    HW126663   1.557   2.388   7.240 -0.9758  2.0251  0.6453
 5067SOL    HW226664   1.549   2.320   7.118  0.8526  1.6565 -0.1300
 5068SOL     OW26665   3.379   1.105   3.042  0.3525 -0.4750 -0.4904
 5068SOL    HW126666   3.343   1.050   2.973  2.5820 -3.0473  0.4044
 5068SOL    HW226667   3.455   1.144   2.999  0.5676 -2.1242 -1.5680
 5069SOL     OW26668   3.135   2.156   8.209 -0.3019 -0.2000 -0.9818
 5069SOL    HW126669   3.095   2.219   8.268  1.0317 -1.7015  1.4845
 5069SOL    HW226670   3.217   2.199   8.188  1.1208 -1.2888  2.3876
 5070SOL     OW26671   2.858   2.199   0.992 -0.4177  0.6852 -0.5338
 5070SOL    HW126672   2.824   2.136   1.056  1.0442 -0.2201 -0.6636
 5070SOL    HW226673   2.773   2.237   0.968 -0.3613 -0.4280 -2.4917
 5071SOL     OW26674   4.200   0.888   4.755  1.2092 -0.1453 -0.3778
 5071SOL    HW126675   4.136   0.937   4.704  1.7528  1.1029  0.1489
 5071SOL    HW226676   4.215   0.937   4.836 -2.6769 -0.2796  0.3914
 5072SOL     OW26677   0.635   2.120  15.314 -0.5189 -1.0063  0.0007
 5072SOL    HW126678   0.660   2.119  15.221 -0.0279  0.6081  0.1206
 5072SOL    HW226679   0.630   2.214  15.331 -1.7331 -1.0279 -0.2633
 5073SOL     OW26680   1.848   1.379  12.057 -0.2714  0.6806 -0.7398
 5073SOL    HW126681   1.838   1.298  12.107  2.0975  0.5713 -0.4802
 5073SOL    HW226682   1.758   1.407  12.040 -1.0856 -1.9887 -0.9330
 5074SOL     OW26683   2.592   0.097   2.935  0.2818  0.3641 -0.0685
 5074SOL    HW126684   2.631   0.010   2.934  0.2711  0.3211  2.0825
 5074SOL    HW226685   2.640   0.141   2.865  1.6695 -3.2808 -1.3630
 5075SOL     OW26686   1.113   3.643   7.165  0.9543  0.4158  0.0609
 5075SOL    HW126687   1.025   3.657   7.199  1.1379 -0.3501  0.8277
 5075SOL    HW226688   1.104   3.664   7.072  2.8909  0.1019 -0.2011
 5076SOL     OW26689   2.274   0.043   4.749  0.4091  0.0518  0.4923
 5076SOL    HW126690   2.211   4.699   4.772 -0.4629  0.3539 -0.9851
 5076SOL    HW226691   2.222   0.084   4.680 -0.3893 -2.4120 -0.3543
 5077SOL     OW26692   1.279   0.776   5.527  0.4264 -0.3710  0.8250
 5077SOL    HW126693   1.239   0.726   5.456  0.0825  1.9718 -0.6375
 5077SOL    HW226694   1.217   0.847   5.538  1.3725  0.9875 -2.5079
 5078SOL     OW26695   1.087   3.386   4.838 -0.6074 -0.0357 -0.1532
 5078SOL    HW126696   1.037   3.319   4.790  1.1812 -2.6895  1.6988
 5078SOL    HW226697   1.017   3.439   4.877 -0.0875 -0.7228  1.7103
 5079SOL     OW26698   0.375   3.616   3.210  0.0873  0.0333  0.0150
 5079SOL    HW126699   0.372   3.696   3.263 -0.8967 -1.2760  1.9375
 5079SOL    HW226700   0.282   3.596   3.199 -0.1748  2.4913 -2.3727
 5080SOL     OW26701   4.083   0.916   8.621 -0.4286 -0.2253  0.3987
 5080SOL    HW126702   4.090   0.825   8.651  0.5867  0.4263  2.1112
 5080SOL    HW226703   4.080   0.954   8.709 -3.1042 -0.4345  0.4058
 5081SOL     OW26704   3.456   0.115   3.865 -0.3638  0.2685 -0.2759
 5081SOL    HW126705   3.402   0.194   3.856  0.9436  0.9950 -1.5584
 5081SOL    HW226706   3.417   0.083   3.947  2.7727  1.3183  1.6006
 5082SOL     OW26707   3.159   3.540  12.468 -0.2083 -0.3389  0.5497
 5082SOL    HW126708   3.160   3.452  12.505  1.0156 -1.5328 -2.2693
 5082SOL    HW226709   3.070   3.542  12.433 -0.4646  1.8924  1.3373
 5083SOL     OW26710   1.809   3.841   2.430  0.5615  0.2917  0.0107
 5083SOL    HW126711   1.768   3.924   2.455  2.0513  0.1755  2.8291
 5083SOL    HW226712   1.823   3.795   2.513 -1.3473  1.2101  0.8458
 5084SOL     OW26713   4.719   1.056   6.491  0.0656  0.2898 -0.5624
 5084SOL    HW126714   0.061   1.061   6.561  1.0635 -1.6762 -1.3530
 5084SOL    HW226715   4.710   0.961   6.486 -0.7981  0.3530 -0.1402
 5085SOL     OW26716   0.554   0.833  15.674  0.2341 -0.3339 -0.1248
 5085SOL    HW126717   0.580   0.743  15.657  4.6291  0.9264  0.0444
 5085SOL    HW226718   0.585   0.878  15.595  0.5101 -0.8813 -0.3222
 5086SOL     OW26719   2.297   1.190   9.905 -0.3347 -0.0798  0.0563
 5086SOL    HW126720   2.381   1.162   9.867 -1.0179 -0.4492 -1.2010
 5086SOL    HW226721   2.329   1.238   9.981 -0.5731 -3.1121  2.0638
 5087SOL     OW26722   1.020   3.971   1.573  0.3575 -0.0308  0.5943
 5087SOL    HW126723   1.074   3.897   1.601  0.4528 -0.0465  0.3647
 5087SOL    HW226724   0.981   3.936   1.493 -0.4203  2.5963 -0.1774
 5088SOL     OW26725   0.617   0.542   3.873  0.8283  0.4727  0.1986
 5088SOL    HW126726   0.587   0.552   3.782  0.7522  2.0405  0.4002
 5088SOL    HW226727   0.664   0.622   3.894 -0.8222  2.1817 -2.5756
 5089SOL     OW26728   0.690   4.501  12.212 -0.5749  0.0519 -0.0190
 5089SOL    HW126729   0.771   4.484  12.165  0.0462  0.9731  0.7070
 5089SOL    HW226730   0.689   4.430  12.276 -0.1287 -0.9772 -1.1663
 5090SOL     OW26731   1.138   4.444   7.833  0.1093 -0.1927 -0.1427
 5090SOL    HW126732   1.115   4.536   7.818 -1.5823 -0.7535 -1.0295
 5090SOL    HW226733   1.229   4.445   7.862  0.4071 -3.7650 -0.8842
 5091SOL     OW26734   4.365   1.683   7.911 -0.3592 -0.4707  0.1655
 5091SOL    HW126735   4.315   1.638   7.980 -2.9607  0.0187 -1.4186
 5091SOL    HW226736   4.347   1.613   7.848  1.1667 -0.6198 -0.1051
 5092SOL     OW26737   4.327   4.109   1.671  0.3096 -0.5359 -0.4559
 5092SOL    HW126738   4.248   4.162   1.671  2.1384  2.2097  1.7107
 5092SOL    HW226739   4.390   4.180   1.681 -1.1626  0.5424  1.1043
 5093SOL     OW26740   2.579   2.873   5.375  0.3222 -0.3996  0.9910
 5093SOL    HW126741   2.528   2.943   5.414  0.9295 -0.0339  1.1354
 5093SOL    HW226742   2.512   2.852   5.310  0.0923 -0.7051  1.3243
 5094SOL     OW26743   0.965   1.594   7.309 -0.2809 -0.0665 -0.1897
 5094SOL    HW126744   0.995   1.628   7.225  0.6762  0.3657  0.3192
 5094SOL    HW226745   1.025   1.633   7.373  0.4279 -2.2977  0.4865
 5095SOL     OW26746   2.550   2.409   1.259  0.5169  0.6421  0.0812
 5095SOL    HW126747   2.513   2.328   1.296  0.3649  0.2619 -0.9177
 5095SOL    HW226748   2.638   2.403   1.297  1.0156 -1.9985 -1.5265
 5096SOL     OW26749   1.100   0.195   6.548 -0.5433 -0.3270 -1.0511
 5096SOL    HW126750   1.059   0.268   6.503 -1.6459  1.2824  2.6926
 5096SOL    HW226751   1.110   0.219   6.640  0.3834  1.9496 -1.7500
 5097SOL     OW26752   4.078   0.599   5.489 -0.2756 -0.1759 -0.3301
 5097SOL    HW126753   4.021   0.526   5.464 -0.8100  0.2065 -0.2405
 5097SOL    HW226754   4.042   0.661   5.427 -1.2123  0.6459  1.0339
 5098SOL     OW26755   0.823   3.928   9.142 -0.2869 -0.4390  0.1026
 5098SOL    HW126756   0.900   3.935   9.085 -1.5695  2.3359 -1.2853
 5098SOL    HW226757   0.812   3.833   9.152 -2.0592 -0.1729  0.6314
 5099SOL     OW26758   3.801   1.624   8.088  0.4021 -0.2407 -0.5827
 5099SOL    HW126759   3.838   1.712   8.098  2.3239 -1.0183 -0.7824
 5099SOL    HW226760   3.749   1.625   8.168  1.0966  3.4174 -0.1675
 5100SOL     OW26761   2.709   2.605   7.606 -0.1803  0.1528 -0.0598
 5100SOL    HW126762   2.688   2.677   7.547  0.8295  0.7862  0.3526
 5100SOL    HW226763   2.652   2.543   7.560 -1.1281 -0.5347  2.0383
 5101SOL     OW26764   2.482   0.110   4.029 -0.6287  0.5541 -0.2331
 5101SOL    HW126765   2.409   0.161   4.065 -1.3586 -0.2483 -0.5797
 5101SOL    HW226766   2.442   0.024   4.021  0.2470 -0.0045  1.5773
 5102SOL     OW26767   0.364   2.720  11.024 -0.1745 -0.4597  0.4061
 5102SOL    HW126768   0.300   2.764  10.968 -0.1192  1.2720  1.7099
 5102SOL    HW226769   0.308   2.649  11.056 -1.6733  1.9770  3.2737
 5103SOL     OW26770   3.645   2.249   9.508 -0.4933  0.4533  0.4642
 5103SOL    HW126771   3.647   2.278   9.599 -0.1533 -0.9544  0.8965
 5103SOL    HW226772   3.633   2.155   9.520 -1.7719  0.9011  2.6053
 5104SOL     OW26773   0.007   4.619  15.437  0.1273  0.3731  0.5296
 5104SOL    HW126774   0.022   4.531  15.471  1.0152  0.6169  0.7512
 5104SOL    HW226775   0.066   4.669  15.493  1.1757 -1.6315  1.1719
 5105SOL     OW26776   1.124   1.730   8.744 -0.2509  0.8594  0.0097
 5105SOL    HW126777   1.108   1.823   8.757 -0.6214  0.6613  0.9285
 5105SOL    HW226778   1.054   1.697   8.800 -0.6233 -0.7769 -1.4251
 5106SOL     OW26779   4.395   2.799  13.620  0.1064  0.2621  0.2875
 5106SOL    HW126780   4.367   2.748  13.543  2.4918  2.6961 -2.2074
 5106SOL    HW226781   4.314   2.850  13.623 -0.5279 -0.8395  1.8849
 5107SOL     OW26782   1.301   1.055   5.152 -0.3363 -0.5637  0.0170
 5107SOL    HW126783   1.341   1.021   5.232 -1.5327 -2.2262 -0.0965
 5107SOL    HW226784   1.368   1.111   5.114  0.3845 -2.4016 -1.4098
 5108SOL     OW26785   3.753   1.605   7.109 -0.5779 -0.5269  0.5641
 5108SOL    HW126786   3.682   1.650   7.063  0.5300  0.0590 -0.5510
 5108SOL    HW226787   3.754   1.652   7.192  0.0191  0.5086 -0.0342
 5109SOL     OW26788   1.031   2.327   4.283 -0.2710 -0.5876  0.3597
 5109SOL    HW126789   1.099   2.338   4.349 -0.5284  2.0880  0.1584
 5109SOL    HW226790   0.956   2.378   4.311 -0.8785 -0.7037 -1.0207
 5110SOL     OW26791   0.725   3.661   2.855 -0.5977 -0.9586  0.1891
 5110SOL    HW126792   0.725   3.581   2.908  0.1858 -0.8096  0.4055
 5110SOL    HW226793   0.633   3.685   2.844 -0.1818  2.2173  3.7650
 5111SOL     OW26794   3.666   0.391  16.855 -0.4432 -0.5452 -0.1338
 5111SOL    HW126795   3.599   0.458  16.842  1.4641  1.3026 -0.5750
 5111SOL    HW226796   3.744   0.447  16.858 -1.1563  0.4942 -1.0267
 5112SOL     OW26797   0.396   2.907   4.763 -0.3459 -0.5671 -0.1807
 5112SOL    HW126798   0.491   2.900   4.756 -0.4162 -1.1869 -0.5494
 5112SOL    HW226799   0.379   2.827   4.814 -1.6317  0.1057  0.4441
 5113SOL     OW26800   3.667   4.486  11.552  0.0900 -0.2489 -0.4605
 5113SOL    HW126801   3.633   4.420  11.492  0.1347 -1.0069  0.3577
 5113SOL    HW226802   3.666   4.442  11.637 -1.6356  2.6898  1.0399
 5114SOL     OW26803   1.296   2.229   6.240  0.6262  0.3887 -0.2500
 5114SOL    HW126804   1.358   2.208   6.309 -0.3212 -1.5783 -0.0015
 5114SOL    HW226805   1.358   2.228   6.167  0.1031  3.1186 -0.7514
 5115SOL     OW26806   1.016   3.635   5.694  0.0629 -0.1011 -0.3845
 5115SOL    HW126807   1.095   3.616   5.745 -0.5048 -2.6683 -0.4304
 5115SOL    HW226808   1.038   3.590   5.612 -1.7872  0.8556 -1.4150
 5116SOL     OW26809   4.350   2.536   2.861  0.1303  0.0524 -0.7775
 5116SOL    HW126810   4.259   2.561   2.849  0.5735  2.3463  0.6036
 5116SOL    HW226811   4.369   2.477   2.789  2.0546 -2.5406  1.8480
 5117SOL     OW26812   0.490   2.377  13.514  0.0258 -0.3200 -0.0066
 5117SOL    HW126813   0.540   2.298  13.494  0.0225 -0.2525 -0.2829
 5117SOL    HW226814   0.533   2.413  13.592  1.2557 -0.8567 -0.4330
 5118SOL     OW26815   0.500   1.390   4.328 -0.1432  0.2660  0.0120
 5118SOL    HW126816   0.414   1.414   4.295  0.9044  1.7986 -1.6594
 5118SOL    HW226817   0.476   1.307   4.369  0.7405 -0.0499 -0.1109
 5119SOL     OW26818   0.995   3.368   3.815 -0.1971 -0.6761 -0.5522
 5119SOL    HW126819   0.998   3.275   3.838 -0.9257 -0.7639 -0.8159
 5119SOL    HW226820   0.908   3.367   3.776  0.5622  0.2657 -2.2683
 5120SOL     OW26821   1.453   4.001   8.520  0.2361 -0.6682 -0.4669
 5120SOL    HW126822   1.444   4.074   8.582 -2.5306 -0.8996 -0.5840
 5120SOL    HW226823   1.385   4.022   8.455  0.4862  2.5071  0.2724
 5121SOL     OW26824   2.916   4.556   2.811  0.3657  0.4003 -0.2454
 5121SOL    HW126825   2.895   4.484   2.750 -0.4385 -0.7047  1.3263
 5121SOL    HW226826   2.902   4.631   2.754 -2.0260  0.4952  0.4640
 5122SOL     OW26827   0.356   0.217   7.137  0.1157 -0.5745  0.4140
 5122SOL    HW126828   0.328   0.183   7.052 -0.7117 -0.6329  0.7152
 5122SOL    HW226829   0.351   0.136   7.187 -0.2765 -1.1276 -0.5092
 5123SOL     OW26830   1.577   3.625   8.334 -0.1227  0.3015  1.0566
 5123SOL    HW126831   1.616   3.706   8.300 -1.0972  0.9916  1.5904
 5123SOL    HW226832   1.558   3.655   8.423 -0.8536 -1.5415  1.5210
 5124SOL     OW26833   3.149   2.932   8.769  0.0478  0.2147 -0.0536
 5124SOL    HW126834   3.121   2.917   8.679 -5.2641 -0.0550  1.6265
 5124SOL    HW226835   3.192   3.017   8.758 -2.2335  1.2755 -0.9246
 5125SOL     OW26836   2.757   4.195   2.443  0.1209  0.6593  0.1244
 5125SOL    HW126837   2.680   4.189   2.386 -0.3347  1.5768  0.6568
 5125SOL    HW226838   2.815   4.135   2.396  0.4845  0.5824  0.6644
 5126SOL     OW26839   3.921   1.615   9.404 -0.2614 -0.1171 -0.3571
 5126SOL    HW126840   3.902   1.534   9.451  1.5686  0.7097  1.7869
 5126SOL    HW226841   4.011   1.636   9.428 -0.1430  0.0151 -0.9137
 5127SOL     OW26842   3.478   1.031  13.920 -0.1602  0.3325  0.2447
 5127SOL    HW126843   3.409   1.087  13.956 -0.2345  0.2777  0.1883
 5127SOL    HW226844   3.504   0.969  13.989  0.4652 -2.8242 -2.8524
 5128SOL     OW26845   1.113   1.191   8.350 -0.3236  0.1137 -0.0083
 5128SOL    HW126846   1.149   1.279   8.338  1.0792 -0.5416 -0.5517
 5128SOL    HW226847   1.090   1.199   8.443  0.3523  0.8735  0.0927
 5129SOL     OW26848   4.364   0.611  12.326  1.1095 -0.5063  0.2290
 5129SOL    HW126849   4.382   0.607  12.232  0.5006  1.1252  0.0336
 5129SOL    HW226850   4.334   0.701  12.340  1.5832 -0.3005 -0.0897
 5130SOL     OW26851   2.820   0.884   6.544 -0.4726 -0.0860 -0.1605
 5130SOL    HW126852   2.887   0.829   6.502 -0.4000 -0.6195  0.6516
 5130SOL    HW226853   2.830   0.879   6.639  0.5013 -1.7036 -0.3454
 5131SOL     OW26854   0.255   1.938   3.020 -0.1947 -0.3257 -0.3254
 5131SOL    HW126855   0.340   1.905   2.992  0.1084 -0.6450  0.9815
 5131SOL    HW226856   0.239   2.022   2.978  0.7756  0.0385  0.0437
 5132SOL     OW26857   3.847   1.597  10.901 -0.0540 -0.0364  0.2191
 5132SOL    HW126858   3.807   1.519  10.864  0.3401  1.3030 -3.0505
 5132SOL    HW226859   3.925   1.599  10.846 -0.4413 -0.9651 -0.3656
 5133SOL     OW26860   0.556   0.576  14.355  0.2070  0.0710  0.1264
 5133SOL    HW126861   0.562   0.552  14.447  4.2629  0.2930 -0.0775
 5133SOL    HW226862   0.589   0.501  14.307  0.1507  1.2668 -1.7753
 5134SOL     OW26863   2.620   1.120   6.517 -0.2772 -0.2563  0.4253
 5134SOL    HW126864   2.688   1.066   6.557  1.1553 -0.2189 -2.0118
 5134SOL    HW226865   2.553   1.053   6.505 -0.3972 -0.3114  1.3849
 5135SOL     OW26866   3.846   2.549  11.588  0.2101  0.1851 -0.2991
 5135SOL    HW126867   3.789   2.611  11.634  1.4623  0.3447  1.0091
 5135SOL    HW226868   3.917   2.539  11.651  0.7478  1.2337 -0.7424
 5136SOL     OW26869   3.232   2.818  14.811  0.1516 -0.4111  0.5294
 5136SOL    HW126870   3.230   2.913  14.800 -1.1709 -0.2009  2.5858
 5136SOL    HW226871   3.152   2.794  14.764 -0.2997 -1.0810  1.6244
 5137SOL     OW26872   2.571   3.143   4.289  0.0455  0.4287 -0.7195
 5137SOL    HW126873   2.615   3.216   4.332 -0.4143  0.9590 -1.1463
 5137SOL    HW226874   2.511   3.183   4.226 -0.4538  1.9051  0.6923
 5138SOL     OW26875   2.807   0.316   5.277 -0.3501  0.2864 -0.0352
 5138SOL    HW126876   2.822   0.407   5.300  0.8619  0.3640 -1.1525
 5138SOL    HW226877   2.895   0.298   5.245 -0.3390  0.8228 -0.3084
 5139SOL     OW26878   0.507   0.219   4.240 -0.2087  0.0507  0.1492
 5139SOL    HW126879   0.599   0.219   4.216 -0.2115  1.4468  0.1369
 5139SOL    HW226880   0.464   0.264   4.167 -1.1635 -0.3446  0.4660
 5140SOL     OW26881   0.811   0.304   2.782 -0.1210  0.3115 -0.0017
 5140SOL    HW126882   0.776   0.342   2.863 -2.6877  0.8375 -1.3477
 5140SOL    HW226883   0.811   0.209   2.795  0.7808  0.2793 -0.2631
 5141SOL     OW26884   2.158   1.742   6.994 -0.3303 -0.6250  0.1338
 5141SOL    HW126885   2.197   1.666   6.951  1.0252  1.1291 -1.7474
 5141SOL    HW226886   2.185   1.811   6.933 -1.0938 -0.0583  0.4320
 5142SOL     OW26887   3.205   0.463   9.713 -0.0721  0.5993 -0.1782
 5142SOL    HW126888   3.272   0.455   9.645  1.5410  1.4166  1.3141
 5142SOL    HW226889   3.195   0.558   9.714  0.0284  0.5921  2.6553
 5143SOL     OW26890   0.351   3.626   7.859  0.2631  0.6094 -0.1727
 5143SOL    HW126891   0.416   3.571   7.814  0.0076  0.0328  0.1657
 5143SOL    HW226892   0.269   3.578   7.856  1.5003 -1.5011 -0.9073
 5144SOL     OW26893   2.727   1.444   7.140  0.2966  0.3812  0.3184
 5144SOL    HW126894   2.720   1.355   7.105 -1.6279  0.5729  0.1906
 5144SOL    HW226895   2.636   1.474   7.136  0.0002 -0.4092  1.2664
 5145SOL     OW26896   2.812   1.723  16.810  0.1827  0.3920 -0.2075
 5145SOL    HW126897   2.724   1.689  16.792 -0.1924  0.9032  0.6781
 5145SOL    HW226898   2.858   1.646  16.843  2.3131  2.2227  1.0667
 5146SOL     OW26899   1.471   3.627   5.889  0.0254  0.5213 -0.3349
 5146SOL    HW126900   1.478   3.712   5.847 -0.4832  0.2846 -0.8985
 5146SOL    HW226901   1.513   3.579   5.817  0.8202  1.8919 -0.7902
 5147SOL     OW26902   3.860   2.420   4.881  0.2387 -0.0130  0.1415
 5147SOL    HW126903   3.852   2.337   4.834 -2.2528  0.8148 -0.9278
 5147SOL    HW226904   3.955   2.425   4.873 -0.0424  3.7267 -0.5205
 5148SOL     OW26905   3.333   2.839   2.492  0.2237  0.6031 -0.0126
 5148SOL    HW126906   3.421   2.811   2.465  0.6896  1.6330  0.4400
 5148SOL    HW226907   3.302   2.908   2.435  0.8474  0.7542 -0.1688
 5149SOL     OW26908   2.082   4.355   8.064  0.1790  0.7613  0.1535
 5149SOL    HW126909   1.990   4.355   8.089  0.2302 -1.2975  0.3239
 5149SOL    HW226910   2.126   4.381   8.144 -0.0298  3.6289 -0.6645
 5150SOL     OW26911   2.129   0.639  12.956  0.6628 -0.4166  0.3392
 5150SOL    HW126912   2.092   0.551  12.950 -0.8528  0.3230 -1.1691
 5150SOL    HW226913   2.140   0.646  13.051 -1.5847  2.1432  0.3938
 5151SOL     OW26914   0.752   3.690   0.137 -0.4200 -0.0328  0.4189
 5151SOL    HW126915   0.746   3.646   0.222  0.5071  2.2265  1.6549
 5151SOL    HW226916   0.685   3.653   0.079 -2.2203  1.5097  1.5061
 5152SOL     OW26917   4.144   1.041  15.050  0.2050 -0.4630  0.1814
 5152SOL    HW126918   4.213   1.007  14.993  0.0132 -0.8064  0.1572
 5152SOL    HW226919   4.094   0.964  15.075 -0.3745 -0.6439 -1.5202
 5153SOL     OW26920   4.198   4.436   1.722  0.5141 -0.1230  0.0478
 5153SOL    HW126921   4.288   4.466   1.711  0.5063  0.0432  0.4408
 5153SOL    HW226922   4.174   4.421   1.630  0.2862  1.4296 -0.1468
 5154SOL     OW26923   0.990   4.576   3.331  0.1901 -0.2936 -0.1850
 5154SOL    HW126924   0.931   4.515   3.288 -1.5887  2.4519 -1.6455
 5154SOL    HW226925   0.982   4.548   3.422  1.5233 -3.0100 -0.9049
 5155SOL     OW26926   3.280   2.957  10.381 -0.3612  0.0273  0.1750
 5155SOL    HW126927   3.343   2.950  10.310 -2.1092 -1.8891 -1.1494
 5155SOL    HW226928   3.201   2.971  10.329 -1.3877 -0.4997  1.5712
 5156SOL     OW26929   2.312   0.675   4.838 -0.1530 -0.1348  0.4837
 5156SOL    HW126930   2.258   0.748   4.870  0.3934  0.2703  0.4806
 5156SOL    HW226931   2.276   0.658   4.751  1.8167  1.3817 -0.6101
 5157SOL     OW26932   3.100   1.042   4.340  0.0603  0.0189 -0.3930
 5157SOL    HW126933   3.055   1.057   4.257  1.3936  1.1496 -0.9117
 5157SOL    HW226934   3.043   0.979   4.383 -1.2794  2.0632  0.8219
 5158SOL     OW26935   2.737   3.486   2.263 -0.5076 -0.2086 -0.6227
 5158SOL    HW126936   2.732   3.563   2.320 -3.1288  0.5396 -1.9013
 5158SOL    HW226937   2.809   3.513   2.206 -1.0960  1.6378 -0.4814
 5159SOL     OW26938   0.959   0.207  16.154 -0.4723 -0.2163 -0.1057
 5159SOL    HW126939   0.969   0.269  16.082 -0.2203 -0.3930 -0.2227
 5159SOL    HW226940   0.866   0.221  16.173 -0.4615 -0.6012  0.2376
 5160SOL     OW26941   0.217   4.290   3.283  0.0167 -0.5595 -1.0212
 5160SOL    HW126942   0.227   4.224   3.351 -1.3809  1.4692  1.1499
 5160SOL    HW226943   0.140   4.331   3.321  0.5788 -0.0564 -0.4213
 5161SOL     OW26944   0.220   4.369   2.998 -0.1713  0.3418  0.3882
 5161SOL    HW126945   0.221   4.352   3.093  1.0367  1.9678  0.6768
 5161SOL    HW226946   0.189   4.459   3.001 -1.4520 -0.0750 -1.0519
 5162SOL     OW26947   1.828   0.182   9.580 -0.2656 -0.3973 -0.0097
 5162SOL    HW126948   1.763   0.112   9.582 -0.0569 -0.6209 -0.8779
 5162SOL    HW226949   1.777   0.246   9.630  1.4701  0.4762  0.6421
 5163SOL     OW26950   3.245   0.279   0.212  0.0316 -0.3943 -0.4309
 5163SOL    HW126951   3.304   0.343   0.172  0.8720 -3.0667 -3.5297
 5163SOL    HW226952   3.196   0.252   0.135  0.2561  1.4365 -1.2015
 5164SOL     OW26953   1.860   0.495   7.700  0.2020  1.0572  0.0438
 5164SOL    HW126954   1.835   0.403   7.690  0.9804  0.7739  0.7164
 5164SOL    HW226955   1.889   0.508   7.610  0.1186 -0.5699 -0.2042
 5165SOL     OW26956   2.978   2.542  15.276 -0.0925  0.0727  0.4021
 5165SOL    HW126957   3.013   2.573  15.360  0.2763 -0.2015  0.3456
 5165SOL    HW226958   3.050   2.487  15.247  0.2484  0.2246  0.9494
 5166SOL     OW26959   2.899   4.707   4.506  0.5481 -0.2493 -0.2659
 5166SOL    HW126960   2.878   4.623   4.463  0.1299  0.0844 -0.7118
 5166SOL    HW226961   2.885   0.031   4.424 -0.2169 -0.3705 -0.2042
 5167SOL     OW26962   2.548   0.889   8.462  0.1020  0.9489  0.0688
 5167SOL    HW126963   2.557   0.973   8.418  2.7894  1.6134  1.8842
 5167SOL    HW226964   2.463   0.860   8.429 -1.3631  1.6537  3.2303
 5168SOL     OW26965   4.520   3.881  16.344  0.1867  0.3251  0.3510
 5168SOL    HW126966   4.489   3.971  16.353 -1.2510 -0.2843  1.5340
 5168SOL    HW226967   4.606   3.889  16.302  0.7119  0.9105  1.5120
 5169SOL     OW26968   1.977   0.098  14.733 -0.2019 -0.4098  0.4237
 5169SOL    HW126969   1.952   0.186  14.707  1.5202  0.6002  2.1365
 5169SOL    HW226970   1.956   0.104  14.827 -1.0226 -0.8424  0.2705
 5170SOL     OW26971   2.388   2.499   6.641 -0.1628  0.6409 -0.1115
 5170SOL    HW126972   2.295   2.482   6.659 -0.2734 -2.2089 -3.3633
 5170SOL    HW226973   2.397   2.578   6.693 -2.1413 -0.5501  2.0319
 5171SOL     OW26974   4.490   1.734   9.320 -0.2871  0.0093 -0.2574
 5171SOL    HW126975   4.520   1.745   9.410 -0.2820 -1.4952 -0.0733
 5171SOL    HW226976   4.453   1.646   9.322 -1.3397  0.5137  1.7617
 5172SOL     OW26977   2.618   1.055   5.105  0.0566  0.0909 -0.2140
 5172SOL    HW126978   2.559   0.982   5.125 -0.5724  1.5517  3.3998
 5172SOL    HW226979   2.702   1.030   5.143 -1.5820 -1.5046  2.3641
 5173SOL     OW26980   2.433   1.297   4.489 -0.0575 -0.2070  0.1833
 5173SOL    HW126981   2.362   1.325   4.546 -0.2387  0.8299 -0.5658
 5173SOL    HW226982   2.492   1.369   4.508  1.2485 -1.6626  1.7018
 5174SOL     OW26983   1.183   3.112  11.606  0.2562 -0.1407 -0.0884
 5174SOL    HW126984   1.110   3.049  11.603  0.5051 -0.3749 -1.2619
 5174SOL    HW226985   1.196   3.105  11.511 -0.6488  1.2632 -0.3179
 5175SOL     OW26986   0.234   0.213   9.294 -0.0923  0.2308  0.0204
 5175SOL    HW126987   0.317   0.254   9.317 -0.1464 -0.1807  0.9545
 5175SOL    HW226988   0.262   0.122   9.308  0.2025  0.3186  0.0079
 5176SOL     OW26989   1.758   1.490   2.862  0.2486 -0.1147 -0.2761
 5176SOL    HW126990   1.702   1.482   2.785 -1.2672  0.0760  0.7997
 5176SOL    HW226991   1.828   1.436   2.825 -2.3600 -2.6598 -1.5171
 5177SOL     OW26992   3.967   0.775   4.373 -0.0498 -0.8322  0.0617
 5177SOL    HW126993   3.962   0.759   4.279  1.0671  0.4918 -0.2230
 5177SOL    HW226994   3.951   0.868   4.362 -0.3795 -1.0931 -1.6901
 5178SOL     OW26995   2.172   0.802   7.656 -0.1242  0.1158 -0.0438
 5178SOL    HW126996   2.170   0.717   7.701  0.5806 -0.3461 -0.8818
 5178SOL    HW226997   2.248   0.801   7.597 -0.6461  0.2072 -0.7258
 5179SOL     OW26998   3.918   3.159  11.759 -0.0450 -0.0373 -0.6589
 5179SOL    HW126999   3.897   3.250  11.738  0.4297  0.5159  1.2026
 5179SOL    HW227000   3.927   3.115  11.675 -2.1862  0.4060 -1.1118
 5180SOL     OW27001   2.226   2.238  13.726  0.2561 -0.2050 -0.7435
 5180SOL    HW127002   2.299   2.182  13.753 -1.5102 -1.1178  2.1631
 5180SOL    HW227003   2.160   2.221  13.793  2.4268 -1.6691  1.0423
 5181SOL     OW27004   2.784   2.211   9.046 -0.0603 -0.4761  0.4420
 5181SOL    HW127005   2.715   2.149   9.023  1.6021 -1.4050 -2.0153
 5181SOL    HW227006   2.743   2.295   9.024 -0.7898 -0.9637 -0.0437
 5182SOL     OW27007   4.391   2.077   4.405 -0.8124  0.0748  0.2975
 5182SOL    HW127008   4.361   1.995   4.364  3.2138 -0.6969 -1.1402
 5182SOL    HW227009   4.454   2.092   4.334 -1.9241 -0.2627 -0.7641
 5183SOL     OW27010   1.227   0.649   6.069  0.7749  0.4280 -0.0720
 5183SOL    HW127011   1.302   0.614   6.116  1.4715  1.5976 -0.3310
 5183SOL    HW227012   1.216   0.597   5.989 -1.3083  1.0443 -0.1811
 5184SOL     OW27013   1.330   3.103   9.237 -0.1837 -0.6148 -0.3338
 5184SOL    HW127014   1.262   3.036   9.247 -0.5619 -0.4148 -1.6616
 5184SOL    HW227015   1.315   3.118   9.144 -0.4324  1.7498  0.0997
 5185SOL     OW27016   2.092   0.362   3.324  0.1139 -0.3942 -0.2389
 5185SOL    HW127017   2.170   0.314   3.350  0.7650 -0.2534 -1.9470
 5185SOL    HW227018   2.081   0.316   3.241  0.9745 -1.3773  0.1871
 5186SOL     OW27019   3.257   2.983   7.272  0.1694 -0.0582 -0.2849
 5186SOL    HW127020   3.277   3.008   7.182 -2.8044  0.3396 -0.8256
 5186SOL    HW227021   3.303   3.054   7.318  2.1508 -0.0468 -2.2941
 5187SOL     OW27022   1.974   0.389   2.683  0.6451 -0.4985 -0.8732
 5187SOL    HW127023   2.026   0.384   2.763 -0.2030 -0.6916 -0.3242
 5187SOL    HW227024   2.026   0.448   2.628 -0.4107  2.5398  1.3592
 5188SOL     OW27025   2.357   2.040  16.575 -0.5123  0.6185 -0.1121
 5188SOL    HW127026   2.337   2.120  16.623 -1.5154  0.3690 -0.1170
 5188SOL    HW227027   2.271   1.998  16.564  0.6928 -2.3332  1.6867
 5189SOL     OW27028   2.865   0.420  12.729  0.0991  0.4768  0.0098
 5189SOL    HW127029   2.852   0.365  12.806  1.5017  0.4565  0.2333
 5189SOL    HW227030   2.960   0.410  12.721  0.0067 -0.2878 -0.2393
 5190SOL     OW27031   3.842   2.279   0.039 -0.1923  0.3586  0.1417
 5190SOL    HW127032   3.852   2.295  17.642  0.0210  2.1769  0.4878
 5190SOL    HW227033   3.879   2.192   0.052 -0.0263  0.4347  0.1772
 5191SOL     OW27034   1.391   1.953   3.806  0.2839  0.1442 -0.5096
 5191SOL    HW127035   1.386   2.045   3.830 -0.8928 -0.0958  0.2198
 5191SOL    HW227036   1.357   1.910   3.885 -0.0243 -1.5369 -1.5431
 5192SOL     OW27037   0.217   2.602   6.278 -0.6857 -0.2382 -0.0299
 5192SOL    HW127038   0.208   2.697   6.278 -2.3166 -0.3968  0.4853
 5192SOL    HW227039   0.294   2.588   6.334  0.8488 -3.0776 -2.8602
 5193SOL     OW27040   1.155   2.163   2.561  1.1736  0.0974  0.5061
 5193SOL    HW127041   1.223   2.210   2.608 -0.6522  3.1271  0.0998
 5193SOL    HW227042   1.184   2.178   2.471  0.1000 -1.6912 -0.1538
 5194SOL     OW27043   2.283   0.966   8.359  0.6280 -0.1931  0.3058
 5194SOL    HW127044   2.312   0.958   8.267  1.5165 -3.3274  0.8704
 5194SOL    HW227045   2.190   0.944   8.356  0.8571 -0.8989 -2.1750
 5195SOL     OW27046   3.176   1.337   4.745  0.0596 -0.3279  0.0247
 5195SOL    HW127047   3.205   1.320   4.655  1.7475  0.6923  0.3757
 5195SOL    HW227048   3.096   1.284   4.743  0.7066 -1.3559  1.2396
 5196SOL     OW27049   3.388   1.024   8.676  0.3378  0.6638 -0.6222
 5196SOL    HW127050   3.393   1.047   8.768 -1.4662  1.6635 -0.7728
 5196SOL    HW227051   3.338   0.943   8.688  2.2411 -0.2709  1.0892
 5197SOL     OW27052   3.070   3.243   9.675  0.3765 -0.2208 -0.2797
 5197SOL    HW127053   3.086   3.325   9.628 -1.0003  0.2126  0.0153
 5197SOL    HW227054   3.148   3.194   9.648 -0.3397 -1.6616  0.2747
 5198SOL     OW27055   2.888   3.315   8.840 -0.3658 -0.0147  0.0689
 5198SOL    HW127056   2.976   3.332   8.806 -0.6455 -0.6443 -0.9586
 5198SOL    HW227057   2.894   3.236   8.894  0.0857 -0.0472 -0.0310
 5199SOL     OW27058   3.319   4.310  11.611  0.1859 -0.4139 -0.0749
 5199SOL    HW127059   3.243   4.253  11.602  0.9444 -1.4360  0.0068
 5199SOL    HW227060   3.366   4.254  11.673 -1.1997  0.6854  1.9813
 5200SOL     OW27061   4.027   0.921  10.916 -0.0745  0.3801  0.3927
 5200SOL    HW127062   4.050   0.841  10.868  1.7381  0.6391  0.8001
 5200SOL    HW227063   3.993   0.881  10.996  1.7804 -2.4277 -0.1984
 5201SOL     OW27064   0.950   4.412   2.053  0.7223  0.4743  0.5995
 5201SOL    HW127065   0.984   4.323   2.040 -0.8333  0.6185 -4.3851
 5201SOL    HW227066   1.017   4.441   2.115  1.0145 -0.4978  0.7388
 5202SOL     OW27067   1.695   0.329   8.019  0.2893  0.1590 -0.0667
 5202SOL    HW127068   1.690   0.379   7.938  2.5647  2.4189  1.1870
 5202SOL    HW227069   1.783   0.293   8.020 -0.0827 -0.7570  2.3930
 5203SOL     OW27070   1.774   0.919   3.878 -0.2620  0.2545 -0.4050
 5203SOL    HW127071   1.802   0.831   3.856 -1.2659 -0.4663  1.2114
 5203SOL    HW227072   1.822   0.928   3.961  1.2604 -1.2901 -1.1268
 5204SOL     OW27073   2.381   1.092   7.650  0.4376  0.0718 -0.5536
 5204SOL    HW127074   2.318   1.114   7.581  0.8982  0.9872 -0.6867
 5204SOL    HW227075   2.318   1.078   7.720 -0.2407  2.9966 -0.5684
 5205SOL     OW27076   0.491   3.862   8.483 -0.0448  0.4799  0.1529
 5205SOL    HW127077   0.447   3.933   8.531  2.0037  0.0676  2.6158
 5205SOL    HW227078   0.536   3.906   8.411  2.2040  0.9597  1.8785
 5206SOL     OW27079   1.339   1.911  10.005  0.1007 -0.0613  0.6357
 5206SOL    HW127080   1.352   1.834  10.061  0.4613 -0.9137 -0.6188
 5206SOL    HW227081   1.244   1.924  10.003  0.2419  1.0322  1.1729
 5207SOL     OW27082   4.098   1.578   4.008  0.1314 -0.8156 -0.1959
 5207SOL    HW127083   4.149   1.604   4.084  2.3836 -0.4218 -1.8707
 5207SOL    HW227084   4.164   1.561   3.941  0.8343 -0.3944  0.4057
 5208SOL     OW27085   3.265   4.274   7.811  0.6076  0.2717  0.1374
 5208SOL    HW127086   3.232   4.238   7.729  1.0329 -1.2131  0.6162
 5208SOL    HW227087   3.266   4.366   7.785  2.0364  0.4181  0.7090
 5209SOL     OW27088   2.279   1.895  11.769  0.4257 -0.6577  0.2905
 5209SOL    HW127089   2.195   1.874  11.810  1.2129 -2.6350  0.9025
 5209SOL    HW227090   2.331   1.820  11.800  0.0499 -1.3787 -0.8402
 5210SOL     OW27091   3.891   1.374  15.159  0.0928  0.6537 -0.3318
 5210SOL    HW127092   3.858   1.316  15.227 -1.8493  2.7950  0.5640
 5210SOL    HW227093   3.827   1.445  15.165  1.0368  1.6169 -1.4016
 5211SOL     OW27094   0.517   0.272   7.531 -0.2172  0.1983 -0.0494
 5211SOL    HW127095   0.530   0.313   7.616 -0.2333  0.6870 -0.2859
 5211SOL    HW227096   0.554   0.345   7.482 -0.5359  0.8388  0.6516
 5212SOL     OW27097   0.421   2.330   3.797  0.0985  0.2808 -0.2619
 5212SOL    HW127098   0.360   2.341   3.870 -0.1901  0.4382 -0.5252
 5212SOL    HW227099   0.503   2.312   3.843  0.1352  0.9891 -0.0347
 5213SOL     OW27100   1.347   1.434  16.410  0.6577  0.5636 -0.3293
 5213SOL    HW127101   1.347   1.354  16.357 -0.2910 -0.1604  0.7595
 5213SOL    HW227102   1.424   1.437  16.466 -0.2180 -2.4950  1.0381
 5214SOL     OW27103   2.661   4.554   2.899 -0.6712 -0.4472 -0.8894
 5214SOL    HW127104   2.656   4.460   2.916 -1.6819 -0.4093 -1.0078
 5214SOL    HW227105   2.756   4.556   2.888 -0.4931  3.0987  1.5307
 5215SOL     OW27106   2.767   0.673  12.753  0.3249  0.0478 -0.1301
 5215SOL    HW127107   2.816   0.590  12.755 -2.0344 -1.3673 -1.0859
 5215SOL    HW227108   2.691   0.648  12.807  1.7938  1.5469  2.6422
 5216SOL     OW27109   0.360   3.064   3.020  0.3754  0.5994  0.0580
 5216SOL    HW127110   0.331   3.133   2.960 -0.8406 -0.6311 -0.7435
 5216SOL    HW227111   0.278   3.017   3.033  1.3783 -1.0972  0.2512
 5217SOL     OW27112   1.226   3.535  17.573 -0.3845  0.0465 -0.1712
 5217SOL    HW127113   1.290   3.530  17.644 -0.7979  1.2744  0.2890
 5217SOL    HW227114   1.263   3.472  17.512 -0.4599 -0.5728  0.4221
 5218SOL     OW27115   1.928   3.707   5.264 -0.2004  0.3746  0.1729
 5218SOL    HW127116   2.023   3.712   5.253 -0.2090  1.2891  0.4982
 5218SOL    HW227117   1.910   3.636   5.325 -2.2125 -1.2758 -2.3232
 5219SOL     OW27118   3.520   2.353  17.406  0.8997 -1.0341 -0.4955
 5219SOL    HW127119   3.513   2.306  17.489 -1.6327  0.6716  0.2364
 5219SOL    HW227120   3.576   2.426  17.432 -2.1308  0.3479  2.1338
 5220SOL     OW27121   3.450   3.364   1.646 -0.1483 -0.4833  0.6016
 5220SOL    HW127122   3.431   3.436   1.586 -0.1291 -1.6615 -0.8147
 5220SOL    HW227123   3.539   3.391   1.671  0.0197  0.7573 -1.3410
 5221SOL     OW27124   2.776   2.708   0.279  0.9404  0.3046 -0.4108
 5221SOL    HW127125   2.863   2.669   0.283  0.0497 -1.8824 -2.3077
 5221SOL    HW227126   2.743   2.668   0.360  0.3206  1.7013  0.0277
 5222SOL     OW27127   3.792   4.115   6.560 -0.1877 -0.2897 -0.1486
 5222SOL    HW127128   3.782   4.192   6.503  0.2937 -0.7678 -0.8674
 5222SOL    HW227129   3.795   4.035   6.508  0.9618 -0.3431 -0.0124
 5223SOL     OW27130   0.621   4.276   7.296  0.2469  0.3378  0.0613
 5223SOL    HW127131   0.623   4.370   7.312  2.1372  0.3126 -0.0807
 5223SOL    HW227132   0.680   4.269   7.220 -0.1855  0.6196 -0.3040
 5224SOL     OW27133   1.279   3.375  17.171 -0.1661 -0.4000  0.3193
 5224SOL    HW127134   1.284   3.328  17.254 -0.6499  0.3744  0.7806
 5224SOL    HW227135   1.341   3.447  17.181  0.0585 -0.5170 -0.2250
 5225SOL     OW27136   2.194   1.711   9.324  0.3892  0.8633  0.1841
 5225SOL    HW127137   2.252   1.682   9.394 -0.0627  0.7196  0.5013
 5225SOL    HW227138   2.252   1.763   9.269 -0.6446 -0.2499 -1.9507
 5226SOL     OW27139   4.031   1.491   5.540  0.0433 -0.3010  0.4411
 5226SOL    HW127140   3.966   1.476   5.610  0.7421 -1.5001  0.8279
 5226SOL    HW227141   4.106   1.469   5.594  1.3105  3.5165  0.2341
 5227SOL     OW27142   1.572   0.121  16.115 -0.2066 -0.1769  0.1491
 5227SOL    HW127143   1.595   0.180  16.187 -0.8700  2.2949 -1.6616
 5227SOL    HW227144   1.488   0.157  16.088 -1.2305 -1.3688  1.7785
 5228SOL     OW27145   1.508   4.453   2.957 -0.3835 -0.2395  0.0247
 5228SOL    HW127146   1.576   4.428   2.895  1.1630  1.5093  1.0395
 5228SOL    HW227147   1.535   4.530   3.007 -2.7981 -0.0020  0.9987
 5229SOL     OW27148   2.092   3.771  13.770 -0.0764 -0.0654 -0.0899
 5229SOL    HW127149   2.108   3.827  13.846  0.1846 -1.6927  1.0624
 5229SOL    HW227150   2.104   3.827  13.694  3.6979  0.7001  1.0782
 5230SOL     OW27151   1.963   1.477   3.666 -0.4127  0.4620 -0.1128
 5230SOL    HW127152   1.951   1.560   3.622  0.8516  1.4007  1.3002
 5230SOL    HW227153   2.007   1.501   3.748 -0.0954 -1.0448  0.1661
 5231SOL     OW27154   1.934   0.755   2.646  0.0136  0.2023  0.4755
 5231SOL    HW127155   1.997   0.685   2.624 -0.5030 -0.0377 -0.2460
 5231SOL    HW227156   1.961   0.825   2.587 -0.6935  0.0949  0.0347
 5232SOL     OW27157   3.935   2.377   8.077  0.2737 -0.1666 -0.1679
 5232SOL    HW127158   3.930   2.364   7.982  0.7734  0.9763 -0.3619
 5232SOL    HW227159   3.878   2.453   8.086 -0.5962 -0.7981 -0.4017
 5233SOL     OW27160   3.502   3.810   2.947 -0.3550  0.1424  0.1484
 5233SOL    HW127161   3.478   3.718   2.953  0.3659 -0.1227 -1.0371
 5233SOL    HW227162   3.596   3.802   2.932  0.1437  3.1403  1.6070
 5234SOL     OW27163   1.213   2.193   7.968 -0.0995  0.5362  0.2270
 5234SOL    HW127164   1.122   2.186   7.939 -0.1965  0.5156  0.5354
 5234SOL    HW227165   1.207   2.277   8.013 -1.5716  1.5345 -1.8415
 5235SOL     OW27166   0.486   4.388   5.326  0.4578  0.6284  0.3537
 5235SOL    HW127167   0.550   4.320   5.302 -1.2865 -0.5162 -1.0705
 5235SOL    HW227168   0.532   4.426   5.401  1.1224 -1.4865  1.0383
 5236SOL     OW27169   2.940   0.864   9.613 -0.2345 -0.7903 -0.2058
 5236SOL    HW127170   2.859   0.814   9.620  0.7927 -2.5428 -0.6131
 5236SOL    HW227171   3.007   0.796   9.600 -1.0262 -0.9415 -3.4838
 5237SOL     OW27172   2.297   0.356   0.288  0.1726  0.6545 -0.2741
 5237SOL    HW127173   2.371   0.395   0.336 -1.3702  0.8764  1.9229
 5237SOL    HW227174   2.235   0.429   0.294 -1.7295 -0.6914 -4.2682
 5238SOL     OW27175   1.669   3.460   9.587  0.1304 -0.3568 -0.0507
 5238SOL    HW127176   1.656   3.554   9.572  0.8707 -0.1730  0.4605
 5238SOL    HW227177   1.743   3.436   9.530 -2.8496 -0.4764 -3.9023
 5239SOL     OW27178   1.219   3.828  11.933  0.6141 -0.6520 -0.4929
 5239SOL    HW127179   1.165   3.812  11.855 -2.1663 -1.8569  1.6899
 5239SOL    HW227180   1.151   3.832  12.000  1.6699  3.1914  0.3547
 5240SOL     OW27181   1.759   4.217   1.943 -0.4074  0.2390 -0.0757
 5240SOL    HW127182   1.715   4.157   1.882 -0.7992  0.0813  0.3708
 5240SOL    HW227183   1.736   4.192   2.032  0.5721  0.7441  0.3176
 5241SOL     OW27184   0.319   3.877   1.301 -0.0531  0.0451 -0.3958
 5241SOL    HW127185   0.304   3.859   1.209 -0.1355 -0.7193 -0.2416
 5241SOL    HW227186   0.251   3.818   1.334  0.7968  1.2508  3.5423
 5242SOL     OW27187   3.183   2.769   1.647 -0.2192  0.1256  0.4081
 5242SOL    HW127188   3.237   2.702   1.688 -0.1525  0.3782  0.7344
 5242SOL    HW227189   3.104   2.777   1.700  0.0565  0.4324  0.7725
 5243SOL     OW27190   4.487   2.701   2.676  0.2667 -0.2229  0.0226
 5243SOL    HW127191   4.521   2.735   2.759  1.3606  1.5657 -1.1446
 5243SOL    HW227192   4.452   2.618   2.709 -2.6022 -0.0584 -2.6616
 5244SOL     OW27193   3.265   3.804  12.425 -0.0167  0.3933 -0.2866
 5244SOL    HW127194   3.326   3.807  12.499 -0.7967 -2.0134  0.4643
 5244SOL    HW227195   3.189   3.758  12.459 -0.2054 -1.0383 -2.6312
 5245SOL     OW27196   0.538   3.577  17.672 -0.3214 -0.1075  0.2391
 5245SOL    HW127197   0.483   3.502  17.652 -1.9262  0.3097  3.0955
 5245SOL    HW227198   0.470   3.627   0.020  0.8486  0.2745  1.5913
 5246SOL     OW27199   4.123   2.621   3.312  0.1915  0.0434  0.9106
 5246SOL    HW127200   4.197   2.677   3.337  1.7722 -1.1166 -1.1769
 5246SOL    HW227201   4.174   2.569   3.249  1.2124  2.4773 -0.2967
 5247SOL     OW27202   1.594   3.064  15.008  0.1948 -0.3781 -0.1662
 5247SOL    HW127203   1.671   3.095  15.056  2.3865 -0.2904 -3.7742
 5247SOL    HW227204   1.527   3.120  15.049  0.1916 -0.4009 -0.1409
 5248SOL     OW27205   1.742   2.100   1.727 -0.1174  0.2675  0.2914
 5248SOL    HW127206   1.810   2.061   1.672 -0.0054  0.6915  0.1365
 5248SOL    HW227207   1.799   2.156   1.779 -1.4651  0.6966  1.3050
 5249SOL     OW27208   1.307   4.671   3.586  0.0213 -0.3442  0.1403
 5249SOL    HW127209   1.349   4.677   3.501 -2.8889 -1.6590 -1.4074
 5249SOL    HW227210   1.308   0.040   3.608 -0.5419 -0.5953  1.2548
 5250SOL     OW27211   3.359   1.426   6.968 -0.6242 -0.1633 -0.1742
 5250SOL    HW127212   3.267   1.421   6.941  0.2019  0.6973 -3.2293
 5250SOL    HW227213   3.405   1.422   6.884  0.7432  0.9222  0.5496
 5251SOL     OW27214   1.757   4.123   8.721 -0.3154 -0.6555 -0.1151
 5251SOL    HW127215   1.700   4.143   8.795 -2.2510  1.2307 -2.1137
 5251SOL    HW227216   1.824   4.190   8.732 -2.0733  1.1310 -0.3236
 5252SOL     OW27217   1.418   3.688   1.187 -0.6129  0.2046 -0.8840
 5252SOL    HW127218   1.343   3.735   1.150 -1.6555 -0.2774  0.6015
 5252SOL    HW227219   1.391   3.601   1.158  0.6048 -0.4505 -0.0327
 5253SOL     OW27220   0.664   0.938   3.398 -0.2103 -0.7011  0.2716
 5253SOL    HW127221   0.717   0.993   3.339 -0.8331  1.9378  2.1446
 5253SOL    HW227222   0.573   0.950   3.371 -0.7065 -1.8497  1.4463
 5254SOL     OW27223   0.648   2.903   3.288  0.1746 -0.1311  0.1921
 5254SOL    HW127224   0.634   2.981   3.235 -1.3293 -0.4258  0.1403
 5254SOL    HW227225   0.741   2.911   3.308  0.1600  0.9768 -0.2159
 5255SOL     OW27226   3.489   0.140   0.113 -0.7303 -0.2798  0.3403
 5255SOL    HW127227   3.463   0.114   0.201  0.5105 -2.1804  0.1400
 5255SOL    HW227228   3.580   0.112   0.105 -0.6086  0.5244 -1.2594
 5256SOL     OW27229   3.586   4.575   4.290 -0.7985  0.2759 -0.2173
 5256SOL    HW127230   3.585   4.587   4.195 -0.5011  1.0633 -0.1176
 5256SOL    HW227231   3.510   4.516   4.298 -1.8035  1.6191  0.1687
 5257SOL     OW27232   1.231   0.396   3.061  0.0376  0.0885 -0.3814
 5257SOL    HW127233   1.295   0.377   2.992 -0.6611  1.0046 -1.2766
 5257SOL    HW227234   1.241   0.326   3.126 -2.9301 -1.8620 -2.0162
 5258SOL     OW27235   2.054   3.497   2.170 -1.2854  0.2400 -0.4152
 5258SOL    HW127236   2.148   3.512   2.163 -1.2005 -1.1047 -2.0897
 5258SOL    HW227237   2.032   3.589   2.188  1.5651  0.7562  0.4044
 5259SOL     OW27238   1.499   1.993  13.492 -0.4985 -0.1867  0.1200
 5259SOL    HW127239   1.447   1.918  13.465 -0.6608 -0.5909  1.5426
 5259SOL    HW227240   1.566   2.005  13.424 -0.1133  0.4069  0.6070
 5260SOL     OW27241   0.008   1.041  16.214  0.0785  0.2940 -0.1653
 5260SOL    HW127242   0.016   0.950  16.245 -0.8522 -0.4484 -2.1076
 5260SOL    HW227243   4.646   1.034  16.174 -0.8842 -0.2827  1.9626
 5261SOL     OW27244   3.811   3.687   3.244  0.1677 -0.0345  0.5035
 5261SOL    HW127245   3.817   3.780   3.223  1.0353  0.4566  2.9626
 5261SOL    HW227246   3.898   3.651   3.230 -1.1762 -2.3326 -1.9162
 5262SOL     OW27247   1.213   3.069   7.906  0.3675  0.2389  0.0191
 5262SOL    HW127248   1.197   3.019   7.825  3.0363 -0.1117 -0.3228
 5262SOL    HW227249   1.309   3.078   7.906  0.2496  1.4823 -1.3500
 5263SOL     OW27250   3.525   0.191   4.214 -0.1444  0.1984  0.0326
 5263SOL    HW127251   3.584   0.247   4.266  1.7684 -0.3707 -1.5317
 5263SOL    HW227252   3.560   0.105   4.234  0.0804  0.4426  0.6973
 5264SOL     OW27253   1.454   3.603   4.653  0.1779 -0.3723 -0.2105
 5264SOL    HW127254   1.367   3.565   4.638 -0.2006  0.1652  0.5910
 5264SOL    HW227255   1.466   3.572   4.743  1.2390 -1.1113 -0.6120
 5265SOL     OW27256   2.064   2.687   3.946  0.4378 -0.4412  0.4600
 5265SOL    HW127257   2.013   2.747   4.001 -2.1349 -0.5991 -1.7125
 5265SOL    HW227258   2.124   2.645   4.007  1.5566 -0.1938 -0.4617
 5266SOL     OW27259   4.669   2.096   6.489 -0.2049  0.3787 -0.3169
 5266SOL    HW127260   4.602   2.045   6.535  1.2577 -0.3840  0.9676
 5266SOL    HW227261   0.003   2.128   6.558  0.2607 -1.6344  0.2422
 5267SOL     OW27262   1.643   2.203   8.893  0.5977 -0.2763 -0.4037
 5267SOL    HW127263   1.709   2.133   8.889 -0.9416 -1.8934  2.5246
 5267SOL    HW227264   1.592   2.173   8.968  0.1170  2.2061  0.2585
 5268SOL     OW27265   3.874   0.849   6.371  0.1001  0.0082  0.0650
 5268SOL    HW127266   3.790   0.815   6.402  0.5839  1.7296  3.2057
 5268SOL    HW227267   3.868   0.843   6.275 -1.2353 -0.7135  0.2022
 5269SOL     OW27268   0.365   3.980  17.099 -0.2041  0.2899  0.7146
 5269SOL    HW127269   0.439   4.040  17.102 -0.2807  0.3480  1.6649
 5269SOL    HW227270   0.380   3.943  17.186  0.4049 -0.0025  0.4870
 5270SOL     OW27271   3.393   4.143  10.930 -0.2000  0.3133  0.5365
 5270SOL    HW127272   3.343   4.215  10.968 -1.3542 -1.1273  1.7370
 5270SOL    HW227273   3.457   4.189  10.877  0.8110 -1.0269  0.6029
 5271SOL     OW27274   2.239   0.235  12.540  0.1619  0.1280 -0.1334
 5271SOL    HW127275   2.227   0.299  12.610  0.6301  1.3095 -1.1382
 5271SOL    HW227276   2.205   0.159  12.588  0.2660 -1.0425 -1.9043
 5272SOL     OW27277   3.085   4.013   6.853  0.0689  0.6091  0.7314
 5272SOL    HW127278   3.174   4.030   6.823 -1.0816  1.5890 -2.2083
 5272SOL    HW227279   3.057   4.092   6.900 -1.1049  2.1932 -2.6401
 5273SOL     OW27280   4.189   2.459   6.883 -0.3676  0.3553  0.4451
 5273SOL    HW127281   4.267   2.502   6.916 -0.3711 -0.0823  1.0235
 5273SOL    HW227282   4.153   2.422   6.964  0.8440  0.8076  1.1927
 5274SOL     OW27283   1.407   4.055   6.129 -0.2057 -0.2006  0.0042
 5274SOL    HW127284   1.405   4.150   6.144 -1.2398 -0.0967 -0.8147
 5274SOL    HW227285   1.474   4.037   6.063 -0.3046 -0.0589 -0.1331
 5275SOL     OW27286   4.382   0.178  16.523  0.9370 -0.1959 -0.2022
 5275SOL    HW127287   4.469   0.150  16.498  1.4069 -1.2517  2.5707
 5275SOL    HW227288   4.336   0.189  16.440 -0.2738 -1.0897  0.3429
 5276SOL     OW27289   2.703   1.188   8.003  0.0168  0.0232  0.2657
 5276SOL    HW127290   2.669   1.098   8.004 -1.7121  0.6697 -3.2572
 5276SOL    HW227291   2.686   1.212   7.913 -0.0590 -0.1696  0.2286
 5277SOL     OW27292   2.244   0.619  13.661  0.1117  0.8613  0.5067
 5277SOL    HW127293   2.155   0.653  13.660 -0.1516  0.1476  0.0335
 5277SOL    HW227294   2.222   0.528  13.640 -0.3406  0.6987  1.7394
 5278SOL     OW27295   2.499   3.078  10.952 -0.1249 -0.4204 -0.0596
 5278SOL    HW127296   2.496   3.064  11.047 -0.3291 -3.3749 -0.4845
 5278SOL    HW227297   2.568   3.016  10.929 -0.7848 -0.5654 -1.6033
 5279SOL     OW27298   2.033   3.677   4.229 -0.0531  0.4118  0.9685
 5279SOL    HW127299   1.950   3.680   4.276  0.4647  0.2679  1.8933
 5279SOL    HW227300   1.998   3.682   4.140 -0.9159 -2.2081  1.1416
 5280SOL     OW27301   1.090   4.170   5.344 -0.1727  0.1079 -0.7252
 5280SOL    HW127302   1.158   4.189   5.279 -1.1797  0.5411 -1.6695
 5280SOL    HW227303   1.142   4.139   5.417  1.5282  1.7909 -1.2300
 5281SOL     OW27304   4.570   4.578   1.709  0.0675 -0.2565 -0.0065
 5281SOL    HW127305   4.621   4.582   1.790  1.1273 -0.0447 -0.6763
 5281SOL    HW227306   4.503   4.645   1.722 -1.0957 -1.5173  0.3786
 5282SOL     OW27307   1.677   4.127   3.038  0.2047 -0.3526  0.0600
 5282SOL    HW127308   1.722   4.206   3.067 -1.4910  1.0201 -1.0256
 5282SOL    HW227309   1.704   4.065   3.106  0.1108 -0.0034  0.4169
 5283SOL     OW27310   0.582   1.534  15.840 -0.2377 -0.0203  0.5607
 5283SOL    HW127311   0.510   1.529  15.903 -1.6990 -0.5982 -1.1705
 5283SOL    HW227312   0.538   1.531  15.756  2.2263 -0.1313 -0.7306
 5284SOL     OW27313   0.253   0.253   8.138  0.3477 -0.6982  0.1964
 5284SOL    HW127314   0.193   0.311   8.187 -0.8952 -2.4127  0.6919
 5284SOL    HW227315   0.241   0.170   8.183  0.3362 -0.4603  0.6386
 5285SOL     OW27316   0.009   0.713  14.524 -0.4317 -0.2888  0.3485
 5285SOL    HW127317   4.654   0.664  14.547 -0.7074 -0.8058 -1.6324
 5285SOL    HW227318   0.081   0.665  14.564 -0.8098 -1.0639  0.1025
 5286SOL     OW27319   3.609   3.753   2.423 -0.1834  0.5672  0.2433
 5286SOL    HW127320   3.615   3.738   2.517  1.7884 -1.3059 -0.1640
 5286SOL    HW227321   3.604   3.668   2.379 -0.4137 -0.1298  1.6291
 5287SOL     OW27322   2.713   3.969  15.479  0.4648 -0.3455 -0.3617
 5287SOL    HW127323   2.732   3.891  15.427  2.2020 -0.1550 -0.0139
 5287SOL    HW227324   2.783   3.976  15.543  1.8384 -0.6883 -1.8325
 5288SOL     OW27325   3.403   4.585   1.915 -0.0958 -0.2494 -0.2113
 5288SOL    HW127326   3.444   4.525   1.978  1.6202  2.3842  1.2014
 5288SOL    HW227327   3.313   4.578   1.947  0.3225  1.2615  1.3244
 5289SOL     OW27328   2.783   0.410   5.927 -0.1126  0.0240 -0.1758
 5289SOL    HW127329   2.760   0.343   5.991  1.0400 -1.0538 -0.8936
 5289SOL    HW227330   2.811   0.356   5.853  0.4680 -1.6168  1.2471
 5290SOL     OW27331   2.040   4.697   3.462  0.3186  0.2621  0.3637
 5290SOL    HW127332   2.026   4.635   3.390  2.3661  0.4328 -0.1765
 5290SOL    HW227333   2.044   4.634   3.534  0.7752 -0.3817 -0.2256
 5291SOL     OW27334   3.528   3.542   6.436  0.2817 -0.4134 -0.2762
 5291SOL    HW127335   3.527   3.617   6.495  0.5511  1.1554 -2.2539
 5291SOL    HW227336   3.543   3.601   6.361  0.7227 -1.2631 -0.8471
 5292SOL     OW27337   1.277   0.668   8.916 -0.7598  0.4833  0.3080
 5292SOL    HW127338   1.216   0.609   8.959 -1.7300  0.3019 -1.2819
 5292SOL    HW227339   1.216   0.706   8.852 -4.9769 -3.6869  1.8633
 5293SOL     OW27340   1.088   3.783   3.582  0.0048  0.4189 -0.3015
 5293SOL    HW127341   1.091   3.863   3.529  0.1301  0.4498 -0.2457
 5293SOL    HW227342   1.161   3.727   3.558 -0.3321  0.0988 -0.5856
 5294SOL     OW27343   3.527   1.055   3.419  0.4158 -0.0339  0.3506
 5294SOL    HW127344   3.593   1.032   3.485  2.2696  1.0396 -1.1128
 5294SOL    HW227345   3.493   1.143   3.436 -0.0351 -0.4880  1.7334
 5295SOL     OW27346   0.946   2.291  16.545 -0.0717 -0.7759  0.5057
 5295SOL    HW127347   0.928   2.263  16.635 -1.2734  0.3475  0.6093
 5295SOL    HW227348   0.992   2.371  16.569  1.3650 -0.8387 -2.0495
 5296SOL     OW27349   4.508   0.914   0.030  0.8117  0.2098 -0.2856
 5296SOL    HW127350   4.485   0.987  17.669 -2.5361 -0.1290  0.5768
 5296SOL    HW227351   4.602   0.929   0.040  0.9159 -1.2262  0.7091
 5297SOL     OW27352   1.675   4.514   6.268  0.6974  0.6406  0.1063
 5297SOL    HW127353   1.758   4.517   6.315  0.9892  0.2501 -0.3935
 5297SOL    HW227354   1.640   4.598   6.238  1.5113  1.4195  1.3429
 5298SOL     OW27355   3.725   4.232   0.905  0.2643  0.5719 -0.2799
 5298SOL    HW127356   3.635   4.231   0.938  0.1965 -3.0666 -0.6065
 5298SOL    HW227357   3.773   4.173   0.963 -2.6041  1.8148  3.3535
 5299SOL     OW27358   0.551   3.481   5.313 -0.2458  0.5028  0.4524
 5299SOL    HW127359   0.481   3.478   5.378 -1.3436  0.8527 -0.7189
 5299SOL    HW227360   0.611   3.420   5.354 -1.0794 -1.4432 -1.2228
 5300SOL     OW27361   1.087   2.159  10.713  0.0165 -0.4854 -0.1681
 5300SOL    HW127362   1.053   2.191  10.797  0.3922 -1.2414  0.2771
 5300SOL    HW227363   1.052   2.073  10.690  1.2952 -1.2020  0.5491
 5301SOL     OW27364   3.193   2.964   6.352  0.1533 -0.6015 -0.3491
 5301SOL    HW127365   3.262   2.951   6.286  1.0376 -0.0572  0.4645
 5301SOL    HW227366   3.175   2.872   6.373 -0.5840 -1.2911 -3.9417
 5302SOL     OW27367   0.872   1.166   8.183  0.4979 -0.4660 -0.1471
 5302SOL    HW127368   0.930   1.161   8.259 -0.1710  1.8529  0.5139
 5302SOL    HW227369   0.832   1.078   8.183  0.5601 -0.4954  0.1232
 5303SOL     OW27370   2.563   4.359   3.242  0.1801  0.1672  0.5565
 5303SOL    HW127371   2.603   4.433   3.289  1.3305 -0.7683  1.0547
 5303SOL    HW227372   2.550   4.305   3.321 -0.6070 -0.7733 -0.2246
 5304SOL     OW27373   3.671   0.059   7.660 -0.2544 -0.0614 -0.3724
 5304SOL    HW127374   3.762   0.053   7.632  0.1865 -1.9267  1.4644
 5304SOL    HW227375   3.661   0.150   7.632  1.0000 -0.0985 -0.9569
 5305SOL     OW27376   4.100   4.592   1.905 -0.1087  0.1363 -0.0642
 5305SOL    HW127377   4.120   4.532   1.833 -0.9696  1.2005 -1.1955
 5305SOL    HW227378   4.058   4.531   1.966 -0.2211 -1.9303 -2.1922
 5306SOL     OW27379   3.066   2.124   7.077  0.1024  0.7651  0.3081
 5306SOL    HW127380   3.017   2.086   7.004  2.0821  2.9266 -2.1783
 5306SOL    HW227381   3.089   2.046   7.128 -1.2178 -0.3410 -0.8176
 5307SOL     OW27382   0.978   2.885  11.607 -0.5430  0.0116 -0.0334
 5307SOL    HW127383   0.897   2.843  11.577 -1.9478  1.6076  1.5469
 5307SOL    HW227384   1.031   2.806  11.617 -1.0548 -0.3671 -0.3275
 5308SOL     OW27385   1.197   2.133   9.187 -0.1770 -0.4848  0.7077
 5308SOL    HW127386   1.231   2.202   9.244 -0.6226 -0.5723  1.0812
 5308SOL    HW227387   1.139   2.185   9.131 -0.3089 -2.4068 -0.9194
 5309SOL     OW27388   1.397   2.095   1.698  0.2174 -0.0282 -0.2996
 5309SOL    HW127389   1.347   2.157   1.644  1.6828  0.8294 -0.6835
 5309SOL    HW227390   1.360   2.015   1.661  1.3934  0.4225 -2.4023
 5310SOL     OW27391   3.810   3.690   7.240 -0.4025 -0.5362  0.7010
 5310SOL    HW127392   3.860   3.751   7.294 -0.1990 -2.1969  2.3538
 5310SOL    HW227393   3.856   3.612   7.271  0.5492 -0.5752 -0.7820
 5311SOL     OW27394   1.523   1.206   5.117  0.1176 -0.0295 -0.1374
 5311SOL    HW127395   1.556   1.271   5.056  2.3774  0.3884  1.5422
 5311SOL    HW227396   1.569   1.221   5.199  0.0461  0.2408 -0.1471
 5312SOL     OW27397   2.162   2.581   3.724  0.8294  0.1329 -0.2258
 5312SOL    HW127398   2.121   2.627   3.797 -0.2829 -1.8061  0.3669
 5312SOL    HW227399   2.243   2.633   3.716  0.3690  0.9840  0.6094
 5313SOL     OW27400   0.710   2.299   5.611 -0.0569 -0.0277  0.0710
 5313SOL    HW127401   0.703   2.231   5.679  1.0637  0.0151  0.2234
 5313SOL    HW227402   0.677   2.376   5.658 -1.5138 -1.2680  1.0781
 5314SOL     OW27403   2.601   2.830   6.613 -0.0184  0.2782  0.1163
 5314SOL    HW127404   2.694   2.806   6.605 -0.3728 -1.5910  1.4221
 5314SOL    HW227405   2.599   2.925   6.606 -2.7063  0.2090 -0.2098
 5315SOL     OW27406   3.676   1.747  15.489  0.2959  0.0691 -0.4973
 5315SOL    HW127407   3.740   1.693  15.536 -1.1375  0.2365  1.6642
 5315SOL    HW227408   3.727   1.820  15.453 -0.4429  0.9396  0.2044
 5316SOL     OW27409   0.688   2.287   5.323 -0.4512 -0.1434 -0.0322
 5316SOL    HW127410   0.609   2.236   5.307 -1.2965  1.2928 -0.4536
 5316SOL    HW227411   0.654   2.322   5.405  1.0962  0.1320  0.4962
 5317SOL     OW27412   2.171   1.394  15.604  0.3556  0.2215  0.4404
 5317SOL    HW127413   2.211   1.321  15.557 -1.6177  0.3595 -1.4627
 5317SOL    HW227414   2.130   1.359  15.683 -1.2870 -1.4483 -1.1426
 5318SOL     OW27415   0.108   1.679  16.900 -0.3956  1.0712 -0.2130
 5318SOL    HW127416   0.139   1.762  16.937  1.2092 -0.5682  2.1178
 5318SOL    HW227417   0.166   1.624  16.952 -0.1081  0.4525 -1.1939
 5319SOL     OW27418   3.060   1.956   9.264  0.1810 -0.2769 -0.2025
 5319SOL    HW127419   3.101   1.923   9.344 -0.5465  2.4895  1.2871
 5319SOL    HW227420   3.014   2.034   9.296 -2.5579 -1.3167 -1.6045
 5320SOL     OW27421   3.073   2.323   7.262 -0.4691  0.1667  0.0482
 5320SOL    HW127422   3.035   2.264   7.327 -1.7866 -0.7417 -1.5477
 5320SOL    HW227423   3.075   2.271   7.182  1.6510 -0.3767  0.4377
 5321SOL     OW27424   4.497   0.743   8.643  0.0804 -0.2843  0.2370
 5321SOL    HW127425   4.450   0.800   8.703 -1.4798 -0.3161 -0.9316
 5321SOL    HW227426   4.445   0.736   8.562  0.1195 -0.0992  0.1974
 5322SOL     OW27427   4.120   4.478  17.302 -0.4304  0.2002  0.0175
 5322SOL    HW127428   4.197   4.521  17.339 -1.6717  1.4615  1.0837
 5322SOL    HW227429   4.058   4.549  17.291  0.7066  1.0953 -0.6157
 5323SOL     OW27430   2.882   2.570   2.760 -0.0764 -0.2661  0.4185
 5323SOL    HW127431   2.881   2.474   2.748 -0.2176 -0.2335  0.1449
 5323SOL    HW227432   2.805   2.591   2.706  0.6555 -1.8606 -1.2771
 5324SOL     OW27433   0.652   3.464   6.886  0.5144 -0.3111  0.1589
 5324SOL    HW127434   0.562   3.435   6.895 -0.3568  3.1623  2.7368
 5324SOL    HW227435   0.648   3.549   6.932  1.3178 -0.7161  0.9834
 5325SOL     OW27436   0.995   0.643  14.767  0.3378  0.2675  0.2780
 5325SOL    HW127437   0.987   0.685  14.853  0.7112  1.3526 -0.2174
 5325SOL    HW227438   0.917   0.587  14.764  0.9981 -0.6509  0.1246
 5326SOL     OW27439   0.537   2.529   0.179  0.4852  0.6045  0.0047
 5326SOL    HW127440   0.572   2.606   0.136 -0.4911  1.6365  1.0496
 5326SOL    HW227441   0.538   2.466   0.107 -0.3109  0.5170  0.0654
 5327SOL     OW27442   0.415   1.131   6.543 -0.1078  0.0079  0.2020
 5327SOL    HW127443   0.436   1.222   6.521  0.6564  0.0734  1.2008
 5327SOL    HW227444   0.341   1.146   6.602  0.6060  0.0553  1.0847
 5328SOL     OW27445   1.988   2.275   6.476 -0.4940 -0.4318 -0.1930
 5328SOL    HW127446   1.907   2.321   6.494 -1.9413 -2.7580 -0.8323
 5328SOL    HW227447   1.957   2.185   6.485  0.4513 -0.6203  1.2122
 5329SOL     OW27448   1.541   0.024  10.190 -0.4659 -0.0914 -0.5351
 5329SOL    HW127449   1.544   0.102  10.135 -0.0741  0.6484  0.5133
 5329SOL    HW227450   1.565   4.675  10.134  1.6320 -0.2361  0.5294
 5330SOL     OW27451   3.986   1.202   3.306 -0.1863 -0.1052 -0.1766
 5330SOL    HW127452   4.011   1.190   3.214 -1.7578 -0.3382 -0.5859
 5330SOL    HW227453   3.896   1.232   3.293  0.2495  1.3414  0.2033
 5331SOL     OW27454   4.489   1.510   7.369 -0.2204 -0.5958 -0.2950
 5331SOL    HW127455   4.404   1.475   7.342 -1.0500  1.4110 -0.3134
 5331SOL    HW227456   4.538   1.518   7.286  1.8716 -0.2095  0.9728
 5332SOL     OW27457   4.335   3.876   1.046  0.3103 -0.0810  0.0719
 5332SOL    HW127458   4.328   3.960   1.002  1.7895 -0.1732 -0.3526
 5332SOL    HW227459   4.245   3.874   1.076  0.6410  2.1702  1.1980
 5333SOL     OW27460   4.557   4.605   2.587 -0.1485 -0.0375 -0.4124
 5333SOL    HW127461   4.632   4.610   2.647  0.9357  0.3395 -1.7967
 5333SOL    HW227462   4.488   4.585   2.650 -0.7810 -0.7195 -1.3223
 5334SOL     OW27463   1.053   4.035   2.545  0.0436  1.2221 -0.4436
 5334SOL    HW127464   0.958   4.041   2.537 -0.2678 -2.6112  0.1726
 5334SOL    HW227465   1.064   4.055   2.638 -0.4041 -0.5716 -0.0031
 5335SOL     OW27466   0.510   4.431  15.512  0.3488 -0.0799 -0.1382
 5335SOL    HW127467   0.448   4.401  15.579  0.4120 -1.9488 -0.9119
 5335SOL    HW227468   0.493   4.525  15.517  2.4144  0.2425  0.6548
 5336SOL     OW27469   1.394   3.502  15.373 -0.0910  0.5379 -0.2633
 5336SOL    HW127470   1.326   3.563  15.400 -1.4468 -1.2420  0.4036
 5336SOL    HW227471   1.353   3.425  15.333 -0.2236  1.1281 -1.2588
 5337SOL     OW27472   0.460   2.547   7.458 -0.1522  0.2235  0.3966
 5337SOL    HW127473   0.381   2.564   7.407 -0.0601  1.0234  0.5134
 5337SOL    HW227474   0.532   2.559   7.396 -0.7126 -1.4519 -0.5875
 5338SOL     OW27475   2.424   3.176   3.988 -0.3207  0.2616 -0.3300
 5338SOL    HW127476   2.347   3.213   3.946  0.3671 -2.9154 -4.3774
 5338SOL    HW227477   2.482   3.248   3.962 -0.1873  0.1916 -0.2288
 5339SOL     OW27478   4.658   0.211   3.369  0.3719  0.1681 -0.0314
 5339SOL    HW127479   4.655   0.263   3.288  1.8293 -0.3677 -0.4392
 5339SOL    HW227480   4.577   0.161   3.360 -0.6381  2.1423 -1.9731
 5340SOL     OW27481   1.932   2.858   8.780  0.2290 -0.1325  0.1355
 5340SOL    HW127482   1.944   2.820   8.867  3.0166  0.1861 -0.0943
 5340SOL    HW227483   1.927   2.952   8.798 -0.3743 -0.0679 -0.3991
 5341SOL     OW27484   3.173   3.171   2.482  0.0426 -0.0813 -0.0508
 5341SOL    HW127485   3.079   3.189   2.492  0.1979  0.6557  0.0472
 5341SOL    HW227486   3.202   3.260   2.466 -0.3846 -0.1858 -1.4772
 5342SOL     OW27487   3.369   2.073   6.876  0.3854 -0.2903  0.5735
 5342SOL    HW127488   3.320   2.025   6.808  1.2771 -0.6081  0.1549
 5342SOL    HW227489   3.371   1.998   6.935 -0.5025 -0.3344  0.5472
 5343SOL     OW27490   3.915   2.680   8.295  0.4757 -0.1562  0.3219
 5343SOL    HW127491   3.864   2.673   8.214  1.2097 -1.2627 -0.0394
 5343SOL    HW227492   3.844   2.674   8.358  0.0259  0.3649 -0.1271
 5344SOL     OW27493   2.757   0.661   9.768 -0.3392  0.0748  0.7486
 5344SOL    HW127494   2.826   0.615   9.721 -1.4922  0.3931 -1.2718
 5344SOL    HW227495   2.702   0.685   9.693 -2.1638  0.1926  2.1111
 5345SOL     OW27496   1.504   0.788   5.657  0.9656 -0.0508  0.0154
 5345SOL    HW127497   1.429   0.769   5.601  1.4425 -1.5708 -0.0899
 5345SOL    HW227498   1.574   0.758   5.599  0.9026 -0.0407 -0.0656
 5346SOL     OW27499   0.795   4.161  11.366 -0.1667 -0.2509  0.2440
 5346SOL    HW127500   0.711   4.148  11.411  0.1320 -2.0032  0.2962
 5346SOL    HW227501   0.751   4.166  11.281  0.5931  1.6381 -0.0374
 5347SOL     OW27502   2.209   1.318   0.470  0.3978 -0.2062  0.1486
 5347SOL    HW127503   2.243   1.404   0.494 -0.3070  0.2976 -0.6700
 5347SOL    HW227504   2.167   1.324   0.385  1.0141 -1.6143 -0.2489
 5348SOL     OW27505   3.585   2.986   7.494  0.3603 -0.1803 -0.7378
 5348SOL    HW127506   3.532   3.063   7.513 -2.9016 -2.1091 -1.9681
 5348SOL    HW227507   3.672   3.025   7.486  0.2141  0.5233  1.1070
 5349SOL     OW27508   1.571   4.140  15.564  0.2486 -0.4890  0.3604
 5349SOL    HW127509   1.557   4.081  15.638  0.1981 -0.1822  0.5943
 5349SOL    HW227510   1.527   4.220  15.592  1.0241 -0.7554  2.2963
 5350SOL     OW27511   0.865   1.244   2.925 -0.6946 -0.4354  0.2731
 5350SOL    HW127512   0.791   1.230   2.984  0.0846 -0.0889  1.3210
 5350SOL    HW227513   0.936   1.230   2.987 -0.7235 -0.2284  0.3536
 5351SOL     OW27514   2.266   3.527   1.735  0.0138  0.1476 -0.1875
 5351SOL    HW127515   2.249   3.621   1.728 -1.1581  0.0838  1.9191
 5351SOL    HW227516   2.239   3.507   1.645 -0.8996  2.7834 -0.5265
 5352SOL     OW27517   2.216   2.221  17.076  0.5145  0.1802  0.2433
 5352SOL    HW127518   2.187   2.305  17.041 -3.5215 -0.7955  1.3019
 5352SOL    HW227519   2.308   2.228  17.049  1.3205  0.8550  3.0878
 5353SOL     OW27520   4.565   1.148   5.683 -0.3451 -0.0548  0.2213
 5353SOL    HW127521   4.575   1.080   5.750 -0.3240  1.0858  1.3645
 5353SOL    HW227522   4.485   1.121   5.638  1.2977 -0.6403 -2.3830
 5354SOL     OW27523   4.413   1.463   4.389 -0.3145 -0.3018 -0.1090
 5354SOL    HW127524   4.333   1.455   4.338 -0.9032 -0.3122  0.8120
 5354SOL    HW227525   4.457   1.541   4.356 -0.7081 -0.3933 -0.8402
 5355SOL     OW27526   4.488   1.547   8.564 -0.2549 -0.0751  0.2147
 5355SOL    HW127527   4.533   1.463   8.550  1.5147  1.2886 -2.3215
 5355SOL    HW227528   4.410   1.517   8.610 -1.0995  1.7217 -0.0599
 5356SOL     OW27529   4.281   3.546   4.860  0.1671 -0.7229  0.0454
 5356SOL    HW127530   4.280   3.571   4.768  0.1194 -0.6809  0.0567
 5356SOL    HW227531   4.186   3.561   4.861  0.6310  2.1057  2.0798
 5357SOL     OW27532   0.213   0.367   2.201 -0.5482 -0.5154  0.0045
 5357SOL    HW127533   0.303   0.371   2.231 -1.3315  3.4217  1.8926
 5357SOL    HW227534   0.207   0.437   2.135  1.8998  0.9993  1.4106
 5358SOL     OW27535   4.300   0.518   2.648 -0.4021 -0.5810  0.1861
 5358SOL    HW127536   4.207   0.531   2.668  0.7049  3.3805  2.7777
 5358SOL    HW227537   4.339   0.537   2.733 -2.7192 -3.5015  1.9299
 5359SOL     OW27538   3.641   3.219   8.982  0.3525  0.2930 -0.0206
 5359SOL    HW127539   3.551   3.244   9.002  0.6831 -0.2108  2.0953
 5359SOL    HW227540   3.685   3.233   9.066  1.8936 -0.3334 -0.7094
 5360SOL     OW27541   0.076   3.150   4.870  0.6770  0.1543 -0.2685
 5360SOL    HW127542   0.167   3.171   4.853  0.8521 -2.4344 -2.5517
 5360SOL    HW227543   0.038   3.234   4.844 -0.7322 -0.5253 -0.4119
 5361SOL     OW27544   2.566   0.705  15.476  0.0913  0.0799  0.3889
 5361SOL    HW127545   2.660   0.689  15.476 -0.1618 -1.4320  2.1549
 5361SOL    HW227546   2.531   0.660  15.399 -2.1820  1.0280  0.8579
 5362SOL     OW27547   4.423   2.726  10.163 -0.0424  0.1155 -0.2052
 5362SOL    HW127548   4.337   2.759  10.191 -0.0361 -0.9946  1.1075
 5362SOL    HW227549   4.452   2.674  10.238 -1.3128 -0.4875 -0.1311
 5363SOL     OW27550   3.362   1.066   4.812 -0.4240  0.0417 -0.4741
 5363SOL    HW127551   3.369   1.140   4.752  0.3004 -0.1147 -0.5889
 5363SOL    HW227552   3.304   1.104   4.878  1.6762  2.2087  0.1325
 5364SOL     OW27553   1.336   1.968   7.148  0.4548 -0.6582  0.4258
 5364SOL    HW127554   1.330   2.024   7.226  2.6763 -0.6345  0.5716
 5364SOL    HW227555   1.334   2.035   7.079 -0.1109 -0.7838  0.3212
 5365SOL     OW27556   1.710   0.090  16.611  0.0577 -0.1719  0.0811
 5365SOL    HW127557   1.633   0.036  16.628  0.3660 -0.0204  1.9571
 5365SOL    HW227558   1.737   0.110  16.701  0.3659  1.3639 -0.3474
 5366SOL     OW27559   1.967   2.231   1.855  0.0460 -0.0306 -0.1298
 5366SOL    HW127560   1.931   2.175   1.923  0.1656  0.5342  0.3982
 5366SOL    HW227561   2.005   2.308   1.897  0.1307 -0.5398  0.7088
 5367SOL     OW27562   1.357   3.441   1.118 -0.0538  0.4414  0.6831
 5367SOL    HW127563   1.406   3.397   1.048  0.3431  0.3812  0.9984
 5367SOL    HW227564   1.362   3.367   1.179 -1.6347  1.1215  1.6292
 5368SOL     OW27565   1.843   0.392   5.966  0.3155 -0.7299  0.0961
 5368SOL    HW127566   1.860   0.484   5.981 -0.4848 -0.5536 -0.0730
 5368SOL    HW227567   1.927   0.360   5.933  0.7258  0.4814 -0.0030
 5369SOL     OW27568   4.423   3.613   1.015 -0.2273  0.0302  0.1095
 5369SOL    HW127569   4.470   3.595   0.934 -0.0969  3.1178 -0.5132
 5369SOL    HW227570   4.391   3.703   1.005 -0.0265  0.2082  1.0668
 5370SOL     OW27571   1.926   1.182   0.081 -0.4788 -0.1982 -0.6968
 5370SOL    HW127572   1.916   1.112   0.146 -3.3780 -0.2008 -1.1435
 5370SOL    HW227573   1.966   1.249   0.136  2.3075 -2.1972 -0.2443
 5371SOL     OW27574   3.899   2.735   8.832  0.2285  0.0503 -0.1094
 5371SOL    HW127575   3.809   2.762   8.818 -0.2580 -0.4103  1.9836
 5371SOL    HW227576   3.905   2.720   8.927 -1.0332 -0.5992 -0.1296
 5372SOL     OW27577   2.079   2.670   9.321 -0.9281 -0.6967  0.0156
 5372SOL    HW127578   1.986   2.649   9.320 -1.1749  0.4082 -1.0265
 5372SOL    HW227579   2.123   2.609   9.262 -0.7425 -0.5465 -0.0000
 5373SOL     OW27580   2.565   1.852  13.849  0.4018  0.4822 -0.1481
 5373SOL    HW127581   2.496   1.812  13.903  0.0514  0.4202 -0.6408
 5373SOL    HW227582   2.629   1.784  13.872 -1.2100 -1.2163 -0.6212
 5374SOL     OW27583   0.970   1.724   5.105 -0.3924  0.4017  0.1050
 5374SOL    HW127584   0.931   1.809   5.086  0.6745  1.1769  1.4848
 5374SOL    HW227585   0.926   1.706   5.188  2.8162 -0.4359  1.6166
 5375SOL     OW27586   1.671   0.847   0.292  0.1749  0.2772  0.3647
 5375SOL    HW127587   1.580   0.874   0.276  0.4595  0.2469 -1.2822
 5375SOL    HW227588   1.670   0.751   0.293  0.5277  0.2577 -0.6795
 5376SOL     OW27589   4.448   2.227  17.078  0.2630 -0.5191 -0.0167
 5376SOL    HW127590   4.477   2.161  17.141 -1.4619 -1.8116 -0.5450
 5376SOL    HW227591   4.356   2.236  17.104 -0.3375 -0.9154 -1.9792
 5377SOL     OW27592   2.857   3.457   5.622  0.3119 -0.1265  0.6741
 5377SOL    HW127593   2.939   3.408   5.612 -0.7259 -1.6348 -0.5522
 5377SOL    HW227594   2.814   3.430   5.541  0.5472  0.2504  0.4283
 5378SOL     OW27595   4.035   2.839  11.115  0.2718 -0.2971 -0.3848
 5378SOL    HW127596   3.981   2.805  11.186 -1.3321 -0.6589 -1.7972
 5378SOL    HW227597   4.009   2.930  11.099  1.5053 -0.1270 -1.5084
 5379SOL     OW27598   3.544   3.062   2.221 -0.1252  0.2970 -0.4382
 5379SOL    HW127599   3.478   3.096   2.160  0.6697 -0.2874 -1.5919
 5379SOL    HW227600   3.630   3.085   2.187  0.1958 -0.6780 -0.2886
 5380SOL     OW27601   0.278   1.443   2.924  0.4485 -0.2385 -0.1318
 5380SOL    HW127602   0.263   1.469   2.833  0.6302  1.2194  0.2617
 5380SOL    HW227603   0.281   1.526   2.971 -3.3729  0.1178 -0.5503
 5381SOL     OW27604   3.202   2.715  10.027  0.2332  0.3357 -0.4208
 5381SOL    HW127605   3.179   2.631   9.988  2.0240 -0.7180  0.7399
 5381SOL    HW227606   3.132   2.722  10.091  0.6771  2.6437 -0.2030
 5382SOL     OW27607   4.267   0.023   3.947  0.0387  0.2688  0.3371
 5382SOL    HW127608   4.243   4.654   3.940 -1.9180  0.9105 -1.3368
 5382SOL    HW227609   4.247   0.053   4.035  0.8262 -0.4968  0.7792
 5383SOL     OW27610   0.190   2.633   4.144 -0.2161 -0.0014 -0.3762
 5383SOL    HW127611   0.129   2.684   4.196  0.7535 -0.2776  1.0428
 5383SOL    HW227612   0.220   2.571   4.211  1.0868 -0.0871 -1.0459
 5384SOL     OW27613   0.032   0.457   8.827  0.3683  0.7324 -0.2011
 5384SOL    HW127614   0.064   0.416   8.746  0.5387 -1.7414  1.1388
 5384SOL    HW227615   4.665   0.460   8.799  0.4880  2.2730 -0.4467
 5385SOL     OW27616   1.917   0.579   7.408  0.5135  0.2338 -0.6387
 5385SOL    HW127617   1.878   0.538   7.331  1.1113 -0.5929 -0.4961
 5385SOL    HW227618   2.011   0.559   7.409  0.5864  0.5825  0.5849
 5386SOL     OW27619   0.992   1.822   7.793  0.6700 -0.1123 -0.4567
 5386SOL    HW127620   0.913   1.810   7.740  0.3902  2.2342 -0.5669
 5386SOL    HW227621   0.971   1.765   7.867  0.0050 -0.4633 -0.9211
 5387SOL     OW27622   2.389   0.098   8.667  0.6738 -0.3147  0.2237
 5387SOL    HW127623   2.319   0.104   8.733  0.6631 -2.4402  0.4258
 5387SOL    HW227624   2.423   0.187   8.662 -0.0161 -0.0151  0.8245
 5388SOL     OW27625   2.477   1.035   1.984  0.0904  0.4341  0.1434
 5388SOL    HW127626   2.490   0.948   1.948 -1.9786  1.1622 -2.3901
 5388SOL    HW227627   2.567   1.054   2.012  0.5423 -2.0059  0.3388
 5389SOL     OW27628   2.199   4.394   5.556  0.7205  0.4830  1.0449
 5389SOL    HW127629   2.162   4.479   5.533 -0.6909 -1.1329 -2.7218
 5389SOL    HW227630   2.143   4.332   5.509  2.0259  0.4617 -0.4834
 5390SOL     OW27631   1.187   2.237   1.540  0.7079  0.4383 -0.3399
 5390SOL    HW127632   1.222   2.318   1.503 -0.3000  1.3530  0.6832
 5390SOL    HW227633   1.177   2.186   1.460 -2.6563  0.6274 -0.0432
 5391SOL     OW27634   0.895   2.507   3.580 -0.1155  0.0534  0.3617
 5391SOL    HW127635   0.850   2.467   3.655 -0.4005  2.6884  1.5899
 5391SOL    HW227636   0.926   2.431   3.531 -0.3716  1.5382 -2.1282
 5392SOL     OW27637   3.916   0.682   3.527 -0.0256 -0.1853 -0.1064
 5392SOL    HW127638   4.005   0.655   3.502 -0.8913 -1.5093 -1.7283
 5392SOL    HW227639   3.893   0.761   3.478 -0.3218 -2.2263 -3.2076
 5393SOL     OW27640   1.771   4.645   4.303 -0.0598 -0.0806 -0.1836
 5393SOL    HW127641   1.784   4.639   4.397  1.3266 -1.4984 -0.4599
 5393SOL    HW227642   1.845   4.595   4.268 -0.3443 -2.1860  2.1968
 5394SOL     OW27643   1.566   2.009   5.943  0.2513  0.4812 -0.1574
 5394SOL    HW127644   1.638   1.958   5.904  0.0243 -0.3658  0.5369
 5394SOL    HW227645   1.520   2.040   5.865 -1.2520 -1.6012 -0.0965
 5395SOL     OW27646   1.997   2.463  14.472  0.0935 -0.5108  0.1086
 5395SOL    HW127647   2.012   2.557  14.460  2.1896 -0.9235 -0.5310
 5395SOL    HW227648   1.986   2.444  14.566 -1.6709 -0.6908 -0.1462
 5396SOL     OW27649   1.601   4.058  12.355 -0.5317 -0.2045  0.2260
 5396SOL    HW127650   1.604   3.984  12.416  0.6599  0.5245  1.0512
 5396SOL    HW227651   1.694   4.079  12.347 -0.8104  1.3043  0.9718
 5397SOL     OW27652   0.777   0.386   3.453  0.0457  0.4920  0.4890
 5397SOL    HW127653   0.753   0.476   3.474  0.6200  0.3209  1.9013
 5397SOL    HW227654   0.709   0.356   3.394 -0.0321 -0.2909  0.9778
 5398SOL     OW27655   3.115   2.666   2.397  0.1601 -0.4522 -0.2560
 5398SOL    HW127656   3.186   2.714   2.439  0.6208 -1.0891 -0.3074
 5398SOL    HW227657   3.162   2.604   2.342 -0.6780 -0.6795 -0.7137
 5399SOL     OW27658   2.044   0.057  17.450  0.6169 -0.8054 -0.0135
 5399SOL    HW127659   2.051   0.116  17.375 -2.1410  0.4679  0.7081
 5399SOL    HW227660   2.117   4.722  17.432 -0.7252 -1.8032 -2.1623
 5400SOL     OW27661   0.905   2.063   2.954  0.1392  0.1251 -0.3236
 5400SOL    HW127662   0.977   2.037   2.897  0.5873  0.5446  0.0556
 5400SOL    HW227663   0.854   2.108   2.887  0.7195 -0.2191 -1.0050
 5401SOL     OW27664   3.917   4.604   5.505 -0.1812  0.4641 -0.0578
 5401SOL    HW127665   3.954   4.689   5.481  0.4478 -0.0900 -1.0577
 5401SOL    HW227666   3.873   4.591   5.422 -1.4874 -2.4075  1.1009
 5402SOL     OW27667   1.490   0.518  12.817 -0.4315  0.5548  0.0560
 5402SOL    HW127668   1.407   0.474  12.799 -1.3388  2.2514  0.1066
 5402SOL    HW227669   1.541   0.477  12.748  0.0823 -0.5517  1.0953
 5403SOL     OW27670   2.135   3.529   4.619 -0.0944 -0.3055 -0.3390
 5403SOL    HW127671   2.079   3.487   4.552 -1.9088  1.8152 -0.1622
 5403SOL    HW227672   2.163   3.450   4.664  1.5218  0.0013 -0.8257
 5404SOL     OW27673   1.597   3.709  10.528  0.1508  0.5461 -0.4593
 5404SOL    HW127674   1.521   3.762  10.552  1.0619  1.3781  0.5893
 5404SOL    HW227675   1.670   3.767  10.549 -0.2244  0.6465  0.5849
 5405SOL     OW27676   3.578   0.748  15.375 -0.2297  0.3181 -0.2933
 5405SOL    HW127677   3.573   0.762  15.470 -1.4772  0.4083 -0.3712
 5405SOL    HW227678   3.484   0.740  15.362 -0.8320  0.8349  3.6095
 5406SOL     OW27679   2.591   3.130  12.891 -0.1391  0.5492  0.4841
 5406SOL    HW127680   2.633   3.153  12.808  0.2302 -0.9816  0.2452
 5406SOL    HW227681   2.586   3.036  12.877 -0.2958  0.8402 -1.4385
 5407SOL     OW27682   3.893   0.277   4.757 -0.4165 -0.1008  0.4007
 5407SOL    HW127683   3.836   0.322   4.820 -1.0315  0.5190 -0.6063
 5407SOL    HW227684   3.952   0.228   4.814 -0.0015  0.0262  0.0721
 5408SOL     OW27685   4.122   4.557   7.253 -0.0295 -0.5281  0.1531
 5408SOL    HW127686   4.131   4.644   7.214  1.4974 -0.2643  1.1057
 5408SOL    HW227687   4.212   4.538   7.280  0.5138  0.2852 -1.0732
 5409SOL     OW27688   1.114   1.492  12.887  0.3902 -0.0172  0.1688
 5409SOL    HW127689   1.088   1.538  12.807  1.3455  0.9622  0.4231
 5409SOL    HW227690   1.082   1.405  12.864 -0.2226  0.6968 -1.7653
 5410SOL     OW27691   1.930   2.054   4.634  0.2222  0.6123 -0.0111
 5410SOL    HW127692   1.980   2.135   4.628  1.9315 -0.4269  0.2260
 5410SOL    HW227693   1.980   2.005   4.569 -0.3267  0.3743 -0.2546
 5411SOL     OW27694   3.195   3.389   1.708  0.4336 -0.0608  0.5997
 5411SOL    HW127695   3.186   3.311   1.653  0.5983  1.5603 -1.7467
 5411SOL    HW227696   3.291   3.390   1.705  0.3866  0.6113 -1.0812
 5412SOL     OW27697   4.673   0.782  14.794 -0.0619  0.6935 -0.3046
 5412SOL    HW127698   4.578   0.790  14.787 -0.2817 -0.9625  0.7073
 5412SOL    HW227699   4.670   0.688  14.775  0.7456  0.8537 -1.1937
 5413SOL     OW27700   0.024   4.593  15.175 -0.1726 -0.6727 -0.5158
 5413SOL    HW127701   0.051   4.625  15.261 -1.1967  0.8556 -0.7552
 5413SOL    HW227702   0.108   4.587  15.131  0.2513  0.7065  0.0989
 5414SOL     OW27703   4.301   4.237  10.687 -0.1832  0.4818  0.3297
 5414SOL    HW127704   4.298   4.169  10.619  1.1751  0.1160  0.6472
 5414SOL    HW227705   4.290   4.317  10.636 -3.1143  0.5686  1.0552
 5415SOL     OW27706   2.317   2.574   4.445 -0.5911 -0.3838 -0.7688
 5415SOL    HW127707   2.370   2.625   4.384  1.1796 -0.1940  0.9525
 5415SOL    HW227708   2.346   2.483   4.436 -2.4227 -1.1904  1.4914
 5416SOL     OW27709   3.252   0.711   1.941 -0.1447 -0.2750 -0.4687
 5416SOL    HW127710   3.213   0.648   1.880 -1.2785 -0.4751  0.4488
 5416SOL    HW227711   3.178   0.767   1.966  1.7379  0.5779  3.1143
 5417SOL     OW27712   4.644   2.544   6.697 -0.6033 -0.1229  0.4755
 5417SOL    HW127713   4.717   2.524   6.639 -1.5647 -1.0643 -0.4197
 5417SOL    HW227714   4.693   2.567   6.776  0.1528  0.4315 -0.1552
 5418SOL     OW27715   2.640   1.139   4.565  0.6647 -0.2697 -0.3137
 5418SOL    HW127716   2.565   1.197   4.547  1.5864  0.8626 -0.5376
 5418SOL    HW227717   2.663   1.164   4.654 -0.8631  0.1280 -0.0399
 5419SOL     OW27718   4.375   4.692   2.070  0.0149  0.0691 -0.1818
 5419SOL    HW127719   4.315   4.648   2.010  0.6670  0.0795 -0.8344
 5419SOL    HW227720   4.352   0.059   2.051  1.7320  0.9292  1.8186
 5420SOL     OW27721   0.463   0.018   3.633 -0.0624  0.5060 -0.2639
 5420SOL    HW127722   0.526   0.025   3.706 -0.7235 -2.1555  0.5692
 5420SOL    HW227723   0.433   0.107   3.616  0.4252  0.5775 -0.7772
 5421SOL     OW27724   1.837   1.999  16.708 -0.0976 -0.6519  0.4015
 5421SOL    HW127725   1.798   2.059  16.645  0.8852  1.0969  1.4859
 5421SOL    HW227726   1.814   1.910  16.679 -0.2002  0.2320 -2.2155
 5422SOL     OW27727   4.389   2.305  11.559 -0.5292 -0.0448  0.6212
 5422SOL    HW127728   4.392   2.289  11.653  1.3210  0.6851  0.6796
 5422SOL    HW227729   4.338   2.386  11.561  0.6900  0.7528 -0.1730
 5423SOL     OW27730   4.158   1.599  15.618  0.2934 -0.0521  0.1397
 5423SOL    HW127731   4.143   1.504  15.615  0.4669 -0.1574  2.6183
 5423SOL    HW227732   4.244   1.619  15.655  0.0573  0.1678  0.5597
 5424SOL     OW27733   3.149   3.032   4.114  0.2195  0.0987  0.0070
 5424SOL    HW127734   3.244   3.022   4.127  0.1256 -0.2210  0.4340
 5424SOL    HW227735   3.116   2.988   4.192  0.5659 -1.8146 -0.9198
 5425SOL     OW27736   1.773   2.448   8.878  0.6278  0.4919  0.1228
 5425SOL    HW127737   1.754   2.355   8.882 -1.8432  0.9380 -1.7539
 5425SOL    HW227738   1.823   2.464   8.798  1.0943 -1.1770  0.0919
 5426SOL     OW27739   1.579   2.426  16.618  0.2379 -0.0584  0.7895
 5426SOL    HW127740   1.485   2.434  16.631  0.3014  0.5195  0.8945
 5426SOL    HW227741   1.589   2.332  16.635 -0.0552 -0.1676  0.3730
 5427SOL     OW27742   4.299   2.655  13.397  0.2546  0.4577 -0.4594
 5427SOL    HW127743   4.357   2.712  13.345  1.5481  0.3975  0.9036
 5427SOL    HW227744   4.263   2.607  13.322 -0.3102  0.1927 -0.0156
 5428SOL     OW27745   2.284   0.612   0.127 -0.1299  0.9603  0.1514
 5428SOL    HW127746   2.342   0.545   0.091  1.2181  1.8772  0.6371
 5428SOL    HW227747   2.342   0.684   0.151  0.6770 -0.4817  2.5620
 5429SOL     OW27748   0.075   4.498  14.031 -0.0295  0.3475 -0.6050
 5429SOL    HW127749   0.005   4.486  13.966 -0.6001 -0.0665  0.0998
 5429SOL    HW227750   0.033   4.544  14.104  1.1708  1.5605 -0.6809
 5430SOL     OW27751   0.965   3.586   0.379  0.1963  0.2929  0.6278
 5430SOL    HW127752   1.038   3.591   0.316 -0.7461 -1.1382 -0.5923
 5430SOL    HW227753   0.973   3.674   0.415  1.2855  0.0209  1.0671
 5431SOL     OW27754   3.548   2.587   6.855  0.0437  0.4982 -0.0565
 5431SOL    HW127755   3.623   2.531   6.834 -1.2028 -2.1537  2.5736
 5431SOL    HW227756   3.583   2.669   6.820  0.7429 -0.1881 -0.9844
 5432SOL     OW27757   2.536   2.418   2.880 -0.7184 -0.3137 -0.2084
 5432SOL    HW127758   2.573   2.441   2.794  3.8211 -1.4875  1.4201
 5432SOL    HW227759   2.610   2.368   2.913  0.1665  0.6425 -0.7315
 5433SOL     OW27760   3.761   0.787   9.644  0.4411 -0.0259 -0.5236
 5433SOL    HW127761   3.854   0.773   9.627  0.8091  1.5315  0.2700
 5433SOL    HW227762   3.763   0.776   9.739  0.6384  1.2600 -0.3896
 5434SOL     OW27763   3.847   0.728  11.901 -0.6551  0.0606 -0.5026
 5434SOL    HW127764   3.825   0.821  11.908  1.0909  0.3507  1.0132
 5434SOL    HW227765   3.767   0.686  11.870 -0.4009 -0.8561  0.1025
 5435SOL     OW27766   0.932   1.292   5.326 -0.1600 -0.3679  0.2560
 5435SOL    HW127767   0.989   1.261   5.396 -1.0694  1.5237  1.8184
 5435SOL    HW227768   0.921   1.383   5.353  2.2964  0.5908 -1.9951
 5436SOL     OW27769   1.298   2.658   5.423 -0.2447  0.2280  0.0997
 5436SOL    HW127770   1.365   2.684   5.359  0.5130 -0.7685  0.4867
 5436SOL    HW227771   1.226   2.639   5.363  0.3742 -0.3069 -0.4812
 5437SOL     OW27772   3.605   1.687   5.878  0.7243  0.8343  0.1936
 5437SOL    HW127773   3.513   1.703   5.900 -0.1992 -2.6394 -1.2610
 5437SOL    HW227774   3.635   1.777   5.889  2.2024  0.4702 -0.9084
 5438SOL     OW27775   0.053   2.913   5.253 -0.5133 -0.4320  0.3343
 5438SOL    HW127776   0.014   2.860   5.323  1.0506 -1.4485  0.4248
 5438SOL    HW227777   0.031   2.868   5.172  3.8079 -1.4958 -0.2448
 5439SOL     OW27778   4.667   1.325  10.057 -0.0400 -0.3820  0.2585
 5439SOL    HW127779   4.686   1.381   9.981 -0.4580  1.9145  1.8591
 5439SOL    HW227780   4.618   1.255  10.014  1.5747 -0.6488 -1.1346
 5440SOL     OW27781   0.179   0.422  16.723 -0.1685  0.2225  0.2449
 5440SOL    HW127782   0.113   0.434  16.654 -2.5180  0.6021  2.5729
 5440SOL    HW227783   0.132   0.364  16.783  0.4988  1.6854  2.1644
 5441SOL     OW27784   0.642   1.153   4.033  0.0786  0.1753  0.4224
 5441SOL    HW127785   0.690   1.235   4.029  2.2126 -1.1736 -1.2663
 5441SOL    HW227786   0.555   1.187   4.055  1.6646  3.0133  2.3654
 5442SOL     OW27787   0.750   4.390   5.664 -0.2263 -0.0183  0.3684
 5442SOL    HW127788   0.778   4.338   5.589 -0.5445 -0.5295  0.5972
 5442SOL    HW227789   0.679   4.446   5.634  0.1564 -0.5624 -1.5298
 5443SOL     OW27790   1.181   1.720   6.159  0.3056  0.1692 -0.3803
 5443SOL    HW127791   1.255   1.661   6.146  0.0459  0.1676 -1.8593
 5443SOL    HW227792   1.218   1.807   6.167 -0.1811  0.0573  3.2339
 5444SOL     OW27793   0.172   0.828   5.866  0.0950  0.4925 -0.2155
 5444SOL    HW127794   0.103   0.861   5.924  1.4455  0.3272  1.4816
 5444SOL    HW227795   0.220   0.763   5.918 -1.4242  0.9685  1.7994
 5445SOL     OW27796   3.855   4.390   3.365 -0.2764  0.0078  0.4981
 5445SOL    HW127797   3.778   4.383   3.308 -0.5782 -1.3258  1.0866
 5445SOL    HW227798   3.828   4.435   3.445  0.7132  3.5766 -1.1872
 5446SOL     OW27799   4.386   3.565  12.602 -0.1636 -0.2180  0.1527
 5446SOL    HW127800   4.314   3.591  12.660 -0.9422 -0.6467 -0.6318
 5446SOL    HW227801   4.388   3.632  12.534  1.4668  1.2362  1.6054
 5447SOL     OW27802   0.908   4.175   6.413 -0.0551  0.3171 -0.3636
 5447SOL    HW127803   0.829   4.122   6.399  0.8844 -0.8503 -1.2945
 5447SOL    HW227804   0.979   4.112   6.397 -0.6948 -0.6600  0.5671
 5448SOL     OW27805   2.066   2.300   2.242 -0.2495 -0.1946  0.5377
 5448SOL    HW127806   2.029   2.381   2.276  1.0114 -0.6672  3.0409
 5448SOL    HW227807   1.988   2.273   2.193  0.2453 -1.2633  0.3463
 5449SOL     OW27808   0.426   2.135  17.604 -0.2013  0.3117 -0.4324
 5449SOL    HW127809   0.335   2.149  17.630 -0.3642  2.1829 -2.0310
 5449SOL    HW227810   0.465   2.220  17.626 -1.9913  0.8002  0.8290
 5450SOL     OW27811   1.640   2.342   3.605  0.3087  0.1279  0.6028
 5450SOL    HW127812   1.717   2.305   3.648  0.3545  0.4056  0.7598
 5450SOL    HW227813   1.678   2.422   3.571  0.5598  0.7685  2.3667
 5451SOL     OW27814   4.626   0.456  14.328  0.5268 -0.3417 -0.3138
 5451SOL    HW127815   4.544   0.465  14.280  0.0126 -2.0409  0.2460
 5451SOL    HW227816   4.611   0.521  14.396 -0.8222 -2.0291  0.9856
 5452SOL     OW27817   3.497   0.637  16.894  0.3332  0.4853  0.0664
 5452SOL    HW127818   3.409   0.612  16.920 -0.0618  0.3956 -1.3457
 5452SOL    HW227819   3.525   0.686  16.972 -2.2457  2.9817 -0.5735
 5453SOL     OW27820   1.633   4.258   6.352  0.4787  0.0732 -0.1832
 5453SOL    HW127821   1.673   4.344   6.363 -1.4783  1.0117 -0.4241
 5453SOL    HW227822   1.551   4.299   6.325 -0.2254 -0.6993  0.7780
 5454SOL     OW27823   2.996   0.619  11.595 -0.4350  0.9746  0.2342
 5454SOL    HW127824   3.088   0.635  11.574 -1.4619  2.9558 -2.6933
 5454SOL    HW227825   2.991   0.571  11.678 -1.4234  0.4003 -0.1624
 5455SOL     OW27826   1.623   4.329  12.076  0.2528  0.5782  0.0549
 5455SOL    HW127827   1.638   4.353  12.168  1.4099 -0.0876  0.0424
 5455SOL    HW227828   1.554   4.263  12.087  1.4954 -0.5931  0.8220
 5456SOL     OW27829   1.760   2.545   1.962 -0.2156  0.0472 -0.4349
 5456SOL    HW127830   1.735   2.478   1.898  0.4335 -1.3348  0.7417
 5456SOL    HW227831   1.829   2.588   1.912 -0.4990 -1.1387 -1.8371
 5457SOL     OW27832   3.225   3.126   4.825 -0.0837 -0.2496 -0.1093
 5457SOL    HW127833   3.281   3.094   4.896  0.7443 -1.0927 -1.1426
 5457SOL    HW227834   3.217   3.216   4.856 -1.2208 -0.6336  0.7085
 5458SOL     OW27835   4.368   2.732   8.562  0.1500 -0.3223  0.1218
 5458SOL    HW127836   4.285   2.775   8.579  1.7599  2.7312  0.3502
 5458SOL    HW227837   4.416   2.766   8.638  0.3972 -1.3951  0.4493
 5459SOL     OW27838   0.501   4.225  10.898  0.0192  0.5484 -0.1618
 5459SOL    HW127839   0.426   4.168  10.880 -1.6395  2.7716 -0.2118
 5459SOL    HW227840   0.498   4.288  10.827  1.5495 -0.1369 -0.8326
 5460SOL     OW27841   3.521   3.916   7.765  0.2645 -0.0163  0.2995
 5460SOL    HW127842   3.547   3.889   7.853  0.3282  0.6036  0.4649
 5460SOL    HW227843   3.541   4.009   7.759 -1.9763  0.4519  0.1948
 5461SOL     OW27844   0.427   4.470   3.227 -0.0527  0.2528  0.7159
 5461SOL    HW127845   0.356   4.426   3.274 -0.0851 -0.7442 -0.2532
 5461SOL    HW227846   0.399   4.562   3.223  0.5416  0.4824  2.0810
 5462SOL     OW27847   3.278   3.116   7.033 -0.0714 -0.0843 -0.0827
 5462SOL    HW127848   3.299   3.044   6.974  3.2159 -0.5896  1.6556
 5462SOL    HW227849   3.218   3.166   6.978  0.6054  0.6188 -0.1878
 5463SOL     OW27850   1.004   3.715   0.042 -0.2996 -0.3514 -0.8293
 5463SOL    HW127851   1.048   3.677   0.118  0.1249  1.4834 -0.1606
 5463SOL    HW227852   0.911   3.713   0.065  0.7840  1.2921  3.5709
 5464SOL     OW27853   2.042   4.005  11.757 -0.3084 -0.1875  0.1643
 5464SOL    HW127854   2.055   4.096  11.729 -3.2358  0.2006  0.0585
 5464SOL    HW227855   1.983   4.016  11.832 -2.0486 -1.0612 -1.0599
 5465SOL     OW27856   2.753   3.585   6.557 -0.4464  0.1878  0.0891
 5465SOL    HW127857   2.769   3.545   6.643  2.2616 -1.0493 -0.9902
 5465SOL    HW227858   2.816   3.657   6.558  0.8467 -0.9425  0.1358
 5466SOL     OW27859   1.487   1.260  13.138 -0.0866  0.3376  0.2847
 5466SOL    HW127860   1.543   1.223  13.206  3.7771 -0.0349 -3.1708
 5466SOL    HW227861   1.524   1.348  13.128  0.4658 -0.0525 -1.0048
 5467SOL     OW27862   3.485   2.480   4.081  0.3909  0.1931  0.1142
 5467SOL    HW127863   3.434   2.434   4.014 -0.1191  1.0426 -0.0870
 5467SOL    HW227864   3.446   2.566   4.097 -1.8807 -0.1537 -3.5572
 5468SOL     OW27865   3.881   0.128   0.722  0.9593 -0.2642 -0.1976
 5468SOL    HW127866   3.920   0.063   0.780  0.8293 -0.1004  0.0731
 5468SOL    HW227867   3.789   0.103   0.735  1.2115 -1.8260 -1.2830
 5469SOL     OW27868   2.502   4.563   1.388  0.7388 -0.3731  0.5836
 5469SOL    HW127869   2.411   4.589   1.403  1.1558  1.8940 -0.8910
 5469SOL    HW227870   2.556   4.622   1.441 -1.4345  3.1411 -1.1579
 5470SOL     OW27871   1.143   2.033   3.938  0.5256 -0.1872 -0.3006
 5470SOL    HW127872   1.156   2.093   3.865  0.0628 -1.5374 -1.4902
 5470SOL    HW227873   1.223   2.047   3.989  0.7189  1.1682 -0.9629
 5471SOL     OW27874   2.552   1.379   0.199 -0.1522  0.4275  0.6108
 5471SOL    HW127875   2.604   1.437   0.142 -0.3324  2.2402  2.2828
 5471SOL    HW227876   2.555   1.413   0.288 -0.2865 -1.0090  1.1584
 5472SOL     OW27877   0.868   1.297  16.744 -0.1709 -0.0597  0.0883
 5472SOL    HW127878   0.801   1.266  16.804  0.2891  1.6407  1.4710
 5472SOL    HW227879   0.826   1.353  16.679 -0.9786 -0.2308  0.4734
 5473SOL     OW27880   4.319   1.470   9.231  0.3381 -0.1442  0.3646
 5473SOL    HW127881   4.370   1.481   9.151 -0.0672 -1.8180 -0.1182
 5473SOL    HW227882   4.320   1.375   9.242  1.6791 -0.1762  0.0645
 5474SOL     OW27883   1.281   1.143  14.775  0.6798 -0.1421 -0.5115
 5474SOL    HW127884   1.315   1.092  14.701  0.1603 -0.0280 -0.8272
 5474SOL    HW227885   1.196   1.155  14.732  0.5077 -1.5647 -0.5423
 5475SOL     OW27886   4.005   2.748   4.840  0.0442 -0.1042  0.3592
 5475SOL    HW127887   4.019   2.658   4.868  1.5974  0.9560  3.0350
 5475SOL    HW227888   3.945   2.727   4.769  0.2538  1.0506 -0.1592
 5476SOL     OW27889   4.675   0.175   8.446  0.3095  0.1398 -0.1456
 5476SOL    HW127890   4.659   0.264   8.477  0.6593 -0.2990  1.2963
 5476SOL    HW227891   4.665   0.189   8.352 -0.1780  0.0611 -0.1042
 5477SOL     OW27892   3.236   3.493   3.619 -0.1352  0.0498 -0.1678
 5477SOL    HW127893   3.227   3.401   3.592  0.9355  0.8316 -3.2092
 5477SOL    HW227894   3.208   3.525   3.534  1.1005  1.9622  0.1417
 5478SOL     OW27895   0.856   3.517   6.697  0.0013  0.7973  0.0345
 5478SOL    HW127896   0.815   3.488   6.779 -0.8171 -2.0785 -1.3712
 5478SOL    HW227897   0.830   3.455   6.629 -0.2297 -1.5927  2.3121
 5479SOL     OW27898   1.105   2.305  14.808 -0.0838  0.4721  0.0816
 5479SOL    HW127899   1.169   2.233  14.813 -0.2481  0.4887  2.5530
 5479SOL    HW227900   1.151   2.378  14.849  0.8577  0.2445 -0.5710
 5480SOL     OW27901   1.788   2.881   3.187 -0.1069 -0.3070  0.0682
 5480SOL    HW127902   1.714   2.868   3.128 -1.3380  0.6140  1.4004
 5480SOL    HW227903   1.864   2.878   3.128  1.2197 -0.7718  1.7860
 5481SOL     OW27904   2.856   3.136   3.518 -0.2725  0.5909  0.0438
 5481SOL    HW127905   2.857   3.231   3.533  0.4448  0.6298 -0.2461
 5481SOL    HW227906   2.943   3.123   3.480  1.1325  0.4729  3.3097
 5482SOL     OW27907   1.777   4.190   5.052  0.3238  0.2298  0.2456
 5482SOL    HW127908   1.689   4.225   5.037  0.7466  1.2113  0.0701
 5482SOL    HW227909   1.743   4.115   5.101 -0.4611 -0.1188 -0.8334
 5483SOL     OW27910   2.788   0.912   6.092  0.3336 -0.0189 -0.4751
 5483SOL    HW127911   2.724   0.841   6.092 -0.8051  1.0060 -0.2991
 5483SOL    HW227912   2.730   0.988   6.091  0.3291 -0.0209 -0.3665
 5484SOL     OW27913   4.332   0.655   5.139  0.1354 -0.2182  0.1353
 5484SOL    HW127914   4.382   0.718   5.192 -1.3780  0.6591  0.5399
 5484SOL    HW227915   4.325   0.576   5.193  3.0395  1.5565  3.1121
 5485SOL     OW27916   0.537   3.117  17.142 -0.0732 -0.3368 -0.3774
 5485SOL    HW127917   0.529   3.080  17.230  1.3601 -1.9620 -0.9239
 5485SOL    HW227918   0.459   3.172  17.142  0.7739  0.8694 -1.5038
 5486SOL     OW27919   1.527   1.943   4.178 -0.0711  0.3520 -0.2860
 5486SOL    HW127920   1.529   1.883   4.104 -0.9706  0.7968 -0.6788
 5486SOL    HW227921   1.484   1.885   4.241 -0.4900 -0.7657 -1.6116
 5487SOL     OW27922   2.110   2.280   5.623 -0.0513  0.1301 -0.0011
 5487SOL    HW127923   2.186   2.297   5.677 -1.2935  0.2117  1.7098
 5487SOL    HW227924   2.100   2.185   5.610 -0.4105 -0.0139  1.3462
 5488SOL     OW27925   3.223   2.903  15.183  0.2290  0.5022 -0.3809
 5488SOL    HW127926   3.131   2.909  15.211  0.3344  1.0959 -0.1772
 5488SOL    HW227927   3.221   2.972  15.117 -2.1590  0.8911  0.0798
 5489SOL     OW27928   2.289   0.796  11.631 -0.1971 -0.4554 -0.2200
 5489SOL    HW127929   2.197   0.822  11.619  0.0509  0.2891 -0.4919
 5489SOL    HW227930   2.317   0.773  11.542 -1.8082  0.4069 -0.9532
 5490SOL     OW27931   1.535   4.012  15.877  0.5563 -0.0794  0.0662
 5490SOL    HW127932   1.463   4.043  15.932 -0.2966  1.0597 -1.7046
 5490SOL    HW227933   1.613   4.044  15.924  0.7560 -1.0032  0.3642
 5491SOL     OW27934   2.226   4.117   3.521 -0.0075  0.5282 -0.0650
 5491SOL    HW127935   2.192   4.109   3.610 -0.9866  3.4308 -0.1784
 5491SOL    HW227936   2.147   4.133   3.470 -0.0933  1.0165  0.2198
 5492SOL     OW27937   2.003   4.715   7.147 -0.1558  0.1721  0.4752
 5492SOL    HW127938   2.096   4.714   7.168 -0.1375  1.6077  0.4836
 5492SOL    HW227939   1.960   0.037   7.219 -1.9664 -1.9607  0.7621
 5493SOL     OW27940   4.359   2.817   6.376  0.5161 -0.1265 -0.1865
 5493SOL    HW127941   4.408   2.778   6.449 -0.6733  0.6064  1.0097
 5493SOL    HW227942   4.270   2.803   6.406  0.1181  1.4155 -0.6277
 5494SOL     OW27943   4.365   3.050   6.826  0.0719  0.2987  0.0093
 5494SOL    HW127944   4.408   2.967   6.804 -0.3617  0.0187  0.2046
 5494SOL    HW227945   4.355   3.077   6.735 -0.3908 -3.6959 -1.1307
 5495SOL     OW27946   0.522   1.059   2.610  0.7816  0.0232  0.1157
 5495SOL    HW127947   0.594   1.117   2.635 -1.3614  2.3942  0.8772
 5495SOL    HW227948   0.566   0.975   2.621  0.9099 -0.3566 -3.4500
 5496SOL     OW27949   4.188   4.168  10.373 -0.2999 -0.9502  0.1536
 5496SOL    HW127950   4.233   4.227  10.313  0.9599  0.1286  2.1621
 5496SOL    HW227951   4.100   4.199  10.351  0.3187 -0.1896 -1.2350
 5497SOL     OW27952   4.306   3.700   3.692  0.2351  0.6391  0.4402
 5497SOL    HW127953   4.322   3.606   3.688 -1.2930  0.4425 -1.2025
 5497SOL    HW227954   4.230   3.701   3.751 -1.4299 -1.5679 -1.6435
 5498SOL     OW27955   1.616   3.824   6.289 -0.3660  0.4519  0.6872
 5498SOL    HW127956   1.699   3.810   6.334 -0.1832  1.4444  0.6594
 5498SOL    HW227957   1.643   3.799   6.201 -1.0107 -2.1625  1.2361
 5499SOL     OW27958   0.570   1.183   7.889 -0.2705 -0.0815 -0.5534
 5499SOL    HW127959   0.556   1.097   7.929 -0.8098  0.3107  0.1002
 5499SOL    HW227960   0.496   1.234   7.923 -0.0721  0.3288 -0.7460
 5500SOL     OW27961   3.469   2.792  10.499  0.1563  0.4190  0.3252
 5500SOL    HW127962   3.552   2.833  10.472 -0.0731  1.3212  0.9937
 5500SOL    HW227963   3.400   2.850  10.466  0.3791 -1.0766 -2.7651
 5501SOL     OW27964   3.075   3.482   3.387 -0.0779 -0.6829 -0.4142
 5501SOL    HW127965   3.015   3.525   3.326  0.1096  1.3045  0.8387
 5501SOL    HW227966   3.117   3.423   3.324  0.0658  0.2270 -1.1640
 5502SOL     OW27967   2.698   0.669  14.770  0.4515 -0.4255 -0.0031
 5502SOL    HW127968   2.634   0.606  14.803 -1.3956  0.9677 -0.9818
 5502SOL    HW227969   2.757   0.677  14.845 -0.4680  0.3135  0.6330
 5503SOL     OW27970   2.089   0.700   8.673 -0.5860 -0.3000 -0.2384
 5503SOL    HW127971   2.080   0.793   8.696  1.9658  0.6317 -2.9326
 5503SOL    HW227972   2.026   0.657   8.730 -0.4254  0.6729  0.6886
 5504SOL     OW27973   0.343   1.344  13.577 -0.1676  0.1537  0.5887
 5504SOL    HW127974   0.436   1.368  13.577 -0.5906  1.8230  0.7037
 5504SOL    HW227975   0.324   1.315  13.488 -0.6764  2.4500 -0.0653
 5505SOL     OW27976   0.397   1.173   6.060 -0.3430 -0.2844 -0.3436
 5505SOL    HW127977   0.479   1.196   6.103 -0.9062  0.4564  0.3279
 5505SOL    HW227978   0.426   1.132   5.978  1.1012 -1.3813  0.7236
 5506SOL     OW27979   3.168   0.667   8.226  0.4659  0.0380  0.2507
 5506SOL    HW127980   3.199   0.755   8.246 -0.7896  0.8357 -1.3314
 5506SOL    HW227981   3.099   0.660   8.292 -0.0705  1.1308 -0.1910
 5507SOL     OW27982   3.491   4.175   2.771 -0.0783  0.4014 -0.5204
 5507SOL    HW127983   3.562   4.116   2.744 -0.4700 -0.2515 -0.1247
 5507SOL    HW227984   3.533   4.219   2.845  0.2639  0.2544 -0.6231
 5508SOL     OW27985   3.392   2.044   9.651 -0.1297  0.0728  0.9324
 5508SOL    HW127986   3.479   2.037   9.690  0.5253 -2.0893 -0.9510
 5508SOL    HW227987   3.356   1.956   9.657 -0.5867  0.3819  2.7026
 5509SOL     OW27988   0.806   0.588   8.497  0.2528  0.7131 -0.1635
 5509SOL    HW127989   0.839   0.552   8.579  1.2645 -1.1668 -1.3811
 5509SOL    HW227990   0.805   0.680   8.522 -1.1774  0.2837  1.3193
 5510SOL     OW27991   1.974   4.027   2.573  0.2152 -0.2423  0.0830
 5510SOL    HW127992   2.010   3.941   2.592  1.5448  0.1703 -0.5578
 5510SOL    HW227993   2.053   4.080   2.564  1.2855 -1.3929  2.9802
 5511SOL     OW27994   1.107   1.995  15.644  0.2555  0.1833  0.3040
 5511SOL    HW127995   1.082   1.903  15.653  2.0027 -0.2362  0.8445
 5511SOL    HW227996   1.089   2.007  15.551 -1.1243 -0.2608  0.5217
 5512SOL     OW27997   3.314   0.935   5.748  1.1913 -0.0695 -0.2221
 5512SOL    HW127998   3.254   0.876   5.702  2.3944 -1.6210  0.1845
 5512SOL    HW227999   3.313   1.012   5.690  1.8069 -1.4053 -2.0339
 5513SOL     OW28000   4.437   4.260   1.943  0.3338  0.0973 -0.0203
 5513SOL    HW128001   4.532   4.262   1.938  0.3418  1.3480  0.5347
 5513SOL    HW228002   4.412   4.307   1.864  0.9973  0.8227  0.2017
 5514SOL     OW28003   0.380   0.723   5.372  0.5940  0.5069 -0.2809
 5514SOL    HW128004   0.421   0.639   5.355  0.3471  0.7678 -2.1666
 5514SOL    HW228005   0.326   0.744   5.297 -1.2328 -2.1127  0.3128
 5515SOL     OW28006   1.729   4.718  17.124 -0.4655 -0.3210 -0.3365
 5515SOL    HW128007   1.728   0.090  17.125  0.3842 -0.3289  0.9322
 5515SOL    HW228008   1.756   4.704  17.034 -1.1778 -0.7873 -0.4800
 5516SOL     OW28009   2.357   0.214   5.470  0.0008  0.0036 -0.1992
 5516SOL    HW128010   2.277   0.244   5.426 -1.7305 -3.9007  0.3093
 5516SOL    HW228011   2.430   0.264   5.434  0.7603 -0.3818  0.8160
 5517SOL     OW28012   1.366   4.590   4.741 -0.0451 -0.3438  0.1667
 5517SOL    HW128013   1.424   4.645   4.689 -1.0762  1.5084  0.9672
 5517SOL    HW228014   1.330   4.652   4.806  1.0165  0.0581  0.3789
 5518SOL     OW28015   3.524   3.405   5.782  0.1203 -0.3402  0.6172
 5518SOL    HW128016   3.587   3.357   5.729  1.0999  0.4078  1.0993
 5518SOL    HW228017   3.565   3.487   5.809 -0.2295  0.1094 -0.2302
 5519SOL     OW28018   0.115   2.785   3.316 -0.0615 -0.6114 -0.7622
 5519SOL    HW128019   0.078   2.702   3.286  3.0264 -1.7919 -1.3411
 5519SOL    HW228020   0.204   2.763   3.344  1.4422  5.0116 -1.1604
 5520SOL     OW28021   4.179   0.042   5.289  0.1872 -0.2107 -0.0542
 5520SOL    HW128022   4.149   0.041   5.379  0.2274 -2.0531 -0.0629
 5520SOL    HW228023   4.208   0.133   5.286  1.2943 -0.5584  0.1796
 5521SOL     OW28024   4.295   0.013   3.028 -0.4123  0.4701 -0.3395
 5521SOL    HW128025   4.306   4.706   2.938 -2.9118  1.7093 -1.0662
 5521SOL    HW228026   4.208   4.705   3.053 -0.5593  0.0391 -1.3699
 5522SOL     OW28027   2.686   1.546   3.657 -0.1277 -0.7160  0.0743
 5522SOL    HW128028   2.732   1.623   3.689  0.6998 -1.0228 -0.3843
 5522SOL    HW228029   2.621   1.538   3.727  0.7140 -0.4855  0.8771
 5523SOL     OW28030   3.567   2.589  13.553 -0.1719  0.1824  1.1711
 5523SOL    HW128031   3.650   2.607  13.508 -1.1232 -1.6641 -1.3209
 5523SOL    HW228032   3.506   2.627  13.491  0.7334  0.3646  0.3991
 5524SOL     OW28033   4.265   2.071   0.900 -0.4661  0.4370  0.4837
 5524SOL    HW128034   4.174   2.101   0.910 -0.6465  0.5013 -1.3972
 5524SOL    HW228035   4.287   2.111   0.816 -3.1083  1.2350  0.1638
 5525SOL     OW28036   3.151   3.710   8.180  0.6863 -0.0680 -0.5267
 5525SOL    HW128037   3.169   3.772   8.109  1.3601 -1.0970 -1.2476
 5525SOL    HW228038   3.056   3.715   8.167  0.7075  1.1467 -0.2423
 5526SOL     OW28039   3.771   2.765  17.425  0.3725  0.0007 -0.4419
 5526SOL    HW128040   3.776   2.688  17.480 -0.0536 -0.2441 -0.7424
 5526SOL    HW228041   3.864   2.782  17.414  0.7651 -1.2860  0.9808
 5527SOL     OW28042   1.574   4.640  16.837  0.2406  0.3231  0.6500
 5527SOL    HW128043   1.653   4.586  16.843  0.1169  0.0774  0.0551
 5527SOL    HW228044   1.551   4.619  16.928 -1.4936 -2.3297 -0.3919
 5528SOL     OW28045   3.947   3.403   6.448 -0.4539 -0.0016  0.3411
 5528SOL    HW128046   3.860   3.369   6.469 -0.1483 -0.1573  1.3434
 5528SOL    HW228047   3.953   3.479   6.506  0.0126  1.0252 -1.0549
 5529SOL     OW28048   2.829   1.405   8.334  0.0643 -0.3422  0.0148
 5529SOL    HW128049   2.814   1.452   8.253  0.7362 -0.5954 -0.2563
 5529SOL    HW228050   2.868   1.323   8.304  1.0935 -0.1055  0.6855
 5530SOL     OW28051   4.247   0.122   8.535 -0.2933  0.2340  0.2854
 5530SOL    HW128052   4.220   0.145   8.623  1.1822  1.6856  0.3356
 5530SOL    HW228053   4.297   0.041   8.550 -2.5918 -1.4703 -1.1293
 5531SOL     OW28054   2.921   0.544   5.347  0.0958  0.0832  0.2521
 5531SOL    HW128055   2.852   0.597   5.307  0.4486 -0.1520 -0.6565
 5531SOL    HW228056   2.904   0.555   5.441  1.7137 -1.3078  0.7054
 5532SOL     OW28057   1.452   1.076   5.704 -0.0700 -0.3514  0.5414
 5532SOL    HW128058   1.439   0.984   5.682  0.7640 -0.3874  0.2058
 5532SOL    HW228059   1.447   1.077   5.800  0.3900 -0.7030  0.5753
 5533SOL     OW28060   3.349   2.264   6.085  0.3049 -0.5538  0.5781
 5533SOL    HW128061   3.262   2.303   6.096 -0.3418 -1.6565 -0.6585
 5533SOL    HW228062   3.386   2.289   6.170 -1.3041 -0.3226  1.2099
 5534SOL     OW28063   4.187   1.592   8.099 -0.1171 -0.2358 -0.7869
 5534SOL    HW128064   4.166   1.679   8.134  2.0531  0.1298 -0.3925
 5534SOL    HW228065   4.159   1.530   8.166  2.8277 -0.3110  0.3943
 5535SOL     OW28066   3.215   3.133   1.553  0.8663  0.0418  0.0707
 5535SOL    HW128067   3.208   3.045   1.518 -0.8401  0.2538 -0.1083
 5535SOL    HW228068   3.253   3.174   1.476 -0.6176  0.1093 -0.6313
 5536SOL     OW28069   0.829   0.227   5.096 -0.4014 -0.1163 -0.2996
 5536SOL    HW128070   0.824   0.184   5.011  0.5835  0.2692 -0.5573
 5536SOL    HW228071   0.919   0.205   5.119 -0.3952 -0.5373 -0.7299
 5537SOL     OW28072   2.951   1.764   1.733  0.1850 -0.4019  0.4943
 5537SOL    HW128073   2.987   1.689   1.779  0.6062  0.1709  1.1066
 5537SOL    HW228074   2.872   1.716   1.708  0.1969 -0.6273  0.8949
 5538SOL     OW28075   0.946   0.125  11.573 -0.4560 -0.5010  0.1839
 5538SOL    HW128076   0.952   0.084  11.659  2.3297  1.7940  1.0670
 5538SOL    HW228077   0.908   0.208  11.603 -0.1625 -1.3205  2.8203
 5539SOL     OW28078   2.680   4.491   6.671 -0.1451 -0.0878 -0.1968
 5539SOL    HW128079   2.585   4.483   6.665 -0.1981 -1.1053  2.2514
 5539SOL    HW228080   2.686   4.469   6.763  0.8765  1.2820  0.0726
 5540SOL     OW28081   1.342   4.079  11.634  0.2440 -0.1784  0.4778
 5540SOL    HW128082   1.374   4.165  11.608 -0.3374  0.6772  2.5652
 5540SOL    HW228083   1.408   4.063  11.701 -0.3587  0.6527  1.2669
 5541SOL     OW28084   3.979   1.384   8.098  0.5436  0.5198  0.6574
 5541SOL    HW128085   3.935   1.466   8.076  1.6047  1.4369  2.0219
 5541SOL    HW228086   3.925   1.357   8.173 -0.8348 -0.5403 -0.7025
 5542SOL     OW28087   2.903   2.238   5.902 -0.2337  0.4241  0.3120
 5542SOL    HW128088   2.823   2.229   5.954 -1.4230  0.1354 -1.5349
 5542SOL    HW228089   2.939   2.150   5.913 -2.3772 -0.6143 -0.9321
 5543SOL     OW28090   1.319   2.170   4.997 -0.8124 -0.7041  0.5543
 5543SOL    HW128091   1.325   2.085   4.952 -3.1797  0.0909 -1.3033
 5543SOL    HW228092   1.409   2.198   4.983 -0.5450 -0.6511  2.4359
 5544SOL     OW28093   2.326   3.090   4.820 -0.0314 -0.1788 -0.2759
 5544SOL    HW128094   2.289   3.002   4.810 -1.8755  0.8363 -2.3275
 5544SOL    HW228095   2.368   3.083   4.906 -0.3225 -1.0444 -0.1997
 5545SOL     OW28096   3.178   2.981   5.627  0.2383  0.1697  0.0286
 5545SOL    HW128097   3.123   2.993   5.704  0.8346  1.0192  0.3109
 5545SOL    HW228098   3.227   2.901   5.646  1.1872  0.7217 -0.0613
 5546SOL     OW28099   2.442   2.973   0.879  0.5291 -0.0190 -0.2618
 5546SOL    HW128100   2.518   2.915   0.884 -0.9420 -1.9223 -0.3497
 5546SOL    HW228101   2.454   3.011   0.966 -0.3381 -0.8225  0.2066
 5547SOL     OW28102   4.718   4.583  12.466  0.1364  0.0422 -0.3034
 5547SOL    HW128103   0.022   4.546  12.550 -0.4783  0.1817 -0.0419
 5547SOL    HW228104   4.647   4.633  12.505 -0.8230 -2.6474  1.3902
 5548SOL     OW28105   2.279   2.050   5.493  0.6114 -0.0498  0.3537
 5548SOL    HW128106   2.352   2.092   5.539 -0.0571  0.8549  0.5809
 5548SOL    HW228107   2.280   2.120   5.428  0.1792 -0.4435 -0.0755
 5549SOL     OW28108   0.916   0.598   6.198 -0.6610  0.3467 -0.0821
 5549SOL    HW128109   0.913   0.574   6.105  0.3082  0.1016 -0.0435
 5549SOL    HW228110   0.942   0.688   6.179  0.1495  0.3066  0.8832
 5550SOL     OW28111   0.250   1.634   4.978 -0.2769  0.3765  0.1325
 5550SOL    HW128112   0.232   1.540   4.983  0.3356  0.1882 -1.2906
 5550SOL    HW228113   0.212   1.658   5.063  1.6810 -0.3359  1.2373
 5551SOL     OW28114   3.102   1.593   0.943 -0.4480  0.1305 -0.0227
 5551SOL    HW128115   3.073   1.680   0.969  1.6116 -0.0736  2.9872
 5551SOL    HW228116   3.020   1.543   0.944 -1.4936  1.8378 -1.1199
 5552SOL     OW28117   2.318   4.519   7.034  0.4788  0.3745 -0.1177
 5552SOL    HW128118   2.300   4.523   6.940 -0.2988 -1.5950 -0.0487
 5552SOL    HW228119   2.388   4.456   7.047 -0.1502 -0.1505  0.7446
 5553SOL     OW28120   1.102   1.114   3.365  0.0006  0.3035  0.3833
 5553SOL    HW128121   1.031   1.135   3.425  0.1306 -0.4464  0.7900
 5553SOL    HW228122   1.094   1.183   3.298  3.3004  0.3378  0.0471
 5554SOL     OW28123   1.532   3.127   5.002  0.0496 -0.0018 -0.4640
 5554SOL    HW128124   1.525   3.032   5.011  0.1300  0.1425  1.0745
 5554SOL    HW228125   1.500   3.149   5.089 -0.6803 -1.8838 -0.2651
 5555SOL     OW28126   1.557   3.141  10.151 -0.7224  0.1253 -0.5980
 5555SOL    HW128127   1.559   3.194  10.231 -0.2035 -0.0960 -0.4665
 5555SOL    HW228128   1.564   3.206  10.081  0.4193  1.5709  0.8451
 5556SOL     OW28129   1.606   2.292   3.187 -0.3155  0.0283 -0.0467
 5556SOL    HW128130   1.586   2.381   3.216 -0.2344  0.5604 -1.5836
 5556SOL    HW228131   1.630   2.253   3.271 -0.1400 -3.7554 -1.8615
 5557SOL     OW28132   3.878   3.587   2.933  0.1461  0.0250 -0.5435
 5557SOL    HW128133   3.883   3.566   3.027  0.4303 -0.6276 -0.7077
 5557SOL    HW228134   3.935   3.518   2.899 -1.7621 -2.6229  1.7180
 5558SOL     OW28135   0.223   1.644   3.975  0.1734  0.1578  0.2077
 5558SOL    HW128136   0.216   1.556   3.937 -1.2898  0.8381 -1.1080
 5558SOL    HW228137   0.308   1.670   3.939  1.0041 -0.7760  1.5133
 5559SOL     OW28138   4.542   4.435  15.222  0.1002 -0.1677 -0.6280
 5559SOL    HW128139   4.610   4.496  15.194  0.9373 -0.0674  1.5977
 5559SOL    HW228140   4.525   4.475  15.308 -0.8739 -1.0045 -0.4310
 5560SOL     OW28141   2.265   1.649   4.674 -0.2250 -0.1350 -0.3533
 5560SOL    HW128142   2.180   1.689   4.653 -0.3478  0.1083  0.6141
 5560SOL    HW228143   2.318   1.674   4.598 -0.4525 -1.0996 -0.8300
 5561SOL     OW28144   3.058   0.375   2.889  0.6358 -0.3863 -0.1380
 5561SOL    HW128145   3.113   0.310   2.933 -0.7436 -0.5988  1.2928
 5561SOL    HW228146   3.134   0.416   2.847 -0.1234  1.9797  0.7631
 5562SOL     OW28147   1.792   3.469  17.589 -0.2885 -0.5573 -0.0914
 5562SOL    HW128148   1.817   3.537  17.652  0.9410 -2.0632  1.0259
 5562SOL    HW228149   1.708   3.438  17.625 -1.2593  2.6775  0.4487
 5563SOL     OW28150   0.214   1.011   8.267 -0.1799 -0.4632 -0.6796
 5563SOL    HW128151   0.161   0.933   8.256 -0.8279 -0.4037  1.8442
 5563SOL    HW228152   0.218   1.045   8.178 -0.5573  1.1794 -0.0853
 5564SOL     OW28153   0.115   0.188   1.908 -0.0612 -0.5178  0.1496
 5564SOL    HW128154   0.130   0.109   1.856  1.1855  0.5397 -1.1283
 5564SOL    HW228155   0.153   0.258   1.854  0.0314 -0.8004 -0.1549
 5565SOL     OW28156   2.209   0.356   6.025 -0.4202 -0.1564 -0.6700
 5565SOL    HW128157   2.128   0.311   6.001 -0.7709 -0.0604  0.3168
 5565SOL    HW228158   2.237   0.307   6.102 -0.0974 -0.0522 -0.7222
 5566SOL     OW28159   1.945   0.188   4.037  0.4916  0.2264 -0.7847
 5566SOL    HW128160   1.901   0.119   3.988  1.2935 -2.4174  2.2230
 5566SOL    HW228161   1.884   0.213   4.107  0.7113 -0.4210 -0.3617
 5567SOL     OW28162   1.452   1.971  15.301  0.0175 -0.5374 -0.0033
 5567SOL    HW128163   1.517   1.984  15.233  2.4426 -0.7441  2.2880
 5567SOL    HW228164   1.477   1.883  15.328  2.7322 -0.4229 -2.2027
 5568SOL     OW28165   1.188   1.174  13.466 -0.3857  0.3407 -0.4648
 5568SOL    HW128166   1.221   1.248  13.416  1.0075 -0.1093 -0.2129
 5568SOL    HW228167   1.245   1.171  13.543 -0.1686 -2.4962 -0.7053
 5569SOL     OW28168   2.706   3.145   9.356  0.5019  0.4256 -0.3277
 5569SOL    HW128169   2.687   3.058   9.321 -0.8466  0.0022  1.4775
 5569SOL    HW228170   2.731   3.132   9.447 -1.0390  0.4603  0.0943
 5570SOL     OW28171   4.046   1.438   8.749 -0.2561 -0.1449  0.2302
 5570SOL    HW128172   4.019   1.530   8.751  1.0436  0.2848 -1.4208
 5570SOL    HW228173   3.991   1.403   8.818  1.5559 -0.2889  1.5996
 5571SOL     OW28174   4.566   0.988  16.894 -0.2577 -0.0981  0.1213
 5571SOL    HW128175   4.500   0.988  16.964  0.7877 -0.1451  1.1100
 5571SOL    HW228176   4.506   1.010  16.822 -0.6948  2.8937  1.3870
 5572SOL     OW28177   4.115   0.119   1.632 -0.1829  0.0761 -0.1723
 5572SOL    HW128178   4.133   0.176   1.707 -1.9504  1.0742 -0.4938
 5572SOL    HW228179   4.021   0.101   1.639  0.5179 -2.5388  2.2101
 5573SOL     OW28180   0.510   2.727   8.746 -0.3496 -0.5019  0.0362
 5573SOL    HW128181   0.479   2.722   8.656 -0.6931 -1.1142  0.1851
 5573SOL    HW228182   0.498   2.636   8.773  0.1592  0.0518  2.1398
 5574SOL     OW28183   2.304   2.474   8.563 -0.0122 -0.0075  0.0416
 5574SOL    HW128184   2.352   2.554   8.545 -0.0245 -0.1078 -0.4204
 5574SOL    HW228185   2.220   2.477   8.516 -1.4771  1.0255  2.7122
 5575SOL     OW28186   2.849   4.286   6.583  0.2900  0.0765 -0.5302
 5575SOL    HW128187   2.854   4.200   6.625 -0.1959  0.3072 -0.0090
 5575SOL    HW228188   2.765   4.323   6.608 -2.6256 -5.1984 -2.5010
 5576SOL     OW28189   0.416   4.490   0.139  0.2554 -0.5648 -0.0311
 5576SOL    HW128190   0.505   4.484   0.105  0.7050  0.6362  0.9228
 5576SOL    HW228191   0.413   4.576   0.181 -1.0878 -1.3160  1.4176
 5577SOL     OW28192   1.171   4.166   0.490  0.5962  0.8634 -0.6041
 5577SOL    HW128193   1.216   4.223   0.428 -0.0697  0.5597 -1.3753
 5577SOL    HW228194   1.136   4.222   0.559 -0.5123  2.2229 -2.2563
 5578SOL     OW28195   0.702   3.201   1.175  0.1446 -0.5487  0.5275
 5578SOL    HW128196   0.716   3.114   1.213  1.2845 -0.7677 -0.3709
 5578SOL    HW228197   0.629   3.241   1.222 -1.7570 -2.9583 -0.3738
 5579SOL     OW28198   4.387   2.162   1.123 -1.0233 -0.5430 -0.0145
 5579SOL    HW128199   4.344   2.247   1.125 -1.7665 -0.9338  0.4894
 5579SOL    HW228200   4.364   2.132   1.035  0.8315  0.7705 -0.9348
 5580SOL     OW28201   0.467   3.431   4.112 -0.3222  0.1759 -0.1107
 5580SOL    HW128202   0.524   3.359   4.142 -0.5281 -0.4570 -1.2547
 5580SOL    HW228203   0.395   3.436   4.175 -0.0338 -2.8707  0.4451
 5581SOL     OW28204   3.136   4.121  10.291 -0.3049  0.4180  0.2781
 5581SOL    HW128205   3.088   4.039  10.306 -1.1333  0.6206 -1.2221
 5581SOL    HW228206   3.180   4.105  10.207  0.0857 -0.4668  0.6568
 5582SOL     OW28207   2.792   4.073   5.001  0.6649  0.1183  0.2995
 5582SOL    HW128208   2.847   4.039   4.931 -1.2590 -3.0630  0.3194
 5582SOL    HW228209   2.731   4.128   4.953 -0.3842 -0.2082  1.2479
 5583SOL     OW28210   4.182   1.327   6.969  0.5673  0.1258  0.5457
 5583SOL    HW128211   4.114   1.388   6.997  1.3828 -0.3542  3.5612
 5583SOL    HW228212   4.136   1.277   6.902  0.3347  0.2149  0.6398
 5584SOL     OW28213   3.541   3.500   1.279  0.4248 -0.5597  0.5236
 5584SOL    HW128214   3.490   3.420   1.270  0.9854 -0.7079 -1.3093
 5584SOL    HW228215   3.507   3.527   1.364 -1.7851  2.1101 -1.2086
 5585SOL     OW28216   1.420   1.276  11.889 -0.2291  0.3047  0.1348
 5585SOL    HW128217   1.411   1.201  11.948 -0.4369 -0.7434 -1.2250
 5585SOL    HW228218   1.434   1.225  11.809  2.8797 -0.4168  1.1410
 5586SOL     OW28219   1.892   1.359   8.717  0.0179  0.4140  0.6036
 5586SOL    HW128220   1.867   1.284   8.662  1.0914  2.1703 -2.2760
 5586SOL    HW228221   1.983   1.343   8.742 -0.1476 -1.0808  0.2845
 5587SOL     OW28222   1.441   2.220   0.943 -0.3733  0.3603  0.5233
 5587SOL    HW128223   1.513   2.164   0.914 -1.6575  0.3486 -2.7122
 5587SOL    HW228224   1.359   2.192   0.903 -0.6011  0.7703  0.6980
 5588SOL     OW28225   0.578   1.894   3.413 -0.2768 -0.5616  0.2144
 5588SOL    HW128226   0.615   1.966   3.361 -2.2948  0.6788  0.5051
 5588SOL    HW228227   0.487   1.920   3.429  0.5320  2.2601  0.2611
 5589SOL     OW28228   0.097   2.681  16.425  0.4547  0.1757  0.7296
 5589SOL    HW128229   0.064   2.749  16.484 -0.0199 -0.4416  1.1737
 5589SOL    HW228230   0.021   2.666  16.370  0.7019  0.9190  0.1907
 5590SOL     OW28231   3.081   2.376   0.327 -0.2468  0.5639 -0.5735
 5590SOL    HW128232   3.056   2.317   0.399  2.0687  1.2618  0.8017
 5590SOL    HW228233   3.020   2.349   0.258  0.2486  0.1721 -0.8566
 5591SOL     OW28234   0.372   1.354   8.016 -0.2039  0.0408 -0.4555
 5591SOL    HW128235   0.344   1.398   8.096  1.1992  1.3920 -0.6967
 5591SOL    HW228236   0.308   1.286   7.996 -0.6653  0.4903 -0.4802
 5592SOL     OW28237   3.534   3.111   5.262  0.5635 -0.4124 -0.2508
 5592SOL    HW128238   3.492   3.107   5.347 -1.9248  0.8008 -1.4351
 5592SOL    HW228239   3.628   3.121   5.279  0.2627 -0.0391  1.1506
 5593SOL     OW28240   3.579   0.844   8.988  0.1211 -0.2978 -0.4414
 5593SOL    HW128241   3.494   0.804   8.970  1.1447 -2.8787  0.4301
 5593SOL    HW228242   3.572   0.878   9.078  0.3155  0.1821 -0.6095
 5594SOL     OW28243   3.535   4.095   9.910 -0.3067 -0.2413  0.1294
 5594SOL    HW128244   3.631   4.091   9.907 -0.2366  1.9498 -0.3653
 5594SOL    HW228245   3.518   4.060   9.997 -2.0373  0.4789  0.0721
 5595SOL     OW28246   4.249   4.428  13.589 -0.0699  0.3972  0.3760
 5595SOL    HW128247   4.321   4.383  13.545 -0.1018 -0.3083  1.0423
 5595SOL    HW228248   4.293   4.477  13.658 -0.0058 -0.4158  0.9118
 5596SOL     OW28249   0.201   2.494  14.021 -0.1026  0.2015  0.5429
 5596SOL    HW128250   0.272   2.432  14.039 -1.6089 -2.1186 -1.4379
 5596SOL    HW228251   0.127   2.433  14.014 -0.7872  0.8595  2.1350
 5597SOL     OW28252   0.166   1.061   6.757 -0.4230  0.0269 -0.3508
 5597SOL    HW128253   0.103   0.989   6.756 -1.0118  0.5509 -1.0458
 5597SOL    HW228254   0.237   1.009   6.795  1.8210  2.5425 -1.1462
 5598SOL     OW28255   2.316   2.338   3.167  0.0704  0.1892 -0.5241
 5598SOL    HW128256   2.262   2.262   3.147  1.0957 -0.9301  0.9081
 5598SOL    HW228257   2.400   2.297   3.190  0.6392  1.8093  0.3294
 5599SOL     OW28258   1.643   2.263  16.332 -1.3685  0.2471  0.1205
 5599SOL    HW128259   1.548   2.261  16.335 -1.3822  3.9552  2.3561
 5599SOL    HW228260   1.653   2.358  16.344  0.5027  0.1487 -0.5553
 5600SOL     OW28261   1.501   1.118   6.609  0.2395  0.7647 -0.0469
 5600SOL    HW128262   1.496   1.040   6.553 -1.1245  0.8924 -0.1070
 5600SOL    HW228263   1.461   1.186   6.556 -0.9406  0.4902  0.4933
 5601SOL     OW28264   3.493   1.323   2.153 -0.0970  0.3850 -0.2839
 5601SOL    HW128265   3.471   1.237   2.189  2.6871  0.7846  2.3439
 5601SOL    HW228266   3.564   1.294   2.096  0.7162 -0.4949  1.1729
 5602SOL     OW28267   0.669   2.514   4.126  0.0345 -0.1931 -0.1088
 5602SOL    HW128268   0.588   2.561   4.143 -0.8332 -1.2318 -1.3903
 5602SOL    HW228269   0.642   2.471   4.045  0.3981 -2.4940  0.9904
 5603SOL     OW28270   0.298   4.087   4.773  0.3603  0.4424 -0.6117
 5603SOL    HW128271   0.255   4.080   4.688  1.4359  0.6073 -1.1703
 5603SOL    HW228272   0.345   4.171   4.769  0.8131  0.1846 -0.7722
 5604SOL     OW28273   3.957   2.173   4.261  0.5117 -0.9019  0.0860
 5604SOL    HW128274   4.028   2.139   4.315 -1.2200 -2.6626  1.2388
 5604SOL    HW228275   3.909   2.235   4.316  1.3018 -0.5844  0.4122
 5605SOL     OW28276   4.224   1.765  12.607  0.0076 -0.3950  0.3531
 5605SOL    HW128277   4.235   1.672  12.590  0.3862 -0.1648 -0.6421
 5605SOL    HW228278   4.296   1.777  12.670  0.9305 -2.9833 -0.2033
 5606SOL     OW28279   0.704   2.191   1.794 -0.1157 -0.0972  0.0805
 5606SOL    HW128280   0.705   2.128   1.866  0.0670 -1.7421 -1.3684
 5606SOL    HW228281   0.793   2.189   1.758  0.5675  0.6879  1.7668
 5607SOL     OW28282   3.653   0.023   0.869  0.4369  0.1940  0.2461
 5607SOL    HW128283   3.591   4.700   0.812 -0.6731  0.0466  1.5706
 5607SOL    HW228284   3.645   4.687   0.944  2.3436  1.1808  1.2433
 5608SOL     OW28285   1.053   4.300   3.557  0.0265 -0.1966 -0.4493
 5608SOL    HW128286   1.019   4.383   3.589  0.5104 -0.1299 -0.1057
 5608SOL    HW228287   1.141   4.328   3.532 -0.2262  0.3739 -0.6961
 5609SOL     OW28288   4.170   2.494   0.722 -0.1405  0.1130 -0.0335
 5609SOL    HW128289   4.090   2.531   0.760  0.6559  1.8899 -0.0932
 5609SOL    HW228290   4.227   2.570   0.725  2.6671 -2.0324  0.9257
 5610SOL     OW28291   3.322   0.215  17.574 -0.0014  0.2533 -0.5096
 5610SOL    HW128292   3.364   0.217  17.660  0.5254 -1.5083 -0.7293
 5610SOL    HW228293   3.241   0.168  17.589  0.9931 -1.5435 -0.7855
 5611SOL     OW28294   2.262   2.727   5.946 -0.0055  0.0485  0.0712
 5611SOL    HW128295   2.319   2.742   5.870 -1.4059 -1.7799 -1.3680
 5611SOL    HW228296   2.325   2.704   6.014  0.1412 -1.3518 -0.5305
 5612SOL     OW28297   0.173   4.262   7.694 -0.3392  0.2310  0.0300
 5612SOL    HW128298   0.120   4.186   7.720 -1.9051  1.1426 -0.4962
 5612SOL    HW228299   0.094   4.311   7.671 -0.3252  0.7392  1.0921
 5613SOL     OW28300   1.071   0.931   6.777 -0.1408 -0.0143 -0.5561
 5613SOL    HW128301   1.163   0.912   6.761  0.2878  0.5006  1.2903
 5613SOL    HW228302   1.044   0.857   6.832  2.2884  0.1994  0.9284
 5614SOL     OW28303   4.709   4.025   1.723 -0.1815 -0.9118  0.6161
 5614SOL    HW128304   4.669   3.988   1.802  1.3716  0.3787  2.0232
 5614SOL    HW228305   0.032   4.098   1.764 -2.7070  1.4167 -0.6365
 5615SOL     OW28306   3.292   2.330  11.963  0.0411  0.2324  0.2255
 5615SOL    HW128307   3.228   2.277  11.916 -0.6245 -0.6942  2.2001
 5615SOL    HW228308   3.261   2.420  11.973 -0.7483  0.0070 -0.2109
 5616SOL     OW28309   0.768   4.463   3.182  0.3133 -0.2352  0.0261
 5616SOL    HW128310   0.755   4.556   3.202  2.7513 -0.3430  2.2333
 5616SOL    HW228311   0.744   4.456   3.090  0.4297  0.2703 -0.0439
 5617SOL     OW28312   4.538   1.399   6.483  0.5485 -0.0293  0.6250
 5617SOL    HW128313   4.531   1.481   6.532  2.0233  1.2231 -1.2649
 5617SOL    HW228314   4.445   1.381   6.468  1.0103 -0.7528 -1.3067
 5618SOL     OW28315   3.345   3.491   9.955 -0.2617  0.0426  0.7332
 5618SOL    HW128316   3.311   3.407   9.986  0.5403 -0.5838 -0.0884
 5618SOL    HW228317   3.313   3.488   9.865 -0.6998 -0.9177  0.9212
 5619SOL     OW28318   2.224   2.074   6.269  0.6115  0.7462 -0.1445
 5619SOL    HW128319   2.144   2.053   6.317  0.0825  1.6105 -0.6713
 5619SOL    HW228320   2.246   2.134   6.340 -2.1014  1.2764  0.2084
 5620SOL     OW28321   2.200   0.997   2.772 -0.2032  0.0475  0.1279
 5620SOL    HW128322   2.274   0.945   2.740 -0.4591  0.2938 -0.8468
 5620SOL    HW228323   2.212   1.005   2.867  0.5486 -1.6106  0.1792
 5621SOL     OW28324   2.354   4.066   4.913 -0.3448 -0.5974 -0.8921
 5621SOL    HW128325   2.259   4.078   4.920 -0.1650  1.1108 -1.1877
 5621SOL    HW228326   2.374   4.092   4.823  2.0510 -0.1318 -0.2117
 5622SOL     OW28327   1.247   1.468   9.237 -0.0227 -0.4047 -0.5856
 5622SOL    HW128328   1.292   1.391   9.202  0.5968 -0.7680  1.0054
 5622SOL    HW228329   1.318   1.533   9.239  1.1486 -1.6278 -3.1458
 5623SOL     OW28330   4.321   0.792   3.298 -0.2857 -0.5163  0.3874
 5623SOL    HW128331   4.279   0.803   3.384  1.5636  1.2771  1.0572
 5623SOL    HW228332   4.352   0.703   3.314  2.7677  0.5931  0.6262
 5624SOL     OW28333   4.094   2.310   5.175  0.2846  0.1021 -0.0737
 5624SOL    HW128334   4.118   2.227   5.135 -0.2156  1.5820 -3.4514
 5624SOL    HW228335   4.009   2.282   5.210  1.0455 -1.8435  0.2290
 5625SOL     OW28336   0.900   1.595   4.869 -0.6614  0.0214  0.2335
 5625SOL    HW128337   0.940   1.629   4.949 -0.0355 -0.8814  0.2962
 5625SOL    HW228338   0.899   1.677   4.819 -2.2043 -1.0068 -1.4079
 5626SOL     OW28339   3.168   2.631   8.103  0.5865  0.8753 -0.1199
 5626SOL    HW128340   3.208   2.600   8.022  0.0392  0.4235 -0.2155
 5626SOL    HW228341   3.242   2.622   8.163 -1.5040 -2.7771  1.8874
 5627SOL     OW28342   2.521   0.715   4.339 -0.0618 -0.9814 -1.0033
 5627SOL    HW128343   2.452   0.650   4.328  1.7993 -3.2760  1.0213
 5627SOL    HW228344   2.477   0.789   4.382  1.2935 -1.4889  1.2781
 5628SOL     OW28345   3.696   0.336   4.376 -0.3531 -0.1320 -0.3280
 5628SOL    HW128346   3.728   0.405   4.318 -1.9008  1.2569  0.4701
 5628SOL    HW228347   3.779   0.299   4.405 -0.9767  0.2614  1.9304
 5629SOL     OW28348   0.442   3.113  13.315  0.2515 -0.3394 -0.4815
 5629SOL    HW128349   0.451   3.132  13.222 -0.1478  0.1787 -0.4180
 5629SOL    HW228350   0.464   3.199  13.351 -1.6719  0.4937 -1.2906
 5630SOL     OW28351   3.574   1.817   4.321 -0.5233  0.1895  0.3188
 5630SOL    HW128352   3.572   1.806   4.226 -0.9372  1.8585  0.1191
 5630SOL    HW228353   3.483   1.841   4.337  0.2944  0.7462  4.2393
 5631SOL     OW28354   3.419   2.744  11.378  0.1455 -0.2817 -0.1760
 5631SOL    HW128355   3.416   2.731  11.283  3.7139 -0.8803 -0.1979
 5631SOL    HW228356   3.500   2.794  11.388  0.7879 -1.3931  0.1015
 5632SOL     OW28357   2.773   2.099  13.585  0.5130  0.1193  1.0135
 5632SOL    HW128358   2.791   2.189  13.556 -0.9289  0.4253  1.0972
 5632SOL    HW228359   2.847   2.089  13.645  0.4176  1.7237  1.3885
 5633SOL     OW28360   1.130   0.646   8.595 -0.3154  0.0460  0.5030
 5633SOL    HW128361   1.224   0.629   8.596 -0.6735 -1.8382  0.3942
 5633SOL    HW228362   1.108   0.604   8.512 -2.5389 -1.2686  1.7610
 5634SOL     OW28363   2.671   0.102  15.165 -0.5391 -0.3675  0.2048
 5634SOL    HW128364   2.713   0.087  15.250  1.4740  2.1264 -0.3294
 5634SOL    HW228365   2.706   0.188  15.141  1.4776 -0.9661  0.9921
 5635SOL     OW28366   4.700   4.446   5.703 -0.1774 -0.7841  0.3099
 5635SOL    HW128367   4.687   4.380   5.771 -2.8538  1.1598  1.6984
 5635SOL    HW228368   0.061   4.418   5.670 -0.9001 -1.3992 -1.0621
 5636SOL     OW28369   2.862   0.172   3.474 -0.8657 -0.5833  0.1057
 5636SOL    HW128370   2.857   0.189   3.380 -0.4448  0.1866  0.2255
 5636SOL    HW228371   2.841   0.258   3.509  0.1036  0.6149 -2.2732
 5637SOL     OW28372   4.335   4.411   0.593 -0.1396 -0.4455  0.3111
 5637SOL    HW128373   4.246   4.433   0.567 -0.3055 -1.1204  0.3154
 5637SOL    HW228374   4.313   4.411   0.686 -0.9263  0.9492  0.1280
 5638SOL     OW28375   1.580   3.390   2.959  0.7622 -0.0750  0.2776
 5638SOL    HW128376   1.569   3.346   2.874 -0.6664  1.0485 -0.1340
 5638SOL    HW228377   1.564   3.319   3.020 -1.7586 -0.8963 -1.3316
 5639SOL     OW28378   0.194   3.022  12.565  0.1749 -0.2527 -0.1461
 5639SOL    HW128379   0.120   3.056  12.514  0.0079 -1.7032 -0.8645
 5639SOL    HW228380   0.242   2.966  12.504  0.0754  0.6050 -1.0187
 5640SOL     OW28381   4.688   3.836   7.433 -0.0065  0.1698  0.0683
 5640SOL    HW128382   4.640   3.896   7.376 -1.6446 -1.0963  0.1092
 5640SOL    HW228383   4.656   3.837   7.523 -1.8145  1.2217 -0.5964
 5641SOL     OW28384   3.656   2.860   9.954 -0.1749  0.5384 -0.7383
 5641SOL    HW128385   3.679   2.768   9.941 -0.7127  0.3130 -0.0859
 5641SOL    HW228386   3.747   2.888   9.965  0.3358 -1.3511  0.0424
 5642SOL     OW28387   2.480   1.276   2.125  0.3250 -0.4131  0.4031
 5642SOL    HW128388   2.461   1.194   2.079  2.0805  1.6573 -4.0392
 5642SOL    HW228389   2.566   1.309   2.096 -0.4729  0.5042 -0.9554
 5643SOL     OW28390   4.698   3.782   5.393  0.6184 -0.7120  0.1297
 5643SOL    HW128391   0.009   3.799   5.480 -1.3114  2.1881  0.3503
 5643SOL    HW228392   0.054   3.771   5.342  0.8917 -2.9384  1.0728
 5644SOL     OW28393   1.903   0.511   8.752 -0.3723 -0.1729 -0.2131
 5644SOL    HW128394   1.905   0.557   8.667 -0.4947  2.6556  1.3039
 5644SOL    HW228395   1.817   0.525   8.792  0.6240 -3.5401  3.0800
 5645SOL     OW28396   4.601   4.156  16.538 -0.1058  0.7727 -0.3568
 5645SOL    HW128397   4.551   4.083  16.577  2.0855 -1.0401 -0.9462
 5645SOL    HW228398   4.690   4.135  16.565 -0.1045 -0.9323 -1.6729
 5646SOL     OW28399   1.983   2.642   1.520 -0.4300 -0.2625  0.6044
 5646SOL    HW128400   2.054   2.600   1.472 -1.8918 -0.7590 -1.1099
 5646SOL    HW228401   1.899   2.605   1.491 -0.7286  0.9995 -0.1318
 5647SOL     OW28402   2.983   3.702   2.543  0.3700  0.2816 -0.2101
 5647SOL    HW128403   3.047   3.761   2.583 -0.8936  2.2884 -1.1489
 5647SOL    HW228404   3.017   3.699   2.454  0.2204 -1.5817 -0.1958
 5648SOL     OW28405   2.813   1.744   0.232  0.0226  0.3257 -0.8924
 5648SOL    HW128406   2.754   1.767   0.304  2.3172  1.6046  0.5544
 5648SOL    HW228407   2.888   1.802   0.244 -0.0138  0.2768 -0.4286
 5649SOL     OW28408   1.432   4.677  17.264  0.1779  0.0250 -0.2260
 5649SOL    HW128409   1.445   0.048  17.259 -0.0547  0.2272  3.3722
 5649SOL    HW228410   1.356   4.676  17.206  0.2364 -1.3296 -0.2842
 5650SOL     OW28411   4.634   0.976   8.486  0.2704 -0.4513 -0.4631
 5650SOL    HW128412   4.618   0.893   8.532  1.8620 -0.6136 -0.2252
 5650SOL    HW228413   4.570   1.032   8.531 -0.8196 -1.8389 -0.2650
 5651SOL     OW28414   3.924   2.076   6.544  0.7511  0.5553 -0.6960
 5651SOL    HW128415   3.831   2.098   6.537  0.5860 -0.1103 -0.6220
 5651SOL    HW228416   3.928   2.101   6.636  1.0902 -1.4331 -0.1616
 5652SOL     OW28417   0.031   4.093   3.082 -0.3590  0.4491 -0.0235
 5652SOL    HW128418   0.071   4.144   3.152 -1.0258 -0.6706  1.1930
 5652SOL    HW228419   4.675   4.079   3.133  0.5823 -0.7539  1.1452
 5653SOL     OW28420   4.675   4.621  12.180 -0.0999  0.2476 -0.1802
 5653SOL    HW128421   4.672   4.533  12.141 -0.7592  0.7777 -1.3430
 5653SOL    HW228422   4.679   4.599  12.273 -1.2780 -0.4245 -0.2880
 5654SOL     OW28423   3.037   3.551   7.877  0.1215  0.2670  0.1849
 5654SOL    HW128424   3.021   3.645   7.891 -0.2645  0.2776 -0.3490
 5654SOL    HW228425   3.126   3.540   7.844 -0.2272  1.8769 -1.3162
 5655SOL     OW28426   4.377   1.079   1.527  0.4111 -0.7579 -0.0269
 5655SOL    HW128427   4.321   1.030   1.586  0.3035  0.1687  0.6407
 5655SOL    HW228428   4.323   1.075   1.448  2.3096  0.6860 -1.3996
 5656SOL     OW28429   2.055   2.493   8.461 -0.0638  0.3039  0.6888
 5656SOL    HW128430   2.007   2.560   8.510  0.3708  0.8370  0.3928
 5656SOL    HW228431   1.995   2.419   8.452 -1.5426  1.2433  2.7351
 5657SOL     OW28432   3.010   1.331   5.383  0.2817  0.1436 -0.5212
 5657SOL    HW128433   2.915   1.339   5.378  0.3333  1.0126 -0.0500
 5657SOL    HW228434   3.028   1.424   5.371 -1.9708  0.3215 -2.4607
 5658SOL     OW28435   2.333   1.814  13.609  0.0174  0.0890  0.1466
 5658SOL    HW128436   2.418   1.849  13.581 -0.3035 -0.1649 -1.1406
 5658SOL    HW228437   2.287   1.844  13.531 -0.5730 -1.8963 -0.2649
 5659SOL     OW28438   0.677   3.747   8.811 -0.6960 -0.3883  0.1411
 5659SOL    HW128439   0.759   3.721   8.768 -1.0752 -0.7314 -0.3813
 5659SOL    HW228440   0.691   3.698   8.892 -1.4077 -1.0145 -0.1185
 5660SOL     OW28441   2.606   3.213  15.211  0.7073 -0.4143  0.1974
 5660SOL    HW128442   2.647   3.241  15.129 -0.3773 -0.6618 -0.4226
 5660SOL    HW228443   2.534   3.157  15.181  0.2002  1.0244 -1.2305
 5661SOL     OW28444   2.538   4.159   5.118 -0.1504 -1.0233 -0.2786
 5661SOL    HW128445   2.562   4.076   5.158  1.4173 -0.5171 -0.1906
 5661SOL    HW228446   2.508   4.128   5.032  0.7362  1.2647 -1.4089
 5662SOL     OW28447   4.321   0.012   2.731  0.4520 -0.1401  0.2201
 5662SOL    HW128448   4.379   0.086   2.715 -0.4019 -0.2696 -3.5850
 5662SOL    HW228449   4.250   0.051   2.681  0.4212  0.5653  0.8246
 5663SOL     OW28450   0.873   1.811   4.413  0.0953 -0.1739  0.3217
 5663SOL    HW128451   0.822   1.849   4.341 -0.5052  0.0644  0.8704
 5663SOL    HW228452   0.797   1.780   4.464 -0.9976  1.0728 -0.5390
 5664SOL     OW28453   2.475   2.797  12.999 -0.2570 -0.7104  0.0358
 5664SOL    HW128454   2.529   2.781  12.921  0.7986 -1.9867  1.0204
 5664SOL    HW228455   2.398   2.739  12.999 -0.9143  0.1654 -1.0902
 5665SOL     OW28456   0.245   0.515   4.971  0.8749 -0.1229  0.5823
 5665SOL    HW128457   0.236   0.531   4.877  0.2412  1.9685  1.0010
 5665SOL    HW228458   0.340   0.520   4.980  0.8826 -0.7868  0.8642
 5666SOL     OW28459   1.372   2.282  14.401 -0.0571 -0.1210  0.4439
 5666SOL    HW128460   1.454   2.233  14.413  2.7773  4.2614 -1.1444
 5666SOL    HW228461   1.316   2.245  14.470  1.8494  1.1538  2.6807
 5667SOL     OW28462   1.908   1.273   5.035  0.3170  0.4444  0.1196
 5667SOL    HW128463   1.880   1.337   4.970 -0.3349 -0.0300 -0.0713
 5667SOL    HW228464   2.002   1.280   5.047  0.5262  0.1047 -1.3070
 5668SOL     OW28465   3.717   0.044   8.176 -0.3011 -0.4746  0.2204
 5668SOL    HW128466   3.627   0.041   8.145 -0.0756 -0.8018 -0.4180
 5668SOL    HW228467   3.754   0.118   8.127 -0.0196 -1.3851 -0.9485
 5669SOL     OW28468   1.358   1.589   8.769 -0.3976 -0.3633  0.3419
 5669SOL    HW128469   1.347   1.672   8.723  1.0275  0.4788  1.5051
 5669SOL    HW228470   1.271   1.570   8.805 -0.0253 -0.6622  1.0984
 5670SOL     OW28471   2.165   3.479   3.351 -0.0203 -0.4544 -0.3154
 5670SOL    HW128472   2.221   3.405   3.372  2.5438  1.3504 -0.8403
 5670SOL    HW228473   2.196   3.551   3.406  1.1426 -2.5973  1.8314
 5671SOL     OW28474   3.649   0.250   5.347 -0.5682  0.3589 -0.4260
 5671SOL    HW128475   3.581   0.308   5.382 -0.7949  0.0860 -0.4054
 5671SOL    HW228476   3.604   0.223   5.267  1.6131  0.3225 -1.6099
 5672SOL     OW28477   1.029   1.684   1.304  0.0915 -0.0848  0.3519
 5672SOL    HW128478   0.937   1.670   1.284  0.0554 -0.2514  0.6217
 5672SOL    HW228479   1.029   1.776   1.278 -0.1064 -0.1340  0.1817
 5673SOL     OW28480   4.598   3.288   6.485  0.3126  0.0048 -0.2719
 5673SOL    HW128481   4.649   3.345   6.426 -0.2076  1.1159  0.3661
 5673SOL    HW228482   4.517   3.338   6.491  1.5931  2.2762 -1.6280
 5674SOL     OW28483   1.741   1.800   9.900  0.4328  0.9108 -0.1173
 5674SOL    HW128484   1.675   1.810   9.968 -0.4452  1.1737 -1.0152
 5674SOL    HW228485   1.810   1.736   9.920  0.5629  0.4289 -2.0875
 5675SOL     OW28486   4.575   2.626   8.026 -0.0603  0.7064 -0.3792
 5675SOL    HW128487   4.526   2.689   7.973 -0.5729 -1.0108 -1.9648
 5675SOL    HW228488   4.583   2.668   8.112  2.3235 -0.0843 -0.2177
 5676SOL     OW28489   1.142   1.003  17.556  0.4747  0.4086 -0.2991
 5676SOL    HW128490   1.125   0.991  17.650  2.5267 -0.4751 -0.0389
 5676SOL    HW228491   1.166   1.096  17.550 -0.9359  0.8017  0.1993
 5677SOL     OW28492   2.346   0.884  13.793 -0.2047  0.1545 -0.7298
 5677SOL    HW128493   2.370   0.816  13.730 -0.5174  1.9178 -2.7727
 5677SOL    HW228494   2.378   0.842  13.873  0.6852  0.1261 -1.0971
 5678SOL     OW28495   2.903   2.788   2.473  0.2452  0.0675  0.3632
 5678SOL    HW128496   2.876   2.847   2.403  1.4528  2.1849  1.6592
 5678SOL    HW228497   2.973   2.739   2.430 -0.7021 -0.5153 -0.4925
 5679SOL     OW28498   4.696   1.789  15.625 -0.5625  0.1680  0.3819
 5679SOL    HW128499   4.627   1.849  15.652 -1.0059 -1.2642  2.4575
 5679SOL    HW228500   4.659   1.746  15.548  2.0427 -2.3684  0.5348
 5680SOL     OW28501   1.312   4.385   3.530 -0.1689 -0.6758  0.1850
 5680SOL    HW128502   1.401   4.359   3.508  0.0235 -1.4611  1.9354
 5680SOL    HW228503   1.311   4.466   3.581  0.7545 -1.1409  0.9411
 5681SOL     OW28504   1.118   3.598   0.721 -0.3557  0.0960  0.0038
 5681SOL    HW128505   1.075   3.585   0.805  1.4085 -1.4019  0.6849
 5681SOL    HW228506   1.060   3.662   0.680  0.6481  0.1151 -1.3760
 5682SOL     OW28507   4.158   1.421   5.779 -0.1566 -0.1038  0.3130
 5682SOL    HW128508   4.164   1.399   5.872  1.3167  0.4436  0.3490
 5682SOL    HW228509   4.252   1.430   5.762 -0.6830  4.1400 -0.4119
 5683SOL     OW28510   2.123   0.929   5.250  0.0944 -0.2420  0.4620
 5683SOL    HW128511   2.059   0.931   5.179 -0.1160 -0.8378  0.6310
 5683SOL    HW228512   2.086   0.999   5.304 -0.3830 -0.0373 -0.1381
 5684SOL     OW28513   2.673   3.430   7.423 -0.3569  0.5077 -0.1843
 5684SOL    HW128514   2.681   3.365   7.493  0.2737 -0.3938 -1.0948
 5684SOL    HW228515   2.645   3.380   7.346 -0.7091 -0.9813  0.9208
 5685SOL     OW28516   0.287   0.671   8.164 -0.2124 -0.9016  0.6262
 5685SOL    HW128517   0.338   0.658   8.244  0.9306  0.2473  0.0944
 5685SOL    HW228518   0.208   0.708   8.203 -1.3817 -0.4296 -2.2067
 5686SOL     OW28519   3.492   0.398  10.449 -0.4673  0.7031 -0.2026
 5686SOL    HW128520   3.445   0.438  10.522  0.4868  0.7602  0.3898
 5686SOL    HW228521   3.463   0.307  10.448  1.4482  0.0976 -0.7990
 5687SOL     OW28522   3.339   3.781   6.989 -0.4979 -0.1860  0.3739
 5687SOL    HW128523   3.337   3.799   6.895 -0.9197 -0.0107  0.4144
 5687SOL    HW228524   3.338   3.872   7.018 -3.2401 -0.9672  2.6594
 5688SOL     OW28525   2.169   1.044   7.814  0.7672 -0.3902  0.3050
 5688SOL    HW128526   2.078   1.056   7.841  0.9315 -1.6301  1.4636
 5688SOL    HW228527   2.166   0.963   7.762 -1.1670 -0.4522  0.4884
 5689SOL     OW28528   3.004   0.746   4.680  0.6771  0.0057  0.0782
 5689SOL    HW128529   2.917   0.708   4.695  0.7591 -0.4005 -0.4771
 5689SOL    HW228530   3.047   0.718   4.760  2.7463 -1.0244 -1.4239
 5690SOL     OW28531   3.739   0.863   8.257 -0.5977  0.3772  0.1233
 5690SOL    HW128532   3.683   0.934   8.288 -0.6880 -0.3267  1.5489
 5690SOL    HW228533   3.768   0.825   8.340  1.5753  0.5015 -0.5822
 5691SOL     OW28534   1.567   1.610   3.329 -0.3605 -0.5215  0.1508
 5691SOL    HW128535   1.614   1.693   3.326 -0.4547 -0.5200 -1.8295
 5691SOL    HW228536   1.569   1.596   3.423 -0.3216 -0.5880  0.1399
 5692SOL     OW28537   0.616   0.566   5.998 -0.1461 -0.1240 -0.1628
 5692SOL    HW128538   0.568   0.600   5.922 -0.1077  1.0085  0.3186
 5692SOL    HW228539   0.607   0.643   6.055 -0.6793 -0.1208 -0.2494
 5693SOL     OW28540   3.229   2.658   8.647  0.2408  0.2519 -0.2124
 5693SOL    HW128541   3.204   2.733   8.701  0.3713 -0.8713  1.3745
 5693SOL    HW228542   3.174   2.590   8.685 -0.3553 -0.0595 -1.6352
 5694SOL     OW28543   2.637   3.826   7.037  0.0306 -0.3635  0.1103
 5694SOL    HW128544   2.615   3.869   6.954  0.8436 -0.6715 -0.2663
 5694SOL    HW228545   2.663   3.738   7.011 -0.1224 -0.3048 -0.2452
 5695SOL     OW28546   1.134   2.690  16.797  0.2490  0.2927 -0.1469
 5695SOL    HW128547   1.062   2.692  16.861  2.0409 -1.7995  1.9356
 5695SOL    HW228548   1.209   2.670  16.853  0.1805 -0.1106 -0.1988
 5696SOL     OW28549   4.586   3.868   7.664  0.2635  0.0676  0.2653
 5696SOL    HW128550   4.547   3.879   7.751 -0.6135 -1.8006  0.1034
 5696SOL    HW228551   4.565   3.957   7.637 -2.1311 -0.2329  1.1161
 5697SOL     OW28552   4.429   1.791  17.276  0.1745  0.3959  0.1610
 5697SOL    HW128553   4.367   1.777  17.204  0.4082  1.5223 -0.2614
 5697SOL    HW228554   4.483   1.712  17.276 -1.4662 -0.6882  3.1396
 5698SOL     OW28555   3.470   3.454   5.487  0.0461 -0.4239  0.0370
 5698SOL    HW128556   3.492   3.548   5.483 -1.8525 -0.0384 -1.3995
 5698SOL    HW228557   3.552   3.408   5.507 -0.0789 -1.4806 -1.8452
 5699SOL     OW28558   3.470   1.114  15.706 -0.0218  0.0958 -0.4168
 5699SOL    HW128559   3.433   1.044  15.760 -4.5384  2.3970 -0.5908
 5699SOL    HW228560   3.451   1.189  15.762 -0.5519  2.3200 -3.5720
 5700SOL     OW28561   0.646   1.959   4.968  0.4405  0.2211  0.5676
 5700SOL    HW128562   0.572   2.009   4.935  0.7830  0.8608  0.7632
 5700SOL    HW228563   0.619   1.867   4.964  1.6481  0.0347 -3.8517
 5701SOL     OW28564   0.284   3.707  14.754  0.0050  0.5471 -0.2581
 5701SOL    HW128565   0.193   3.676  14.758  0.1299  0.6488  3.2902
 5701SOL    HW228566   0.293   3.737  14.663 -0.8745  0.5049 -0.3642
 5702SOL     OW28567   2.800   4.426   4.431 -0.0677  0.1724 -0.3531
 5702SOL    HW128568   2.706   4.409   4.429 -0.2815  1.5077 -0.9630
 5702SOL    HW228569   2.830   4.344   4.470 -0.1448  0.6114  0.6322
 5703SOL     OW28570   2.031   1.799   7.763 -0.1510  0.0237 -0.1724
 5703SOL    HW128571   2.020   1.704   7.753 -3.5807  0.4742 -0.4950
 5703SOL    HW228572   2.061   1.796   7.854  0.2756  3.1814 -0.2173
 5704SOL     OW28573   0.576   3.472   7.844  0.1746  0.0869  0.4207
 5704SOL    HW128574   0.641   3.531   7.805  1.0448  0.9290  3.1509
 5704SOL    HW228575   0.566   3.395   7.789  1.3937  1.5878 -1.9250
 5705SOL     OW28576   3.643   4.368  16.182 -0.2898 -0.2318  0.0335
 5705SOL    HW128577   3.560   4.322  16.198 -0.8805  0.9109  0.1901
 5705SOL    HW228578   3.702   4.300  16.216 -0.1487  0.1176  0.4793
 5706SOL     OW28579   2.498   1.608   5.768  0.0649  0.1709 -0.3067
 5706SOL    HW128580   2.487   1.697   5.803 -3.3925 -0.7814  0.9930
 5706SOL    HW228581   2.406   1.584   5.756  0.3033  0.4214 -2.7701
 5707SOL     OW28582   2.302   1.476   9.225 -0.1271  0.1340 -0.2392
 5707SOL    HW128583   2.247   1.553   9.215 -0.9544 -0.4427 -0.1230
 5707SOL    HW228584   2.255   1.434   9.297  0.2935 -0.0500 -0.0669
 5708SOL     OW28585   0.840   4.255   3.904 -0.4756 -0.4328  0.3709
 5708SOL    HW128586   0.817   4.198   3.831 -2.1965 -1.1080  1.4613
 5708SOL    HW228587   0.836   4.205   3.985 -1.8316  0.3952  0.8004
 5709SOL     OW28588   3.051   4.294   7.071 -0.8718  0.1373 -0.4902
 5709SOL    HW128589   3.021   4.279   7.161 -2.5893 -3.0566 -1.6281
 5709SOL    HW228590   2.973   4.273   7.021 -0.2912 -2.1931 -0.4414
 5710SOL     OW28591   3.594   2.218   2.341  0.1011  0.6236 -0.0468
 5710SOL    HW128592   3.525   2.156   2.362 -0.1398  1.1977  0.8896
 5710SOL    HW228593   3.542   2.296   2.322 -0.2927  0.6618  1.1822
 5711SOL     OW28594   2.001   1.725   4.660 -0.3294 -0.3493  0.2134
 5711SOL    HW128595   2.014   1.806   4.610  0.2555  0.2214  1.3032
 5711SOL    HW228596   1.906   1.720   4.668 -0.1978 -0.5390  1.6796
 5712SOL     OW28597   1.436   1.337   5.873  0.2225  0.0560  0.3122
 5712SOL    HW128598   1.413   1.425   5.842 -0.5847  0.0440  0.8726
 5712SOL    HW228599   1.346   1.313   5.897 -0.0396  0.4603 -0.2674
 5713SOL     OW28600   1.949   3.206   7.740  0.0770 -0.3333 -0.2140
 5713SOL    HW128601   1.887   3.275   7.718  1.7139  0.7870 -1.2871
 5713SOL    HW228602   2.024   3.251   7.778 -0.2716  0.5665 -0.5975
 5714SOL     OW28603   4.282   3.703   5.668  0.0724  0.4543  0.8029
 5714SOL    HW128604   4.315   3.704   5.579 -1.1876  1.4777  0.3411
 5714SOL    HW228605   4.363   3.712   5.718 -0.4550 -0.0300  1.7492
 5715SOL     OW28606   4.163   4.121   2.443 -0.0215 -0.3629 -0.3443
 5715SOL    HW128607   4.221   4.178   2.392 -3.0080  4.2986  1.5552
 5715SOL    HW228608   4.169   4.167   2.527  0.2786  0.6366 -0.9155
 5716SOL     OW28609   2.452   0.406   2.373  0.5392 -0.2677 -0.7529
 5716SOL    HW128610   2.547   0.400   2.360  0.3376 -2.5066 -1.2446
 5716SOL    HW228611   2.440   0.381   2.465 -0.5556 -1.1492 -1.1217
 5717SOL     OW28612   4.387   0.680   1.570 -0.0289 -0.0480  0.5040
 5717SOL    HW128613   4.476   0.674   1.605 -0.2087 -2.1666  0.6268
 5717SOL    HW228614   4.355   0.769   1.582  2.4966  0.8186  0.9077
 5718SOL     OW28615   4.508   2.478   4.939  0.5560  0.0858  0.3372
 5718SOL    HW128616   4.556   2.411   4.987  0.8259 -0.2122 -0.3455
 5718SOL    HW228617   4.429   2.469   4.993 -0.4285 -0.9381 -1.2730
 5719SOL     OW28618   1.221   3.409   6.922  0.1378 -0.0362 -0.5524
 5719SOL    HW128619   1.138   3.362   6.929  1.3421 -2.3300 -1.5159
 5719SOL    HW228620   1.252   3.362   6.845  0.0578  0.0440 -0.6336
 5720SOL     OW28621   2.952   0.648   3.322 -0.2098  0.1039 -0.4403
 5720SOL    HW128622   3.000   0.584   3.269 -1.1735  0.1320 -1.3500
 5720SOL    HW228623   2.862   0.616   3.315  0.4085 -1.7776  0.0971
 5721SOL     OW28624   0.710   3.251   4.078  0.1016 -0.3639 -0.3140
 5721SOL    HW128625   0.684   3.168   4.116  0.4416  0.2945  1.3804
 5721SOL    HW228626   0.732   3.228   3.987  1.4330 -2.0135  0.4264
 5722SOL     OW28627   2.660   0.716   9.537 -0.3818 -0.1452  0.1950
 5722SOL    HW128628   2.669   0.675   9.451  0.4506 -0.4870  0.4479
 5722SOL    HW228629   2.582   0.770   9.527 -1.2212 -1.3928  0.0346
 5723SOL     OW28630   1.173   2.656  15.827  0.0740 -0.4959  0.2823
 5723SOL    HW128631   1.224   2.662  15.746  1.4186  0.2067  1.1885
 5723SOL    HW228632   1.097   2.704  15.794 -1.3242 -2.2184  0.9916
 5724SOL     OW28633   0.972   0.702   9.802  0.0113 -0.4902 -0.1333
 5724SOL    HW128634   1.030   0.727   9.730 -0.4698  0.7767 -0.0797
 5724SOL    HW228635   0.966   0.607   9.789  3.3341 -0.6315 -0.5673
 5725SOL     OW28636   3.514   0.430   8.370 -0.3418 -0.2722 -0.0620
 5725SOL    HW128637   3.431   0.383   8.367  0.7988 -2.2690  0.0100
 5725SOL    HW228638   3.493   0.497   8.435  0.6496  0.0922 -0.1234
 5726SOL     OW28639   2.293   2.732   1.599 -0.7339  0.2500 -0.2874
 5726SOL    HW128640   2.220   2.793   1.586  0.7939  2.0094 -0.5633
 5726SOL    HW228641   2.274   2.673   1.525 -1.9319 -0.5552  0.6622
 5727SOL     OW28642   2.007   2.061   4.164  0.4831 -0.1887  0.0512
 5727SOL    HW128643   1.982   2.150   4.187  1.2691  0.1781 -0.5116
 5727SOL    HW228644   1.916   2.037   4.148 -0.2931  1.9013  1.3184
 5728SOL     OW28645   3.278   3.158   8.709  0.5289 -0.1928 -0.2647
 5728SOL    HW128646   3.235   3.244   8.710  0.9149 -0.0029  0.0278
 5728SOL    HW228647   3.305   3.154   8.618  0.6254 -2.0434 -0.1522
 5729SOL     OW28648   2.473   3.331   7.107  0.1846 -0.0583  0.0226
 5729SOL    HW128649   2.467   3.315   7.201  1.9135 -3.1557 -0.3824
 5729SOL    HW228650   2.387   3.300   7.080  0.3022 -1.1686  0.9095
 5730SOL     OW28651   1.088   3.013  13.313 -0.3949 -0.5880 -0.4906
 5730SOL    HW128652   1.165   3.034  13.365  0.0513 -2.4519 -0.4133
 5730SOL    HW228653   1.022   3.068  13.356  0.5024  0.0855  0.0085
 5731SOL     OW28654   4.326   1.078   5.556  0.5337 -0.1561  0.0395
 5731SOL    HW128655   4.309   1.147   5.492  0.6525 -1.0849 -0.9852
 5731SOL    HW228656   4.235   1.066   5.584  0.9199 -1.4694  0.7459
 5732SOL     OW28657   1.055   2.239   3.743 -0.0707  0.1520  0.3775
 5732SOL    HW128658   0.964   2.263   3.726  0.2927  0.2155 -1.4860
 5732SOL    HW228659   1.068   2.201   3.656 -2.0581  0.3097  0.0190
 5733SOL     OW28660   1.836   4.250   7.611 -0.0385  0.5135  0.6486
 5733SOL    HW128661   1.925   4.221   7.593 -1.4283 -3.1174 -0.4015
 5733SOL    HW228662   1.792   4.170   7.642  0.7932  0.4838  1.7184
 5734SOL     OW28663   1.221   3.260   0.135  0.3250  0.5478  0.1418
 5734SOL    HW128664   1.172   3.252   0.217  1.3906 -1.7575  0.5582
 5734SOL    HW228665   1.259   3.348   0.142  3.3712 -0.7597  0.3744
 5735SOL     OW28666   0.348   1.267   3.612  0.4037  0.1584 -0.3576
 5735SOL    HW128667   0.346   1.173   3.594  0.6050  0.3165 -1.2396
 5735SOL    HW228668   0.441   1.277   3.592  0.3507 -1.9068 -1.6172
 5736SOL     OW28669   0.085   2.012   4.900  0.4309  0.9789 -0.3921
 5736SOL    HW128670   0.011   1.986   4.954  1.1353  2.8454  1.5086
 5736SOL    HW228671   0.158   1.974   4.950 -2.0303 -3.5544 -0.2908
 5737SOL     OW28672   3.041   0.900   2.568 -0.6596  0.3009  0.1757
 5737SOL    HW128673   3.020   0.992   2.580 -0.1094  0.5208 -0.5807
 5737SOL    HW228674   2.950   0.872   2.560 -0.0793 -1.5761  0.0777
 5738SOL     OW28675   4.014   0.547  11.434 -0.2465 -0.1484 -0.2547
 5738SOL    HW128676   4.026   0.642  11.427 -2.8149  0.1034 -1.1281
 5738SOL    HW228677   3.940   0.541  11.494  1.7184 -0.0015  2.1403
 5739SOL     OW28678   4.125   3.186   6.872 -0.2446 -0.5368  0.2089
 5739SOL    HW128679   4.187   3.116   6.853 -0.5626 -1.0181  0.9656
 5739SOL    HW228680   4.043   3.136   6.872 -0.2721 -0.4907  0.4061
 5740SOL     OW28681   3.859   1.349   2.955  0.7241  0.2253  0.5309
 5740SOL    HW128682   3.868   1.372   2.862 -1.7329  0.9043  0.4558
 5740SOL    HW228683   3.826   1.426   3.001  1.9375  0.1838  1.4798
 5741SOL     OW28684   4.144   1.370   1.584 -0.2596  0.3815  0.7150
 5741SOL    HW128685   4.202   1.333   1.651 -1.8100  0.3739  2.0624
 5741SOL    HW228686   4.174   1.337   1.499  1.1179  1.3018  0.8333
 5742SOL     OW28687   4.003   0.174   7.279 -0.1964  0.6950  0.7023
 5742SOL    HW128688   3.951   0.255   7.278  0.0812  0.8793  1.0774
 5742SOL    HW228689   3.943   0.114   7.235 -0.2996  0.0133  1.7851
 5743SOL     OW28690   2.493   2.679   8.150 -0.2895 -0.0785  0.4869
 5743SOL    HW128691   2.408   2.675   8.195  0.5229  1.2152  2.1421
 5743SOL    HW228692   2.516   2.588   8.171  0.4279 -0.2408 -0.9966
 5744SOL     OW28693   0.154   4.269   6.725 -0.1493 -0.2455  0.0638
 5744SOL    HW128694   0.114   4.351   6.755 -2.0787 -0.6534 -1.3876
 5744SOL    HW228695   0.218   4.256   6.795 -1.2770  0.9331  1.3072
 5745SOL     OW28696   2.800   4.176   6.998  0.6726  0.5250  0.0054
 5745SOL    HW128697   2.729   4.153   6.938  1.4098 -2.3299  0.2372
 5745SOL    HW228698   2.812   4.092   7.042 -1.2992  1.5335  2.4597
 5746SOL     OW28699   0.950   2.901  16.642  0.2765 -0.3339  0.2527
 5746SOL    HW128700   0.919   2.926  16.555  0.7588  4.0948  1.3502
 5746SOL    HW228701   1.034   2.860  16.623  0.4686 -1.1730  2.9323
 5747SOL     OW28702   3.006   1.670  14.907  0.3543 -0.1126  0.2140
 5747SOL    HW128703   3.001   1.749  14.960 -0.2973  0.4696 -0.7071
 5747SOL    HW228704   3.082   1.690  14.852  0.2982  0.0158  0.1831
 5748SOL     OW28705   3.177   0.317  16.084  0.4800  0.0111  0.5247
 5748SOL    HW128706   3.105   0.367  16.123 -0.5046  1.6393 -3.3311
 5748SOL    HW228707   3.165   0.338  15.991  0.7059 -1.1942  0.2361
 5749SOL     OW28708   1.924   2.596   6.423  0.7235  0.0310 -0.0767
 5749SOL    HW128709   1.914   2.687   6.453 -1.0294 -0.5879  1.1676
 5749SOL    HW228710   1.891   2.605   6.334  1.7262  2.7036 -0.1781
 5750SOL     OW28711   4.069   2.507  11.083  0.0519 -0.1026  0.1063
 5750SOL    HW128712   4.118   2.548  11.154 -0.6867 -0.0349  0.5773
 5750SOL    HW228713   4.107   2.547  11.005  0.7833  3.1983  2.1495
 5751SOL     OW28714   4.250   0.940   0.841  0.2110 -0.1710 -0.3339
 5751SOL    HW128715   4.182   0.963   0.904  0.1573 -0.1107 -0.4143
 5751SOL    HW228716   4.207   0.924   0.757  0.3501 -0.5692 -0.3274
 5752SOL     OW28717   2.094   1.926   6.575 -0.4061  0.3832  0.4160
 5752SOL    HW128718   2.035   1.960   6.642  0.4301  1.2991  0.6918
 5752SOL    HW228719   2.037   1.951   6.502 -0.7018 -1.5126  0.0111
 5753SOL     OW28720   3.236   2.716  12.095  0.1538 -0.1075 -0.1465
 5753SOL    HW128721   3.269   2.702  12.006 -0.0152  1.1709 -0.4062
 5753SOL    HW228722   3.216   2.809  12.101  0.6794 -0.0730  0.9552
 5754SOL     OW28723   2.155   2.331   4.628  0.2167  0.2709 -0.6872
 5754SOL    HW128724   2.226   2.380   4.586  0.7389  0.8017  0.8309
 5754SOL    HW228725   2.195   2.244   4.633  1.5396  0.8566 -1.2279
 5755SOL     OW28726   4.386   0.913  11.938  0.2018 -0.0430  0.0274
 5755SOL    HW128727   4.313   0.912  11.878  1.5912  1.0607 -1.6746
 5755SOL    HW228728   4.388   1.009  11.941 -0.5997 -0.0375  0.3730
 5756SOL     OW28729   2.811   4.384   3.932  0.2618 -0.1882  0.6545
 5756SOL    HW128730   2.874   4.312   3.928  0.9009  0.4411 -0.5000
 5756SOL    HW228731   2.840   4.420   4.016 -0.4491  1.2445  0.2788
 5757SOL     OW28732   0.102   1.187   5.962  0.2900 -0.1200 -0.6465
 5757SOL    HW128733   0.192   1.208   5.983  0.2378  2.9814 -3.5156
 5757SOL    HW228734   0.098   1.115   6.025  0.3830  1.0297  0.6902
 5758SOL     OW28735   2.540   3.615   8.270  0.2864  0.0421 -0.2293
 5758SOL    HW128736   2.580   3.534   8.239 -0.8350 -0.2822 -0.8050
 5758SOL    HW228737   2.522   3.652   8.183 -0.0027 -1.1519 -0.6768
 5759SOL     OW28738   0.281   2.008   7.257  0.3021 -0.3058 -0.3239
 5759SOL    HW128739   0.375   2.006   7.242  0.1518 -2.5012 -0.9717
 5759SOL    HW228740   0.253   2.053   7.177  0.6401 -3.0731 -1.9869
 5760SOL     OW28741   3.952   1.091   1.304  0.0258 -0.2432 -0.2029
 5760SOL    HW128742   3.932   1.125   1.391  1.4191  0.5909 -0.2132
 5760SOL    HW228743   3.883   1.124   1.246  0.4927 -0.0821 -0.6694
 5761SOL     OW28744   4.360   1.589  13.943 -0.1317 -0.3619  0.6542
 5761SOL    HW128745   4.267   1.583  13.920 -0.2173 -0.5762  1.0561
 5761SOL    HW228746   4.333   1.630  14.026  1.8946  0.6604  0.8144
 5762SOL     OW28747   4.093   3.029   3.419  0.3597  0.1035  0.0924
 5762SOL    HW128748   4.145   3.107   3.439 -0.1195 -0.0902  2.0796
 5762SOL    HW228749   4.135   2.966   3.478  1.6503  0.3264 -0.5885
 5763SOL     OW28750   3.253   0.242   9.130 -0.4123 -0.0422  0.4459
 5763SOL    HW128751   3.254   0.245   9.225 -1.2738  0.5593  0.4410
 5763SOL    HW228752   3.168   0.199   9.115 -0.3068  0.5522 -1.9432
 5764SOL     OW28753   2.009   3.467   9.716 -0.1272 -0.4372 -0.0602
 5764SOL    HW128754   2.097   3.495   9.691  1.2666 -3.0113  1.8793
 5764SOL    HW228755   1.955   3.542   9.691 -0.7277 -0.8502 -0.0037
 5765SOL     OW28756   1.802   0.619   0.503  0.0153 -0.0056  0.0354
 5765SOL    HW128757   1.712   0.645   0.523  0.1184 -0.0887  0.6061
 5765SOL    HW228758   1.775   0.574   0.423  2.8979 -0.1868 -0.8552
 5766SOL     OW28759   0.836   1.326   4.922  0.1169 -0.0662 -0.4168
 5766SOL    HW128760   0.860   1.418   4.934 -0.8982 -0.0457  1.4992
 5766SOL    HW228761   0.897   1.287   4.985 -0.9211 -0.2259  0.4995
 5767SOL     OW28762   3.836   3.310  14.927  0.2537  0.2498  0.0854
 5767SOL    HW128763   3.842   3.255  15.006 -2.2755 -1.2951 -0.7869
 5767SOL    HW228764   3.743   3.311  14.905  0.4200 -0.6542 -0.6617
 5768SOL     OW28765   1.782   3.602  17.053 -0.2282 -0.0717 -0.6151
 5768SOL    HW128766   1.776   3.595  16.957 -0.3963  2.8760 -0.8315
 5768SOL    HW228767   1.816   3.689  17.072 -1.1117  0.3446 -0.9464
 5769SOL     OW28768   1.215   3.289   3.511  0.2583 -0.6811  0.0207
 5769SOL    HW128769   1.175   3.368   3.475  1.4763  0.6691  1.6317
 5769SOL    HW228770   1.148   3.220   3.503 -1.0414  0.4640  1.0246
 5770SOL     OW28771   0.810   1.560   1.846 -0.2571  0.2143 -0.1034
 5770SOL    HW128772   0.892   1.510   1.850 -0.4367 -0.1402 -0.9280
 5770SOL    HW228773   0.792   1.569   1.752 -1.6220 -3.5421 -0.1972
 5771SOL     OW28774   3.683   0.402   8.712 -0.3711 -0.4919 -0.0648
 5771SOL    HW128775   3.750   0.429   8.649  0.7066 -2.4666  0.2478
 5771SOL    HW228776   3.659   0.488   8.748 -0.3719 -0.8648  0.8265
 5772SOL     OW28777   1.412   1.357  14.886  0.9233  0.4036  0.3281
 5772SOL    HW128778   1.396   1.270  14.852  1.7579 -0.1608  1.3762
 5772SOL    HW228779   1.366   1.415  14.825 -0.9340 -0.0460  1.3056
 5773SOL     OW28780   2.504   4.549   2.417 -0.0720  0.2242  0.5708
 5773SOL    HW128781   2.433   4.585   2.364  1.6164  1.2888 -1.0250
 5773SOL    HW228782   2.571   4.537   2.349 -0.1593  3.7259 -0.1570
 5774SOL     OW28783   3.104   0.188   3.101  0.3333 -1.0186  0.0978
 5774SOL    HW128784   3.114   0.103   3.058  1.6786 -1.6313  1.6094
 5774SOL    HW228785   3.161   0.187   3.178 -0.8635  0.9183  0.9907
 5775SOL     OW28786   3.960   2.724   9.133 -0.1656 -0.2462  0.0257
 5775SOL    HW128787   4.050   2.731   9.099 -0.7101  2.8101 -0.7954
 5775SOL    HW228788   3.972   2.640   9.178 -0.8662  0.5277  1.6346
 5776SOL     OW28789   4.488   0.496   3.786 -1.1628  0.3829 -0.1292
 5776SOL    HW128790   4.412   0.541   3.749 -1.5121 -0.6673 -0.7046
 5776SOL    HW228791   4.449   0.429   3.842  2.2324  0.1137  1.8654
 5777SOL     OW28792   1.648   2.063   8.526 -0.5839  0.2345 -0.1470
 5777SOL    HW128793   1.688   1.994   8.473 -0.5911  0.6021 -0.6263
 5777SOL    HW228794   1.616   2.017   8.604  0.2438 -1.6758 -0.9325
 5778SOL     OW28795   0.611   1.736   7.315 -0.1265  0.9583 -0.1561
 5778SOL    HW128796   0.537   1.746   7.256  0.1889  0.2938 -0.6556
 5778SOL    HW228797   0.593   1.648   7.346 -2.8073  1.4050 -0.4990
 5779SOL     OW28798   4.690   2.652   2.197  0.2186 -0.0910 -0.3087
 5779SOL    HW128799   0.006   2.575   2.237 -1.6136  0.1420  1.9395
 5779SOL    HW228800   4.661   2.700   2.275 -0.3625 -0.3445 -0.3653
 5780SOL     OW28801   1.100   2.513   8.451  0.2000  0.4539 -0.6421
 5780SOL    HW128802   1.064   2.572   8.517  0.6776  0.5662 -0.4787
 5780SOL    HW228803   1.134   2.450   8.514 -0.8450  0.6929  0.1626
 5781SOL     OW28804   2.652   2.366   3.232  0.2834 -0.5592  0.1770
 5781SOL    HW128805   2.676   2.274   3.231  0.8164 -0.3989 -1.0360
 5781SOL    HW228806   2.681   2.396   3.146  0.7696  2.6394  1.4692
 5782SOL     OW28807   2.422   3.428  15.080 -0.1460 -0.3623  0.1423
 5782SOL    HW128808   2.478   3.413  15.004 -1.4264  1.3443 -1.1237
 5782SOL    HW228809   2.350   3.366  15.067  0.0434  0.1807 -3.4239
 5783SOL     OW28810   3.363   3.331   6.500  0.2663 -0.1787  0.2953
 5783SOL    HW128811   3.302   3.358   6.432 -0.3943  0.0131  0.9612
 5783SOL    HW228812   3.423   3.406   6.499 -2.8479  2.2692 -1.0570
 5784SOL     OW28813   4.327   4.054  11.889 -0.2809  0.3420 -0.7356
 5784SOL    HW128814   4.256   4.100  11.846 -1.1469  0.2241  0.5516
 5784SOL    HW228815   4.344   3.995  11.816  1.3490 -1.5704  1.1672
 5785SOL     OW28816   2.959   3.286   2.302 -0.0408  0.0629  0.2748
 5785SOL    HW128817   3.032   3.348   2.291 -1.3491  1.5640  0.1151
 5785SOL    HW228818   2.884   3.337   2.331  1.8323  3.0858 -0.1927
 5786SOL     OW28819   3.618   4.309   3.276 -0.2565 -0.3991 -0.3209
 5786SOL    HW128820   3.569   4.240   3.232  1.1499 -1.4043 -0.3153
 5786SOL    HW228821   3.639   4.268   3.360 -0.8014 -2.0320 -0.9942
 5787SOL     OW28822   2.811   1.134   5.903 -0.2731  0.2178 -0.1849
 5787SOL    HW128823   2.816   1.197   5.974  1.9475 -0.6546  0.4492
 5787SOL    HW228824   2.880   1.072   5.929 -1.3619 -0.7570  0.3998
 5788SOL     OW28825   0.123   3.258   7.005  0.2195 -0.5793  0.1541
 5788SOL    HW128826   0.124   3.343   6.961 -1.4694 -1.5455 -1.7478
 5788SOL    HW228827   0.174   3.285   7.081 -0.0951  0.0602  0.1322
 5789SOL     OW28828   0.098   4.009   6.902 -0.3199 -0.4652  0.1419
 5789SOL    HW128829   0.192   3.996   6.893 -0.3217 -0.3116 -0.1002
 5789SOL    HW228830   0.063   4.015   6.813  2.2920  0.3835 -0.8298
 5790SOL     OW28831   4.412   2.537  14.484  0.0475 -0.1896 -0.1027
 5790SOL    HW128832   4.368   2.602  14.540  1.5572  0.5977  0.1621
 5790SOL    HW228833   4.497   2.527  14.528  0.5027 -3.6510 -1.8160
 5791SOL     OW28834   2.313   2.267   6.454  0.0921  0.1379  0.2653
 5791SOL    HW128835   2.267   2.304   6.530 -0.6052 -0.8131  0.3078
 5791SOL    HW228836   2.362   2.341   6.418  0.7686 -2.0382 -3.2380
 5792SOL     OW28837   1.609   3.314  15.586 -0.4310  0.3511  0.1950
 5792SOL    HW128838   1.673   3.332  15.655 -0.5687 -1.2998  0.7584
 5792SOL    HW228839   1.529   3.316  15.639 -0.8217  0.0389 -0.3827
 5793SOL     OW28840   2.928   0.764   8.344  0.0862  0.2920  0.1928
 5793SOL    HW128841   2.899   0.783   8.255  0.8942 -1.9575 -0.5400
 5793SOL    HW228842   2.921   0.851   8.385 -0.0280  0.6808 -0.6466
 5794SOL     OW28843   0.222   1.708   5.333 -0.0892 -0.2219  0.6796
 5794SOL    HW128844   0.181   1.623   5.315  1.9446 -1.2108  0.6169
 5794SOL    HW228845   0.164   1.751   5.396  0.3208 -0.2847  1.0985
 5795SOL     OW28846   3.485   0.103   1.816  0.1516  0.9717  0.1932
 5795SOL    HW128847   3.509   0.121   1.907 -0.2219  1.8154  0.1227
 5795SOL    HW228848   3.443   0.018   1.827  1.1256  0.7681  2.3530
 5796SOL     OW28849   2.412   2.058   3.290  0.0158 -0.3708  0.5172
 5796SOL    HW128850   2.507   2.058   3.274  0.0159  0.9126  0.5336
 5796SOL    HW228851   2.405   2.144   3.331  0.9138 -0.3207  0.5856
 5797SOL     OW28852   4.502   2.774   4.570  0.0087 -0.3371  0.4110
 5797SOL    HW128853   4.419   2.821   4.564  0.3704  0.1662 -0.6683
 5797SOL    HW228854   4.473   2.689   4.605  1.1596 -0.1225  1.8870
 5798SOL     OW28855   3.103   0.277   8.717 -0.4502  0.0721 -0.1297
 5798SOL    HW128856   3.060   0.292   8.633  0.6079  1.2601 -0.4566
 5798SOL    HW228857   3.084   0.358   8.764 -1.1152 -0.2073  0.0897
 5799SOL     OW28858   0.800   1.690   5.308 -0.0615  0.0322 -0.4709
 5799SOL    HW128859   0.736   1.639   5.259  0.2837 -0.6090 -0.2450
 5799SOL    HW228860   0.751   1.702   5.389  0.3843 -0.5066 -0.1214
 5800SOL     OW28861   0.691   3.185   9.759 -0.2352 -0.3423 -0.4883
 5800SOL    HW128862   0.605   3.205   9.722  0.2145  1.6533 -0.4246
 5800SOL    HW228863   0.705   3.102   9.712  0.2904 -1.2996  1.3670
 5801SOL     OW28864   2.777   2.687   4.357  0.3943  0.1777 -0.0296
 5801SOL    HW128865   2.774   2.748   4.283 -0.1167  0.4792  0.2387
 5801SOL    HW228866   2.772   2.747   4.432 -1.8997 -1.0484  0.8184
 5802SOL     OW28867   1.468   1.174   1.161 -0.4695  0.6469  0.0252
 5802SOL    HW128868   1.522   1.111   1.113  0.6093  2.4829 -1.1765
 5802SOL    HW228869   1.529   1.192   1.233 -0.9267  0.7974  0.3754
 5803SOL     OW28870   2.658   4.367  14.035  0.0278  0.4817 -0.1541
 5803SOL    HW128871   2.642   4.360  13.941 -0.7943 -1.1783  0.1152
 5803SOL    HW228872   2.710   4.288  14.051 -4.4605 -2.2687  0.9100
 5804SOL     OW28873   0.214   3.669   1.678  0.5053  0.6112 -0.1658
 5804SOL    HW128874   0.186   3.634   1.594 -0.8840 -1.9391  1.3627
 5804SOL    HW228875   0.232   3.582   1.714  0.6655  1.6409  2.2425
 5805SOL     OW28876   1.047   0.087   5.388  0.2286 -0.0231  0.4006
 5805SOL    HW128877   1.132   0.058   5.419  0.3688 -0.1317 -0.0908
 5805SOL    HW228878   1.010   0.123   5.469  0.2436  0.6220  0.1191
 5806SOL     OW28879   0.220   4.714   8.259  0.5732 -0.1802  0.1740
 5806SOL    HW128880   0.297   4.667   8.290  0.6837 -1.2170 -1.6705
 5806SOL    HW228881   0.152   4.691   8.323  2.0454 -1.6924  1.1960
 5807SOL     OW28882   2.378   0.309  16.888  0.2490  0.0774 -0.6741
 5807SOL    HW128883   2.347   0.241  16.948  2.6159 -1.3267 -1.0408
 5807SOL    HW228884   2.347   0.269  16.807 -0.0087 -2.0272  0.4627
 5808SOL     OW28885   2.834   4.418   8.717 -0.4170 -0.1820  0.2414
 5808SOL    HW128886   2.739   4.425   8.727 -0.5126 -0.1381 -0.7481
 5808SOL    HW228887   2.841   4.323   8.725 -1.4391 -0.1711  1.3348
 5809SOL     OW28888   3.004   4.422  12.418 -0.7454 -0.1278 -0.8695
 5809SOL    HW128889   3.026   4.500  12.470  2.3249 -0.8495 -1.0949
 5809SOL    HW228890   2.920   4.449  12.382 -1.5071  0.9901  1.7259
 5810SOL     OW28891   1.849   0.272  11.028 -0.5906  0.1351 -0.2985
 5810SOL    HW128892   1.862   0.282  11.123  0.7363  2.4904 -0.7449
 5810SOL    HW228893   1.785   0.201  11.028 -0.8045  0.3265 -0.2930
 5811SOL     OW28894   0.649   2.187  14.865 -0.1858  0.2597  0.4603
 5811SOL    HW128895   0.685   2.138  14.939 -0.1766 -1.7367 -0.8649
 5811SOL    HW228896   0.728   2.192  14.812 -0.8650 -1.5217 -0.7031
 5812SOL     OW28897   0.744   0.065   5.466  1.1288 -0.3520 -0.3929
 5812SOL    HW128898   0.785   0.118   5.534 -1.2599  0.8427  0.1396
 5812SOL    HW228899   0.812   0.056   5.399  0.9509 -0.7690 -0.5206
 5813SOL     OW28900   0.339   2.983  15.060  0.3069 -0.2706  0.3550
 5813SOL    HW128901   0.391   2.924  15.005 -0.7598 -2.1069  1.2901
 5813SOL    HW228902   0.329   3.061  15.005 -0.1578  0.5750  1.6443
 5814SOL     OW28903   1.360   0.001   6.763  0.3456  0.2315  0.1697
 5814SOL    HW128904   1.430   4.675   6.722 -1.0003 -1.5745  0.0749
 5814SOL    HW228905   1.301   0.001   6.688  0.1751 -0.3565  0.3019
 5815SOL     OW28906   2.669   3.755   5.949 -0.0242 -0.0141  0.1485
 5815SOL    HW128907   2.662   3.729   5.857  0.4587 -1.7514  0.6098
 5815SOL    HW228908   2.729   3.693   5.990 -0.3710 -1.4569 -1.5205
 5816SOL     OW28909   1.145   0.854   3.421  0.0023  0.5431 -0.0611
 5816SOL    HW128910   1.124   0.946   3.404  0.8407  0.8649  0.6267
 5816SOL    HW228911   1.222   0.843   3.364 -1.6185 -1.5226 -1.8692
 5817SOL     OW28912   1.194   3.625   0.228 -0.0187  0.7671  0.2291
 5817SOL    HW128913   1.247   3.678   0.287  3.1697 -1.1342 -0.9410
 5817SOL    HW228914   1.258   3.571   0.181 -0.5267  0.0936  0.3073
 5818SOL     OW28915   1.598   3.604   7.606  0.1290 -0.0119 -0.0804
 5818SOL    HW128916   1.504   3.619   7.620  0.0880 -1.2740  1.0589
 5818SOL    HW228917   1.591   3.566   7.519  2.2608 -0.8916  0.1293
 5819SOL     OW28918   2.600   0.356   5.431 -0.3285 -0.0384  0.3852
 5819SOL    HW128919   2.612   0.446   5.460 -1.3011  0.7686 -1.7383
 5819SOL    HW228920   2.670   0.351   5.367 -0.7070 -0.0781 -0.0229
 5820SOL     OW28921   0.786   0.514  14.886 -0.0036 -0.0931 -0.1077
 5820SOL    HW128922   0.722   0.443  14.894 -0.1359 -0.0290 -0.5742
 5820SOL    HW228923   0.818   0.515  14.976 -1.1657 -0.8448  0.3158
 5821SOL     OW28924   3.136   4.244   5.399  0.5850 -0.3521 -0.1070
 5821SOL    HW128925   3.099   4.275   5.316  1.4422  0.2553 -0.2636
 5821SOL    HW228926   3.083   4.168   5.422 -2.6405  1.8810 -0.0788
 5822SOL     OW28927   2.108   0.354   8.651  0.2916 -0.1580  0.4958
 5822SOL    HW128928   2.147   0.306   8.724 -1.4641 -3.3759 -0.6646
 5822SOL    HW228929   2.017   0.370   8.673 -0.6605  0.3134 -3.7647
 5823SOL     OW28930   4.095   3.576   3.224 -0.5192 -0.2074  0.2215
 5823SOL    HW128931   4.157   3.632   3.270  1.8726 -0.4108 -2.7806
 5823SOL    HW228932   4.157   3.509   3.197  0.9289  0.9872  0.5880
 5824SOL     OW28933   4.178   2.775  12.898 -0.3340 -0.3002 -0.1419
 5824SOL    HW128934   4.221   2.810  12.976 -2.5413  0.0380  0.9338
 5824SOL    HW228935   4.125   2.851  12.872  0.3117 -0.6676 -2.5230
 5825SOL     OW28936   4.234   2.036  10.168  0.4523  0.2854 -0.7737
 5825SOL    HW128937   4.318   1.997  10.147  0.8258  0.3553  0.6013
 5825SOL    HW228938   4.236   2.037  10.264  0.5258 -0.9896 -0.7700
 5826SOL     OW28939   1.726   1.590   6.979 -0.5785 -0.3294 -0.0539
 5826SOL    HW128940   1.801   1.629   7.025  0.7566 -1.1063 -1.5983
 5826SOL    HW228941   1.660   1.656   7.002  1.0969  1.7828 -1.4187
 5827SOL     OW28942   3.563   1.074   8.310  0.5665  0.2335  0.0650
 5827SOL    HW128943   3.584   1.045   8.398  0.7661  0.0007 -0.0605
 5827SOL    HW228944   3.491   1.135   8.328  1.6381  1.3194  0.5802
 5828SOL     OW28945   2.189   3.029   1.260  0.7232  0.1000 -0.3072
 5828SOL    HW128946   2.270   2.983   1.283  0.8733  0.4030 -0.2354
 5828SOL    HW228947   2.144   2.966   1.204 -1.3855  1.6386 -0.3520
 5829SOL     OW28948   0.665   3.771  12.089 -0.3729 -0.3690 -0.0120
 5829SOL    HW128949   0.661   3.763  11.994 -1.0120  0.6886 -0.0658
 5829SOL    HW228950   0.637   3.687  12.124  0.5875 -1.1996 -1.2468
 5830SOL     OW28951   2.489   4.177  13.280 -0.1905  0.2274  0.6303
 5830SOL    HW128952   2.555   4.239  13.311  1.5893 -0.9950 -0.7414
 5830SOL    HW228953   2.447   4.234  13.216  0.3621 -0.4125 -0.2980
 5831SOL     OW28954   2.121   3.508   6.188 -0.4984 -0.2494  0.0870
 5831SOL    HW128955   2.115   3.536   6.097  0.1598 -0.4951 -0.0326
 5831SOL    HW228956   2.165   3.423   6.188 -0.4836 -0.2425  1.7302
 5832SOL     OW28957   1.137   3.980   6.441  0.0381  0.5969 -0.1648
 5832SOL    HW128958   1.195   4.030   6.499  0.2385 -1.0946  1.0702
 5832SOL    HW228959   1.197   3.933   6.384  2.3109  0.9421  1.9536
 5833SOL     OW28960   1.621   2.447  14.818  0.1846  0.0650  0.3500
 5833SOL    HW128961   1.536   2.460  14.777  0.3699  1.4001  0.4002
 5833SOL    HW228962   1.677   2.512  14.776 -0.1185  0.1376  0.0623
 5834SOL     OW28963   1.761   1.922  16.115  0.1961  0.0237 -0.8452
 5834SOL    HW128964   1.720   1.840  16.143 -2.6041  1.9571  0.6943
 5834SOL    HW228965   1.689   1.954  16.062 -0.7621 -0.5886  0.0809
 5835SOL     OW28966   3.533   0.813   0.260  0.0637 -0.9161 -0.2400
 5835SOL    HW128967   3.594   0.739   0.252  2.6177  1.0739  0.9189
 5835SOL    HW228968   3.589   0.884   0.292  0.9914 -0.7474 -2.2563
 5836SOL     OW28969   2.371   3.569   2.445  0.1329  0.1445 -0.1641
 5836SOL    HW128970   2.340   3.651   2.482  0.3685  0.3586 -0.4428
 5836SOL    HW228971   2.348   3.573   2.352  2.0736 -1.8834 -0.7333
 5837SOL     OW28972   2.625   2.420   8.727  0.0223 -0.2463 -0.2914
 5837SOL    HW128973   2.642   2.439   8.819  0.3210 -1.4253 -0.1036
 5837SOL    HW228974   2.675   2.338   8.726 -0.0748 -0.2811 -2.6341
 5838SOL     OW28975   0.049   2.420   7.798  0.3517 -0.8198 -1.0125
 5838SOL    HW128976   0.092   2.421   7.883  0.4408  1.7979 -1.0637
 5838SOL    HW228977   0.129   2.417   7.745  0.8728  0.5762 -0.3293
 5839SOL     OW28978   2.723   1.945  13.126  0.4294  0.4734  0.2945
 5839SOL    HW128979   2.664   2.009  13.086  2.0176  1.4353 -0.4696
 5839SOL    HW228980   2.665   1.904  13.190 -1.6686  3.4494  0.2961
 5840SOL     OW28981   1.321   1.368   6.297 -0.0187  0.2101 -0.1493
 5840SOL    HW128982   1.385   1.390   6.364  3.1737  0.6395 -3.3609
 5840SOL    HW228983   1.245   1.345   6.351 -1.5313  2.7598 -1.1804
 5841SOL     OW28984   2.919   2.836  10.028  0.1943 -0.0871  0.3325
 5841SOL    HW128985   2.918   2.873  10.117 -0.8227  2.1398 -0.5934
 5841SOL    HW228986   2.936   2.914   9.975  0.6448 -0.6551 -0.3408
 5842SOL     OW28987   2.548   2.716   9.025  0.0606 -0.0294  0.6375
 5842SOL    HW128988   2.539   2.780   8.954 -2.0944 -0.9364  0.0930
 5842SOL    HW228989   2.468   2.666   9.009 -0.7384  1.7832 -1.1364
 5843SOL     OW28990   2.845   2.973   5.986 -0.0720 -0.2624 -0.0682
 5843SOL    HW128991   2.856   2.927   5.903 -3.8279 -0.1324 -0.6110
 5843SOL    HW228992   2.894   2.913   6.043  1.6249  1.0194 -0.1780
 5844SOL     OW28993   0.200   0.541  15.349 -0.0694  0.5799  0.1239
 5844SOL    HW128994   0.263   0.599  15.392  1.7588 -0.6562 -0.9198
 5844SOL    HW228995   0.184   0.476  15.417  0.1994 -1.5569 -1.8592
 5845SOL     OW28996   4.682   3.841   4.393 -0.1814  0.3462  0.0750
 5845SOL    HW128997   4.627   3.849   4.471 -1.1867 -3.9249 -0.1971
 5845SOL    HW228998   4.679   3.746   4.382  2.0261  0.3082 -0.1738
 5846SOL     OW28999   4.266   2.641   7.652 -0.5877  0.2756 -0.5222
 5846SOL    HW129000   4.190   2.587   7.675 -1.6676  1.7719 -0.5521
 5846SOL    HW229001   4.309   2.577   7.596  0.5560 -1.6687  2.5734
 5847SOL     OW29002   3.136   3.144   2.848 -0.0600  0.0635  0.4853
 5847SOL    HW129003   3.084   3.170   2.924 -0.0648  0.4786  0.3405
 5847SOL    HW229004   3.222   3.185   2.858 -1.0327  2.1526  0.3006
 5848SOL     OW29005   3.999   0.136   5.482  0.1181 -0.1979 -0.5522
 5848SOL    HW129006   4.036   0.221   5.460 -0.5951  0.1924 -0.2496
 5848SOL    HW229007   3.931   0.155   5.546  2.5466  1.4013  1.5597
 5849SOL     OW29008   4.363   2.217   4.731  0.0562 -0.0596  1.2671
 5849SOL    HW129009   4.446   2.227   4.684 -0.7902 -1.0266 -0.4452
 5849SOL    HW229010   4.396   2.184   4.815  1.8968 -0.0842  0.5318
 5850SOL     OW29011   4.013   0.901   7.591 -0.4118 -0.1763  0.1346
 5850SOL    HW129012   4.082   0.908   7.525 -0.5134 -0.2088  0.0246
 5850SOL    HW229013   4.002   0.988   7.628 -1.9532  0.2217 -1.2194
 5851SOL     OW29014   0.428   2.154   5.827  0.3421 -0.3240  0.0900
 5851SOL    HW129015   0.438   2.220   5.895  2.5642  0.7658 -1.2990
 5851SOL    HW229016   0.519   2.132   5.805  0.7474  2.0779 -0.6479
 5852SOL     OW29017   1.046   0.682   1.503  0.0154 -0.6032  0.1127
 5852SOL    HW129018   1.104   0.647   1.436 -0.4975 -0.1015 -0.5959
 5852SOL    HW229019   1.110   0.732   1.554 -0.5326 -1.4808  1.6313
 5853SOL     OW29020   2.699   1.096   4.851  0.0745 -0.2292  0.1634
 5853SOL    HW129021   2.672   1.119   4.940 -0.4283 -0.3612  0.0478
 5853SOL    HW229022   2.739   1.009   4.861  0.9921  0.0929 -0.7422
 5854SOL     OW29023   1.325   1.671   6.458  0.0116 -0.0298  0.0042
 5854SOL    HW129024   1.265   1.651   6.530  0.3597  0.2660  0.3828
 5854SOL    HW229025   1.401   1.617   6.480 -1.1801 -0.8740  2.0623
 5855SOL     OW29026   2.563   2.592   1.043 -0.0213 -0.1099 -0.4230
 5855SOL    HW129027   2.555   2.532   1.117 -1.6128  1.3174  0.5519
 5855SOL    HW229028   2.476   2.632   1.042  0.2566  0.5421  1.0778
 5856SOL     OW29029   1.361   1.276  12.881 -0.1862 -0.4797  0.1537
 5856SOL    HW129030   1.385   1.208  12.945 -1.6864  0.5514  1.7999
 5856SOL    HW229031   1.373   1.356  12.932  0.1574  0.1657 -0.9588
 5857SOL     OW29032   3.733   4.037   1.966 -0.0372 -0.2875 -0.5151
 5857SOL    HW129033   3.756   3.971   1.902 -4.5090  0.5629 -3.0697
 5857SOL    HW229034   3.798   4.017   2.033  1.1438  2.4299 -0.8483
 5858SOL     OW29035   3.500   0.864  17.517 -0.1737 -0.7521 -0.1908
 5858SOL    HW129036   3.584   0.841  17.556  0.2804 -0.4913 -1.0139
 5858SOL    HW229037   3.443   0.870  17.594  0.6581 -1.6418  0.4872
 5859SOL     OW29038   2.865   0.973   5.250 -0.0831  0.1625  0.0390
 5859SOL    HW129039   2.893   0.882   5.239 -0.9778 -0.3084  1.6648
 5859SOL    HW229040   2.864   0.977   5.346  1.6421  0.6661  0.0433
 5860SOL     OW29041   0.276   0.369   6.010  0.1114 -0.0113 -0.0407
 5860SOL    HW129042   0.338   0.359   5.938  0.5403  2.3387 -0.0133
 5860SOL    HW229043   0.302   0.297   6.067 -1.0122  0.0858  0.5898
 5861SOL     OW29044   0.174   0.454   6.873 -0.2872 -0.1450 -0.4702
 5861SOL    HW129045   0.259   0.410   6.870 -0.4154 -0.5408  1.2528
 5861SOL    HW229046   0.189   0.495   6.788  1.4386 -0.8705 -0.5150
 5862SOL     OW29047   4.619   2.761   5.404  0.8068 -0.0957  0.0134
 5862SOL    HW129048   4.647   2.742   5.494  0.8831 -2.4571 -0.5081
 5862SOL    HW229049   4.624   2.671   5.372  1.8478 -0.0742  0.0932
 5863SOL     OW29050   1.655   0.284  12.920 -0.2456  0.2871  0.1154
 5863SOL    HW129051   1.684   0.331  12.841  1.7529  1.2592  1.4236
 5863SOL    HW229052   1.661   0.360  12.979 -2.2063  1.1694 -0.8317
 5864SOL     OW29053   1.337   0.521   7.117  0.3256 -0.1709  0.3025
 5864SOL    HW129054   1.279   0.597   7.116  0.8450  0.2385  1.1622
 5864SOL    HW229055   1.271   0.457   7.091  1.1976 -1.0069  0.1358
 5865SOL     OW29056   2.746   3.918   6.338  0.5441  0.7440  0.2250
 5865SOL    HW129057   2.670   3.869   6.368  0.0609  1.6399  0.4553
 5865SOL    HW229058   2.818   3.856   6.343  0.2111  0.5444  2.5948
 5866SOL     OW29059   0.654   3.631  14.597 -0.2120  0.3881  0.3005
 5866SOL    HW129060   0.702   3.674  14.526 -0.0572 -0.2377  0.0270
 5866SOL    HW229061   0.566   3.624  14.560 -0.3499 -0.7462  0.8382
 5867SOL     OW29062   2.229   0.188   8.857 -0.1273 -0.4131  0.1704
 5867SOL    HW129063   2.306   0.229   8.897  1.1845 -1.2249 -1.5024
 5867SOL    HW229064   2.220   0.117   8.921  2.3628  0.6908  1.7436
 5868SOL     OW29065   3.784   3.383  15.361 -0.0054 -0.0578  0.1162
 5868SOL    HW129066   3.849   3.452  15.371 -0.8910  0.5041  1.9641
 5868SOL    HW229067   3.839   3.307  15.379  1.1539  0.2425 -2.2438
 5869SOL     OW29068   0.257   1.057  15.623 -0.1090 -0.3474 -0.5465
 5869SOL    HW129069   0.320   1.125  15.650 -0.4614 -0.5256  0.7122
 5869SOL    HW229070   0.317   0.997  15.578 -0.6767 -1.5931  0.3724
 5870SOL     OW29071   2.809   0.972   0.192 -0.2639 -0.5745 -0.1453
 5870SOL    HW129072   2.748   1.045   0.183  0.0947 -0.3563 -0.7840
 5870SOL    HW229073   2.836   0.997   0.281 -1.1438 -0.6164  0.1409
 5871SOL     OW29074   3.370   3.651   2.187  0.2819  0.1543  0.5033
 5871SOL    HW129075   3.352   3.599   2.108 -0.4632  0.9525  0.1386
 5871SOL    HW229076   3.371   3.740   2.152  0.6628 -0.2502 -0.5180
 5872SOL     OW29077   0.755   2.733  11.524 -0.0895  0.1566 -0.2182
 5872SOL    HW129078   0.797   2.650  11.546  1.2564  1.0028  0.4012
 5872SOL    HW229079   0.673   2.727  11.574  0.2566  2.7298  0.6091
 5873SOL     OW29080   3.853   1.794   4.872 -0.1289 -0.6239 -1.1651
 5873SOL    HW129081   3.817   1.733   4.936  0.7687 -0.6752 -0.7029
 5873SOL    HW229082   3.929   1.741   4.846  1.2892  0.3640  0.9475
 5874SOL     OW29083   2.807   1.891   2.112 -0.5782  0.0095  0.1911
 5874SOL    HW129084   2.848   1.978   2.115  0.3208 -0.3649 -1.8017
 5874SOL    HW229085   2.875   1.837   2.152 -1.9294 -0.7851  1.4203
 5875SOL     OW29086   4.478   0.430  11.120  0.0215 -0.1066  0.3561
 5875SOL    HW129087   4.448   0.441  11.029 -1.9582  2.5182  1.3526
 5875SOL    HW229088   4.534   0.506  11.132 -1.7317  1.2834 -0.2258
 5876SOL     OW29089   2.503   1.913   3.733  0.1008  0.3762  0.8164
 5876SOL    HW129090   2.562   1.843   3.760 -0.1171 -0.6633 -1.4164
 5876SOL    HW229091   2.565   1.972   3.690  1.1831 -0.1982  1.6069
 5877SOL     OW29092   4.051   0.170   4.180 -0.0352  0.2977 -0.6405
 5877SOL    HW129093   4.090   0.111   4.245 -3.6050  1.1367  2.2965
 5877SOL    HW229094   3.983   0.116   4.140 -0.2159 -1.0229  1.4251
 5878SOL     OW29095   3.377   4.717  12.653 -0.1492  0.3394  0.2497
 5878SOL    HW129096   3.330   4.657  12.596  2.1272  0.0581 -1.3173
 5878SOL    HW229097   3.461   0.002  12.608  0.5247 -0.0137  1.4526
 5879SOL     OW29098   2.101   3.840   6.705 -0.1302  0.4083  0.3976
 5879SOL    HW129099   2.078   3.902   6.635  0.4713  3.0496  2.5190
 5879SOL    HW229100   2.062   3.879   6.783 -0.0849  0.9563  0.1512
 5880SOL     OW29101   2.669   3.936   2.626 -0.2000  0.1882 -0.1700
 5880SOL    HW129102   2.631   3.999   2.564  0.8091  0.7829 -0.2018
 5880SOL    HW229103   2.722   4.003   2.669 -0.3310 -1.1277  2.0151
 5881SOL     OW29104   3.232   0.119   1.475 -0.1848 -0.4404 -0.2531
 5881SOL    HW129105   3.236   0.156   1.563 -0.5444  0.9764 -0.8325
 5881SOL    HW229106   3.171   0.186   1.445 -3.0828 -1.7179  2.8338
 5882SOL     OW29107   3.606   1.174  13.343  0.2798  0.2151 -0.3249
 5882SOL    HW129108   3.572   1.226  13.416 -0.8156  1.0967 -1.4575
 5882SOL    HW229109   3.578   1.083  13.350 -0.1421  0.3076 -0.8284
 5883SOL     OW29110   2.186   1.802   8.854  0.3111  0.3905  0.5222
 5883SOL    HW129111   2.135   1.883   8.849  0.1817  0.4835  3.5533
 5883SOL    HW229112   2.228   1.805   8.767  1.4215 -0.3694  1.0342
 5884SOL     OW29113   3.795   3.221   7.136 -0.3595  0.8039 -0.0156
 5884SOL    HW129114   3.811   3.137   7.092  1.4287  1.7093 -1.0514
 5884SOL    HW229115   3.711   3.242   7.095 -1.2213 -1.7520  0.4298
 5885SOL     OW29116   0.285   3.872  14.981  0.2777 -0.7003 -0.0831
 5885SOL    HW129117   0.292   3.821  14.900 -0.7886 -1.0484  0.0567
 5885SOL    HW229118   0.275   3.962  14.947 -1.8846 -1.6985 -2.0970
 5886SOL     OW29119   4.609   3.742   5.044 -0.2827 -0.2554  0.3001
 5886SOL    HW129120   4.702   3.759   5.057 -0.3822 -1.1148  2.1806
 5886SOL    HW229121   4.607   3.733   4.949  1.8433  2.4737  0.0153
 5887SOL     OW29122   4.206   0.922   4.295 -0.1594  0.4328 -0.6335
 5887SOL    HW129123   4.272   0.855   4.314 -0.3840  0.6067  0.8014
 5887SOL    HW229124   4.176   0.898   4.207 -0.6770 -1.8227  0.1385
 5888SOL     OW29125   3.554   2.392   3.352  0.2205  0.2746  0.2906
 5888SOL    HW129126   3.612   2.469   3.357  0.1573  0.3735 -0.3824
 5888SOL    HW229127   3.551   2.389   3.256 -0.6396  0.9267  0.2996
 5889SOL     OW29128   0.566   0.881   6.633 -0.5406 -0.1871 -0.8538
 5889SOL    HW129129   0.507   0.956   6.628 -2.2599 -1.3346  1.9651
 5889SOL    HW229130   0.591   0.890   6.725 -0.0723 -3.2650 -0.6700
 5890SOL     OW29131   2.042   3.796   1.491  0.2424 -0.1996 -0.2446
 5890SOL    HW129132   2.074   3.771   1.405  0.7113  0.8673 -0.3886
 5890SOL    HW229133   2.038   3.887   1.462  1.4423 -0.0505  0.0169
 5891SOL     OW29134   1.051   1.527   3.270  0.6445 -0.4255 -0.1509
 5891SOL    HW129135   1.084   1.606   3.228  2.4977 -0.7792  0.6388
 5891SOL    HW229136   1.044   1.558   3.360  1.6672 -0.7565  0.0373
 5892SOL     OW29137   0.498   0.235  12.617 -0.0684 -0.2002 -0.2439
 5892SOL    HW129138   0.446   0.193  12.685 -0.1886 -0.2897 -0.3898
 5892SOL    HW229139   0.436   0.264  12.550 -0.5100  1.3250  0.8321
 5893SOL     OW29140   0.903   1.902   8.401 -0.7346 -0.0068  0.3231
 5893SOL    HW129141   0.882   1.976   8.458 -1.3398 -0.0470  0.1480
 5893SOL    HW229142   0.895   1.833   8.467 -0.2489 -0.5633 -0.1991
 5894SOL     OW29143   0.661   4.575   4.921 -0.4452 -0.1004 -0.7822
 5894SOL    HW129144   0.690   4.576   4.830  1.9664 -1.5494 -0.0024
 5894SOL    HW229145   0.700   4.493   4.950  0.6718  0.6944 -0.0112
 5895SOL     OW29146   0.781   2.028  15.741 -0.4574  0.1032 -0.4622
 5895SOL    HW129147   0.713   1.994  15.683 -0.9026 -0.7193  0.5567
 5895SOL    HW229148   0.866   1.992  15.716  0.5421  1.8978  0.3278
 5896SOL     OW29149   4.234   2.714   9.101  0.2459 -0.2766  0.4692
 5896SOL    HW129150   4.307   2.712   9.039 -0.8339 -0.9149 -0.7795
 5896SOL    HW229151   4.255   2.638   9.155  0.8020 -1.0058 -0.7741
 5897SOL     OW29152   2.467   0.259   8.944 -0.5576 -0.0898 -0.1466
 5897SOL    HW129153   2.534   0.266   8.876 -0.3643  1.7510  0.2408
 5897SOL    HW229154   2.488   0.175   8.986 -1.7381 -0.1122  0.4087
 5898SOL     OW29155   2.097   3.466   5.393  0.1622  0.0910  0.5352
 5898SOL    HW129156   2.162   3.398   5.412 -1.5695 -1.5061  0.7722
 5898SOL    HW229157   2.088   3.459   5.298  2.2348  1.2111  0.2426
 5899SOL     OW29158   3.374   1.985   2.412 -0.0705 -0.1352 -0.2293
 5899SOL    HW129159   3.378   1.911   2.472  2.5557  0.3709  0.2431
 5899SOL    HW229160   3.373   1.945   2.325  0.1912 -1.9797  0.6251
 5900SOL     OW29161   2.104   3.229   2.935  0.0374 -0.4726 -0.5134
 5900SOL    HW129162   2.147   3.314   2.931  0.2406 -0.5558 -0.0692
 5900SOL    HW229163   2.144   3.179   2.865  0.7124 -0.5155 -0.0945
 5901SOL     OW29164   2.950   4.584  12.043 -0.3982 -0.3623  0.0422
 5901SOL    HW129165   3.003   4.633  12.106 -1.2519  0.2896  0.2614
 5901SOL    HW229166   2.973   4.624  11.959 -3.8704 -3.5440 -2.4384
 5902SOL     OW29167   1.966   1.028   9.378 -0.5656  0.1126 -0.0514
 5902SOL    HW129168   2.000   0.948   9.338 -2.4046 -0.4496 -0.4738
 5902SOL    HW229169   1.889   1.047   9.325 -1.7675 -0.5149  1.4742
 5903SOL     OW29170   2.817   1.537   8.070  0.1959  0.0014  0.0865
 5903SOL    HW129171   2.735   1.507   8.032  0.4398  1.3802 -1.5294
 5903SOL    HW229172   2.853   1.564   7.986  1.5358  2.2722  1.3630
 5904SOL     OW29173   4.636   1.267   7.892  0.2610 -0.4166  0.0960
 5904SOL    HW129174   4.611   1.330   7.824 -0.6345  0.0130  0.8135
 5904SOL    HW229175   4.694   1.322   7.946  0.1428 -0.1037 -0.0941
 5905SOL     OW29176   3.215   4.169   2.814 -0.0732  0.1782  0.0881
 5905SOL    HW129177   3.309   4.156   2.807 -0.0735  0.5186 -0.5597
 5905SOL    HW229178   3.207   4.253   2.769 -1.9025 -0.5021 -0.8751
 5906SOL     OW29179   2.630   2.213   2.649 -0.2770  1.1100 -0.4638
 5906SOL    HW129180   2.665   2.181   2.566 -0.0088  1.7155 -0.5789
 5906SOL    HW229181   2.687   2.287   2.671  2.2923 -0.9565 -0.1861
 5907SOL     OW29182   3.376   2.782   5.722  0.2597 -0.2886 -0.5144
 5907SOL    HW129183   3.373   2.686   5.719 -0.2030 -0.3027  0.2272
 5907SOL    HW229184   3.447   2.810   5.665  1.2543 -0.1661  0.7890
 5908SOL     OW29185   2.406   2.303   4.887  0.0964 -0.1618  0.1886
 5908SOL    HW129186   2.464   2.315   4.811  2.5489 -0.4251  2.0097
 5908SOL    HW229187   2.370   2.391   4.894  0.9117  0.1822  0.0746
 5909SOL     OW29188   1.813   4.059   4.216 -0.2418  1.0398 -0.5530
 5909SOL    HW129189   1.747   4.104   4.162 -0.2934  0.0339 -1.3235
 5909SOL    HW229190   1.774   3.972   4.219  1.4913  0.2464 -1.1343
 5910SOL     OW29191   0.142   3.461   6.538 -0.9176  0.2516  0.4860
 5910SOL    HW129192   0.122   3.451   6.445 -0.9627 -2.2242  0.7612
 5910SOL    HW229193   0.101   3.546   6.554  4.0598  2.2643  2.4553
 5911SOL     OW29194   1.748   0.679   6.607  0.5473  0.3269 -0.3490
 5911SOL    HW129195   1.654   0.696   6.608  0.7622  1.3127  3.2665
 5911SOL    HW229196   1.758   0.602   6.663  2.2324 -0.2701 -1.4641
 5912SOL     OW29197   4.470   2.620  16.842  0.1516 -0.6700  0.2721
 5912SOL    HW129198   4.423   2.601  16.761  1.4895 -1.8610 -0.2342
 5912SOL    HW229199   4.403   2.671  16.889  2.1943  0.7610  1.5913
 5913SOL     OW29200   1.145   4.393   4.496  0.1740 -0.3993  0.2046
 5913SOL    HW129201   1.145   4.433   4.583 -0.0560  0.5665 -0.2389
 5913SOL    HW229202   1.102   4.461   4.444  1.4660  0.3304  0.1046
 5914SOL     OW29203   3.464   1.599  15.356 -0.0849 -0.1358 -0.1625
 5914SOL    HW129204   3.516   1.646  15.421  2.5196 -0.1870 -2.1909
 5914SOL    HW229205   3.537   1.546  15.324 -0.2187  0.7102 -1.8754
 5915SOL     OW29206   2.985   2.074  13.784 -0.0002  0.0206  0.3029
 5915SOL    HW129207   3.043   2.087  13.859  0.1507  0.2881  0.1378
 5915SOL    HW229208   3.001   1.980  13.774 -0.3170  0.1906 -1.8066
 5916SOL     OW29209   0.094   3.869   4.161 -0.4819 -0.1118 -0.2012
 5916SOL    HW129210   0.163   3.825   4.209 -0.2649  0.0454 -0.3700
 5916SOL    HW229211   0.027   3.859   4.229  1.6678 -0.7843  1.8326
 5917SOL     OW29212   3.897   3.080   5.595  0.1329 -0.1478  0.6944
 5917SOL    HW129213   3.959   3.141   5.634 -0.0613  1.2548 -1.1382
 5917SOL    HW229214   3.895   3.010   5.660 -2.0333 -0.5910  0.1430
 5918SOL     OW29215   2.977   3.953  14.827 -0.3533  0.0718 -0.6675
 5918SOL    HW129216   2.995   3.875  14.774  1.1583 -1.4200  2.0621
 5918SOL    HW229217   3.004   3.936  14.917  1.4595  2.0575 -0.8391
 5919SOL     OW29218   0.627   2.672   1.528  0.2364  0.0667  0.2577
 5919SOL    HW129219   0.543   2.644   1.566  0.8721 -4.0050 -1.2873
 5919SOL    HW229220   0.687   2.635   1.593 -1.1454 -0.1873  1.4037
 5920SOL     OW29221   3.177   0.625  16.801  0.0318  0.2790  0.1905
 5920SOL    HW129222   3.123   0.679  16.743  0.9679 -0.6879 -1.6071
 5920SOL    HW229223   3.153   0.665  16.884  3.0323  1.6344  0.4174
 5921SOL     OW29224   1.741   2.090   5.124  0.8650 -0.2429 -0.1822
 5921SOL    HW129225   1.749   2.016   5.064 -1.6049 -0.6049 -0.0791
 5921SOL    HW229226   1.715   2.047   5.206  2.6994  0.0855  0.5606
 5922SOL     OW29227   2.668   3.513   1.773  0.6041 -0.3483 -0.5815
 5922SOL    HW129228   2.699   3.427   1.742 -1.3360 -1.0090 -0.7061
 5922SOL    HW229229   2.678   3.552   1.686 -1.7177  0.1293 -0.6459
 5923SOL     OW29230   2.672   0.672   5.842  0.0693 -0.2188 -0.2467
 5923SOL    HW129231   2.598   0.714   5.886 -0.3437 -1.0429 -0.1563
 5923SOL    HW229232   2.670   0.587   5.886  1.0626  1.0645  2.2898
 5924SOL     OW29233   2.670   2.430   4.324 -0.0444 -0.0676  0.3007
 5924SOL    HW129234   2.665   2.430   4.229 -0.0867  1.7029  0.3089
 5924SOL    HW229235   2.724   2.506   4.347  1.3440 -0.4515 -1.6586
 5925SOL     OW29236   0.332   0.672  15.578 -0.1100 -0.3034 -0.4696
 5925SOL    HW129237   0.386   0.751  15.582 -1.3303  0.5734 -1.3084
 5925SOL    HW229238   0.385   0.603  15.617 -0.6094 -0.2479  0.3082
 5926SOL     OW29239   0.678   0.834   2.700 -0.0589  0.1241 -0.3539
 5926SOL    HW129240   0.628   0.754   2.716  0.7574 -0.4279 -0.5392
 5926SOL    HW229241   0.764   0.816   2.662  0.3977  3.1042 -0.6937
 5927SOL     OW29242   4.045   4.518   3.727 -0.4164  0.2107  0.6667
 5927SOL    HW129243   4.103   4.540   3.654  0.0181  1.7437  1.4813
 5927SOL    HW229244   4.073   4.426   3.723  0.6640  0.5416  0.7067
 5928SOL     OW29245   1.279   3.571  13.563  0.0382 -0.4557 -0.2340
 5928SOL    HW129246   1.325   3.654  13.547  0.4582 -0.5877  0.2873
 5928SOL    HW229247   1.317   3.540  13.646  0.6636  1.8295  0.3458
 5929SOL     OW29248   4.238   1.978   7.457  0.2524 -0.0646 -0.1087
 5929SOL    HW129249   4.153   2.023   7.450  0.3627  0.2422  0.5308
 5929SOL    HW229250   4.302   2.044   7.486  1.4270 -0.7064 -1.2348
 5930SOL     OW29251   1.493   0.575   6.073 -0.1732 -0.0403  0.4220
 5930SOL    HW129252   1.527   0.487   6.058  2.1098  0.8250  0.5201
 5930SOL    HW229253   1.530   0.619   5.996  2.7974 -0.2973  1.7027
 5931SOL     OW29254   2.973   3.814   3.172  0.5477  0.0217 -0.2641
 5931SOL    HW129255   2.942   3.841   3.085 -3.8467 -1.4135  0.8514
 5931SOL    HW229256   2.942   3.724   3.183 -0.4867  0.4349  0.2405
 5932SOL     OW29257   1.936   4.660   8.998  0.1428 -0.3128 -0.6379
 5932SOL    HW129258   1.964   4.716   9.070  2.9756  1.3673 -3.0554
 5932SOL    HW229259   2.018   4.653   8.948  0.8977  1.7584  0.3473
 5933SOL     OW29260   4.627   4.653   1.997 -0.1403  0.2061 -0.2267
 5933SOL    HW129261   4.682   4.722   2.034  1.0548 -1.5004  1.1515
 5933SOL    HW229262   4.537   4.679   2.015 -0.9439  0.2861 -4.2305
 5934SOL     OW29263   3.574   1.885  15.153 -0.0361  0.5471  0.1836
 5934SOL    HW129264   3.646   1.923  15.104  0.3933 -0.3731  0.1024
 5934SOL    HW229265   3.521   1.853  15.080  2.0834 -2.5454  0.0053
 5935SOL     OW29266   3.085   0.942   9.047 -0.2453  0.4972 -0.2402
 5935SOL    HW129267   3.073   1.016   9.107  0.0299 -0.1792  0.6578
 5935SOL    HW229268   2.996   0.940   9.013 -0.7644  2.3096  1.0075
 5936SOL     OW29269   4.315   1.563   3.818  0.2564  0.3732 -0.3785
 5936SOL    HW129270   4.408   1.573   3.836  0.6138  0.1863 -2.1501
 5936SOL    HW229271   4.296   1.625   3.748 -1.8908 -0.9667 -0.9626
 5937SOL     OW29272   1.394   0.714   4.766  0.2813 -0.7332 -0.2560
 5937SOL    HW129273   1.321   0.707   4.828  1.2596  0.7085  1.0611
 5937SOL    HW229274   1.441   0.631   4.773  1.7595  0.0615 -0.8544
 5938SOL     OW29275   1.651   0.453   5.699  0.5475 -0.1067 -0.2528
 5938SOL    HW129276   1.728   0.500   5.670  2.4551 -2.5279  0.8778
 5938SOL    HW229277   1.635   0.502   5.780  1.0066  1.7160 -1.2869
 5939SOL     OW29278   2.034   1.915   8.346  0.2527  0.0069  0.1289
 5939SOL    HW129279   1.941   1.937   8.349  0.5379  1.1316  0.6440
 5939SOL    HW229280   2.065   2.005   8.339 -2.0096  0.7807 -0.1117
 5940SOL     OW29281   3.026   1.170   2.530 -0.0861 -0.0919 -0.1418
 5940SOL    HW129282   2.975   1.230   2.475  0.1811  0.1443 -0.1306
 5940SOL    HW229283   3.063   1.226   2.599 -1.2342 -0.6099  0.8896
 5941SOL     OW29284   4.455   1.339  15.098  0.1827 -0.1306  0.0553
 5941SOL    HW129285   4.368   1.306  15.119  0.0895  0.2099  0.2141
 5941SOL    HW229286   4.502   1.286  15.162 -0.3589  0.9114  1.3101
 5942SOL     OW29287   2.929   2.809   5.710 -0.6196  0.2263 -0.0501
 5942SOL    HW129288   2.862   2.815   5.643 -0.6148 -0.6457 -0.1420
 5942SOL    HW229289   2.996   2.760   5.662 -0.3161  0.0315  0.5638
 5943SOL     OW29290   2.165   3.377   7.859  0.1784 -0.0585 -0.1426
 5943SOL    HW129291   2.218   3.353   7.935 -0.6861  0.8331  0.7330
 5943SOL    HW229292   2.190   3.469   7.861  1.2284 -0.2431 -3.5316
 5944SOL     OW29293   1.557   1.801   2.789  0.5511  0.3501 -0.6097
 5944SOL    HW129294   1.578   1.891   2.814 -0.8270  0.6036 -0.3898
 5944SOL    HW229295   1.475   1.804   2.740 -0.9911  0.5990  1.9594
 5945SOL     OW29296   3.764   3.779   8.493  0.0801  0.0995  0.5094
 5945SOL    HW129297   3.807   3.746   8.572 -0.7308 -0.9708  0.5084
 5945SOL    HW229298   3.840   3.827   8.460 -0.7995  0.2448 -1.3362
 5946SOL     OW29299   0.317   4.197  14.795  0.0720  0.2967  0.0349
 5946SOL    HW129300   0.241   4.140  14.801 -2.3003  3.0401 -3.4310
 5946SOL    HW229301   0.329   4.217  14.887  0.2999 -1.1164  0.2988
 5947SOL     OW29302   1.542   0.118   3.823  0.2873  0.0098 -0.7128
 5947SOL    HW129303   1.556   0.136   3.730  0.5661 -2.4986 -1.1456
 5947SOL    HW229304   1.621   0.068   3.839 -0.5351 -1.2092 -0.4751
 5948SOL     OW29305   1.570   4.264   3.398 -0.5742  0.4621 -0.3913
 5948SOL    HW129306   1.599   4.180   3.432 -0.5277  0.4610 -0.4334
 5948SOL    HW229307   1.562   4.249   3.304 -2.1151 -4.1428  0.4798
 5949SOL     OW29308   1.771   2.286  15.679  0.2484  0.7102  0.2025
 5949SOL    HW129309   1.838   2.302  15.745  1.0952  4.7449 -1.6170
 5949SOL    HW229310   1.695   2.302  15.736  0.0385 -0.0026  0.1233
 5950SOL     OW29311   3.055   0.248   4.114 -0.1562  0.4000 -0.1037
 5950SOL    HW129312   3.094   0.237   4.027 -2.1242 -1.2698 -0.7682
 5950SOL    HW229313   3.135   0.261   4.165 -0.3173 -1.3061  0.5641
 5951SOL     OW29314   3.210   3.993   4.555  0.2291 -0.2791  0.6639
 5951SOL    HW129315   3.269   3.925   4.521 -0.1428 -1.5094  2.4738
 5951SOL    HW229316   3.273   4.036   4.612 -0.9178  2.4382 -0.1417
 5952SOL     OW29317   1.588   2.093   2.543  0.0481 -0.1473 -0.2628
 5952SOL    HW129318   1.544   2.066   2.624 -1.5945  1.4005 -0.6440
 5952SOL    HW229319   1.597   2.004   2.507 -0.5087 -0.3435  0.0780
 5953SOL     OW29320   4.547   2.471   5.416 -0.9603  0.0948 -0.5512
 5953SOL    HW129321   4.570   2.380   5.395  2.5471  0.0428  3.4907
 5953SOL    HW229322   4.452   2.459   5.412 -1.0536  1.0449 -1.1672
 5954SOL     OW29323   2.141   1.840  14.100 -0.3702 -0.1492  0.3943
 5954SOL    HW129324   2.118   1.834  14.007  0.7987 -2.0053  0.2285
 5954SOL    HW229325   2.143   1.933  14.120  1.4352 -0.1292  0.1552
 5955SOL     OW29326   2.163   4.111   8.732  0.4385 -0.6379 -0.3446
 5955SOL    HW129327   2.223   4.180   8.705  0.1078 -0.5054 -0.7374
 5955SOL    HW229328   2.209   4.031   8.706 -0.0922 -1.5774  1.6073
 5956SOL     OW29329   2.114   0.933   6.544  0.0866 -0.3345 -0.2122
 5956SOL    HW129330   2.076   0.935   6.456 -0.9627 -0.9447  0.2301
 5956SOL    HW229331   2.087   0.852   6.587  1.0871 -0.2766  0.5143
 5957SOL     OW29332   0.041   0.211   3.632  0.5381 -0.2934  0.3513
 5957SOL    HW129333   4.718   0.212   3.549 -0.8204 -0.0515  1.1197
 5957SOL    HW229334   0.004   0.131   3.670 -0.5876 -0.2204 -0.6147
 5958SOL     OW29335   1.788   1.561   8.176  0.3284 -0.1361  0.5246
 5958SOL    HW129336   1.832   1.485   8.213 -2.0628 -0.4087  2.7855
 5958SOL    HW229337   1.748   1.607   8.250  0.2562  1.3179 -0.4119
 5959SOL     OW29338   3.689   4.247  14.255  0.6567  0.3053  0.4759
 5959SOL    HW129339   3.633   4.259  14.179 -0.1531  0.0869  1.0436
 5959SOL    HW229340   3.638   4.193  14.315 -1.3179  0.6960 -0.8675
 5960SOL     OW29341   3.516   4.411   7.429  0.3335  0.8968  0.0734
 5960SOL    HW129342   3.465   4.335   7.458  1.2813  0.8256  1.5494
 5960SOL    HW229343   3.497   4.478   7.494  0.0179 -0.3828  1.2969
 5961SOL     OW29344   0.928   2.648   2.875  0.1971  0.6031 -0.1722
 5961SOL    HW129345   0.959   2.577   2.818  0.2401 -0.3767  1.0871
 5961SOL    HW229346   0.842   2.658   2.834  0.3462  0.0865 -0.6109
 5962SOL     OW29347   1.129   2.440   6.269  0.1732  0.2856 -0.0322
 5962SOL    HW129348   1.143   2.524   6.226  1.7338  0.2081  0.3371
 5962SOL    HW229349   1.204   2.390   6.237  0.4114 -0.3058  1.4694
 5963SOL     OW29350   3.950   0.150   9.472  0.1018 -0.2147 -0.2812
 5963SOL    HW129351   3.968   0.158   9.378  0.8979  2.9998  0.1513
 5963SOL    HW229352   3.895   0.072   9.470  0.4032 -0.4126 -0.9946
 5964SOL     OW29353   2.717   2.250   7.075 -0.0360  0.0829 -0.3627
 5964SOL    HW129354   2.740   2.342   7.087  1.8884 -0.2839 -1.2735
 5964SOL    HW229355   2.777   2.231   7.003  2.0120  0.6627  1.1582
 5965SOL     OW29356   2.322   2.318   1.607  0.6465  0.5539  0.6105
 5965SOL    HW129357   2.377   2.243   1.586 -1.5228 -0.5436 -1.1464
 5965SOL    HW229358   2.333   2.369   1.527 -0.4173 -1.2836 -0.7233
 5966SOL     OW29359   3.329   2.355   7.825  0.3987 -0.0937 -0.4615
 5966SOL    HW129360   3.278   2.306   7.761  0.0873 -1.1483  0.6039
 5966SOL    HW229361   3.291   2.443   7.823  3.2855  1.1454 -1.2037
 5967SOL     OW29362   4.258   0.190   4.553 -0.4006 -0.0435  0.1075
 5967SOL    HW129363   4.311   0.153   4.481  1.3239  1.0063  0.8344
 5967SOL    HW229364   4.229   0.271   4.511  1.4146  1.0546  0.9484
 5968SOL     OW29365   2.492   4.153  15.391 -0.1201  0.1829  0.5110
 5968SOL    HW129366   2.564   4.109  15.437  0.5168  0.2222 -0.4462
 5968SOL    HW229367   2.483   4.099  15.312 -1.0628 -1.2090  1.5620
 5969SOL     OW29368   2.710   2.069   3.263 -0.2273  0.8900  0.1686
 5969SOL    HW129369   2.760   2.003   3.216 -0.0218 -0.2664  1.9967
 5969SOL    HW229370   2.756   2.073   3.347 -1.8015 -0.5719  1.1277
 5970SOL     OW29371   1.859   3.176   3.646  1.2769 -0.6247 -0.3733
 5970SOL    HW129372   1.832   3.173   3.555  4.8742 -2.3867 -1.3806
 5970SOL    HW229373   1.873   3.081   3.657  0.0102 -0.5360  2.1423
 5971SOL     OW29374   3.245   3.722  15.683 -0.4217  0.0238 -0.2826
 5971SOL    HW129375   3.281   3.800  15.725 -0.1013 -1.1758  1.6824
 5971SOL    HW229376   3.254   3.656  15.751 -2.6940  0.6746  0.6374
 5972SOL     OW29377   1.186   3.605   5.112 -0.3461  0.3825  0.0642
 5972SOL    HW129378   1.102   3.617   5.066  0.3143 -0.6403 -1.4003
 5972SOL    HW229379   1.142   3.542   5.170 -2.5247 -0.3869 -2.4000
 5973SOL     OW29380   2.788   0.536   7.285  0.1042  0.5509 -0.0726
 5973SOL    HW129381   2.747   0.587   7.355  4.0424  1.5516  1.4954
 5973SOL    HW229382   2.732   0.459   7.284  0.9510 -0.0742  0.3468
 5974SOL     OW29383   4.651   0.046   8.160  0.1172 -0.6606  0.1756
 5974SOL    HW129384   0.008   0.034   8.110 -0.3372 -0.8924 -0.5147
 5974SOL    HW229385   4.652   4.690   8.212  0.9944 -1.6667 -1.3802
 5975SOL     OW29386   1.000   1.368  15.969 -0.2143  0.2626  0.1249
 5975SOL    HW129387   1.081   1.320  15.954  0.2207  0.2052  2.6788
 5975SOL    HW229388   0.938   1.310  15.924 -0.2580  0.7898 -0.4866
 5976SOL     OW29389   4.285   2.561   0.363  0.4455  0.1906  0.4885
 5976SOL    HW129390   4.304   2.472   0.334  0.0206 -0.1029  1.1262
 5976SOL    HW229391   4.330   2.572   0.446 -0.5658 -2.8894  1.4201
 5977SOL     OW29392   3.048   1.656  12.296 -0.5568 -0.2250  0.6775
 5977SOL    HW129393   3.035   1.737  12.345  1.5506  0.0876  0.7305
 5977SOL    HW229394   2.967   1.665  12.246 -1.1381  1.6733  1.9784
 5978SOL     OW29395   1.820   4.063  11.894 -0.4595  0.3783 -0.2936
 5978SOL    HW129396   1.761   4.010  11.841  0.2187 -1.6913  1.0444
 5978SOL    HW229397   1.818   4.033  11.985  4.6255 -1.1614 -0.6884
 5979SOL     OW29398   3.078   1.921   9.575 -0.1154  0.4175 -0.2332
 5979SOL    HW129399   3.034   2.000   9.605 -2.3021 -0.7110 -0.4151
 5979SOL    HW229400   3.109   1.884   9.658 -2.1900 -0.0523  0.3285
 5980SOL     OW29401   1.304   0.027   1.877 -0.1951  0.0640  0.6137
 5980SOL    HW129402   1.356   4.671   1.884 -0.1583  0.1893  1.7436
 5980SOL    HW229403   1.219   4.711   1.856  0.1673 -0.0708 -0.6237
 5981SOL     OW29404   2.458   2.761   4.259 -0.0720  0.0333  0.1545
 5981SOL    HW129405   2.544   2.798   4.279 -0.3264  0.4470  0.4674
 5981SOL    HW229406   2.474   2.714   4.177 -1.4430  1.5751 -1.0011
 5982SOL     OW29407   2.369   4.599   2.880 -0.2082 -0.0163 -0.3871
 5982SOL    HW129408   2.372   4.647   2.797 -0.3513  1.5349  0.5142
 5982SOL    HW229409   2.463   4.597   2.898 -0.1751 -0.2435 -0.5823
 5983SOL     OW29410   1.382   1.959   0.105  0.0907 -0.2306  0.0726
 5983SOL    HW129411   1.439   1.934   0.033 -0.3971 -0.3735 -0.2674
 5983SOL    HW229412   1.322   2.018   0.058 -0.0231  0.7633  1.4461
 5984SOL     OW29413   0.651   2.879   4.712 -0.4298 -0.4098  0.0845
 5984SOL    HW129414   0.734   2.831   4.717 -0.2721  0.0932  2.3278
 5984SOL    HW229415   0.670   2.933   4.636  2.4173 -3.5337 -1.4629
 5985SOL     OW29416   4.553   1.843   0.949  0.9076  0.3001  0.4391
 5985SOL    HW129417   4.622   1.901   0.916  0.0366  1.9931  1.5728
 5985SOL    HW229418   4.475   1.872   0.901  0.1755 -0.5201  1.1364
 5986SOL     OW29419   2.695   2.265  10.332 -0.1302 -0.0714  0.2681
 5986SOL    HW129420   2.648   2.347  10.347  1.5771  0.7946  0.8548
 5986SOL    HW229421   2.767   2.281  10.392 -0.9770  2.5088  0.5922
 5987SOL     OW29422   3.792   2.379  14.316 -0.0728 -0.3805  0.0465
 5987SOL    HW129423   3.766   2.443  14.249  0.0103 -0.0537  0.3271
 5987SOL    HW229424   3.773   2.421  14.400  0.8345  1.0677 -0.4553
 5988SOL     OW29425   1.067   3.548  10.608 -0.3896 -0.0893 -0.6857
 5988SOL    HW129426   0.997   3.601  10.569  0.5474  1.7317  0.1064
 5988SOL    HW229427   1.144   3.581  10.562  1.3668 -0.2876  2.1247
 5989SOL     OW29428   0.070   3.770   1.903 -0.2431 -0.5172 -0.5475
 5989SOL    HW129429   0.003   3.708   1.931 -0.9820 -0.5131 -2.3062
 5989SOL    HW229430   0.101   3.726   1.824 -2.3648 -0.9574 -1.1325
 5990SOL     OW29431   3.946   0.775   5.319  0.3703  0.2752  0.3259
 5990SOL    HW129432   3.924   0.860   5.358  1.1399  1.6210 -2.1301
 5990SOL    HW229433   3.918   0.777   5.228 -0.5216 -1.7488  0.5564
 5991SOL     OW29434   4.333   0.196   3.255  0.2723  0.3188 -0.4726
 5991SOL    HW129435   4.364   0.147   3.331  0.2900 -0.6145 -1.0882
 5991SOL    HW229436   4.344   0.130   3.187  0.5623  0.2313 -0.3400
 5992SOL     OW29437   1.120   1.387   2.327 -0.6731 -0.0941  0.3785
 5992SOL    HW129438   1.130   1.476   2.295  3.0707 -1.7440 -3.1010
 5992SOL    HW229439   1.048   1.358   2.271  0.3338  1.2786 -1.6030
 5993SOL     OW29440   1.490   0.995   3.218 -0.0269  0.1822 -0.1296
 5993SOL    HW129441   1.550   0.989   3.144 -1.8009  2.4549 -1.7182
 5993SOL    HW229442   1.523   1.074   3.261  0.1762  0.0456 -0.0300
 5994SOL     OW29443   1.092   3.868   8.591 -0.1755  0.8764  0.1654
 5994SOL    HW129444   1.071   3.782   8.553 -0.3718 -0.2316  2.7733
 5994SOL    HW229445   1.167   3.844   8.645  1.2544  1.8058 -1.4229
 5995SOL     OW29446   3.598   0.436   4.593  0.3229 -0.3280 -0.7584
 5995SOL    HW129447   3.546   0.507   4.555  1.0274 -0.0392 -1.1641
 5995SOL    HW229448   3.645   0.404   4.516  0.3006  1.8433 -1.6558
 5996SOL     OW29449   1.083   1.096  13.210 -0.5308 -0.4190  0.2655
 5996SOL    HW129450   1.173   1.064  13.206 -0.1299  0.5847  1.3454
 5996SOL    HW229451   1.075   1.096  13.306  1.3070  1.0144  0.4072
 5997SOL     OW29452   0.919   1.328   7.295 -0.4419 -0.0322  0.3453
 5997SOL    HW129453   0.988   1.267   7.268  0.7475  1.0739  0.8847
 5997SOL    HW229454   0.959   1.415   7.290 -1.2472  0.2415 -1.1537
 5998SOL     OW29455   1.409   3.728   1.510 -0.3237  0.5259 -0.0371
 5998SOL    HW129456   1.392   3.704   1.419  1.8421 -2.5564  0.3716
 5998SOL    HW229457   1.383   3.820   1.506 -0.2572  0.6199  1.5944
 5999SOL     OW29458   1.453   3.827   9.259 -0.0840 -0.5604 -0.5454
 5999SOL    HW129459   1.416   3.867   9.180 -0.0224  1.3601  0.4126
 5999SOL    HW229460   1.385   3.818   9.326  1.4710  0.9605  1.2145
 6000SOL     OW29461   1.500   3.317   4.118  0.2220  0.2750 -0.1853
 6000SOL    HW129462   1.509   3.410   4.095  0.9850  0.2337 -0.0871
 6000SOL    HW229463   1.586   3.286   4.088 -0.7863 -2.6012 -0.0791
 6001SOL     OW29464   3.895   2.288   8.444 -0.0178 -0.5867 -0.2248
 6001SOL    HW129465   3.960   2.323   8.383  0.4087  2.1058  1.7380
 6001SOL    HW229466   3.931   2.334   8.520 -2.1632 -1.4516  1.3043
 6002SOL     OW29467   3.569   3.566  16.505 -0.1553 -0.2762 -0.2886
 6002SOL    HW129468   3.608   3.583  16.591 -1.2615 -0.3349  0.2224
 6002SOL    HW229469   3.562   3.471  16.514  0.5756 -0.1460  1.7217
 6003SOL     OW29470   1.725   1.661   5.129 -0.2452  0.1874 -0.1261
 6003SOL    HW129471   1.643   1.700   5.158  0.0046  0.6370 -0.0218
 6003SOL    HW229472   1.729   1.580   5.180  1.2873 -0.2338 -0.9178
 6004SOL     OW29473   3.275   3.623  11.692 -0.0983 -0.1997  0.3899
 6004SOL    HW129474   3.292   3.690  11.757 -2.6392 -0.3916  1.2504
 6004SOL    HW229475   3.205   3.670  11.646  0.3365 -1.1534 -1.2522
 6005SOL     OW29476   4.490   1.810   7.184 -0.2673  0.4209 -0.1586
 6005SOL    HW129477   4.515   1.721   7.157 -0.7766  0.4572 -0.7499
 6005SOL    HW229478   4.548   1.820   7.260 -2.1175 -1.1610  1.4873
 6006SOL     OW29479   3.734   3.713   4.185 -0.4782 -0.0397 -0.3836
 6006SOL    HW129480   3.706   3.774   4.117 -0.0253 -1.5046 -1.8924
 6006SOL    HW229481   3.826   3.739   4.188 -0.1538 -1.2791  0.4917
 6007SOL     OW29482   1.744   2.938   0.093 -1.0026 -0.2297  1.0630
 6007SOL    HW129483   1.710   2.953   0.005  0.3254  1.8089  0.8914
 6007SOL    HW229484   1.830   2.981   0.095 -0.6043 -1.0325  1.6977
 6008SOL     OW29485   4.602   3.703   9.176 -0.3048 -0.1371  0.2625
 6008SOL    HW129486   4.669   3.708   9.108  0.6111  2.0445  1.3101
 6008SOL    HW229487   4.625   3.616   9.209  0.3331  0.6637  1.9614
 6009SOL     OW29488   2.694   0.614   5.232 -0.1064  0.3718 -0.0318
 6009SOL    HW129489   2.621   0.614   5.294 -1.1201 -1.6266 -1.2325
 6009SOL    HW229490   2.647   0.655   5.160 -2.2694 -2.1455 -0.0119
 6010SOL     OW29491   4.400   2.526   2.100  0.7518 -0.6451  0.4504
 6010SOL    HW129492   4.325   2.471   2.081  0.4909 -1.7522  4.7420
 6010SOL    HW229493   4.364   2.603   2.145  0.0290 -0.8098  0.1476
 6011SOL     OW29494   2.367   4.111  11.736 -0.7828 -0.1994  0.0513
 6011SOL    HW129495   2.338   4.019  11.741 -1.6828  0.0852  0.1897
 6011SOL    HW229496   2.305   4.157  11.679  1.7580  3.8660  0.5735
 6012SOL     OW29497   2.380   1.327   5.476 -0.1178  0.3398  0.0460
 6012SOL    HW129498   2.440   1.394   5.508  0.1294  1.5079 -2.8402
 6012SOL    HW229499   2.426   1.306   5.395  0.6389 -1.8558  1.0258
 6013SOL     OW29500   1.608   3.376   5.663  0.1514 -0.2913  0.2338
 6013SOL    HW129501   1.701   3.353   5.652 -0.1764 -0.6812 -1.6841
 6013SOL    HW229502   1.572   3.321   5.594  0.6530 -0.5972  0.2148
 6014SOL     OW29503   0.150   0.418   5.605  0.1356  0.1630 -0.2257
 6014SOL    HW129504   0.209   0.492   5.620  0.5140 -0.7469  2.7000
 6014SOL    HW229505   0.208   0.345   5.624 -0.0631 -0.1464 -0.7888
 6015SOL     OW29506   4.134   0.629   6.663 -0.0296 -0.5884 -1.0843
 6015SOL    HW129507   4.106   0.637   6.754  2.2471  1.3486 -0.5570
 6015SOL    HW229508   4.193   0.554   6.667  1.4782  0.7656  1.8801
 6016SOL     OW29509   2.511   2.453   2.430  0.2159  0.4694 -0.4983
 6016SOL    HW129510   2.582   2.458   2.366  0.6882 -2.4106 -0.1858
 6016SOL    HW229511   2.453   2.389   2.389 -2.6892  2.0234  1.1639
 6017SOL     OW29512   4.416   4.589   6.229 -1.2043  0.0041 -0.4019
 6017SOL    HW129513   4.336   4.541   6.211 -1.8270  1.1881 -0.8248
 6017SOL    HW229514   4.421   4.657   6.162  2.5473  0.5432  0.4064
 6018SOL     OW29515   1.897   3.765   8.745 -0.9896 -0.1200 -0.2482
 6018SOL    HW129516   1.868   3.768   8.836  1.5569  0.1917  0.5404
 6018SOL    HW229517   1.992   3.766   8.749 -1.0993 -0.2209  2.4800
 6019SOL     OW29518   0.952   4.581   5.609 -0.6330 -0.3533 -1.3042
 6019SOL    HW129519   1.031   4.559   5.559  1.2081  0.3603  1.3128
 6019SOL    HW229520   0.896   4.504   5.601 -0.8901 -0.0561 -2.4428
 6020SOL     OW29521   1.763   3.088   4.872  0.3724  0.0002 -0.1476
 6020SOL    HW129522   1.682   3.112   4.917  0.4967  0.6974 -0.2905
 6020SOL    HW229523   1.812   3.169   4.854  1.5838 -0.6903  0.0323
 6021SOL     OW29524   2.936   2.604  16.947  0.1241  0.3989 -0.0710
 6021SOL    HW129525   3.019   2.560  16.965  0.2754  0.4952 -0.5170
 6021SOL    HW229526   2.881   2.533  16.915 -0.0676  1.4083 -1.9659
 6022SOL     OW29527   3.258   1.582  15.027 -0.0105 -0.1234 -0.4145
 6022SOL    HW129528   3.185   1.613  14.972 -0.9434 -1.1238  0.2641
 6022SOL    HW229529   3.290   1.509  14.974  1.3758  0.7447 -0.7721
 6023SOL     OW29530   1.604   4.671   1.034 -0.2583 -0.3022 -0.4331
 6023SOL    HW129531   1.565   4.689   1.120 -1.4241  1.2886 -1.3088
 6023SOL    HW229532   1.537   4.612   1.000 -2.5975  2.1392 -0.0841
 6024SOL     OW29533   4.493   4.242  12.747  0.3719  0.4376  0.4579
 6024SOL    HW129534   4.436   4.209  12.817  0.1499 -2.1521 -0.9411
 6024SOL    HW229535   4.456   4.209  12.665  1.2081  1.4204 -0.3168
 6025SOL     OW29536   4.362   0.591   7.379  0.1200 -0.9864  0.2559
 6025SOL    HW129537   4.311   0.643   7.316  1.2206  0.3348  0.4680
 6025SOL    HW229538   4.294   0.554   7.436 -0.9142  1.6365  0.7045
 6026SOL     OW29539   4.170   0.346  16.995  0.3564  0.0287 -0.0114
 6026SOL    HW129540   4.131   0.278  17.050  1.6037  0.7692  1.7779
 6026SOL    HW229541   4.236   0.298  16.945 -0.8972  0.8210 -2.3866
 6027SOL     OW29542   2.362   0.713   9.278  0.0237 -0.3233 -0.3932
 6027SOL    HW129543   2.326   0.630   9.311  1.8818 -1.5193 -1.3761
 6027SOL    HW229544   2.371   0.765   9.358 -1.9985 -0.6601  0.0417
 6028SOL     OW29545   1.745   4.140   2.223 -0.2472 -0.0608 -0.4792
 6028SOL    HW129546   1.824   4.194   2.231 -1.6437  1.9428 -0.3075
 6028SOL    HW229547   1.714   4.154   2.312  1.4442  2.5159 -0.2978
 6029SOL     OW29548   3.396   2.469   9.142  0.1448 -0.4437 -0.3167
 6029SOL    HW129549   3.418   2.479   9.235  2.1482  0.4831 -0.8961
 6029SOL    HW229550   3.405   2.374   9.136  1.4924 -0.4637  1.8501
 6030SOL     OW29551   3.801   0.342  13.112  0.2049  0.0705  0.2141
 6030SOL    HW129552   3.830   0.276  13.050 -2.0009 -0.8785  0.2004
 6030SOL    HW229553   3.777   0.281  13.182  0.9796  0.3115  0.6910
 6031SOL     OW29554   0.056   3.220  15.825  0.1193  0.2652  0.3457
 6031SOL    HW129555   0.125   3.237  15.890  2.3026 -0.9115 -1.6567
 6031SOL    HW229556   4.715   3.275  15.870  2.1044  2.0251  1.0696
 6032SOL     OW29557   3.910   1.800  12.125  0.6650  0.2804  0.3308
 6032SOL    HW129558   3.938   1.877  12.174  0.9441 -0.4948  1.4182
 6032SOL    HW229559   3.880   1.843  12.045 -0.1320  0.7849  0.9047
 6033SOL     OW29560   3.035   0.021   5.462 -0.5986  0.5179  0.5232
 6033SOL    HW129561   3.026   4.673   5.399 -0.5619 -0.0682  1.1707
 6033SOL    HW229562   3.032   4.696   5.545  0.8600  0.4166  0.5192
 6034SOL     OW29563   2.651   2.567   2.634  0.0943  0.0007  0.0255
 6034SOL    HW129564   2.636   2.658   2.611  0.9740  0.2606  0.5099
 6034SOL    HW229565   2.615   2.522   2.558 -0.5093  1.5303 -0.5927
 6035SOL     OW29566   2.525   4.217   7.641 -0.4264  0.3498  0.1725
 6035SOL    HW129567   2.445   4.256   7.606 -0.7379 -0.9016 -0.5171
 6035SOL    HW229568   2.487   4.136   7.675 -1.6505  0.4024 -1.0918
 6036SOL     OW29569   3.951   3.414   7.259 -0.2581 -0.4236 -0.8137
 6036SOL    HW129570   3.919   3.335   7.215  2.2793  0.5252 -4.3343
 6036SOL    HW229571   4.040   3.424   7.227 -0.1560  0.8077 -0.1299
 6037SOL     OW29572   3.749   4.581   3.079 -0.4767 -0.2763 -0.3922
 6037SOL    HW129573   3.764   4.630   3.160  0.5302 -0.8238 -0.2395
 6037SOL    HW229574   3.769   4.656   3.022  0.4337 -0.7086 -0.6487
 6038SOL     OW29575   0.612   1.946   2.358 -0.4121 -0.9736  0.3405
 6038SOL    HW129576   0.588   1.915   2.271 -0.0949  0.2287 -0.1725
 6038SOL    HW229577   0.707   1.940   2.347 -0.3290 -0.8531  1.0025
 6039SOL     OW29578   3.899   4.208   5.295 -0.9307 -0.3936 -0.1460
 6039SOL    HW129579   3.822   4.249   5.336  0.5082  1.2935  0.9150
 6039SOL    HW229580   3.872   4.203   5.204  0.9319 -1.4117 -0.6320
 6040SOL     OW29581   2.530   2.431   9.269  0.2842 -0.2678 -0.4118
 6040SOL    HW129582   2.508   2.420   9.361 -2.3640 -2.2684 -1.2894
 6040SOL    HW229583   2.484   2.355   9.235  0.0576 -0.3562  0.0930
 6041SOL     OW29584   1.537   1.216   8.075  0.2694 -0.6275  0.3490
 6041SOL    HW129585   1.549   1.163   8.154 -0.4672 -0.3006  0.6895
 6041SOL    HW229586   1.463   1.270   8.103 -0.1084  0.4979 -2.8351
 6042SOL     OW29587   4.118   1.674  14.825  0.4011  0.6752 -0.5099
 6042SOL    HW129588   4.138   1.580  14.827 -0.4279  0.4974 -0.9926
 6042SOL    HW229589   4.168   1.696  14.904  0.9319 -0.2104 -0.5914
 6043SOL     OW29590   3.610   2.704   9.381 -0.1929 -0.1656  0.2402
 6043SOL    HW129591   3.566   2.686   9.465  1.1549 -2.3722  0.4694
 6043SOL    HW229592   3.607   2.616   9.344 -1.3543 -0.0203 -0.0298
 6044SOL     OW29593   1.459   0.943   8.815 -0.0393  0.7878  0.0075
 6044SOL    HW129594   1.440   0.853   8.838  0.0383  0.7783  0.0357
 6044SOL    HW229595   1.555   0.940   8.820 -0.1801 -2.4437  0.4504
 6045SOL     OW29596   3.357   3.990   6.768  0.0110 -0.0432 -0.6242
 6045SOL    HW129597   3.329   4.030   6.686 -1.2658  0.2348 -0.0477
 6045SOL    HW229598   3.451   4.010   6.765  0.0511  0.0563  0.9501
 6046SOL     OW29599   1.476   3.601   6.158  0.2885  0.5749 -0.4955
 6046SOL    HW129600   1.472   3.696   6.169  2.3113  0.3203  2.4208
 6046SOL    HW229601   1.506   3.601   6.067  1.5600  1.6397 -0.0806
 6047SOL     OW29602   3.283   0.328   4.232  0.2793  0.1925 -0.6098
 6047SOL    HW129603   3.264   0.342   4.325 -0.4842  0.6465 -0.8438
 6047SOL    HW229604   3.375   0.300   4.231  0.0006 -0.7180 -0.9973
 6048SOL     OW29605   4.446   3.830   6.685 -0.3813  0.5200 -1.0687
 6048SOL    HW129606   4.394   3.879   6.621 -1.0465  1.2596  0.0409
 6048SOL    HW229607   4.378   3.818   6.751  0.1581 -1.0144 -0.7876
 6049SOL     OW29608   1.027   1.277  14.614 -0.6507  0.2463 -0.4309
 6049SOL    HW129609   1.023   1.317  14.700  2.0090 -0.8909  0.2308
 6049SOL    HW229610   0.962   1.208  14.628  0.7811 -1.0112  0.0061
 6050SOL     OW29611   1.022   0.668   3.574  0.6872  0.6022 -0.0155
 6050SOL    HW129612   0.929   0.688   3.580  0.8749  1.5909 -0.4216
 6050SOL    HW229613   1.056   0.751   3.543  3.1513 -0.8257 -1.1772
 6051SOL     OW29614   1.145   0.765  17.412 -0.3326  0.0582  0.5616
 6051SOL    HW129615   1.090   0.730  17.482  0.9631  0.5866  1.8248
 6051SOL    HW229616   1.165   0.852  17.445 -2.8457  0.9381 -0.2194
 6052SOL     OW29617   0.967   1.061  11.430 -0.1876  0.0370 -0.1255
 6052SOL    HW129618   0.929   1.090  11.347 -0.6627  2.8493  1.0811
 6052SOL    HW229619   0.908   1.115  11.482 -1.6081 -1.3625 -0.2807
 6053SOL     OW29620   2.900   3.471   6.033 -0.0998  0.2074 -0.0463
 6053SOL    HW129621   2.886   3.410   6.106 -1.5478  2.3778  1.4682
 6053SOL    HW229622   2.988   3.449   6.005  0.0553  1.5076 -0.5505
 6054SOL     OW29623   2.458   4.548   4.282 -0.7569  0.3243  0.3791
 6054SOL    HW129624   2.493   4.459   4.275  0.5075  0.9240 -0.8514
 6054SOL    HW229625   2.441   4.576   4.192  0.5294  1.6107  0.5403
 6055SOL     OW29626   0.843   1.085   3.258  0.2740 -0.7407  0.1755
 6055SOL    HW129627   0.858   1.178   3.274  0.1986 -0.3882 -1.7795
 6055SOL    HW229628   0.933   1.054   3.261  1.2445  1.9479 -1.3671
 6056SOL     OW29629   1.515   4.359   4.195 -0.4169  0.2042 -0.3203
 6056SOL    HW129630   1.582   4.382   4.260 -0.0981  1.0037 -0.9276
 6056SOL    HW229631   1.567   4.288   4.157 -0.8708  1.2082 -2.7998
 6057SOL     OW29632   0.438   2.745   7.642  0.4757  0.3277 -0.0880
 6057SOL    HW129633   0.434   2.680   7.572  0.2966  0.0012  0.2215
 6057SOL    HW229634   0.436   2.822   7.586  0.1936 -0.4831 -1.1995
 6058SOL     OW29635   3.971   1.797  12.450 -0.4574  0.1251  0.8920
 6058SOL    HW129636   3.880   1.813  12.473  0.5528  1.3656  3.9927
 6058SOL    HW229637   3.966   1.732  12.380 -0.2546  0.4184  0.6029
 6059SOL     OW29638   1.934   0.953   5.043  0.2922 -0.3072 -0.1217
 6059SOL    HW129639   1.938   1.048   5.030 -0.0309  0.0429  2.4928
 6059SOL    HW229640   1.842   0.943   5.065  0.7938  0.0049  2.1066
 6060SOL     OW29641   0.148   1.753   7.218  0.2562 -0.1077  0.5995
 6060SOL    HW129642   0.195   1.832   7.191 -0.2931  0.4323  1.2454
 6060SOL    HW229643   0.073   1.800   7.253  0.1757 -0.4147  0.8375
 6061SOL     OW29644   4.623   2.934  11.807 -0.1792  0.3882  0.6811
 6061SOL    HW129645   4.581   2.998  11.749 -0.1377 -0.7388 -0.5877
 6061SOL    HW229646   4.549   2.875  11.821  1.5902 -1.7525  0.9341
 6062SOL     OW29647   1.591   2.067  15.923  0.4456  0.7031 -1.1589
 6062SOL    HW129648   1.609   2.161  15.929 -3.4479  1.2744  1.2321
 6062SOL    HW229649   1.502   2.071  15.887 -1.1847 -1.5858  2.6862
 6063SOL     OW29650   0.389   2.241  17.264  0.1716 -0.2665  0.5081
 6063SOL    HW129651   0.483   2.221  17.255  0.2036 -0.4605  1.2459
 6063SOL    HW229652   0.341   2.161  17.286 -1.1151  0.3234 -0.1996
 6064SOL     OW29653   2.618   2.849   9.484 -0.2909 -0.0359 -0.1122
 6064SOL    HW129654   2.630   2.858   9.390  1.7150  0.8709  0.2303
 6064SOL    HW229655   2.554   2.918   9.503 -0.6994 -0.2911 -0.5534
 6065SOL     OW29656   3.835   2.814   2.161 -0.6983 -0.6337  0.0893
 6065SOL    HW129657   3.913   2.782   2.206 -0.0836 -0.1962 -0.6696
 6065SOL    HW229658   3.787   2.731   2.159 -0.3806 -0.8386  1.2880
 6066SOL     OW29659   1.364   2.361   3.532  0.3699  0.0575 -0.3131
 6066SOL    HW129660   1.455   2.353   3.561 -0.0729 -1.5636  0.6629
 6066SOL    HW229661   1.364   2.411   3.450  2.2476 -1.4412 -1.2381
 6067SOL     OW29662   3.598   0.999   7.534 -0.7039 -0.3253  0.1273
 6067SOL    HW129663   3.671   0.939   7.520  0.3125  1.2059 -1.1749
 6067SOL    HW229664   3.615   1.027   7.624  0.0787  1.6811 -0.6369
 6068SOL     OW29665   4.527   3.506   4.614  0.0515  0.0368 -0.0191
 6068SOL    HW129666   4.498   3.432   4.667  2.1392  0.0899  1.2349
 6068SOL    HW229667   4.441   3.549   4.611  0.7716  1.5805  1.2687
 6069SOL     OW29668   1.849   1.300   5.501 -0.0822 -0.0497 -0.6626
 6069SOL    HW129669   1.788   1.290   5.574 -0.5707 -1.3543 -1.2427
 6069SOL    HW229670   1.923   1.325   5.556  0.3149  1.9157 -2.1300
 6070SOL     OW29671   0.894   0.546  16.268 -0.3531 -0.3800  0.0641
 6070SOL    HW129672   0.823   0.490  16.297  0.1112 -0.1404  1.6258
 6070SOL    HW229673   0.855   0.629  16.240 -1.0454 -0.7327 -0.0200
 6071SOL     OW29674   1.325   1.486   4.165  0.4016  0.5649  0.0076
 6071SOL    HW129675   1.259   1.487   4.234 -2.6824 -2.5984 -2.9039
 6071SOL    HW229676   1.367   1.401   4.177  2.0093  1.2779 -0.4748
 6072SOL     OW29677   4.223   4.022   8.593 -0.1957  0.2981 -0.1114
 6072SOL    HW129678   4.141   4.057   8.556 -1.2909 -0.7416  1.3335
 6072SOL    HW229679   4.224   4.066   8.678 -2.2662 -0.4756  0.3156
 6073SOL     OW29680   3.100   3.392   6.654 -0.5414  0.0551  0.1857
 6073SOL    HW129681   3.131   3.482   6.654  0.4341 -0.2855 -0.9386
 6073SOL    HW229682   3.122   3.352   6.570  1.9034  2.3745 -0.2649
 6074SOL     OW29683   4.073   3.936   4.652 -0.2240 -0.2491 -0.2110
 6074SOL    HW129684   4.096   3.857   4.701 -0.9132  0.1850  0.7929
 6074SOL    HW229685   4.114   3.998   4.712 -0.1001 -0.8143  0.2882
 6075SOL     OW29686   4.518   3.277   6.183 -0.0676  0.2132  0.0618
 6075SOL    HW129687   4.470   3.198   6.205  1.3668 -0.3615  1.1510
 6075SOL    HW229688   4.597   3.245   6.140 -0.7858 -0.4461 -0.7612
 6076SOL     OW29689   2.379   4.274   0.579  0.4878  0.3488  0.8671
 6076SOL    HW129690   2.367   4.256   0.673 -1.5220  0.1456  0.5810
 6076SOL    HW229691   2.297   4.315   0.552  1.2678  0.3195 -1.5097
 6077SOL     OW29692   3.179   2.917   8.205  0.2101 -0.0514 -0.6111
 6077SOL    HW129693   3.258   2.952   8.165  0.3481 -2.1111 -2.1539
 6077SOL    HW229694   3.176   2.831   8.162  1.4497 -1.3098  1.7811
 6078SOL     OW29695   1.389   3.504  13.781  0.1296 -0.4939  0.6868
 6078SOL    HW129696   1.389   3.591  13.821  2.6889 -0.9891  1.7071
 6078SOL    HW229697   1.477   3.477  13.803  1.0866 -0.2059 -2.6929
 6079SOL     OW29698   3.447   3.012  10.889 -0.5940 -0.4560  0.0147
 6079SOL    HW129699   3.404   3.032  10.805  0.1776 -0.9547 -0.4932
 6079SOL    HW229700   3.468   2.920  10.876 -0.4314 -0.2647 -1.1180
 6080SOL     OW29701   3.952   1.533   4.483 -0.2609 -0.0988 -0.4551
 6080SOL    HW129702   3.918   1.455   4.526  2.2277 -0.3649  1.0538
 6080SOL    HW229703   3.869   1.577   4.468 -0.3570 -0.1196 -0.0082
 6081SOL     OW29704   3.845   1.504   8.462  0.1829  0.4351  0.4226
 6081SOL    HW129705   3.780   1.555   8.412 -1.0079 -1.3091  0.2021
 6081SOL    HW229706   3.911   1.573   8.470 -0.0849  0.5499  1.6102
 6082SOL     OW29707   1.756   0.677   9.229  0.4723 -0.3050 -0.0168
 6082SOL    HW129708   1.756   0.623   9.150 -0.0317 -0.3529  0.0183
 6082SOL    HW229709   1.754   0.769   9.200  3.5443 -0.4331 -0.5879
 6083SOL     OW29710   1.738   1.424   5.279  0.8301  0.7297 -0.1077
 6083SOL    HW129711   1.645   1.404   5.290  0.7897  0.9508 -0.0350
 6083SOL    HW229712   1.772   1.374   5.353  2.0075 -0.0997 -1.2092
 6084SOL     OW29713   2.592   3.575   3.093  0.9301 -0.2067  0.8319
 6084SOL    HW129714   2.558   3.586   3.004  0.4792 -1.1702  0.8838
 6084SOL    HW229715   2.564   3.655   3.137  1.8299  0.4642  0.1780
 6085SOL     OW29716   3.944   2.398  12.739  0.0737  0.3294 -0.5207
 6085SOL    HW129717   3.962   2.475  12.685  1.1653  0.8298  0.5415
 6085SOL    HW229718   3.983   2.430  12.821 -2.0762  0.7074  0.3498
 6086SOL     OW29719   4.652   0.967  14.520 -0.0517  0.0566  0.1309
 6086SOL    HW129720   4.698   0.888  14.547 -2.0973 -1.4095 -0.7404
 6086SOL    HW229721   4.616   0.939  14.436 -0.3718  2.1468 -0.4492
 6087SOL     OW29722   1.971   2.193   1.571 -0.5389 -0.0350 -0.1283
 6087SOL    HW129723   1.974   2.261   1.638 -0.8367 -0.2714  0.1202
 6087SOL    HW229724   1.979   2.247   1.492 -1.8462 -0.5477 -0.5986
 6088SOL     OW29725   2.238   1.693   7.333 -0.2509 -0.2700  0.0675
 6088SOL    HW129726   2.314   1.740   7.367 -0.7671 -0.7938  1.9613
 6088SOL    HW229727   2.217   1.753   7.261  1.0083 -0.5245 -0.5177
 6089SOL     OW29728   0.676   1.612   2.080  0.6805 -0.2455  0.6900
 6089SOL    HW129729   0.727   1.593   2.002 -0.2673  0.5654 -0.1264
 6089SOL    HW229730   0.732   1.684   2.110  3.0398 -2.0749  0.6290
 6090SOL     OW29731   3.865   2.803   5.482  0.1305  0.0287  0.0491
 6090SOL    HW129732   3.919   2.882   5.484  0.8202 -0.4900  2.1563
 6090SOL    HW229733   3.926   2.750   5.430  1.2985  2.2214 -0.8143
 6091SOL     OW29734   0.907   3.218   9.228  0.0529  0.0802  0.2295
 6091SOL    HW129735   0.988   3.257   9.261  1.3556 -2.3387 -0.0964
 6091SOL    HW229736   0.921   3.127   9.254 -1.0325 -0.4367 -1.0170
 6092SOL     OW29737   0.359   2.621   1.581 -0.3234 -0.1620 -0.4855
 6092SOL    HW129738   0.339   2.570   1.502 -0.3142 -2.0697  0.7411
 6092SOL    HW229739   0.273   2.663   1.594 -0.0132  0.1363  0.6332
 6093SOL     OW29740   0.492   0.206   4.520  0.3880 -0.5334  0.1464
 6093SOL    HW129741   0.501   0.192   4.425  0.9004 -1.4473  0.3238
 6093SOL    HW229742   0.458   0.295   4.526  3.0711  0.5739 -0.9105
 6094SOL     OW29743   1.256   1.323  12.634  0.1854 -0.0558  0.1331
 6094SOL    HW129744   1.292   1.343  12.720 -0.0442 -0.0004  0.2180
 6094SOL    HW229745   1.170   1.290  12.662 -0.1401  0.1428 -0.6152
 6095SOL     OW29746   0.786   1.346  15.282 -0.1939 -1.1317 -0.0354
 6095SOL    HW129747   0.836   1.378  15.357 -2.6133 -1.1237  1.5452
 6095SOL    HW229748   0.705   1.315  15.321 -1.1321  2.1419  0.6620
 6096SOL     OW29749   0.531   0.622   2.863 -0.1943  0.4542  0.2183
 6096SOL    HW129750   0.624   0.608   2.881 -0.6910  1.1417  3.3700
 6096SOL    HW229751   0.497   0.694   2.916  0.4402  1.2577 -0.4869
 6097SOL     OW29752   2.550   1.840  13.322 -0.0347 -0.0245  0.4975
 6097SOL    HW129753   2.577   1.884  13.403  0.6506  0.8185 -0.1844
 6097SOL    HW229754   2.503   1.764  13.357 -0.1134 -0.5195 -0.6793
 6098SOL     OW29755   1.159   0.648   3.003  0.2841  0.2810 -0.3842
 6098SOL    HW129756   1.076   0.642   3.049  0.1872  3.4532 -0.1566
 6098SOL    HW229757   1.178   0.559   3.031 -0.9640 -0.0373 -0.5552
 6099SOL     OW29758   0.219   2.302   6.120  0.0893 -0.3730 -0.3167
 6099SOL    HW129759   0.187   2.256   6.042  0.2304 -2.2535  0.7603
 6099SOL    HW229760   0.159   2.377   6.119 -0.6312 -0.9251  2.8673
 6100SOL     OW29761   1.255   1.361  13.268  0.0832  0.3842 -0.8364
 6100SOL    HW129762   1.276   1.296  13.201 -0.4063  0.2396 -0.8464
 6100SOL    HW229763   1.198   1.415  13.214  0.1865  1.8380  0.5160
 6101SOL     OW29764   3.919   0.493   5.078 -0.3040 -0.6522 -0.4168
 6101SOL    HW129765   3.991   0.491   5.015 -1.8653 -2.8392 -2.1830
 6101SOL    HW229766   3.858   0.428   5.041 -1.3285 -0.1780  0.4332
 6102SOL     OW29767   2.250   3.019   8.451  0.6430 -0.4446 -0.9352
 6102SOL    HW129768   2.197   3.063   8.517  1.8356  2.0559 -1.6453
 6102SOL    HW229769   2.273   2.935   8.491  0.6520 -0.8589 -1.8019
 6103SOL     OW29770   0.028   1.125   8.812  0.2334  0.2597 -0.3486
 6103SOL    HW129771   4.722   1.213   8.787  2.5977  1.2790  0.4811
 6103SOL    HW229772   0.079   1.107   8.733 -0.5447  1.1944 -1.0687
 6104SOL     OW29773   1.806   0.639   1.489  0.1099 -0.0162  0.3342
 6104SOL    HW129774   1.853   0.679   1.562  0.6415 -1.1028  0.5886
 6104SOL    HW229775   1.755   0.570   1.533  2.4880 -0.3933  2.4821
 6105SOL     OW29776   3.531   1.671   2.696  0.0354 -0.0018  0.5731
 6105SOL    HW129777   3.593   1.726   2.647 -1.8761  1.2611 -0.4293
 6105SOL    HW229778   3.455   1.701   2.646  0.0271 -1.5180 -0.3366
 6106SOL     OW29779   1.114   1.965   4.448 -0.3614  0.2336  0.4099
 6106SOL    HW129780   1.036   1.910   4.435  0.3900 -0.2104 -2.2062
 6106SOL    HW229781   1.102   2.028   4.378 -2.5350 -0.0059  0.5720
 6107SOL     OW29782   1.587   3.279   0.735  0.1886 -0.1395  0.4800
 6107SOL    HW129783   1.664   3.291   0.680  0.3979 -0.2117  0.7583
 6107SOL    HW229784   1.618   3.302   0.822  0.1131 -1.8692  0.9617
 6108SOL     OW29785   1.415   3.610  17.267  0.1490 -0.6036 -0.1560
 6108SOL    HW129786   1.408   3.632  17.360 -0.7676 -4.3851  0.6496
 6108SOL    HW229787   1.349   3.657  17.216  0.9266  0.8634  0.1955
 6109SOL     OW29788   1.715   1.122   0.995  0.1550  0.5132  0.0278
 6109SOL    HW129789   1.780   1.140   1.062 -1.6313 -1.3169  2.2565
 6109SOL    HW229790   1.738   1.192   0.934 -1.5695  1.4593  0.4569
 6110SOL     OW29791   2.130   4.403   5.849 -0.0508 -0.2257  0.0361
 6110SOL    HW129792   2.123   4.497   5.831 -0.4265 -0.0981  0.8338
 6110SOL    HW229793   2.141   4.371   5.760  3.7110 -0.5125  0.6160
 6111SOL     OW29794   4.349   0.122  17.182  0.0141 -0.6578  0.5153
 6111SOL    HW129795   4.401   0.088  17.109 -2.8786  0.2465 -1.9708
 6111SOL    HW229796   4.258   0.098  17.160 -0.1994 -0.3621  1.0892
 6112SOL     OW29797   0.856   2.436   5.981  0.2989  0.3523  0.2485
 6112SOL    HW129798   0.871   2.388   6.063  2.1196 -0.0358 -0.3050
 6112SOL    HW229799   0.906   2.383   5.918 -1.6192  0.9554 -1.7416
 6113SOL     OW29800   3.526   0.222  15.061  0.3939  0.2222 -0.1146
 6113SOL    HW129801   3.535   0.248  14.970  0.1662  3.7142  0.8344
 6113SOL    HW229802   3.610   0.179  15.078  0.8025  0.6439 -1.0956
 6114SOL     OW29803   0.134   0.302   4.603  0.4462  0.2873 -0.0327
 6114SOL    HW129804   0.158   0.210   4.597  1.7600  0.7008 -1.1179
 6114SOL    HW229805   0.039   0.302   4.615  0.3832 -0.2741 -0.5508
 6115SOL     OW29806   4.333   1.976   5.521  0.0366  0.2533  0.0718
 6115SOL    HW129807   4.352   2.000   5.612 -2.1612  1.7178  0.1346
 6115SOL    HW229808   4.240   1.998   5.517 -0.1137 -0.6417 -1.3210
 6116SOL     OW29809   0.181   3.384   1.758  0.1391  0.1365 -0.1406
 6116SOL    HW129810   0.108   3.447   1.758 -0.0543 -0.1058  1.8142
 6116SOL    HW229811   0.205   3.394   1.850 -2.2243 -0.9506  0.6095
 6117SOL     OW29812   0.441   2.737   7.069  0.6402  0.0209 -0.2810
 6117SOL    HW129813   0.526   2.753   7.110  0.8480 -0.0793 -0.6732
 6117SOL    HW229814   0.393   2.749   7.150 -0.6826  0.6253 -1.1553
 6118SOL     OW29815   3.444   4.265   2.512 -0.1369 -0.0078 -0.5463
 6118SOL    HW129816   3.475   4.224   2.593 -0.7754  0.9188  0.1770
 6118SOL    HW229817   3.351   4.252   2.531  0.5122 -0.8437  2.0704
 6119SOL     OW29818   0.468   2.471   6.974 -0.0246  0.2213 -0.0062
 6119SOL    HW129819   0.399   2.468   7.040  0.6587  0.1192  0.7010
 6119SOL    HW229820   0.479   2.566   6.965  1.4792  0.0526  0.0844
 6120SOL     OW29821   2.123   1.635   3.227  0.0709 -0.8595  0.1544
 6120SOL    HW129822   2.065   1.571   3.267  1.2021 -0.5981  2.2075
 6120SOL    HW229823   2.212   1.616   3.258 -0.0965 -1.5497  0.2164
 6121SOL     OW29824   2.179   0.933   3.487 -0.2438  0.3065  0.3173
 6121SOL    HW129825   2.265   0.892   3.478 -0.6431 -0.2183 -1.0968
 6121SOL    HW229826   2.124   0.870   3.440  2.9863 -1.7216 -0.7544
 6122SOL     OW29827   2.182   2.387   8.150  0.3858  0.3139 -0.3380
 6122SOL    HW129828   2.272   2.370   8.177  0.1274 -0.1141  0.2574
 6122SOL    HW229829   2.166   2.322   8.081  1.7908 -1.7037  1.2397
 6123SOL     OW29830   1.086   0.091   2.103  0.3188  0.5971 -0.2103
 6123SOL    HW129831   1.084   0.161   2.037  2.7011  0.9191  0.0511
 6123SOL    HW229832   1.096   0.012   2.050  0.6751  0.7827 -0.4160
 6124SOL     OW29833   2.023   3.364   8.326  0.1919  0.0377 -0.0439
 6124SOL    HW129834   1.983   3.406   8.403  2.3513  0.3546  0.9019
 6124SOL    HW229835   1.954   3.361   8.260  0.1814  1.7216 -0.1138
 6125SOL     OW29836   2.747   1.842   8.263  0.1523  0.3150 -0.0991
 6125SOL    HW129837   2.661   1.800   8.254  1.4914 -2.0409 -2.0488
 6125SOL    HW229838   2.791   1.774   8.314 -0.4993  1.0339  1.4296
 6126SOL     OW29839   4.129   1.832   8.190  0.0636 -0.0704  0.4172
 6126SOL    HW129840   4.034   1.837   8.180  0.0330  2.3314  1.8750
 6126SOL    HW229841   4.157   1.922   8.176  0.7688 -0.5950 -1.4937
 6127SOL     OW29842   0.575   3.666   5.590 -0.6203  0.2611 -0.3260
 6127SOL    HW129843   0.659   3.710   5.597  0.1864 -1.4768  1.1301
 6127SOL    HW229844   0.580   3.588   5.646  1.0837  0.4121 -0.2650
 6128SOL     OW29845   0.284   1.265   7.615  0.3036 -0.2195 -0.1159
 6128SOL    HW129846   0.308   1.198   7.679  0.4668 -0.9543 -0.9309
 6128SOL    HW229847   0.348   1.244   7.546  0.7370 -0.3706  0.3291
 6129SOL     OW29848   4.393   3.736   5.421  0.3107 -0.5949 -0.9382
 6129SOL    HW129849   4.453   3.683   5.369  1.2888 -1.5628  1.1322
 6129SOL    HW229850   4.392   3.815   5.368  0.4024  0.5425  0.7529
 6130SOL     OW29851   1.412   2.431   2.183  0.0923 -0.2683 -0.7815
 6130SOL    HW129852   1.439   2.368   2.249 -2.5150 -0.1863  0.3618
 6130SOL    HW229853   1.333   2.472   2.218  1.1708 -0.1727  1.4776
 6131SOL     OW29854   0.726   0.934  16.196 -0.0721  0.2205 -0.0991
 6131SOL    HW129855   0.683   0.874  16.257  0.9348 -1.3586 -0.9225
 6131SOL    HW229856   0.701   0.889  16.115  0.3798  2.5309 -1.5076
 6132SOL     OW29857   0.847   1.354  14.041  0.5420 -0.5985  0.7915
 6132SOL    HW129858   0.875   1.442  14.067  0.3954  0.5431 -2.9490
 6132SOL    HW229859   0.796   1.321  14.116  0.7716 -2.5867  0.0791
 6133SOL     OW29860   1.429   3.979   4.449  0.1022 -0.7096 -0.3958
 6133SOL    HW129861   1.356   3.952   4.504  0.1263  0.0326 -0.0061
 6133SOL    HW229862   1.502   3.941   4.497  1.9916  1.6842 -1.3613
 6134SOL     OW29863   0.482   2.017   8.375 -0.1313 -0.0605 -0.0326
 6134SOL    HW129864   0.487   2.112   8.368 -1.3020 -0.0236 -0.4875
 6134SOL    HW229865   0.420   1.996   8.445  1.1432  0.3055  1.1944
 6135SOL     OW29866   0.815   3.546   2.054  0.3730 -0.0119 -0.5628
 6135SOL    HW129867   0.816   3.485   2.128  1.2845 -1.2224 -1.5803
 6135SOL    HW229868   0.781   3.497   1.979 -0.9549 -1.7217  1.1575
 6136SOL     OW29869   3.190   1.256   4.488  0.1563 -0.1476  0.1958
 6136SOL    HW129870   3.163   1.329   4.432 -1.4307  1.3973  2.9288
 6136SOL    HW229871   3.158   1.180   4.440  3.1977 -0.7153 -0.9262
 6137SOL     OW29872   4.164   2.923  13.533 -0.5115 -0.3339 -0.4745
 6137SOL    HW129873   4.122   2.849  13.490 -0.6906  0.6932 -2.0597
 6137SOL    HW229874   4.087   2.969  13.567  1.2827  1.4201  1.2621
 6138SOL     OW29875   2.272   1.118   0.712  0.1746 -0.0074  0.1999
 6138SOL    HW129876   2.318   1.202   0.712 -0.3248  0.2741 -1.5740
 6138SOL    HW229877   2.185   1.157   0.700 -0.1505 -1.4383 -2.1533
 6139SOL     OW29878   2.718   0.640  17.071  0.1080  0.0652 -0.1263
 6139SOL    HW129879   2.743   0.597  17.153  0.4704  0.9411  0.2144
 6139SOL    HW229880   2.730   0.733  17.089  0.0201 -0.1532  1.0860
 6140SOL     OW29881   3.558   2.242   6.777 -0.2662  0.4089 -0.0394
 6140SOL    HW129882   3.491   2.187   6.818 -1.0829  0.2242 -1.6110
 6140SOL    HW229883   3.621   2.240   6.849 -0.4304  2.3235  0.1466
 6141SOL     OW29884   1.962   2.921   9.489  0.9740 -0.1330 -0.1792
 6141SOL    HW129885   1.885   2.879   9.451  1.0540 -0.2386 -0.2248
 6141SOL    HW229886   1.966   2.869   9.569  1.6369 -0.9780 -0.7558
 6142SOL     OW29887   4.576   4.485   4.186 -0.0050  0.7750  0.0912
 6142SOL    HW129888   4.626   4.566   4.195 -0.8342  1.1279  1.5497
 6142SOL    HW229889   4.642   4.427   4.146 -1.7039 -0.1938 -1.2914
 6143SOL     OW29890   2.844   3.000   2.294 -0.1329  0.8180 -0.3136
 6143SOL    HW129891   2.880   3.085   2.320 -0.7011  0.4017  1.8046
 6143SOL    HW229892   2.755   3.025   2.270 -1.8042 -0.5624  4.4495
 6144SOL     OW29893   4.495   0.914  14.290  0.1931  0.1190  0.1743
 6144SOL    HW129894   4.428   0.848  14.305 -0.6474  0.8166 -0.4876
 6144SOL    HW229895   4.451   0.988  14.332  0.3104  0.2139  0.1272
 6145SOL     OW29896   3.898   2.793  15.691  0.3687  0.2792  0.3195
 6145SOL    HW129897   3.947   2.712  15.673 -0.7416 -0.5068  0.8519
 6145SOL    HW229898   3.841   2.798  15.614  1.0950 -1.4882 -0.3542
 6146SOL     OW29899   0.938   3.794   9.923 -0.5245 -0.2802 -0.3093
 6146SOL    HW129900   0.917   3.787   9.830 -0.3134  1.3167 -0.4756
 6146SOL    HW229901   0.903   3.712   9.957 -0.4331  0.7246  2.1708
 6147SOL     OW29902   1.963   3.684  10.482 -0.6802 -0.3975  0.0830
 6147SOL    HW129903   2.020   3.636  10.543  0.1753 -0.6806 -0.9432
 6147SOL    HW229904   1.900   3.725  10.541 -2.6189 -1.9041 -0.9286
 6148SOL     OW29905   0.666   0.582   2.435 -0.0503  0.1915  0.4102
 6148SOL    HW129906   0.573   0.603   2.425 -0.2706 -0.8624  0.3186
 6148SOL    HW229907   0.697   0.662   2.392  0.5596 -0.4466 -0.3427
 6149SOL     OW29908   0.205   2.612  14.915  0.3592  0.8111 -0.1731
 6149SOL    HW129909   0.187   2.557  14.839  1.4720 -0.6244  0.6291
 6149SOL    HW229910   0.281   2.570  14.953 -0.3819  0.6036  1.0837
 6150SOL     OW29911   3.372   4.437  10.105  0.2141 -0.8893 -0.0898
 6150SOL    HW129912   3.327   4.383  10.170  0.8201 -2.1456 -0.7200
 6150SOL    HW229913   3.381   4.520  10.152  3.0457 -1.7230  0.8356
 6151SOL     OW29914   3.081   4.591   7.474  0.4354 -0.1093  0.3645
 6151SOL    HW129915   3.140   4.553   7.540 -0.3626 -1.5410  0.2519
 6151SOL    HW229916   3.148   4.622   7.412 -1.0968  2.4204 -0.0128
 6152SOL     OW29917   2.737   4.493  14.264  0.2329  0.4070 -0.1314
 6152SOL    HW129918   2.668   4.460  14.322  0.4115  1.0584  0.4461
 6152SOL    HW229919   2.708   4.468  14.176  0.2224  0.3629 -0.1152
 6153SOL     OW29920   4.572   3.640  12.374 -0.0071  0.1008  0.2328
 6153SOL    HW129921   4.549   3.549  12.355  1.5979 -0.0718 -0.9517
 6153SOL    HW229922   4.634   3.631  12.446  0.2786  0.9360  0.0966
 6154SOL     OW29923   1.598   3.218   1.154 -0.2723  0.0723 -0.2543
 6154SOL    HW129924   1.652   3.154   1.201  1.3468  1.5033 -0.1475
 6154SOL    HW229925   1.514   3.209   1.199 -0.0380  0.4489  0.2653
 6155SOL     OW29926   0.194   3.965   2.506  0.0009 -0.3807  0.4090
 6155SOL    HW129927   0.217   4.049   2.547  0.1930 -0.1203 -0.2224
 6155SOL    HW229928   0.272   3.911   2.520  0.4829  0.2573  0.2283
 6156SOL     OW29929   2.406   1.894   4.211  0.2637 -0.4919 -0.1306
 6156SOL    HW129930   2.329   1.917   4.160 -1.1959  0.0062  2.2860
 6156SOL    HW229931   2.416   1.969   4.269  1.0008  0.1796 -1.1369
 6157SOL     OW29932   0.174   4.144   1.245 -0.5466  0.6591 -0.0554
 6157SOL    HW129933   0.179   4.049   1.255  0.1030  0.4916 -1.9497
 6157SOL    HW229934   0.222   4.183   1.318 -0.7645 -2.2903  1.6304
 6158SOL     OW29935   2.370   3.431   7.343 -0.4152  0.0095 -0.4400
 6158SOL    HW129936   2.276   3.424   7.360 -0.3476  1.0957  0.4357
 6158SOL    HW229937   2.366   3.504   7.281 -1.3681  0.6193  0.3231
 6159SOL     OW29938   1.538   2.341   2.412 -0.5639  0.3672 -0.1738
 6159SOL    HW129939   1.594   2.409   2.448  1.6138 -2.0216  0.9970
 6159SOL    HW229940   1.556   2.263   2.466  1.9019 -1.2534 -3.3742
 6160SOL     OW29941   4.201   4.417   7.687 -0.3937  0.0865 -0.2991
 6160SOL    HW129942   4.222   4.371   7.606 -0.0662 -0.2042 -0.0428
 6160SOL    HW229943   4.107   4.426   7.671 -0.2106  0.9515 -0.9347
 6161SOL     OW29944   3.931   0.942   5.770 -0.3384  1.0970 -0.0631
 6161SOL    HW129945   3.978   0.863   5.745 -0.3301  0.6733  1.3137
 6161SOL    HW229946   3.974   1.000   5.708  0.0210  0.2381 -0.6134
 6162SOL     OW29947   2.307   3.100   1.675  0.1806 -0.3776 -0.5589
 6162SOL    HW129948   2.311   3.189   1.710 -1.4038  0.1346 -1.7134
 6162SOL    HW229949   2.312   3.046   1.755  0.7823  1.1983  0.4709
 6163SOL     OW29950   2.675   2.089   5.682  0.0813  0.0293  0.4367
 6163SOL    HW129951   2.708   2.040   5.607 -2.5058  0.2940 -0.8431
 6163SOL    HW229952   2.756   2.085   5.733 -0.5209  2.1638  1.5693
 6164SOL     OW29953   4.271   1.178   6.627 -0.1368  0.1947 -0.3975
 6164SOL    HW129954   4.309   1.261   6.600 -0.5126  0.3702 -0.3757
 6164SOL    HW229955   4.203   1.172   6.560  0.1580 -1.0640 -0.5806
 6165SOL     OW29956   2.595   2.027   8.696  0.3180 -0.8898 -0.4309
 6165SOL    HW129957   2.675   2.078   8.697 -0.7039  0.7274  0.4019
 6165SOL    HW229958   2.629   1.943   8.665  1.8550 -0.4649  0.1092
 6166SOL     OW29959   2.773   3.307   2.613 -0.3324  0.3996  0.3123
 6166SOL    HW129960   2.817   3.229   2.579  0.0604 -0.3541  2.5425
 6166SOL    HW229961   2.684   3.292   2.581 -0.2958  2.9425 -1.0103
 6167SOL     OW29962   4.580   3.985   5.838  0.0303  0.1211  0.3338
 6167SOL    HW129963   4.500   4.027   5.806 -0.6340 -1.2357  0.2209
 6167SOL    HW229964   4.635   4.062   5.852  1.0599 -0.8456  1.5651
 6168SOL     OW29965   0.050   0.026  10.569 -0.0852  0.6862  0.8444
 6168SOL    HW129966   0.040   0.098  10.508 -0.2025 -0.1619 -0.1354
 6168SOL    HW229967   0.095   0.056  10.648  1.5671 -1.8243  0.8751
 6169SOL     OW29968   1.968   2.602   5.134  0.1961  0.3155  0.0681
 6169SOL    HW129969   1.876   2.601   5.162  0.4252  0.5187  0.8423
 6169SOL    HW229970   1.963   2.580   5.042 -0.7276 -2.2104  0.7244
 6170SOL     OW29971   4.294   3.354  16.416  0.0834  0.3103  0.1530
 6170SOL    HW129972   4.305   3.362  16.511  0.2036 -1.2781  0.2711
 6170SOL    HW229973   4.340   3.433  16.385  0.8090  0.6391  2.0600
 6171SOL     OW29974   1.451   0.327   4.455  0.1865 -0.3369  0.3900
 6171SOL    HW129975   1.509   0.332   4.379 -0.6957  1.0179 -0.1854
 6171SOL    HW229976   1.368   0.310   4.409  0.7330 -3.0315  0.3662
 6172SOL     OW29977   3.953   2.296   7.540 -0.2312  0.4177  0.4061
 6172SOL    HW129978   4.020   2.359   7.511  0.2606  0.4024  1.4972
 6172SOL    HW229979   3.962   2.318   7.633  0.5579  2.6348 -0.1858
 6173SOL     OW29980   1.685   3.887   2.160  0.2803  0.2122 -0.0445
 6173SOL    HW129981   1.706   3.980   2.149 -0.6203  0.4438  0.1851
 6173SOL    HW229982   1.737   3.870   2.238  0.2220 -0.2191 -0.0998
 6174SOL     OW29983   1.711   3.577  11.716  0.1178 -0.1020  0.3230
 6174SOL    HW129984   1.639   3.616  11.767  0.4310  1.2665 -0.2689
 6174SOL    HW229985   1.763   3.555  11.792  0.6222 -0.5077 -0.1443
 6175SOL     OW29986   3.582   3.584   9.165 -0.0643 -0.4015 -0.1796
 6175SOL    HW129987   3.523   3.636   9.220 -1.4628 -1.6385 -0.5249
 6175SOL    HW229988   3.546   3.497   9.177 -0.5361 -0.5916 -3.1298
 6176SOL     OW29989   4.382   0.984   3.908 -0.6856  0.6330 -0.5568
 6176SOL    HW129990   4.292   0.952   3.915 -1.0186  1.5623 -0.5449
 6176SOL    HW229991   4.406   0.944   3.824 -0.1586 -1.3804  0.5398
 6177SOL     OW29992   4.171   3.952   0.128 -0.1957 -0.0098  1.0024
 6177SOL    HW129993   4.145   4.006   0.054 -1.1966  0.9211  2.0411
 6177SOL    HW229994   4.207   3.873   0.086  0.9859  1.2431 -0.3438
 6178SOL     OW29995   3.411   2.783  14.032  0.2525  0.4721  0.0364
 6178SOL    HW129996   3.462   2.738  13.964 -2.6202 -0.9556 -1.1834
 6178SOL    HW229997   3.442   2.874  14.024  0.7223  0.1731 -1.5928
 6179SOL     OW29998   3.683   1.530  14.876  0.1974 -0.5583 -0.7406
 6179SOL    HW129999   3.727   1.450  14.847  1.0111 -0.6780  0.7957
 6179SOL    HW230000   3.733   1.593  14.825 -1.0953  0.6092 -0.5441
 6180SOL     OW30001   0.737   4.249   8.564  0.0187  0.0396 -0.6974
 6180SOL    HW130002   0.780   4.320   8.517 -1.9246  1.4344 -0.3610
 6180SOL    HW230003   0.765   4.274   8.652 -0.0690 -2.3548  0.0178
 6181SOL     OW30004   3.394   3.111   2.612  0.8933  0.2911  0.1142
 6181SOL    HW130005   3.307   3.118   2.572  2.0618  1.9742 -2.0778
 6181SOL    HW230006   3.416   3.018   2.608  4.3671  1.2359 -2.3963
 6182SOL     OW30007   3.786   3.643   1.031  0.2779  0.2835  0.4628
 6182SOL    HW130008   3.734   3.656   0.952 -1.4401  1.9167  1.8569
 6182SOL    HW230009   3.857   3.588   0.999 -0.1185  0.5784 -0.8984
 6183SOL     OW30010   2.348   3.592   6.941 -0.2559 -0.1786  1.3205
 6183SOL    HW130011   2.355   3.497   6.932 -0.3589 -0.2921  2.4161
 6183SOL    HW230012   2.255   3.610   6.956 -0.4791 -0.6875  0.5311
 6184SOL     OW30013   3.740   3.066  13.271  0.1727 -0.5994 -0.4851
 6184SOL    HW130014   3.682   3.007  13.222 -1.0583 -0.3698  0.6742
 6184SOL    HW230015   3.823   3.019  13.270 -0.3628 -1.5780  0.6357
 6185SOL     OW30016   0.693   4.676   1.740  0.1641 -0.1800  0.1738
 6185SOL    HW130017   0.638   4.648   1.813  1.1314  0.1606  1.0266
 6185SOL    HW230018   0.770   4.622   1.756  0.9543  1.0364  0.4831
 6186SOL     OW30019   2.871   0.453   8.241 -0.0808 -0.1418 -0.0912
 6186SOL    HW130020   2.931   0.527   8.230  1.4008 -1.4174 -0.5773
 6186SOL    HW230021   2.794   0.496   8.204 -0.0815  0.7549  0.9433
 6187SOL     OW30022   0.881   3.457  11.499  0.0815 -0.4495  0.1604
 6187SOL    HW130023   0.932   3.476  11.578  1.1759 -0.2434 -0.6014
 6187SOL    HW230024   0.797   3.490  11.529 -0.1320 -0.5948 -0.2813
 6188SOL     OW30025   0.083   0.325   7.818 -0.3822  0.0265 -0.4128
 6188SOL    HW130026   0.136   0.285   7.887 -2.0455 -1.0477  0.2459
 6188SOL    HW230027   0.144   0.341   7.746  0.6455 -3.2966 -0.2812
 6189SOL     OW30028   2.831   3.888   2.963 -0.1051 -0.2672  0.2118
 6189SOL    HW130029   2.769   3.822   2.932  0.2805 -0.2623 -0.5719
 6189SOL    HW230030   2.837   3.947   2.888 -2.5624  0.2559  0.4429
 6190SOL     OW30031   0.779   4.298   7.081 -0.1222 -0.0367  0.0484
 6190SOL    HW130032   0.871   4.288   7.061 -0.5542 -2.0354 -0.8958
 6190SOL    HW230033   0.749   4.221   7.033 -0.4144  0.9440 -1.3331
 6191SOL     OW30034   0.766   3.982   2.544 -0.8274 -0.4544 -0.0512
 6191SOL    HW130035   0.727   4.024   2.620 -1.4789  1.0945 -1.2430
 6191SOL    HW230036   0.744   3.892   2.570  1.8535 -0.1253  3.3756
 6192SOL     OW30037   0.390   1.755   6.163  0.3496  0.0745 -0.5464
 6192SOL    HW130038   0.328   1.825   6.183  2.1971  1.6474 -0.3064
 6192SOL    HW230039   0.368   1.724   6.076 -1.4620  0.0391 -0.0672
 6193SOL     OW30040   1.867   3.280   6.018 -0.6803  0.3368 -0.9977
 6193SOL    HW130041   1.956   3.248   6.035 -0.1536  1.9807 -0.6428
 6193SOL    HW230042   1.815   3.221   6.073  0.9244 -0.2772 -0.1088
 6194SOL     OW30043   2.906   2.899  13.385  0.2397  0.3217 -0.4709
 6194SOL    HW130044   2.860   2.836  13.441  0.2344 -0.6160 -1.5382
 6194SOL    HW230045   2.977   2.921  13.445 -1.7429  0.1982  1.9472
 6195SOL     OW30046   4.520   4.718  13.399 -0.2522 -0.1317 -0.1605
 6195SOL    HW130047   4.584   0.019  13.332 -1.2156  0.0219 -1.0263
 6195SOL    HW230048   4.488   4.635  13.366  0.0199  0.5188 -2.1010
 6196SOL     OW30049   2.050   4.482   3.296 -0.1527  0.2297 -0.8643
 6196SOL    HW130050   2.024   4.404   3.345 -1.8126  0.3877 -1.4977
 6196SOL    HW230051   2.144   4.468   3.310 -0.8295 -2.6760  0.8326
 6197SOL     OW30052   3.177   4.080  12.324  0.0560 -0.2728  0.0662
 6197SOL    HW130053   3.247   4.018  12.306  2.4375  1.8634  2.0120
 6197SOL    HW230054   3.223   4.151  12.279  0.8488  0.1536  1.5488
 6198SOL     OW30055   2.516   0.488   6.644 -0.1625  0.1008 -0.4619
 6198SOL    HW130056   2.535   0.418   6.581  0.5923 -0.2849  0.1959
 6198SOL    HW230057   2.568   0.559   6.607  0.9727  0.6345  2.1246
 6199SOL     OW30058   1.814   4.488  16.318 -0.5685  0.2847  0.0734
 6199SOL    HW130059   1.875   4.416  16.305  0.8392  1.6773 -1.1357
 6199SOL    HW230060   1.783   4.505  16.229  3.0831  0.8270 -1.0980
 6200SOL     OW30061   1.529   2.578  15.729  0.4309 -0.0501 -0.3607
 6200SOL    HW130062   1.458   2.586  15.665 -2.6073 -1.4137  2.8190
 6200SOL    HW230063   1.583   2.520  15.677  1.0828  0.6946 -0.5109
 6201SOL     OW30064   2.880   3.972   3.912  0.1967  0.0960 -0.1531
 6201SOL    HW130065   2.924   3.911   3.971  1.3806  2.7394  1.6966
 6201SOL    HW230066   2.953   4.018   3.871  0.1887 -0.6908 -1.0663
 6202SOL     OW30067   2.456   1.303   8.187 -0.2175 -0.0628  0.0962
 6202SOL    HW130068   2.489   1.373   8.130 -1.0341  1.0347  0.9641
 6202SOL    HW230069   2.396   1.257   8.128 -1.6213 -0.1091  1.5635
 6203SOL     OW30070   1.508   4.543   9.982 -0.8683 -0.0497 -0.1689
 6203SOL    HW130071   1.543   4.454   9.981  0.3367  0.4343 -0.8309
 6203SOL    HW230072   1.478   4.552   9.892 -3.6486  0.1032  0.7746
 6204SOL     OW30073   2.530   3.147   1.529 -0.4503  0.0072  0.1259
 6204SOL    HW130074   2.496   3.086   1.595  0.8737 -1.6320 -0.6912
 6204SOL    HW230075   2.623   3.155   1.552 -0.8579 -1.1159  2.1169
 6205SOL     OW30076   2.754   3.709  15.404  0.3571 -0.0788 -0.0728
 6205SOL    HW130077   2.720   3.628  15.364  0.6807 -0.2879  0.0763
 6205SOL    HW230078   2.845   3.693  15.431  0.3874  2.0757  1.1034
 6206SOL     OW30079   0.157   4.288  12.559 -0.2814  0.3408  0.0645
 6206SOL    HW130080   0.188   4.335  12.481  2.3146 -2.9011 -0.8971
 6206SOL    HW230081   0.152   4.204  12.512  0.3786  0.7861 -0.8052
 6207SOL     OW30082   4.632   0.130   2.871  0.5391 -0.0203  0.2111
 6207SOL    HW130083   4.704   0.192   2.886 -0.1787  0.9987 -0.5444
 6207SOL    HW230084   4.590   0.171   2.796 -0.6640 -2.2575 -0.3298
 6208SOL     OW30085   1.652   1.056   7.894 -0.1890  0.3563  0.4602
 6208SOL    HW130086   1.574   1.005   7.871  0.8951 -0.7362 -0.8179
 6208SOL    HW230087   1.613   1.129   7.942  0.8148 -1.1818  3.5684
 6209SOL     OW30088   2.184   4.005   1.205  0.6191  0.2000 -0.2334
 6209SOL    HW130089   2.157   4.071   1.141 -1.6537 -2.0965 -1.6565
 6209SOL    HW230090   2.127   4.045   1.271  1.3983 -0.1771  0.6655
 6210SOL     OW30091   3.539   0.252  13.405  0.0315 -0.0473 -0.0353
 6210SOL    HW130092   3.537   0.300  13.322 -0.1422 -0.1665 -0.1019
 6210SOL    HW230093   3.599   0.179  13.389 -0.5719 -0.0803 -2.1438
 6211SOL     OW30094   3.758   3.450   7.471 -0.1755  0.3956  0.4966
 6211SOL    HW130095   3.764   3.544   7.483  0.1415  0.3973  0.3468
 6211SOL    HW230096   3.831   3.439   7.409 -1.2200  0.8080 -0.7981
 6212SOL     OW30097   3.903   1.398   5.970  0.2452 -0.4885  0.0264
 6212SOL    HW130098   3.985   1.349   5.976 -0.5802 -1.9131 -0.2061
 6212SOL    HW230099   3.888   1.389   5.876 -2.4570 -0.6964  0.4933
 6213SOL     OW30100   3.636   0.694   6.368 -0.4052 -0.3956  0.0192
 6213SOL    HW130101   3.609   0.639   6.295  1.5015 -1.8653  0.4194
 6213SOL    HW230102   3.673   0.624   6.423  0.1191 -1.6252 -1.8884
 6214SOL     OW30103   2.193   0.058   5.160  0.4643  0.5885  0.1432
 6214SOL    HW130104   2.160   0.039   5.072  0.4836 -0.4067  0.3443
 6214SOL    HW230105   2.223   0.145   5.137 -0.7857  0.8655 -0.4247
 6215SOL     OW30106   3.805   4.624  13.018  0.0607  0.0167 -0.0423
 6215SOL    HW130107   3.870   4.570  12.974  0.2543  0.4636 -0.3030
 6215SOL    HW230108   3.723   4.583  12.993 -1.0226  0.2623  3.0437
 6216SOL     OW30109   3.732   2.451   4.194  0.0459 -0.1951 -0.5329
 6216SOL    HW130110   3.642   2.447   4.162 -0.9431  1.7905  2.0266
 6216SOL    HW230111   3.783   2.424   4.118  1.9955  1.9166  0.0520
 6217SOL     OW30112   3.813   3.948   4.575  0.3165  0.5661  0.0620
 6217SOL    HW130113   3.799   3.873   4.632  1.0296 -0.0433 -0.5607
 6217SOL    HW230114   3.909   3.955   4.579  0.4112 -1.7732  1.6277
 6218SOL     OW30115   3.731   0.632   3.231 -0.3479  0.0949 -0.0942
 6218SOL    HW130116   3.810   0.622   3.178  1.3618  4.0194  1.7306
 6218SOL    HW230117   3.736   0.725   3.253 -1.8503 -0.1376  1.2324
 6219SOL     OW30118   1.446   3.986   5.552  0.3716 -0.5349  0.1482
 6219SOL    HW130119   1.425   4.048   5.482 -1.6339 -0.3137  0.9284
 6219SOL    HW230120   1.501   3.923   5.504 -0.1214  1.4796 -3.0459
 6220SOL     OW30121   0.889   1.270   2.484  0.5410  0.1932  0.1961
 6220SOL    HW130122   0.835   1.331   2.433 -1.5702 -2.7135 -1.0038
 6220SOL    HW230123   0.974   1.303   2.452 -0.5742  0.6360 -2.3087
 6221SOL     OW30124   2.529   1.244  10.309  0.5901 -0.4383 -0.2450
 6221SOL    HW130125   2.591   1.173  10.294  1.8885  0.6624 -0.0960
 6221SOL    HW230126   2.534   1.295  10.228 -3.5848  0.3873  0.0195
 6222SOL     OW30127   2.793   2.079   1.500 -0.6324 -0.0370 -0.0538
 6222SOL    HW130128   2.763   2.049   1.586 -0.0519  1.8178  0.8118
 6222SOL    HW230129   2.886   2.074   1.523 -0.6238 -2.8355 -0.6923
 6223SOL     OW30130   0.201   1.486   3.420  0.0646 -0.4439  0.5708
 6223SOL    HW130131   0.223   1.397   3.448  0.3881 -0.1771  1.1609
 6223SOL    HW230132   0.160   1.471   3.335  0.5902  1.1505  0.0237
 6224SOL     OW30133   0.175   1.500  12.161 -0.0019  0.1468  0.3043
 6224SOL    HW130134   0.262   1.516  12.123 -0.6122 -1.5277 -1.7707
 6224SOL    HW230135   0.119   1.481  12.086 -0.3348 -0.2920  0.6638
 6225SOL     OW30136   3.325   0.577   6.681 -0.1741  0.0657 -0.1632
 6225SOL    HW130137   3.414   0.611   6.692 -0.2955  0.4007 -0.2343
 6225SOL    HW230138   3.289   0.572   6.769 -0.5447  0.2461 -0.3047
 6226SOL     OW30139   1.078   2.762   6.259  0.0404  0.0716  0.4601
 6226SOL    HW130140   1.091   2.727   6.171 -0.5675  0.9561  0.0126
 6226SOL    HW230141   1.094   2.854   6.237 -2.3555 -0.0076 -1.6032
 6227SOL     OW30142   4.535   3.141   4.916  0.1704 -0.8160  1.1286
 6227SOL    HW130143   4.627   3.119   4.898 -0.4163 -1.3776 -1.1738
 6227SOL    HW230144   4.543   3.191   4.997 -0.7000 -0.4202  0.9633
 6228SOL     OW30145   3.936   1.846   3.969  0.4869 -0.0321 -0.5143
 6228SOL    HW130146   3.952   1.753   3.955 -3.0889 -0.9270  1.1202
 6228SOL    HW230147   3.918   1.846   4.064  0.9846 -0.1293 -0.4238
 6229SOL     OW30148   0.395   0.650  14.821  0.0857 -0.1028 -0.2024
 6229SOL    HW130149   0.323   0.589  14.838 -0.6155  0.9238  0.5304
 6229SOL    HW230150   0.346   0.724  14.856  0.3074 -0.1316  0.1703
 6230SOL     OW30151   4.210   0.145   8.796 -0.4407  0.5006  0.0295
 6230SOL    HW130152   4.264   0.196   8.855 -1.5865  1.3894  0.3069
 6230SOL    HW230153   4.208   0.056   8.831  0.1193 -0.6065 -2.7325
 6231SOL     OW30154   0.599   0.702   4.683  0.0382 -0.3051 -0.1507
 6231SOL    HW130155   0.554   0.618   4.681  0.1283 -0.4243  2.6893
 6231SOL    HW230156   0.529   0.760   4.713 -0.8222 -2.1996  1.4828
 6232SOL     OW30157   3.969   1.055   3.749 -0.0350 -0.8062 -0.3384
 6232SOL    HW130158   4.020   1.082   3.672 -1.6715  2.5222 -0.2422
 6232SOL    HW230159   3.891   1.020   3.705  1.2953 -1.6066 -2.0651
 6233SOL     OW30160   3.782   3.600  13.621  0.4533  0.4524 -0.1340
 6233SOL    HW130161   3.812   3.571  13.707 -0.3914 -1.8196 -0.5987
 6233SOL    HW230162   3.729   3.675  13.647  2.7052  2.1857 -0.6242
 6234SOL     OW30163   1.012   2.233   5.837 -0.1533  0.5794  0.2704
 6234SOL    HW130164   1.095   2.196   5.807 -0.8035 -1.6140  1.1782
 6234SOL    HW230165   0.982   2.167   5.899  1.3089 -0.0149  0.3471
 6235SOL     OW30166   3.606   0.089   2.444  0.1305 -0.3761  0.3256
 6235SOL    HW130167   3.534   0.121   2.499  0.1205 -0.1514  0.1827
 6235SOL    HW230168   3.567   0.093   2.357  0.5849 -2.8460  0.0355
 6236SOL     OW30169   0.308   1.311  13.297 -0.4816 -0.0521 -0.0430
 6236SOL    HW130170   0.355   1.394  13.288  0.8198 -0.8597 -0.7257
 6236SOL    HW230171   0.384   1.252  13.303 -0.2411 -0.0507 -3.4168
 6237SOL     OW30172   3.974   0.162  13.411 -0.1488 -0.5113  0.5335
 6237SOL    HW130173   4.066   0.140  13.423 -0.2995 -0.9050  0.9745
 6237SOL    HW230174   3.942   0.072  13.399  0.8762 -0.8418  0.2125
 6238SOL     OW30175   0.609   0.010   8.267 -0.1638 -0.2360 -0.0595
 6238SOL    HW130176   0.535   4.675   8.279 -0.5770  0.3437  0.2545
 6238SOL    HW230177   0.648   4.691   8.191 -2.3643 -0.3515 -1.1343
 6239SOL     OW30178   4.097   2.652  16.181 -0.0897 -0.0715 -0.1672
 6239SOL    HW130179   4.010   2.633  16.217 -0.3594 -1.8125 -1.7614
 6239SOL    HW230180   4.089   2.732  16.129 -1.5964 -1.7070 -2.4522
 6240SOL     OW30181   4.523   4.563   7.864  0.3220  0.7396  0.7620
 6240SOL    HW130182   4.515   4.612   7.782 -0.1854  1.7813  1.4278
 6240SOL    HW230183   4.574   4.620   7.921 -0.2536  1.5644  0.4611
 6241SOL     OW30184   3.998   3.028  12.855  0.0934  0.3725  0.0257
 6241SOL    HW130185   4.030   3.087  12.788  2.8616 -0.5557  0.5549
 6241SOL    HW230186   4.014   3.079  12.934 -0.6612 -0.9013  1.0039
 6242SOL     OW30187   2.059   2.204   8.351  0.3721  0.2936  0.0606
 6242SOL    HW130188   2.082   2.255   8.273  1.2313 -2.4969 -1.5154
 6242SOL    HW230189   1.985   2.252   8.388 -1.6725 -2.2873 -0.6617
 6243SOL     OW30190   0.645   1.636   6.149  0.3937  0.1162  0.2431
 6243SOL    HW130191   0.591   1.700   6.195  1.0885  1.0684 -0.2657
 6243SOL    HW230192   0.643   1.674   6.061  1.6300  0.5910  0.4121
 6244SOL     OW30193   1.130   4.312  15.008 -0.4085 -0.3823 -0.3326
 6244SOL    HW130194   1.109   4.355  15.091  1.1738  0.0606 -0.1629
 6244SOL    HW230195   1.110   4.220  15.029 -0.4615 -0.2011  0.4068
 6245SOL     OW30196   1.374   3.744   0.410 -0.2023  0.4729 -0.4047
 6245SOL    HW130197   1.406   3.825   0.448 -2.1109  1.6845 -1.3626
 6245SOL    HW230198   1.360   3.687   0.485  1.6874  1.7073  0.8787
 6246SOL     OW30199   3.361   1.449   5.313  0.1130  0.3320  0.2499
 6246SOL    HW130200   3.432   1.399   5.352  1.1029  2.1348  0.7461
 6246SOL    HW230201   3.285   1.394   5.333 -1.2276  2.0067 -0.1910
 6247SOL     OW30202   1.329   4.124  15.260 -0.5955  0.2199  0.9772
 6247SOL    HW130203   1.241   4.146  15.230  0.4956  2.8023 -0.3520
 6247SOL    HW230204   1.387   4.192  15.224 -2.6900  0.9367 -1.0401
 6248SOL     OW30205   4.056   1.485   5.226  0.1754 -0.1933  0.5041
 6248SOL    HW130206   3.986   1.515   5.169  1.1968  1.5599  0.1796
 6248SOL    HW230207   4.047   1.539   5.305  0.3822  0.3454  0.1570
 6249SOL     OW30208   3.766   4.619   6.310 -0.0528  0.7469  0.2138
 6249SOL    HW130209   3.679   4.659   6.312 -1.6672 -2.6417 -1.1828
 6249SOL    HW230210   3.789   4.635   6.219 -2.7243 -1.7633 -0.9192
 6250SOL     OW30211   1.697   4.366   4.387 -0.5187  0.4505  0.6152
 6250SOL    HW130212   1.739   4.450   4.404 -0.3102  0.0999  1.8487
 6250SOL    HW230213   1.680   4.345   4.479  0.1856  1.8765  1.0771
 6251SOL     OW30214   2.446   1.973   5.289  0.1511  0.1028 -0.2951
 6251SOL    HW130215   2.378   2.018   5.339 -2.0327 -1.8098 -1.5038
 6251SOL    HW230216   2.392   1.897   5.265 -0.1769  1.4096 -3.5989
 6252SOL     OW30217   2.034   0.517   9.525 -0.1680  0.4918  0.1650
 6252SOL    HW130218   2.039   0.451   9.594  2.0462  1.2740  0.7439
 6252SOL    HW230219   1.947   0.552   9.545 -1.1168 -1.0682 -1.1772
 6253SOL     OW30220   4.177   0.440   9.937  0.5052 -0.5305  0.2292
 6253SOL    HW130221   4.199   0.354   9.901 -0.6989 -0.0821 -1.5698
 6253SOL    HW230222   4.089   0.419   9.967 -0.2878  0.6752 -1.2693
 6254SOL     OW30223   0.547   3.252   0.234  0.3076  0.0546 -0.0946
 6254SOL    HW130224   0.498   3.323   0.276  0.7347 -0.3347  1.0384
 6254SOL    HW230225   0.480   3.187   0.255 -0.3646  0.7696 -0.0036
 6255SOL     OW30226   3.229   1.885   4.264 -0.1573  0.3265 -0.1529
 6255SOL    HW130227   3.223   1.904   4.358 -0.5981  0.6233 -0.2422
 6255SOL    HW230228   3.239   1.976   4.237 -2.9097  0.6276 -0.1924
 6256SOL     OW30229   3.034   2.621   9.012 -0.5950 -0.2229  0.2240
 6256SOL    HW130230   3.036   2.542   9.066  2.4947  0.1910  0.7048
 6256SOL    HW230231   3.105   2.672   9.052 -0.0987 -0.5501 -0.2367
 6257SOL     OW30232   2.952   2.094   2.282  0.0893  0.8777  0.1496
 6257SOL    HW130233   2.997   2.116   2.200  0.5989 -0.3599  0.0921
 6257SOL    HW230234   3.031   2.096   2.336 -0.3264 -0.2396  0.8035
 6258SOL     OW30235   3.102   1.800   2.813  0.1179 -0.0008  0.3665
 6258SOL    HW130236   3.043   1.862   2.855 -0.6215 -0.7832  0.4927
 6258SOL    HW230237   3.173   1.858   2.786  0.1047 -1.4704 -2.8613
 6259SOL     OW30238   0.485   2.290   2.017 -0.3209 -0.1184 -0.0874
 6259SOL    HW130239   0.415   2.225   2.013  1.7586 -2.3135 -1.0120
 6259SOL    HW230240   0.479   2.341   1.937 -1.2215 -2.7722 -1.6944
 6260SOL     OW30241   1.856   4.316  13.654 -0.6182  0.3803  0.3406
 6260SOL    HW130242   1.812   4.327  13.570  1.8746 -2.8668 -1.3806
 6260SOL    HW230243   1.861   4.404  13.692  1.9045  0.0039  0.8302
 6261SOL     OW30244   2.832   2.340  16.817  0.1569  0.4118  0.0175
 6261SOL    HW130245   2.747   2.301  16.799  0.1532 -0.3065  1.5913
 6261SOL    HW230246   2.850   2.296  16.900 -0.3608  0.6373  0.2482
 6262SOL     OW30247   1.985   4.030  13.214  0.3626  0.5861  0.4131
 6262SOL    HW130248   2.014   4.099  13.274 -0.4264  1.6869 -0.4868
 6262SOL    HW230249   2.064   4.035  13.161 -0.4467  1.5748 -0.6685
 6263SOL     OW30250   4.106   3.408   1.884  0.1639  0.2791 -0.0052
 6263SOL    HW130251   4.162   3.485   1.879 -2.7717  2.4374  0.1222
 6263SOL    HW230252   4.162   3.342   1.925 -0.6499 -0.4691 -0.0843
 6264SOL     OW30253   2.583   1.378   9.817 -0.5725 -0.7435 -0.2906
 6264SOL    HW130254   2.679   1.376   9.814 -0.5023  1.2124  0.6776
 6264SOL    HW230255   2.577   1.283   9.832 -0.4048 -0.6069  0.6630
 6265SOL     OW30256   1.014   0.361   1.924 -0.3109  0.0034 -0.2106
 6265SOL    HW130257   0.943   0.297   1.925  1.4276 -1.9225 -0.5057
 6265SOL    HW230258   0.961   0.441   1.924 -2.3931 -1.3537 -3.0350
 6266SOL     OW30259   4.206   1.787   3.463 -0.1479 -0.3431 -0.6291
 6266SOL    HW130260   4.223   1.760   3.373  0.0508 -2.3212 -0.0160
 6266SOL    HW230261   4.186   1.880   3.464  0.3679 -0.2175 -2.8166
 6267SOL     OW30262   3.783   0.727  12.286  0.5344 -0.3905  0.0954
 6267SOL    HW130263   3.734   0.646  12.296 -1.6420  0.8287 -0.6467
 6267SOL    HW230264   3.770   0.755  12.195 -0.4590 -0.0457  0.3444
 6268SOL     OW30265   3.031   1.907  10.414 -0.2454 -0.1023 -0.2104
 6268SOL    HW130266   3.054   1.829  10.466  0.7329  0.4969  0.2728
 6268SOL    HW230267   2.966   1.953  10.467 -1.9088 -2.8203  0.1355
 6269SOL     OW30268   2.176   0.823   0.855  0.3700  0.2859  0.2811
 6269SOL    HW130269   2.113   0.779   0.797  0.3059  1.0985 -0.2623
 6269SOL    HW230270   2.126   0.899   0.884 -1.8010 -0.7589 -0.7569
 6270SOL     OW30271   3.732   1.351   3.290 -0.4576 -0.1912  0.6854
 6270SOL    HW130272   3.639   1.337   3.274 -0.6777 -0.6563  2.3633
 6270SOL    HW230273   3.755   1.409   3.217 -2.8366 -0.4360 -0.2608
 6271SOL     OW30274   2.712   3.437   9.491  0.1345 -0.1906  0.3220
 6271SOL    HW130275   2.691   3.347   9.514  0.0044 -0.4585 -0.8023
 6271SOL    HW230276   2.735   3.470   9.578 -0.9335  0.2557  0.4379
 6272SOL     OW30277   4.481   0.325   8.107 -0.4675 -0.0698 -0.2460
 6272SOL    HW130278   4.448   0.291   8.024  1.5740  1.0714 -1.5344
 6272SOL    HW230279   4.534   0.249   8.132 -1.2516 -0.3130  0.6688
 6273SOL     OW30280   4.687   0.889  14.051 -0.2420 -0.4536  0.0655
 6273SOL    HW130281   4.628   0.910  14.124 -1.2264 -0.8341 -0.6203
 6273SOL    HW230282   4.670   0.800  14.023  0.8515 -0.7745  0.4291
 6274SOL     OW30283   4.640   3.439   2.830 -0.0055 -0.4541 -0.2892
 6274SOL    HW130284   4.663   3.521   2.872  1.2449 -0.7775 -0.3321
 6274SOL    HW230285   4.627   3.467   2.740 -0.8827  0.2786  0.0741
 6275SOL     OW30286   1.282   2.984   0.483  0.3105  0.0218  0.6649
 6275SOL    HW130287   1.363   3.035   0.474  0.3025  0.4751  3.2950
 6275SOL    HW230288   1.228   3.061   0.501  1.9082  1.6641 -1.3758
 6276SOL     OW30289   1.585   3.650   1.691  0.2117 -0.4117 -0.2978
 6276SOL    HW130290   1.509   3.667   1.634 -0.2256 -1.2050  0.0471
 6276SOL    HW230291   1.657   3.671   1.632  2.2198 -0.0546  2.2949
 6277SOL     OW30292   0.752   4.278  11.707 -0.7327  0.1646  1.0493
 6277SOL    HW130293   0.709   4.317  11.630  0.1957 -1.2092 -0.1782
 6277SOL    HW230294   0.804   4.357  11.720  0.6706 -0.5944  0.0938
 6278SOL     OW30295   2.738   0.012   5.338 -0.3503  0.4695 -0.0625
 6278SOL    HW130296   2.820   4.687   5.335 -1.0075 -0.5985 -0.6675
 6278SOL    HW230297   2.765   0.102   5.323 -2.8167  1.0059 -1.3006
 6279SOL     OW30298   0.871   2.089  14.718 -0.3290  0.2649 -0.3538
 6279SOL    HW130299   0.909   2.018  14.768 -0.4524 -0.3235 -1.0978
 6279SOL    HW230300   0.895   2.070  14.628  1.5308  1.5789 -0.1298
 6280SOL     OW30301   2.074   2.391   8.791  0.2168  0.0093 -0.1177
 6280SOL    HW130302   2.078   2.482   8.763 -0.3319 -0.4649 -1.7032
 6280SOL    HW230303   2.162   2.365   8.764  0.0180 -2.1011  1.2178
 6281SOL     OW30304   3.681   0.677   0.615  0.0049  0.0185 -0.6790
 6281SOL    HW130305   3.612   0.635   0.562 -0.0441 -0.7115 -0.0401
 6281SOL    HW230306   3.672   0.638   0.702 -2.3693  1.1807 -0.4005
 6282SOL     OW30307   4.578   4.135   7.565  0.7600 -0.5356  0.5988
 6282SOL    HW130308   4.594   4.200   7.633 -0.5296  0.3341  0.0752
 6282SOL    HW230309   4.633   4.175   7.498  0.5229 -0.9284  0.1649
 6283SOL     OW30310   3.117   0.585   9.388 -0.2922  0.0142 -0.6527
 6283SOL    HW130311   3.175   0.661   9.392  0.8125 -0.9646  2.1352
 6283SOL    HW230312   3.074   0.615   9.308  0.3414  0.1599 -0.9359
 6284SOL     OW30313   1.789   3.422  10.637 -0.5182  0.4259  0.4482
 6284SOL    HW130314   1.849   3.462  10.700 -2.8130  0.7445  2.4534
 6284SOL    HW230315   1.808   3.329  10.648 -2.1640 -0.0406 -0.6038
 6285SOL     OW30316   0.771   0.594  15.991  0.0758  0.1692 -0.1159
 6285SOL    HW130317   0.754   0.523  15.930 -1.4701 -0.7744  1.4044
 6285SOL    HW230318   0.723   0.667  15.952 -0.8930  0.1516  1.0208
 6286SOL     OW30319   0.901   2.224  16.238 -0.1074 -0.1394  0.8468
 6286SOL    HW130320   0.975   2.177  16.275  1.6496  1.7348 -0.2718
 6286SOL    HW230321   0.931   2.230  16.147  2.7766 -2.4373  1.6652
 6287SOL     OW30322   1.908   2.131   5.831 -0.3163  0.2066  0.5557
 6287SOL    HW130323   1.968   2.185   5.881 -2.6064 -0.3718  3.9364
 6287SOL    HW230324   1.974   2.077   5.787 -1.2036 -0.8115  0.4812
 6288SOL     OW30325   4.193   4.716   9.605 -0.1591  0.2769  0.4109
 6288SOL    HW130326   4.268   4.698   9.549 -2.2834 -4.2133 -1.0132
 6288SOL    HW230327   4.135   0.034   9.541  2.5803 -0.9988 -2.8950
 6289SOL     OW30328   2.949   3.476   1.374  0.0331 -0.6267  0.0591
 6289SOL    HW130329   3.007   3.534   1.422  0.8749 -1.0118 -0.4973
 6289SOL    HW230330   2.863   3.505   1.407  0.3569  0.9210 -0.5015
 6290SOL     OW30331   1.059   4.039   3.407  0.3091 -0.4956  0.4619
 6290SOL    HW130332   1.066   4.118   3.461 -2.9084  1.2038 -1.6156
 6290SOL    HW230333   1.152   4.016   3.399  0.6239  1.2599 -0.9737
 6291SOL     OW30334   2.130   1.199   4.865  0.0459  0.1066 -0.0014
 6291SOL    HW130335   2.147   1.232   4.953  1.1615 -1.0408  0.2079
 6291SOL    HW230336   2.185   1.121   4.864  0.6931  0.5623 -0.0135
 6292SOL     OW30337   2.452   3.241   2.784  0.6682 -0.3654  0.1212
 6292SOL    HW130338   2.474   3.274   2.698 -3.4667 -0.1490 -0.8246
 6292SOL    HW230339   2.406   3.164   2.751  0.5407 -0.2060 -0.0648
 6293SOL     OW30340   3.032   3.009  15.738 -0.2218 -0.3185  0.4535
 6293SOL    HW130341   2.963   3.073  15.753 -0.6714 -0.7185  0.1119
 6293SOL    HW230342   3.114   3.050  15.767 -0.7715  0.0636  1.4445
 6294SOL     OW30343   0.861   0.787   0.732 -0.2554  0.3423  0.5375
 6294SOL    HW130344   0.915   0.763   0.657 -0.7890  0.1404  0.2158
 6294SOL    HW230345   0.895   0.876   0.726 -2.6876  1.2148 -0.3298
 6295SOL     OW30346   1.888   0.677  15.651 -1.0513 -0.0450  0.0254
 6295SOL    HW130347   1.931   0.605  15.604 -0.5625  2.5158 -3.4192
 6295SOL    HW230348   1.814   0.627  15.685  2.5726 -2.8604  3.7976
 6296SOL     OW30349   2.722   1.027  11.842 -0.7669  0.0787  0.2680
 6296SOL    HW130350   2.667   0.986  11.909 -0.7253 -0.7428 -0.2049
 6296SOL    HW230351   2.762   0.942  11.824  0.2647  1.0099 -1.7868
 6297SOL     OW30352   0.989   4.152   9.278  0.3439 -0.0935  0.2027
 6297SOL    HW130353   0.913   4.097   9.259  1.5892 -1.8198  0.2185
 6297SOL    HW230354   1.060   4.093   9.303 -1.2723 -2.1603 -0.1182
 6298SOL     OW30355   1.649   2.132  15.074 -0.7035 -0.4705 -0.3167
 6298SOL    HW130356   1.672   2.206  15.131 -0.5020 -0.6716 -0.1382
 6298SOL    HW230357   1.555   2.144  15.064 -0.3127  1.7493 -1.4117
 6299SOL     OW30358   1.470   3.383   6.496 -0.4633  0.6001 -0.2303
 6299SOL    HW130359   1.515   3.464   6.521  0.7123 -0.4189  0.8907
 6299SOL    HW230360   1.545   3.331   6.469 -1.4323 -1.1768  0.4633
 6300SOL     OW30361   1.679   2.129   7.791 -0.2644  0.6375  0.0726
 6300SOL    HW130362   1.592   2.105   7.760 -1.3773  0.7980  3.0318
 6300SOL    HW230363   1.728   2.068   7.736  2.6566  1.5376  1.6446
 6301SOL     OW30364   2.385   1.705  13.968 -0.6928  0.1162  0.1412
 6301SOL    HW130365   2.294   1.728  13.953 -0.3332  0.4990 -1.3865
 6301SOL    HW230366   2.386   1.706  14.064 -2.0171  0.0810  0.1452
 6302SOL     OW30367   3.570   4.187   7.725 -0.1634 -0.2663 -0.2532
 6302SOL    HW130368   3.495   4.218   7.675  0.1072  0.9248  0.0797
 6302SOL    HW230369   3.596   4.268   7.770  0.9990 -1.3115  0.9539
 6303SOL     OW30370   1.725   2.393  14.415  0.5449 -0.6374 -0.2256
 6303SOL    HW130371   1.749   2.362  14.328 -2.0438 -2.0121 -0.4459
 6303SOL    HW230372   1.814   2.396  14.452  1.1052 -0.1443 -1.6048
 6304SOL     OW30373   0.143   2.007   8.220 -0.5677  0.4937 -0.1173
 6304SOL    HW130374   0.110   2.014   8.130 -1.1704 -2.0956 -0.0961
 6304SOL    HW230375   0.093   2.082   8.253 -1.3357 -0.0880  0.0580
 6305SOL     OW30376   2.858   1.707   0.778  0.1693  0.8239  0.1994
 6305SOL    HW130377   2.841   1.767   0.851 -2.0548 -1.4173  1.4939
 6305SOL    HW230378   2.842   1.625   0.824  0.8292  0.6344  0.0969
 6306SOL     OW30379   0.999   4.641   4.940 -0.3139 -0.0104  0.0967
 6306SOL    HW130380   1.087   4.678   4.932 -1.2845  2.1859 -0.6311
 6306SOL    HW230381   0.931   4.698   4.903 -2.3327 -2.0714  0.6459
 6307SOL     OW30382   4.503   3.269   7.781  0.2240  0.6510 -0.0079
 6307SOL    HW130383   4.441   3.296   7.848 -1.4150 -0.2037 -1.1695
 6307SOL    HW230384   4.543   3.352   7.758 -0.0621  0.5050 -1.0309
 6308SOL     OW30385   4.250   3.425   8.862 -0.0259  0.1659  0.0734
 6308SOL    HW130386   4.247   3.391   8.772 -0.6403  0.2354  0.0697
 6308SOL    HW230387   4.224   3.343   8.904  2.2232 -0.4326  0.2745
 6309SOL     OW30388   2.913   3.184  11.468 -0.3739  0.3704  0.2129
 6309SOL    HW130389   2.920   3.274  11.499 -2.6970  0.7737 -0.4183
 6309SOL    HW230390   2.818   3.183  11.454 -0.2335 -1.1086 -0.5484
 6310SOL     OW30391   3.348   1.429   4.236 -0.3751  0.0861 -0.2996
 6310SOL    HW130392   3.320   1.454   4.148 -0.5763 -0.6557 -0.4475
 6310SOL    HW230393   3.331   1.335   4.228 -1.5094  0.3223 -0.6787
 6311SOL     OW30394   4.569   1.766   8.086 -0.7999 -0.0138  0.0532
 6311SOL    HW130395   4.634   1.799   8.023  0.2752 -0.4732  0.9152
 6311SOL    HW230396   4.512   1.726   8.020  0.7687 -1.0813 -0.6628
 6312SOL     OW30397   2.749   1.433   5.289 -0.4038  0.6650 -0.5970
 6312SOL    HW130398   2.706   1.501   5.341  0.4520  0.6900  0.0876
 6312SOL    HW230399   2.791   1.483   5.219 -2.0569  0.1545 -1.9457
 6313SOL     OW30400   4.213   3.829   9.337 -0.5522  0.4887 -0.4641
 6313SOL    HW130401   4.136   3.803   9.388  0.3386  0.4885  0.8574
 6313SOL    HW230402   4.174   3.900   9.284 -0.6330 -0.9644 -2.3534
 6314SOL     OW30403   4.642   2.279   7.551  0.1819  0.4147  0.0523
 6314SOL    HW130404   4.625   2.189   7.579  2.3812 -0.1549 -0.4349
 6314SOL    HW230405   4.681   2.324   7.626 -1.6629 -1.3443  2.0564
 6315SOL     OW30406   3.600   0.569  10.698  0.0381 -0.2299  0.0528
 6315SOL    HW130407   3.601   0.559  10.793  1.7538 -1.9038 -0.1250
 6315SOL    HW230408   3.508   0.555  10.675  0.7972 -1.9347 -2.0897
 6316SOL     OW30409   1.767   1.850   5.898  0.2429  0.1747 -0.3777
 6316SOL    HW130410   1.775   1.821   5.989  0.6221  0.3325 -0.3575
 6316SOL    HW230411   1.861   1.843   5.880  0.6551  1.1055  1.4284
 6317SOL     OW30412   2.448   1.639   7.650  0.8584  0.2295 -0.5121
 6317SOL    HW130413   2.390   1.711   7.677  0.7866 -0.2032  0.4961
 6317SOL    HW230414   2.507   1.687   7.592  0.3952  0.1279 -1.0590
 6318SOL     OW30415   1.811   2.519   2.942 -0.4480 -0.1765  0.1975
 6318SOL    HW130416   1.888   2.561   2.978 -1.1393  0.8488  0.4842
 6318SOL    HW230417   1.834   2.427   2.926 -0.0225 -0.1733  0.8115
 6319SOL     OW30418   2.855   0.197   3.151 -0.2101  0.0678  0.6605
 6319SOL    HW130419   2.950   0.196   3.137 -0.1693 -0.1283  0.9469
 6319SOL    HW230420   2.840   0.276   3.099 -1.9273 -0.7321 -0.0637
 6320SOL     OW30421   4.136   3.888   6.196  0.6199 -0.6673  0.2514
 6320SOL    HW130422   4.203   3.840   6.148  0.3421 -1.0180  0.2170
 6320SOL    HW230423   4.098   3.952   6.135  1.7685  0.1370  0.3747
 6321SOL     OW30424   1.199   4.447  11.698 -0.7613  0.2458 -0.4600
 6321SOL    HW130425   1.249   4.421  11.775 -2.9208 -0.0737  0.8510
 6321SOL    HW230426   1.270   4.447  11.634 -0.2212  1.3492  0.1321
 6322SOL     OW30427   0.981   2.654   7.039 -0.1110 -0.3841  0.4972
 6322SOL    HW130428   0.944   2.735   7.005  1.6390  0.9424  1.7787
 6322SOL    HW230429   0.982   2.608   6.954  0.2472  0.7905 -0.1340
 6323SOL     OW30430   2.785   4.004   0.567  0.2270 -0.0054  0.9024
 6323SOL    HW130431   2.755   4.084   0.611 -0.3848  0.6520 -0.7025
 6323SOL    HW230432   2.705   3.991   0.517  1.5324  3.1553 -2.0622
 6324SOL     OW30433   2.723   0.406   6.868  0.0081 -0.3112  0.2739
 6324SOL    HW130434   2.797   0.462   6.890  0.9217 -1.2452 -0.4424
 6324SOL    HW230435   2.673   0.461   6.808 -0.9975 -1.4101  0.0995
 6325SOL     OW30436   1.134   3.232   6.487  0.9767 -0.4632 -0.0975
 6325SOL    HW130437   1.163   3.289   6.416 -0.5339  0.3586 -0.0538
 6325SOL    HW230438   1.164   3.147   6.454  1.8221 -0.4633  0.6807
 6326SOL     OW30439   4.409   0.183   7.865  0.4902  0.0046 -0.3776
 6326SOL    HW130440   4.347   0.115   7.838 -1.0244  0.3266  2.3272
 6326SOL    HW230441   4.365   0.249   7.812 -0.9370  0.8721  1.9050
 6327SOL     OW30442   2.289   1.375   6.472  0.2861  0.3412 -0.1443
 6327SOL    HW130443   2.285   1.470   6.459  1.3739  0.2722 -1.0332
 6327SOL    HW230444   2.382   1.358   6.456 -0.0130 -2.2304  0.8547
 6328SOL     OW30445   0.203   1.504  14.521 -0.1444  0.0752  0.6078
 6328SOL    HW130446   0.268   1.476  14.456 -1.3782  0.8458 -0.9688
 6328SOL    HW230447   0.119   1.480  14.481  0.2185 -0.4352  0.1530
 6329SOL     OW30448   1.056   4.693   7.684  0.2125 -0.0082  0.3925
 6329SOL    HW130449   0.967   4.659   7.701  0.2786 -0.2232  0.3132
 6329SOL    HW230450   1.046   0.021   7.604 -0.0757 -0.2242  0.2850
 6330SOL     OW30451   1.173   2.710   7.210 -0.9357 -0.1860  0.0516
 6330SOL    HW130452   1.143   2.683   7.297 -1.3318 -0.0150 -0.0300
 6330SOL    HW230453   1.100   2.679   7.156  0.4379 -1.4913 -1.0535
 6331SOL     OW30454   0.738   3.602  15.866 -0.5393  0.3387 -0.3813
 6331SOL    HW130455   0.762   3.693  15.888 -2.5385  0.6944  0.3827
 6331SOL    HW230456   0.646   3.619  15.885 -0.9996 -0.3113 -2.0444
 6332SOL     OW30457   3.098   2.443   6.078  0.2076  0.2797 -0.4811
 6332SOL    HW130458   3.133   2.524   6.042 -0.8848  0.0160 -2.1356
 6332SOL    HW230459   3.042   2.404   6.011  2.8475 -0.2708 -2.3964
 6333SOL     OW30460   0.291   2.620   2.428  0.2417  0.7196 -0.2432
 6333SOL    HW130461   0.352   2.689   2.452  0.4265 -0.1700  1.8465
 6333SOL    HW230462   0.216   2.645   2.483 -0.6761 -2.5044 -0.0352
 6334SOL     OW30463   3.016   4.277  11.494 -0.2540  0.4848 -0.1032
 6334SOL    HW130464   3.093   4.309  11.445 -0.5464  1.4609  0.0719
 6334SOL    HW230465   2.968   4.235  11.422 -1.9012  1.8380  0.2248
 6335SOL     OW30466   3.754   2.849   9.065  0.3332  0.1848 -0.3134
 6335SOL    HW130467   3.817   2.788   9.104  1.2297  2.1232  1.2641
 6335SOL    HW230468   3.732   2.898   9.144  1.5375  0.8005 -0.3569
 6336SOL     OW30469   2.396   1.213   4.251 -0.0608 -0.6498  0.6642
 6336SOL    HW130470   2.399   1.263   4.333  2.3220 -0.1972  0.2855
 6336SOL    HW230471   2.322   1.257   4.211  0.8770 -0.1575 -0.5104
 6337SOL     OW30472   4.155   0.154   8.237 -0.0888  0.7310  0.0638
 6337SOL    HW130473   4.215   0.225   8.260  2.1148 -1.3452  0.6737
 6337SOL    HW230474   4.123   0.113   8.317 -0.0566  2.6342  1.0668
 6338SOL     OW30475   4.090   2.550   5.042  0.4217  0.2510  0.6176
 6338SOL    HW130476   4.079   2.463   5.082  0.0585  0.9034  1.9501
 6338SOL    HW230477   4.164   2.523   4.988 -0.2052 -1.5365  0.6641
 6339SOL     OW30478   4.687   2.417   6.071  0.5765  0.1737  0.0478
 6339SOL    HW130479   4.598   2.392   6.097  0.3962 -0.4598 -1.1663
 6339SOL    HW230480   4.685   2.510   6.093 -0.7482 -0.2312  1.6166
 6340SOL     OW30481   3.192   2.701   9.444 -0.2336 -0.0562 -0.0647
 6340SOL    HW130482   3.144   2.782   9.429 -0.7991 -0.5644 -0.9997
 6340SOL    HW230483   3.241   2.696   9.362 -0.7369  0.9840 -0.4306
 6341SOL     OW30484   0.678   4.547   6.661 -0.5300  0.1562  0.2708
 6341SOL    HW130485   0.614   4.546   6.590  0.5824 -0.1703 -0.7209
 6341SOL    HW230486   0.734   4.477   6.628  0.1723  0.2862  1.1774
 6342SOL     OW30487   1.093   1.819   5.489  0.3861 -0.4754 -0.1716
 6342SOL    HW130488   1.184   1.810   5.460  0.8858  0.4358  1.1435
 6342SOL    HW230489   1.056   1.873   5.419  0.3827 -1.1866 -0.7216
 6343SOL     OW30490   2.628   3.537   6.982 -0.3702  0.0863  0.4329
 6343SOL    HW130491   2.550   3.587   6.958  0.0476  0.2244 -0.6347
 6343SOL    HW230492   2.592   3.462   7.030  0.3052  0.3895  1.4200
 6344SOL     OW30493   0.509   0.887   7.433  0.3737  0.4479 -0.8104
 6344SOL    HW130494   0.424   0.842   7.429  0.1220  0.9749 -1.5390
 6344SOL    HW230495   0.555   0.833   7.370  1.6726 -0.1204  0.6347
 6345SOL     OW30496   0.670   0.231   8.757  0.5502 -0.0027  0.0885
 6345SOL    HW130497   0.630   0.308   8.717  2.4551  1.2538  0.6412
 6345SOL    HW230498   0.657   0.175   8.681  0.1155  2.4299 -1.6161
 6346SOL     OW30499   0.718   4.584   2.047 -0.0774  0.0254  0.1146
 6346SOL    HW130500   0.687   4.501   2.084  1.8408 -0.1908  1.2017
 6346SOL    HW230501   0.811   4.581   2.068  0.4477 -0.9793 -2.3834
 6347SOL     OW30502   2.572   1.813   2.041 -0.4987  0.0000  0.0540
 6347SOL    HW130503   2.582   1.724   2.007 -3.0171  0.0201 -0.7117
 6347SOL    HW230504   2.661   1.839   2.064 -1.0874  1.3168  0.8051
 6348SOL     OW30505   3.366   3.811   9.907  0.4554 -0.1767 -0.1857
 6348SOL    HW130506   3.327   3.887   9.950  1.3251  0.5565 -0.7019
 6348SOL    HW230507   3.296   3.745   9.915  0.3838 -0.2150 -1.0833
 6349SOL     OW30508   2.489   3.766   1.379 -0.0687  0.4656  0.3456
 6349SOL    HW130509   2.476   3.851   1.423 -1.0710  0.3109  0.3506
 6349SOL    HW230510   2.580   3.778   1.351 -0.4071  0.4061 -0.7536
 6350SOL     OW30511   1.119   0.704   4.116  0.3081 -0.1047 -0.9977
 6350SOL    HW130512   1.049   0.760   4.150  1.9147  0.9871  0.5409
 6350SOL    HW230513   1.179   0.771   4.085 -1.2334  1.7373  0.0089
 6351SOL     OW30514   0.560   4.180   7.669  0.0294 -0.2145  0.2014
 6351SOL    HW130515   0.546   4.142   7.756 -1.4022  1.2373  0.5925
 6351SOL    HW230516   0.482   4.152   7.621 -0.7638  1.6235  0.4056
 6352SOL     OW30517   0.783   0.179   1.894 -0.6470  0.1568 -0.4402
 6352SOL    HW130518   0.778   0.109   1.829  0.4056 -0.7804  0.4835
 6352SOL    HW230519   0.691   0.191   1.917 -0.6913  0.7392 -0.9219
 6353SOL     OW30520   2.108   4.554  13.151  0.1046  0.4559  0.3203
 6353SOL    HW130521   2.164   4.519  13.220 -0.6634  0.9433  1.2039
 6353SOL    HW230522   2.023   4.552  13.197 -0.1780 -2.7595 -0.2889
 6354SOL     OW30523   1.367   1.426   8.149  0.8984  0.0121 -0.2054
 6354SOL    HW130524   1.331   1.407   8.062 -1.2467  1.7129  0.3053
 6354SOL    HW230525   1.393   1.518   8.155  0.3975 -0.0048  2.1172
 6355SOL     OW30526   1.206   1.682  16.409 -0.2987  0.2122  0.6934
 6355SOL    HW130527   1.260   1.605  16.422  0.5005  0.7791  0.7206
 6355SOL    HW230528   1.117   1.648  16.422 -0.4251 -0.0029 -0.7317
 6356SOL     OW30529   3.294   0.006   9.669  0.3442  0.1865 -0.0246
 6356SOL    HW130530   3.285   4.664   9.600  0.1127  0.7157 -0.4966
 6356SOL    HW230531   3.329   4.677   9.740 -0.0178  1.0853  0.8189
 6357SOL     OW30532   3.144   3.209  13.160 -0.9891 -0.0283 -0.2752
 6357SOL    HW130533   3.160   3.300  13.133  0.9405 -0.7632 -1.5637
 6357SOL    HW230534   3.110   3.179  13.076  1.6997 -0.0973 -1.3548
 6358SOL     OW30535   2.129   0.563   2.517  0.2408  0.1277  0.3898
 6358SOL    HW130536   2.151   0.491   2.458  2.2219 -0.5992  1.9972
 6358SOL    HW230537   2.208   0.617   2.513  0.7404 -0.5519  1.0762
 6359SOL     OW30538   3.918   4.413   7.978  0.1177  0.0844 -0.0201
 6359SOL    HW130539   3.824   4.399   7.966  0.5616 -2.1651 -0.9333
 6359SOL    HW230540   3.932   4.505   7.956  0.4209 -0.0442 -0.3836
 6360SOL     OW30541   0.620   3.136   6.248  0.4686  0.4258  0.1575
 6360SOL    HW130542   0.632   3.114   6.155 -1.9723  0.2444 -0.1236
 6360SOL    HW230543   0.707   3.165   6.274  0.8305  0.1345 -0.7160
 6361SOL     OW30544   2.976   0.720  15.627  0.3733 -0.3492 -0.6289
 6361SOL    HW130545   3.066   0.694  15.647 -0.5460 -1.7794  1.6950
 6361SOL    HW230546   2.986   0.751  15.538 -1.9095  0.1348 -0.7322
 6362SOL     OW30547   3.684   4.580   2.155 -0.4172 -0.2553  0.3516
 6362SOL    HW130548   3.613   4.548   2.211  0.1641  0.6114  1.5669
 6362SOL    HW230549   3.761   4.585   2.211 -2.0140 -2.1632  2.6980
 6363SOL     OW30550   1.446   3.895   5.799  0.6005  0.0824 -0.0314
 6363SOL    HW130551   1.363   3.922   5.837  1.1601 -2.5034  3.0349
 6363SOL    HW230552   1.450   3.930   5.710 -3.9284 -0.6502 -0.5205
 6364SOL     OW30553   3.331   4.668   2.392 -0.0707 -0.4022  0.3573
 6364SOL    HW130554   3.313   0.006   2.463  1.0927  0.2182  0.1056
 6364SOL    HW230555   3.244   4.668   2.350  1.1589 -0.2053 -2.1917
 6365SOL     OW30556   0.445   2.903   7.437  0.5425 -0.3786  0.3078
 6365SOL    HW130557   0.535   2.880   7.416  0.8295 -0.5737  1.7711
 6365SOL    HW230558   0.397   2.848   7.375  0.1558 -1.5680  1.6610
 6366SOL     OW30559   1.206   0.794   6.358  0.2931 -0.1921  0.1029
 6366SOL    HW130560   1.205   0.699   6.368 -2.0246 -0.1672  0.3030
 6366SOL    HW230561   1.243   0.805   6.270 -0.4432 -2.6578 -0.5279
 6367SOL     OW30562   0.816   3.802   5.658 -0.7040  0.4661  0.1853
 6367SOL    HW130563   0.814   3.789   5.753 -1.3136 -1.6998 -0.1191
 6367SOL    HW230564   0.897   3.752   5.642  0.0630  2.2026 -1.3305
 6368SOL     OW30565   1.572   0.525  11.776 -0.1643 -0.1755 -0.1944
 6368SOL    HW130566   1.495   0.502  11.829  0.1252  0.5980  0.5487
 6368SOL    HW230567   1.574   0.620  11.774 -0.3930 -0.1933 -1.4715
 6369SOL     OW30568   3.386   3.763   4.498  0.9191  0.0510  0.3048
 6369SOL    HW130569   3.472   3.800   4.479  1.1635  0.3200  1.9521
 6369SOL    HW230570   3.421   3.691   4.550 -0.7378  1.9606  4.0527
 6370SOL     OW30571   2.801   2.604   3.344  0.2429  0.2867 -0.3875
 6370SOL    HW130572   2.766   2.519   3.367 -0.0572  0.4300 -0.3147
 6370SOL    HW230573   2.735   2.639   3.284  0.1313  1.1562  0.2320
 6371SOL     OW30574   3.807   1.623   5.074 -0.2987  0.0207  0.2208
 6371SOL    HW130575   3.790   1.541   5.028 -0.2467  1.3056 -2.0969
 6371SOL    HW230576   3.737   1.629   5.138 -0.2608  0.8841  0.1738
 6372SOL     OW30577   3.932   0.967   3.459  0.1879  0.1457  0.0290
 6372SOL    HW130578   3.927   1.012   3.375  1.2129  0.2577  0.0308
 6372SOL    HW230579   3.850   0.993   3.503 -0.4307 -0.5102 -0.7403
 6373SOL     OW30580   0.809   4.382  15.529  0.0321  0.4564  0.6284
 6373SOL    HW130581   0.835   4.451  15.467 -2.3865  1.2438  0.4701
 6373SOL    HW230582   0.719   4.411  15.548 -1.2024 -2.2095 -1.1653
 6374SOL     OW30583   2.817   2.312   4.992 -0.0793  0.2200 -0.3379
 6374SOL    HW130584   2.862   2.371   4.932  1.2004  0.5185  0.9027
 6374SOL    HW230585   2.863   2.317   5.076  0.7564 -0.3773 -0.7556
 6375SOL     OW30586   3.600   1.407  14.588 -0.6678 -0.1909 -0.0616
 6375SOL    HW130587   3.648   1.340  14.637 -2.4902 -0.3238  1.5637
 6375SOL    HW230588   3.551   1.360  14.521 -1.9330  0.2285  0.5633
 6376SOL     OW30589   4.021   3.851   8.386 -0.3171  0.4559 -0.1998
 6376SOL    HW130590   4.098   3.905   8.365  0.9621 -1.0746  0.5852
 6376SOL    HW230591   4.052   3.822   8.472  0.3779 -0.3126 -0.7128
 6377SOL     OW30592   4.277   3.087   2.642 -0.1269 -0.0598  0.2241
 6377SOL    HW130593   4.210   3.155   2.644 -0.8624 -0.7674 -0.1365
 6377SOL    HW230594   4.351   3.139   2.612 -1.1626  0.2123 -1.9036
 6378SOL     OW30595   3.811   0.721   6.646 -0.3065  0.8219 -0.4613
 6378SOL    HW130596   3.840   0.806   6.678 -0.2807  0.7246 -0.2254
 6378SOL    HW230597   3.863   0.719   6.565 -1.5866 -0.0724 -1.2634
 6379SOL     OW30598   1.662   4.228   0.885  0.5743 -0.5355 -0.1140
 6379SOL    HW130599   1.640   4.312   0.926  2.8554  1.4173 -2.9353
 6379SOL    HW230600   1.749   4.216   0.924  0.8410  0.4658 -0.3966
 6380SOL     OW30601   3.736   0.913   3.173  0.1098 -0.1549  0.1259
 6380SOL    HW130602   3.756   0.989   3.118 -2.1474 -0.3512 -0.9574
 6380SOL    HW230603   3.643   0.923   3.195  0.5669 -0.7728  2.3699
 6381SOL     OW30604   0.540   2.582   5.977  0.3142 -0.7453  0.3100
 6381SOL    HW130605   0.461   2.605   5.927 -0.3571  1.6323  2.4582
 6381SOL    HW230606   0.515   2.492   5.996  2.3612 -0.9633  1.8890
 6382SOL     OW30607   2.643   3.133   6.699  0.4077  0.2072 -0.9580
 6382SOL    HW130608   2.558   3.165   6.666 -0.3573 -0.3781  0.4321
 6382SOL    HW230609   2.632   3.130   6.794 -3.1401  0.1510 -1.3514
 6383SOL     OW30610   2.474   0.994  11.631 -0.0034 -0.1801 -0.7613
 6383SOL    HW130611   2.456   1.063  11.694 -1.6135  0.0738 -1.4929
 6383SOL    HW230612   2.388   0.952  11.635 -0.0325  0.0394  0.9002
 6384SOL     OW30613   4.108   0.289   3.885 -0.0697  1.1778 -0.1294
 6384SOL    HW130614   4.013   0.279   3.884  0.1193 -0.8551  1.8466
 6384SOL    HW230615   4.136   0.199   3.905 -1.4320  0.3963 -1.7338
 6385SOL     OW30616   4.198   1.521   7.295 -0.3740 -0.2523 -0.4601
 6385SOL    HW130617   4.232   1.610   7.304  0.9507 -0.5590 -2.3708
 6385SOL    HW230618   4.150   1.496   7.373  3.1669  0.1807  1.8824
 6386SOL     OW30619   1.278   1.171   4.823 -0.2923 -0.2261  0.0375
 6386SOL    HW130620   1.274   1.081   4.791  0.1481 -0.0982 -0.3776
 6386SOL    HW230621   1.213   1.167   4.893 -0.1876  0.7620  0.1955
 6387SOL     OW30622   4.460   4.159   4.011 -0.2681 -1.0020 -0.1525
 6387SOL    HW130623   4.484   4.162   4.103  0.0667 -0.5161 -0.2540
 6387SOL    HW230624   4.470   4.069   3.980  1.9423 -0.4658 -0.9887
 6388SOL     OW30625   4.218   0.891   6.573 -0.0374  0.2881 -0.1108
 6388SOL    HW130626   4.193   0.808   6.614  2.2416  0.1024  0.9079
 6388SOL    HW230627   4.143   0.911   6.517 -1.0965 -0.0559  1.1733
 6389SOL     OW30628   4.621   0.484  10.315  0.0725  0.1038  0.4159
 6389SOL    HW130629   4.709   0.512  10.337  0.8320 -0.2481 -2.1732
 6389SOL    HW230630   4.575   0.476  10.398 -1.5915  1.9404 -0.3051
 6390SOL     OW30631   2.666   2.803   0.893  0.1001  0.9579 -0.5780
 6390SOL    HW130632   2.672   2.715   0.928 -1.0669  1.1918  0.2028
 6390SOL    HW230633   2.757   2.832   0.903  0.3454  0.3071 -0.9257
 6391SOL     OW30634   0.367   0.513   7.231  0.4774  0.2636  0.2090
 6391SOL    HW130635   0.318   0.491   7.309 -0.9025 -1.8674 -1.2719
 6391SOL    HW230636   0.379   0.426   7.193  2.5026  0.2150  0.9452
 6392SOL     OW30637   1.960   0.146   9.213 -0.1207 -0.2326  0.1663
 6392SOL    HW130638   1.996   0.131   9.300  0.6280 -0.4312 -0.1792
 6392SOL    HW230639   2.012   0.222   9.188 -0.0272 -1.4227 -3.2449
 6393SOL     OW30640   3.861   3.443   2.314 -0.2351 -0.8261 -0.3822
 6393SOL    HW130641   3.798   3.513   2.331  1.3113  0.6242 -0.4747
 6393SOL    HW230642   3.884   3.448   2.221 -0.2466 -2.0224 -0.4486
 6394SOL     OW30643   1.603   1.902  16.399 -0.5151  0.0003 -0.3762
 6394SOL    HW130644   1.527   1.896  16.457  1.4627  3.8005  2.6114
 6394SOL    HW230645   1.563   1.955  16.331 -1.3430  1.1878  1.0288
 6395SOL     OW30646   2.498   4.356   2.644 -0.1479  0.3528  0.0770
 6395SOL    HW130647   2.498   4.450   2.666  1.7420  0.7938 -1.7622
 6395SOL    HW230648   2.507   4.358   2.549  0.1452  0.9284  0.1141
 6396SOL     OW30649   3.470   3.509  11.128 -0.3426 -0.5333  0.5973
 6396SOL    HW130650   3.436   3.441  11.070 -1.7730  1.5391 -1.0077
 6396SOL    HW230651   3.520   3.562  11.065  1.3567 -0.5043  1.9656
 6397SOL     OW30652   3.030   0.165   5.968  0.0487 -0.3578  0.3383
 6397SOL    HW130653   2.949   0.126   5.934  0.1679 -2.0669  1.9709
 6397SOL    HW230654   3.097   0.142   5.904  1.2369  0.2285  1.3656
 6398SOL     OW30655   0.547   2.599   8.091 -0.0365 -0.2431  0.3549
 6398SOL    HW130656   0.506   2.518   8.062 -2.9824  1.4133 -0.1285
 6398SOL    HW230657   0.471   2.657   8.101 -0.5589 -0.4238 -2.5530
 6399SOL     OW30658   1.387   0.441   6.684 -0.4676 -0.2371  0.0889
 6399SOL    HW130659   1.405   0.372   6.620  1.4134  1.1228 -0.8585
 6399SOL    HW230660   1.293   0.431   6.693 -0.4414  0.7847  1.4096
 6400SOL     OW30661   2.500   1.743   0.543  0.7354 -0.3002 -0.5967
 6400SOL    HW130662   2.409   1.714   0.547  1.0176 -1.1251 -0.2205
 6400SOL    HW230663   2.517   1.766   0.635  1.1933 -1.1829 -0.4660
 6401SOL     OW30664   2.522   3.644   7.523 -0.4030 -0.5945  0.1776
 6401SOL    HW130665   2.584   3.575   7.498 -0.5691 -0.3587 -0.8776
 6401SOL    HW230666   2.506   3.677   7.435 -1.5634 -2.1352 -0.1820
 6402SOL     OW30667   2.807   1.019   9.380  0.1671 -0.2898  0.1257
 6402SOL    HW130668   2.810   0.983   9.292 -0.0849  0.6456 -0.2626
 6402SOL    HW230669   2.885   0.980   9.421 -0.8323 -0.2383  2.0994
 6403SOL     OW30670   3.411   1.529   7.209  0.7345  0.2456  0.4166
 6403SOL    HW130671   3.399   1.515   7.115 -0.1167 -2.1267  0.8832
 6403SOL    HW230672   3.450   1.448   7.240 -0.2912 -0.7773 -0.9954
 6404SOL     OW30673   1.013   1.952   6.505 -0.3833  0.1657 -0.0826
 6404SOL    HW130674   1.093   1.929   6.552 -1.0900 -0.1447  0.9490
 6404SOL    HW230675   0.974   1.867   6.483  1.0558 -0.1267 -1.5393
 6405SOL     OW30676   0.918   0.404   4.841  0.7482 -0.5850  0.4475
 6405SOL    HW130677   0.881   0.488   4.869 -0.2104 -0.9730  0.3476
 6405SOL    HW230678   0.876   0.384   4.757  1.4204  0.3266 -0.1137
 6406SOL     OW30679   1.961   3.436  12.702  0.1707  0.4697 -0.3382
 6406SOL    HW130680   1.957   3.348  12.740  0.4075  0.4617 -0.3274
 6406SOL    HW230681   2.043   3.469  12.739  0.1112 -0.1035  0.3059
 6407SOL     OW30682   3.433   3.234   1.226 -0.3912 -0.2795 -0.1686
 6407SOL    HW130683   3.359   3.267   1.276 -2.8051 -0.8090 -3.3845
 6407SOL    HW230684   3.460   3.158   1.278 -0.7655  1.6230  2.7845
 6408SOL     OW30685   1.037   2.145  15.418  0.2059 -0.8406 -0.0171
 6408SOL    HW130686   1.128   2.173  15.424 -0.1905  0.7442 -1.4301
 6408SOL    HW230687   0.997   2.215  15.367  1.5177 -0.8496 -1.0524
 6409SOL     OW30688   2.789   2.505  13.900 -0.7417 -0.5312  0.0220
 6409SOL    HW130689   2.744   2.590  13.894 -1.9788 -1.2779 -1.0375
 6409SOL    HW230690   2.750   2.469  13.980 -2.2162 -2.6892 -1.7120
 6410SOL     OW30691   1.861   4.521   1.395 -0.8182 -0.3608  0.2435
 6410SOL    HW130692   1.851   4.500   1.302  0.3566 -0.2786  0.1040
 6410SOL    HW230693   1.773   4.512   1.430 -0.5992 -1.1417  0.5961
 6411SOL     OW30694   0.381   0.270  14.569  0.3457  0.5433  0.6778
 6411SOL    HW130695   0.419   0.211  14.503 -0.3167  2.8668 -1.7886
 6411SOL    HW230696   0.457   0.322  14.593  1.2236  0.1966 -1.3329
 6412SOL     OW30697   4.304   4.253  14.474 -0.4415 -0.3170 -0.4566
 6412SOL    HW130698   4.380   4.298  14.438 -1.2395  0.5414 -1.0716
 6412SOL    HW230699   4.276   4.322  14.534  3.0799 -0.1298  0.9793
 6413SOL     OW30700   4.085   0.586   9.218 -0.1591  0.0248 -0.5004
 6413SOL    HW130701   4.048   0.649   9.280 -1.1914 -2.7639  1.6954
 6413SOL    HW230702   4.178   0.592   9.242 -0.1063 -0.9407 -0.4403
 6414SOL     OW30703   3.024   2.358   1.495 -0.4075  0.6411  0.3730
 6414SOL    HW130704   3.065   2.277   1.462 -1.5957  1.0110 -2.0117
 6414SOL    HW230705   3.065   2.374   1.580  0.8444 -2.2863  0.3435
 6415SOL     OW30706   0.736   2.020   5.464 -0.4898  0.1067 -0.1246
 6415SOL    HW130707   0.717   2.113   5.459 -2.1555 -0.1881  0.7495
 6415SOL    HW230708   0.819   2.027   5.513 -1.4989 -0.4661  1.6701
 6416SOL     OW30709   2.523   1.087   3.398  0.7139  0.0141 -0.0937
 6416SOL    HW130710   2.591   1.147   3.429  0.5451 -0.2754  0.8447
 6416SOL    HW230711   2.589   1.047   3.341  1.5707 -0.7027  1.3888
 6417SOL     OW30712   2.487   3.799  16.546 -0.2319  0.4436  0.0578
 6417SOL    HW130713   2.395   3.813  16.567 -0.8701 -0.7999 -1.9311
 6417SOL    HW230714   2.475   3.825  16.455 -0.0754  0.6872  0.1063
 6418SOL     OW30715   2.865   2.711   6.570  0.5996  0.3832 -0.2340
 6418SOL    HW130716   2.898   2.626   6.602  3.2796  1.9690  1.1567
 6418SOL    HW230717   2.941   2.766   6.586  0.7759  0.5298 -1.6144
 6419SOL     OW30718   1.660   1.254   5.671  0.4802  0.3924 -0.5286
 6419SOL    HW130719   1.615   1.171   5.685  1.8492 -0.7511 -2.9508
 6419SOL    HW230720   1.586   1.302   5.707  1.4680  1.9308 -0.5331
 6420SOL     OW30721   0.509   4.314   2.544  0.0093  0.0505 -0.9720
 6420SOL    HW130722   0.432   4.368   2.530 -0.7962 -1.1862 -1.2911
 6420SOL    HW230723   0.456   4.237   2.566 -0.0531  0.0612 -1.0853
 6421SOL     OW30724   0.444   4.247  12.196 -0.1463  0.1577  0.2870
 6421SOL    HW130725   0.498   4.273  12.271 -0.8056 -1.0229  1.1762
 6421SOL    HW230726   0.354   4.261  12.226 -0.4754 -1.2479 -0.0748
 6422SOL     OW30727   1.441   3.599   0.892  0.4340 -0.1759  0.6691
 6422SOL    HW130728   1.510   3.536   0.911  0.6224 -0.5034 -1.0621
 6422SOL    HW230729   1.380   3.574   0.961  0.0511 -1.2664 -0.0591
 6423SOL     OW30730   0.027   1.082  13.778  0.2524  0.4871 -0.1006
 6423SOL    HW130731   0.113   1.065  13.740 -0.1074  0.8895 -1.1017
 6423SOL    HW230732   4.708   0.997  13.765 -0.2196  0.6794  0.1867
 6424SOL     OW30733   3.066   0.755  17.026 -0.3427 -0.2806 -0.0126
 6424SOL    HW130734   3.157   0.756  17.058 -0.6671  1.3802  0.8440
 6424SOL    HW230735   3.038   0.844  17.048  1.0232  0.7013 -2.2772
 6425SOL     OW30736   4.470   4.160   6.560  0.3373  0.6106 -0.7448
 6425SOL    HW130737   4.405   4.125   6.620  1.8447  2.5621  1.9949
 6425SOL    HW230738   4.418   4.207   6.495 -0.8264 -0.2920 -0.4534
 6426SOL     OW30739   2.603   2.513   8.466 -0.0010 -0.2340  0.1424
 6426SOL    HW130740   2.697   2.533   8.472 -0.2059  0.2066  1.9535
 6426SOL    HW230741   2.584   2.483   8.555 -0.4604 -0.5835 -0.0771
 6427SOL     OW30742   2.575   2.993   6.048  0.2528 -0.8113  0.0158
 6427SOL    HW130743   2.564   2.947   5.965  0.4058 -0.7033 -0.0655
 6427SOL    HW230744   2.661   3.031   6.030 -0.5614  1.1335  0.2375
 6428SOL     OW30745   3.181   1.514   9.029 -0.1375  0.0873  0.0922
 6428SOL    HW130746   3.142   1.495   9.114  2.3131  1.2179  1.4850
 6428SOL    HW230747   3.112   1.570   8.991 -0.1768 -0.4252 -0.5948
 6429SOL     OW30748   0.458   3.732   2.964  0.1082 -0.0408 -0.4028
 6429SOL    HW130749   0.403   3.808   2.944 -1.2922 -0.4743  1.8335
 6429SOL    HW230750   0.392   3.665   2.978 -0.9590  1.3756  1.2362
 6430SOL     OW30751   2.847   1.373   2.282 -0.3906 -0.2513 -0.1485
 6430SOL    HW130752   2.784   1.329   2.339 -0.5839 -1.5054 -1.3276
 6430SOL    HW230753   2.822   1.342   2.195  0.8472 -2.3173  0.2154
 6431SOL     OW30754   1.042   2.865   3.950  0.2323  0.2049 -0.2513
 6431SOL    HW130755   1.001   2.807   4.013 -1.3670  0.3935 -1.1258
 6431SOL    HW230756   1.028   2.815   3.870 -1.1732  0.7941 -0.3643
 6432SOL     OW30757   0.956   0.195   2.352  0.6813 -0.4801  0.3312
 6432SOL    HW130758   0.997   0.163   2.271  0.2600  0.0438 -0.0919
 6432SOL    HW230759   0.866   0.209   2.324  1.3806  0.7372 -1.3788
 6433SOL     OW30760   2.657   2.930   3.517 -0.3051  0.5795 -0.1738
 6433SOL    HW130761   2.698   3.000   3.567 -0.3557 -0.9216  1.9734
 6433SOL    HW230762   2.562   2.935   3.530 -0.4682  0.0856 -1.1454
 6434SOL     OW30763   3.761   1.160  12.163  0.6258  0.0763  0.1619
 6434SOL    HW130764   3.749   1.254  12.176  0.6441 -0.0370  1.0225
 6434SOL    HW230765   3.733   1.128  12.249 -0.9216 -2.5974 -1.3439
 6435SOL     OW30766   1.596   4.427  16.481  0.1495 -0.0981  0.2160
 6435SOL    HW130767   1.571   4.360  16.417  1.0590 -1.4992  1.3453
 6435SOL    HW230768   1.676   4.454  16.437 -0.3381  1.5190  0.3278
 6436SOL     OW30769   2.605   3.396   4.384  0.6002 -0.3614  0.1721
 6436SOL    HW130770   2.512   3.412   4.395  1.0234  0.3102  2.7555
 6436SOL    HW230771   2.639   3.469   4.435  2.7936 -0.1904 -1.5290
 6437SOL     OW30772   3.077   3.294   8.037  0.4646  0.2047  0.2880
 6437SOL    HW130773   3.016   3.359   8.072 -0.3677 -0.8877  0.8640
 6437SOL    HW230774   3.057   3.219   8.093 -0.4260 -0.6296 -1.1704
 6438SOL     OW30775   1.731   2.969  15.977 -0.0803 -0.2481 -0.1725
 6438SOL    HW130776   1.777   2.960  15.894 -0.3479  0.8085 -0.4285
 6438SOL    HW230777   1.657   2.914  15.952  0.3745 -0.4900 -0.9629
 6439SOL     OW30778   0.867   1.958   3.914  0.4959 -1.0957  0.2283
 6439SOL    HW130779   0.950   2.005   3.918 -0.7705  1.1037  0.3653
 6439SOL    HW230780   0.847   1.950   3.821  4.5893  0.2513 -0.7269
 6440SOL     OW30781   1.728   3.237   2.475 -0.5157  0.3965  0.6971
 6440SOL    HW130782   1.707   3.287   2.553 -0.7125  0.8700  0.3397
 6440SOL    HW230783   1.804   3.289   2.449 -0.6972 -1.1067 -2.9046
 6441SOL     OW30784   0.598   3.732   3.498  0.0627  0.0327  0.0282
 6441SOL    HW130785   0.675   3.766   3.452 -0.7302  0.7002 -0.8261
 6441SOL    HW230786   0.541   3.809   3.511 -0.7166 -0.7010  0.9301
 6442SOL     OW30787   3.945   0.526   1.286  0.1602 -0.3115  0.4769
 6442SOL    HW130788   4.040   0.538   1.290 -0.1552  2.5169 -0.9112
 6442SOL    HW230789   3.936   0.522   1.191  0.2659  0.2261  0.4459
 6443SOL     OW30790   1.464   1.758   6.787  0.1765 -0.2599  0.2247
 6443SOL    HW130791   1.431   1.670   6.804 -0.2721 -0.4749 -1.7301
 6443SOL    HW230792   1.478   1.789   6.876 -0.5351  0.1063  0.2090
 6444SOL     OW30793   0.682   0.321  12.411  0.4908 -0.2538  0.6226
 6444SOL    HW130794   0.619   0.300  12.479  0.2125  1.3507  0.8698
 6444SOL    HW230795   0.699   0.242  12.360 -2.0108 -0.1607 -0.3368
 6445SOL     OW30796   2.645   0.466   4.147  0.1516  0.4160  0.0129
 6445SOL    HW130797   2.679   0.552   4.173 -1.2569  0.2283  2.5066
 6445SOL    HW230798   2.643   0.422   4.232 -0.2007 -1.6482 -1.0656
 6446SOL     OW30799   0.125   2.619   0.297 -0.1491  0.4461 -0.2793
 6446SOL    HW130800   0.086   2.545   0.343  2.4192  0.1970  1.5296
 6446SOL    HW230801   0.082   2.686   0.350 -1.5765 -1.1615  0.5926
 6447SOL     OW30802   0.765   1.638  10.180 -0.4189  0.1431  0.8316
 6447SOL    HW130803   0.682   1.592  10.172  0.5373 -0.7158 -4.0358
 6447SOL    HW230804   0.790   1.638  10.088  0.2744  1.3294  1.0157
 6448SOL     OW30805   0.504   2.769  14.949  0.5707 -0.4881  0.2326
 6448SOL    HW130806   0.573   2.708  14.975 -0.9422 -1.9570  0.7425
 6448SOL    HW230807   0.553   2.838  14.904 -0.3279  0.0330  0.0474
 6449SOL     OW30808   2.273   0.612   4.550 -0.2395 -0.3789  0.2358
 6449SOL    HW130809   2.274   0.539   4.488  3.5069  0.4260 -0.6642
 6449SOL    HW230810   2.218   0.677   4.506  0.5128  0.2953  0.2945
 6450SOL     OW30811   4.050   4.362   2.155 -0.3908 -0.9061 -0.2003
 6450SOL    HW130812   4.138   4.337   2.185  0.3875 -1.4960 -3.0379
 6450SOL    HW230813   4.031   4.331   2.067  2.5249 -1.4622 -0.6337
 6451SOL     OW30814   3.125   2.453   5.285  0.2543 -0.1869 -0.5591
 6451SOL    HW130815   3.120   2.538   5.241  0.6924 -1.0778 -2.3192
 6451SOL    HW230816   3.189   2.414   5.226 -0.2521 -2.2713  0.2778
 6452SOL     OW30817   3.804   1.127   9.290  0.1741  0.1565  0.2756
 6452SOL    HW130818   3.773   1.068   9.221  0.5543 -0.0386  0.2697
 6452SOL    HW230819   3.899   1.112   9.285 -0.0064  0.1253 -2.6735
 6453SOL     OW30820   0.758   3.814   3.731  0.0620 -0.3434 -0.2048
 6453SOL    HW130821   0.849   3.789   3.747 -0.4239 -1.3829  0.9952
 6453SOL    HW230822   0.746   3.793   3.639  0.4176  0.2069 -0.3748
 6454SOL     OW30823   0.624   0.669   7.635 -0.1309  0.1208  0.6413
 6454SOL    HW130824   0.546   0.724   7.628  0.5131  0.8037 -1.2652
 6454SOL    HW230825   0.696   0.731   7.640 -1.8169  1.9282  2.4315
 6455SOL     OW30826   0.766   2.884  12.574  0.1216 -0.0998 -0.5490
 6455SOL    HW130827   0.726   2.910  12.657  2.0780 -0.6841  0.5616
 6455SOL    HW230828   0.851   2.852  12.603  0.9002  0.2117 -2.5122
 6456SOL     OW30829   2.127   3.719  16.355 -0.2659  0.4228 -0.4889
 6456SOL    HW130830   2.153   3.800  16.399  0.7875 -1.3419  2.1483
 6456SOL    HW230831   2.105   3.762  16.272 -0.3463 -0.1589 -0.7684
 6457SOL     OW30832   3.508   1.808   4.066 -0.1528  0.4058 -0.3782
 6457SOL    HW130833   3.502   1.902   4.048 -0.1912  0.4058 -0.3665
 6457SOL    HW230834   3.419   1.786   4.039 -0.0665 -0.3733 -0.0268
 6458SOL     OW30835   4.389   4.494  13.238 -0.3248 -0.4912 -0.4840
 6458SOL    HW130836   4.346   4.411  13.255  1.1072 -0.9594  0.8513
 6458SOL    HW230837   4.413   4.490  13.146  0.5144  0.2447 -0.2936
 6459SOL     OW30838   2.467   4.329   2.995  0.0313 -0.7555  0.2426
 6459SOL    HW130839   2.512   4.333   3.079  1.0726 -1.0471 -0.3079
 6459SOL    HW230840   2.385   4.371   3.023  0.3444 -0.9243  1.4284
 6460SOL     OW30841   0.324   3.668   8.457 -0.1958  0.8990  0.2194
 6460SOL    HW130842   0.390   3.604   8.482 -0.9198  0.3410  0.6947
 6460SOL    HW230843   0.374   3.750   8.456 -0.0377  0.8142  1.0130
 6461SOL     OW30844   3.549   1.501   5.701 -0.1325  0.3174  0.4128
 6461SOL    HW130845   3.573   1.584   5.743  0.2224  0.1814  0.4753
 6461SOL    HW230846   3.465   1.477   5.740 -1.0199  1.9286 -0.4929
 6462SOL     OW30847   0.131   0.655  15.112 -0.4638  0.2097  0.2849
 6462SOL    HW130848   0.054   0.604  15.087  0.0542  0.0397 -0.9525
 6462SOL    HW230849   0.146   0.626  15.202  0.8780  0.2920  0.0915
 6463SOL     OW30850   4.090   1.050   9.368  0.1477  0.1285 -0.2614
 6463SOL    HW130851   4.053   1.079   9.451  1.0749 -0.4711  0.3541
 6463SOL    HW230852   4.151   0.990   9.411  0.9423  1.5258  0.5624
 6464SOL     OW30853   2.393   0.883   5.172 -0.6001  0.3459 -0.1495
 6464SOL    HW130854   2.325   0.883   5.240 -0.4451  2.4990  0.0161
 6464SOL    HW230855   2.354   0.932   5.100 -0.3056 -0.5684 -0.9337
 6465SOL     OW30856   0.240   1.740  15.621  0.5923 -0.0287 -0.3922
 6465SOL    HW130857   0.152   1.777  15.615  0.9106  0.7092 -0.5540
 6465SOL    HW230858   0.285   1.809  15.573  1.3799  0.1313  0.5777
 6466SOL     OW30859   0.372   4.137   7.268  0.2727 -0.4157  0.7472
 6466SOL    HW130860   0.455   4.177   7.295  1.1833 -0.1143 -2.4220
 6466SOL    HW230861   0.337   4.121   7.356 -1.1574 -1.6664 -0.0519
 6467SOL     OW30862   3.720   2.602   6.293  0.1083  0.8797  0.1094
 6467SOL    HW130863   3.762   2.592   6.378 -1.3891  1.3597  0.9094
 6467SOL    HW230864   3.744   2.525   6.241  0.0599  0.2050  1.0797
 6468SOL     OW30865   2.371   1.526  12.117  0.0905  0.0630 -0.1412
 6468SOL    HW130866   2.321   1.447  12.137 -2.1249  1.4582 -0.1715
 6468SOL    HW230867   2.302   1.592  12.115  1.1259  1.1761  0.6285
 6469SOL     OW30868   0.337   3.665   4.462  0.0911  0.5973 -0.5216
 6469SOL    HW130869   0.428   3.687   4.485  0.9042 -0.7406 -2.4614
 6469SOL    HW230870   0.352   3.572   4.445  1.9622  0.1945  3.2487
 6470SOL     OW30871   3.741   2.783  10.230 -0.7669  0.4203  0.0760
 6470SOL    HW130872   3.733   2.874  10.258 -0.0270  0.4960  0.0294
 6470SOL    HW230873   3.648   2.781  10.205 -1.1288  0.7565  1.3478
 6471SOL     OW30874   4.335   4.595   8.622  0.3966 -0.5915 -0.1461
 6471SOL    HW130875   4.326   4.513   8.573  0.5733 -1.2328  0.8946
 6471SOL    HW230876   4.363   4.551   8.702 -0.5265  1.9892  1.5859
 6472SOL     OW30877   0.209   0.388   5.264 -0.6653  0.2697 -0.5438
 6472SOL    HW130878   0.246   0.376   5.176 -0.7551 -0.9076 -0.4181
 6472SOL    HW230879   0.287   0.375   5.318  0.3507 -0.0133 -2.0499
 6473SOL     OW30880   3.778   1.958   9.334  0.5722 -0.3143 -0.7154
 6473SOL    HW130881   3.814   1.970   9.422 -2.5541 -1.4586  0.7324
 6473SOL    HW230882   3.819   2.033   9.291 -1.3614  1.0009 -0.2850
 6474SOL     OW30883   2.391   2.954  13.441 -0.0840 -0.5456 -0.3464
 6474SOL    HW130884   2.364   3.004  13.364 -2.5617 -2.8274 -0.9675
 6474SOL    HW230885   2.473   2.999  13.459  0.9318 -3.1004  1.4372
 6475SOL     OW30886   0.848   4.445  12.943 -0.2424  0.1121 -0.0220
 6475SOL    HW130887   0.860   4.431  13.037  0.5145  0.4197 -0.0673
 6475SOL    HW230888   0.934   4.479  12.917 -0.2387 -0.1585 -0.3550
 6476SOL     OW30889   2.924   3.052   3.048  0.1686  0.3393 -0.0869
 6476SOL    HW130890   2.858   2.984   3.034 -0.2177  1.1217 -2.0334
 6476SOL    HW230891   2.870   3.130   3.064 -0.7488 -0.4461  0.6857
 6477SOL     OW30892   0.245   3.804   7.608  0.8730 -0.3831 -0.0046
 6477SOL    HW130893   0.170   3.789   7.550  1.0478  0.2372 -0.3958
 6477SOL    HW230894   0.222   3.778   7.697  1.4626 -1.8303 -0.2631
 6478SOL     OW30895   4.080   1.863   6.512 -0.2465 -0.4608  0.0482
 6478SOL    HW130896   4.018   1.806   6.559 -0.3379  1.8224  2.6611
 6478SOL    HW230897   4.034   1.946   6.528  0.3358 -0.2834  0.7967
 6479SOL     OW30898   4.511   2.340  16.805  0.3358  0.3368  0.3742
 6479SOL    HW130899   4.497   2.291  16.886  1.3847 -0.4556  0.0760
 6479SOL    HW230900   4.498   2.429  16.838 -0.9093  0.8554 -1.5092
 6480SOL     OW30901   4.020   2.651   1.275 -0.6385 -0.1533  0.6598
 6480SOL    HW130902   3.969   2.571   1.268 -0.5233 -0.0256 -1.6192
 6480SOL    HW230903   4.068   2.657   1.193 -0.7392  0.9662  0.6725
 6481SOL     OW30904   0.318   3.918  16.050  0.4146 -0.7359 -0.5005
 6481SOL    HW130905   0.279   3.832  16.061 -3.4540  1.2496  1.4961
 6481SOL    HW230906   0.392   3.908  16.110 -0.7396  0.9731  1.2308
 6482SOL     OW30907   2.442   0.847   3.518 -0.1590  0.4095 -0.3520
 6482SOL    HW130908   2.494   0.856   3.598 -1.4461  0.7018  0.4521
 6482SOL    HW230909   2.456   0.931   3.475 -0.0535 -0.6428 -2.3700
 6483SOL     OW30910   2.413   2.391  11.135 -0.0682 -0.4414 -0.6055
 6483SOL    HW130911   2.341   2.397  11.198 -0.2702  0.3491 -0.9194
 6483SOL    HW230912   2.425   2.296  11.128  0.9463 -0.2806 -1.1202
 6484SOL     OW30913   1.730   3.748   6.020  0.0740  0.6953 -0.2747
 6484SOL    HW130914   1.727   3.684   5.949 -0.0964  0.2236  0.1562
 6484SOL    HW230915   1.824   3.762   6.023  0.3897 -1.3240 -0.4004
 6485SOL     OW30916   2.695   1.895   6.889  0.1491 -0.6016 -0.4141
 6485SOL    HW130917   2.664   1.832   6.824 -0.3475 -1.4013  0.5985
 6485SOL    HW230918   2.647   1.860   6.964 -0.9246 -1.4775 -1.5113
 6486SOL     OW30919   4.278   1.307  17.624 -0.0880  0.8523 -0.4846
 6486SOL    HW130920   4.183   1.300  17.622  0.0893 -1.0995 -2.3231
 6486SOL    HW230921   4.296   1.401  17.624 -1.6447  1.1512  2.3758
 6487SOL     OW30922   4.626   1.480  17.677  0.0714  0.3130  0.0323
 6487SOL    HW130923   4.605   1.524  17.595 -0.2174 -2.4567 -1.3637
 6487SOL    HW230924   4.657   1.550   0.038  0.7057 -1.6418  2.0928
 6488SOL     OW30925   2.979   1.446   7.557  0.6448 -0.1246 -1.1518
 6488SOL    HW130926   2.910   1.453   7.491 -0.4167 -1.5653 -0.2001
 6488SOL    HW230927   3.058   1.476   7.513 -0.5233  1.9778 -1.8511
 6489SOL     OW30928   2.883   2.477   7.151 -0.4891  0.0793  0.1564
 6489SOL    HW130929   2.842   2.540   7.210 -1.2419 -1.0731  0.8940
 6489SOL    HW230930   2.941   2.425   7.207 -2.0415 -1.6960  0.1158
 6490SOL     OW30931   0.057   0.593  13.528 -0.0873  0.0943 -0.1217
 6490SOL    HW130932   0.043   0.527  13.597 -1.2894 -1.3275 -1.7224
 6490SOL    HW230933   4.695   0.604  13.487  0.2219  1.1750 -0.4661
 6491SOL     OW30934   0.280   2.882   1.825  0.4887  0.3603  0.0443
 6491SOL    HW130935   0.364   2.880   1.780  0.1119  0.1256 -0.6566
 6491SOL    HW230936   0.246   2.961   1.784  1.2056  0.3738 -0.5301
 6492SOL     OW30937   0.462   0.213   1.693  0.0917  0.1126  0.0823
 6492SOL    HW130938   0.553   0.207   1.666  0.4420  3.5901  0.5341
 6492SOL    HW230939   0.427   0.217   1.604  0.1023 -1.6963 -0.0098
 6493SOL     OW30940   3.656   2.790   6.725 -0.3860  0.3879 -0.0339
 6493SOL    HW130941   3.624   2.812   6.637 -2.0454  2.0063  0.9917
 6493SOL    HW230942   3.744   2.755   6.712  0.0677  0.6563  2.4219
 6494SOL     OW30943   1.050   4.243   9.749 -0.5004  0.4866 -0.4040
 6494SOL    HW130944   1.129   4.255   9.695  0.0801  1.2858  0.6185
 6494SOL    HW230945   1.034   4.149   9.741 -1.0522  0.6802 -1.5049
 6495SOL     OW30946   3.097   3.038  10.185  0.0376 -1.1673 -0.3452
 6495SOL    HW130947   3.073   3.054  10.093  0.6687  2.2547  0.0621
 6495SOL    HW230948   3.100   3.125  10.225 -0.8060 -0.8991 -0.8747
 6496SOL     OW30949   2.476   4.145   2.807  0.7233 -0.3232  0.3375
 6496SOL    HW130950   2.460   4.203   2.881 -0.2313 -1.1815  0.8133
 6496SOL    HW230951   2.501   4.208   2.740 -1.0860  0.6892  0.6158
 6497SOL     OW30952   0.012   0.511   5.389 -0.1622 -0.3411 -0.1196
 6497SOL    HW130953   0.051   0.476   5.469  1.5602 -1.0330 -1.2496
 6497SOL    HW230954   0.072   0.481   5.320 -0.3834  0.6656 -0.7546
 6498SOL     OW30955   3.552   3.463  14.147 -0.4630 -0.1433 -0.1704
 6498SOL    HW130956   3.521   3.491  14.234 -1.4178 -0.5923 -0.3645
 6498SOL    HW230957   3.596   3.382  14.174  1.4578  0.8532 -0.3185
 6499SOL     OW30958   2.189   2.471   9.744  0.2135 -0.0746 -0.5031
 6499SOL    HW130959   2.155   2.518   9.819 -0.5366 -1.0571 -0.2253
 6499SOL    HW230960   2.214   2.546   9.691 -1.0938 -1.0501 -2.5087
 6500SOL     OW30961   2.349   1.713  16.030 -0.0193  0.6716  0.5040
 6500SOL    HW130962   2.341   1.640  15.969  1.6762  0.4983  0.5061
 6500SOL    HW230963   2.371   1.661  16.107 -3.3363  0.0668  1.0510
 6501SOL     OW30964   0.430   1.670   2.683  0.0677  0.1708  0.1056
 6501SOL    HW130965   0.347   1.626   2.662 -0.2342  1.4101 -1.2868
 6501SOL    HW230966   0.488   1.607   2.640 -1.3422  0.7515 -2.6329
 6502SOL     OW30967   2.314   2.112   5.925  0.8237  0.4348 -0.5715
 6502SOL    HW130968   2.232   2.160   5.941  0.8877  0.9588 -1.8119
 6502SOL    HW230969   2.374   2.186   5.927  1.2006  0.1061  0.0908
 6503SOL     OW30970   2.733   4.394   5.164 -0.1946 -1.0585 -0.0044
 6503SOL    HW130971   2.662   4.333   5.142 -0.1927 -0.5538 -1.4246
 6503SOL    HW230972   2.698   4.430   5.245 -0.5421  0.9102 -1.0296
 6504SOL     OW30973   4.542   3.718   5.799 -0.5562 -0.2472  0.1347
 6504SOL    HW130974   4.630   3.686   5.777 -0.8200  0.0184 -1.3092
 6504SOL    HW230975   4.551   3.810   5.823 -0.3875  0.4587 -2.6485
 6505SOL     OW30976   4.057   1.581  12.227  0.1786  0.0425  0.0246
 6505SOL    HW130977   4.007   1.655  12.191 -0.4555 -0.3767  0.0445
 6505SOL    HW230978   4.142   1.624  12.237  2.2126 -3.8606 -0.8339
 6506SOL     OW30979   3.532   0.767   4.716 -0.2941 -0.0081  0.0703
 6506SOL    HW130980   3.443   0.752   4.686 -0.1734  3.8844 -2.2269
 6506SOL    HW230981   3.523   0.726   4.802  2.7010 -0.0069  0.3973
 6507SOL     OW30982   2.810   4.188   7.527 -0.3385  0.2644  0.1852
 6507SOL    HW130983   2.845   4.144   7.605 -1.3175 -1.3303 -0.2592
 6507SOL    HW230984   2.718   4.169   7.546  0.0237 -1.2145  0.5228
 6508SOL     OW30985   1.726   3.139   7.292 -0.1020  0.1927 -0.3441
 6508SOL    HW130986   1.668   3.213   7.271 -1.2772 -0.3390  1.0179
 6508SOL    HW230987   1.714   3.125   7.386 -0.5012 -0.6269 -0.5091
 6509SOL     OW30988   1.132   2.482  14.581 -0.2719 -0.9031 -0.2240
 6509SOL    HW130989   1.226   2.470  14.593 -0.1954  0.6617  0.7018
 6509SOL    HW230990   1.121   2.513  14.491 -1.4291  1.1203  0.6104
 6510SOL     OW30991   4.456   0.995   7.612  0.1707  0.0777 -0.0659
 6510SOL    HW130992   4.543   0.967   7.583 -0.1124 -0.7941 -0.0522
 6510SOL    HW230993   4.418   0.912   7.641 -0.6354  0.1923 -0.7769
 6511SOL     OW30994   4.681   3.247   2.017  0.3852  0.2975 -0.6685
 6511SOL    HW130995   0.034   3.302   2.027  0.2741  0.4405 -0.5928
 6511SOL    HW230996   4.623   3.286   2.083 -0.8392 -4.5392  1.1315
 6512SOL     OW30997   3.523   1.347  15.448  0.3473  0.2024  0.2223
 6512SOL    HW130998   3.519   1.264  15.399 -2.9390 -1.5327  3.4399
 6512SOL    HW230999   3.432   1.355  15.478  0.2684 -0.2371  0.1106
 6513SOL     OW31000   4.182   3.626  14.145  0.1530 -0.7804  0.1362
 6513SOL    HW131001   4.240   3.691  14.185 -0.7535 -0.0170  0.1961
 6513SOL    HW231002   4.247   3.575  14.096  2.5152  0.0902  2.3968
 6514SOL     OW31003   2.903   1.717   4.158 -0.1459 -0.2336 -0.3500
 6514SOL    HW131004   2.820   1.748   4.120 -0.6446 -1.4450 -0.2580
 6514SOL    HW231005   2.881   1.636   4.203 -1.7129  0.8966  0.9381
 6515SOL     OW31006   2.069   3.091   7.533  0.7589  0.0130 -0.3126
 6515SOL    HW131007   2.013   3.138   7.594 -0.6031 -0.9064 -0.8483
 6515SOL    HW231008   2.153   3.104   7.576 -0.4527  1.5261  1.5838
 6516SOL     OW31009   3.880   1.186  12.957 -0.0249 -0.1180 -0.7342
 6516SOL    HW131010   3.799   1.234  12.975 -0.0433  0.5377 -2.5410
 6516SOL    HW231011   3.956   1.241  12.977 -0.3859 -0.2221  0.9066
 6517SOL     OW31012   3.952   3.417   6.758 -0.3855 -0.0823  0.0516
 6517SOL    HW131013   4.044   3.393   6.773 -0.1027  0.0897 -1.4025
 6517SOL    HW231014   3.912   3.331   6.769 -0.2771 -0.2805 -1.0728
 6518SOL     OW31015   0.316   0.995   4.495 -0.4543 -0.0362  0.1914
 6518SOL    HW131016   0.362   0.958   4.570  0.2559 -0.9047 -0.6622
 6518SOL    HW231017   0.377   1.066   4.473  0.6071 -0.8186  0.6119
 6519SOL     OW31018   2.075   2.635   3.022 -0.1053 -0.7178  0.1060
 6519SOL    HW131019   2.051   2.721   2.988  0.6169 -0.0980  1.1506
 6519SOL    HW231020   2.166   2.635   2.993  0.5845 -1.2922  2.2424
 6520SOL     OW31021   2.775   4.526   6.403  0.3127 -0.0230 -0.4839
 6520SOL    HW131022   2.766   4.516   6.498  3.4088 -0.0222 -0.2049
 6520SOL    HW231023   2.730   4.606   6.376  1.4333  0.5643 -0.6053
 6521SOL     OW31024   4.379   0.487   2.202 -0.7351 -0.4686  0.5983
 6521SOL    HW131025   4.399   0.575   2.170 -1.8026 -0.1757  0.7411
 6521SOL    HW231026   4.408   0.501   2.292  1.4593 -1.8647  0.1243
 6522SOL     OW31027   1.778   4.013   7.403 -0.3245 -0.0633  0.4252
 6522SOL    HW131028   1.832   4.091   7.392  0.1378 -0.4201  0.2012
 6522SOL    HW231029   1.764   4.007   7.498 -1.2853  0.0340  0.2971
 6523SOL     OW31030   3.834   2.403   7.179 -0.4567  0.6100  0.3616
 6523SOL    HW131031   3.801   2.462   7.247  2.7688  0.5850  1.9805
 6523SOL    HW231032   3.794   2.317   7.196  0.3594  0.4793  1.6251
 6524SOL     OW31033   2.734   0.232   4.024 -0.2252  0.0612 -0.2419
 6524SOL    HW131034   2.647   0.193   4.026 -0.2612  0.1972  0.9780
 6524SOL    HW231035   2.716   0.319   4.059 -0.6283  0.0321 -0.3852
 6525SOL     OW31036   4.612   2.977   4.086 -0.2850 -0.1429 -0.0856
 6525SOL    HW131037   4.590   2.916   4.156 -1.8441  1.2687  0.6548
 6525SOL    HW231038   4.684   2.926   4.048 -0.4087  0.6345 -1.3625
 6526SOL     OW31039   2.364   4.352   5.176 -0.0963  0.2720 -0.5429
 6526SOL    HW131040   2.430   4.405   5.221 -1.1890  0.6329  0.6175
 6526SOL    HW231041   2.412   4.270   5.176 -0.4397  0.0450 -4.1418
 6527SOL     OW31042   0.379   4.305   2.192  0.6662 -0.5977 -0.2850
 6527SOL    HW131043   0.302   4.249   2.183  1.3460 -1.8478  1.5718
 6527SOL    HW231044   0.345   4.383   2.236  2.8884 -1.4911  3.0699
 6528SOL     OW31045   2.240   2.535   4.951 -0.3514 -0.4379  0.2390
 6528SOL    HW131046   2.306   2.567   4.889 -0.6104  1.8851  1.1481
 6528SOL    HW231047   2.166   2.578   4.908 -0.1708  1.7217  2.0791
 6529SOL     OW31048   1.569   0.120   8.843 -0.4585 -0.0097 -0.8815
 6529SOL    HW131049   1.495   0.180   8.844  0.0537  0.6180  0.1842
 6529SOL    HW231050   1.616   0.148   8.922  0.7291 -0.3107 -1.4736
 6530SOL     OW31051   2.981   4.452  10.263 -0.1170  0.0044 -0.6661
 6530SOL    HW131052   3.057   4.444  10.321  0.9988  0.1867 -2.1207
 6530SOL    HW231053   2.924   4.410  10.328  0.4397  1.1404  0.5571
 6531SOL     OW31054   0.015   4.276   3.497  0.0499 -0.4202 -0.1288
 6531SOL    HW131055   4.666   4.242   3.444 -0.7324 -0.0252  0.6932
 6531SOL    HW231056   4.693   4.318   3.570 -0.1984  1.6926 -1.4860
 6532SOL     OW31057   3.800   3.104   0.537  0.2570  0.1005  0.5235
 6532SOL    HW131058   3.845   3.182   0.571  0.9322 -0.3503  0.6736
 6532SOL    HW231059   3.878   3.053   0.515 -0.4994 -0.1696 -1.5167
 6533SOL     OW31060   3.783   4.069   3.876  0.1732  0.2908  0.3999
 6533SOL    HW131061   3.849   4.075   3.806 -0.2329  1.1113  0.0825
 6533SOL    HW231062   3.798   4.144   3.934  1.5734  1.0271 -0.8976
 6534SOL     OW31063   2.384   2.989   4.430 -0.6198  0.4612  0.5220
 6534SOL    HW131064   2.364   2.941   4.350  1.1233  1.9216 -0.7935
 6534SOL    HW231065   2.441   3.060   4.398 -0.1420  0.9070  2.3478
 6535SOL     OW31066   3.170   3.586   9.313 -0.3357 -0.5890 -0.2923
 6535SOL    HW131067   3.115   3.563   9.388 -0.1706 -1.9313 -0.5771
 6535SOL    HW231068   3.190   3.672   9.350 -2.0527 -0.5035  0.4176
 6536SOL     OW31069   4.303   3.633   4.284  0.1337  0.1791 -0.1268
 6536SOL    HW131070   4.298   3.701   4.217 -0.5972 -2.6230 -2.9270
 6536SOL    HW231071   4.392   3.602   4.270 -0.1924 -0.4892 -0.7642
 6537SOL     OW31072   1.720   0.434   9.420 -0.4331  0.4293 -0.0634
 6537SOL    HW131073   1.739   0.342   9.402 -0.4631  0.2799  0.6541
 6537SOL    HW231074   1.802   0.473   9.389  0.3358 -2.3483 -1.5417
 6538SOL     OW31075   0.255   2.790   5.067 -0.5731 -0.3927  0.1203
 6538SOL    HW131076   0.163   2.807   5.049 -0.9216 -2.5745 -0.1456
 6538SOL    HW231077   0.274   2.732   4.994 -0.7005 -0.2082 -0.0589
 6539SOL     OW31078   1.888   3.666  13.465 -0.4309  0.3754 -0.2491
 6539SOL    HW131079   1.889   3.736  13.530 -0.3173 -1.0803  1.3316
 6539SOL    HW231080   1.818   3.608  13.495 -1.2665  1.8727  0.6803
 6540SOL     OW31081   2.576   4.535  11.101  0.3878 -0.5226  0.4437
 6540SOL    HW131082   2.658   4.515  11.148 -1.0238 -1.7787  2.3740
 6540SOL    HW231083   2.529   4.593  11.161  0.4488  1.2116 -1.1943
 6541SOL     OW31084   0.778   0.941   2.932 -0.2001  0.2092  0.6310
 6541SOL    HW131085   0.787   0.868   2.993 -0.0554 -0.6509 -0.4069
 6541SOL    HW231086   0.714   0.905   2.871  0.6370  0.5763 -0.4715
 6542SOL     OW31087   1.604   0.095   5.873 -0.2032 -0.5258 -0.8710
 6542SOL    HW131088   1.691   0.067   5.900  0.2610  1.3786 -0.4678
 6542SOL    HW231089   1.565   0.014   5.838  1.4292 -1.2308 -1.0758
 6543SOL     OW31090   0.601   3.202   4.969 -0.7783 -0.0614  0.1736
 6543SOL    HW131091   0.518   3.184   4.924  0.4032  0.9701 -2.3928
 6543SOL    HW231092   0.591   3.144   5.045 -2.0760  0.9653  0.8123
 6544SOL     OW31093   3.976   0.250   2.746  0.3805  0.0864  0.0265
 6544SOL    HW131094   3.936   0.315   2.804  1.6307  0.1569  0.7872
 6544SOL    HW231095   4.047   0.233   2.807  0.4493  0.2176 -0.0173
 6545SOL     OW31096   4.571   1.954   5.366  0.5310  0.0025 -0.1924
 6545SOL    HW131097   4.592   1.867   5.399 -1.0570  0.2292  1.4241
 6545SOL    HW231098   4.483   1.966   5.400  0.0122  0.6249 -1.7366
 6546SOL     OW31099   3.261   0.049   4.472  0.4531 -0.0745  1.2091
 6546SOL    HW131100   3.344   0.072   4.514  1.0898 -2.5958  1.3560
 6546SOL    HW231101   3.249   4.684   4.506 -0.9125 -0.2340  0.2940
 6547SOL     OW31102   0.346   2.909  12.752  0.5715  0.4655  0.6826
 6547SOL    HW131103   0.292   2.963  12.694  0.5630  1.0059  1.1943
 6547SOL    HW231104   0.326   2.821  12.718 -2.2439  1.6120 -0.6549
 6548SOL     OW31105   0.827   1.882   7.189  0.0233 -0.2804  0.3397
 6548SOL    HW131106   0.755   1.818   7.189 -2.0502  2.0493 -0.1401
 6548SOL    HW231107   0.904   1.837   7.223  1.0775  0.2522 -1.3472
 6549SOL     OW31108   0.509   0.022  17.309  0.4434 -0.3234 -0.2278
 6549SOL    HW131109   0.443   4.678  17.296  0.0428  0.1892 -0.8395
 6549SOL    HW231110   0.459   0.096  17.275  1.2238  1.2430  2.0037
 6550SOL     OW31111   3.831   2.683  11.042  0.8255  0.2531  0.1682
 6550SOL    HW131112   3.778   2.738  11.100  1.1020 -2.5229  3.0985
 6550SOL    HW231113   3.900   2.746  11.022  1.1283  0.3992  1.6377
 6551SOL     OW31114   2.168   2.268  14.953 -0.1982 -0.2041  0.7240
 6551SOL    HW131115   2.104   2.248  14.884  0.4767 -0.7092  0.2402
 6551SOL    HW231116   2.249   2.235  14.915  0.7842 -0.4264  3.0366
 6552SOL     OW31117   4.536   2.972   3.083  0.3023 -0.3848  0.3064
 6552SOL    HW131118   4.518   3.050   3.135 -1.4753 -1.2365  0.9633
 6552SOL    HW231119   4.467   2.910   3.106 -0.3003 -1.0390 -3.2801
 6553SOL     OW31120   0.709   4.022   6.294  0.3466 -0.0442  0.0452
 6553SOL    HW131121   0.720   3.989   6.205  2.5346 -0.4271  0.4424
 6553SOL    HW231122   0.640   3.962   6.324  0.1259  0.3056  0.2374
 6554SOL     OW31123   4.334   0.377   1.071 -0.4508  0.1699  0.1088
 6554SOL    HW131124   4.359   0.344   0.984  0.7537 -0.7252  0.8038
 6554SOL    HW231125   4.253   0.328   1.084 -0.2055  0.4264  2.4452
 6555SOL     OW31126   2.620   1.161   6.847  0.0336 -0.2512 -0.1267
 6555SOL    HW131127   2.527   1.142   6.841  0.2200 -0.7684 -1.4791
 6555SOL    HW231128   2.642   1.150   6.754 -0.9279 -1.0335 -0.2590
 6556SOL     OW31129   4.212   4.711   1.413 -0.1168 -1.1213  0.1771
 6556SOL    HW131130   4.189   0.045   1.486 -0.1939 -0.8339 -0.0760
 6556SOL    HW231131   4.307   4.697   1.420  0.0087  0.7969  2.6098
 6557SOL     OW31132   2.371   4.303   8.643  0.5123 -0.6328  0.0170
 6557SOL    HW131133   2.416   4.256   8.573  1.4057 -0.8620  0.7562
 6557SOL    HW231134   2.429   4.377   8.660 -0.0236  0.5951 -3.6551
 6558SOL     OW31135   3.855   1.150  17.170  0.1410  0.5393  0.3557
 6558SOL    HW131136   3.864   1.107  17.084 -1.9884  0.8011  0.0021
 6558SOL    HW231137   3.871   1.239  17.140 -2.3710  0.5355 -0.9591
 6559SOL     OW31138   3.448   1.722  12.352  0.5129  0.0970  0.0173
 6559SOL    HW131139   3.449   1.817  12.359 -0.2009 -0.0377  1.9392
 6559SOL    HW231140   3.418   1.696  12.439  0.6625 -1.9104 -0.5072
 6560SOL     OW31141   4.366   3.379   1.149 -0.3580 -0.1869 -0.2282
 6560SOL    HW131142   4.397   3.458   1.104  2.3907 -2.1420 -1.7874
 6560SOL    HW231143   4.350   3.317   1.078  0.1677 -1.2334  0.5657
 6561SOL     OW31144   3.116   0.881   8.574 -0.1874 -0.3314  0.1856
 6561SOL    HW131145   3.104   0.952   8.511 -1.5017 -1.6804 -1.0701
 6561SOL    HW231146   3.048   0.914   8.633 -0.4333 -1.9953  0.8207
 6562SOL     OW31147   0.083   2.426   2.340  0.0673  0.5424  0.2750
 6562SOL    HW131148   0.157   2.402   2.285 -0.8667  0.3429 -0.8774
 6562SOL    HW231149   0.105   2.387   2.425  1.5114  0.6825 -0.0233
 6563SOL     OW31150   0.266   4.512  11.674  0.4408 -0.2440  0.0938
 6563SOL    HW131151   0.349   4.512  11.626 -0.2969  0.4022 -1.1826
 6563SOL    HW231152   0.272   4.421  11.701  1.0974 -0.1835  0.1673
 6564SOL     OW31153   1.983   2.464   7.506  0.4443  0.3635  0.3932
 6564SOL    HW131154   2.019   2.378   7.482  0.0073 -0.0536  1.2340
 6564SOL    HW231155   1.996   2.506   7.421 -2.9567 -4.0892 -2.3307
 6565SOL     OW31156   0.561   1.560   8.764  0.0158 -0.2878 -0.6673
 6565SOL    HW131157   0.508   1.489   8.800  2.0820 -2.5984 -2.1924
 6565SOL    HW231158   0.624   1.502   8.720  2.5343  0.2458  2.2859
 6566SOL     OW31159   1.883   4.691  13.815  0.1123  0.2036  0.4136
 6566SOL    HW131160   1.893   4.613  13.870  0.4247 -1.2410 -1.6913
 6566SOL    HW231161   1.818   0.016  13.865 -1.9764  0.5690 -2.6214
 6567SOL     OW31162   1.060   2.849   2.339  0.2089 -0.2859 -0.2616
 6567SOL    HW131163   1.153   2.873   2.341 -0.4342  1.9422  2.6520
 6567SOL    HW231164   1.023   2.934   2.316 -3.9895 -2.0492 -0.1165
 6568SOL     OW31165   2.522   0.786  16.896 -0.1445  0.6278  0.1710
 6568SOL    HW131166   2.577   0.740  16.958  0.3981 -0.7606 -1.3498
 6568SOL    HW231167   2.467   0.715  16.862 -1.7109  1.2620  1.4022
 6569SOL     OW31168   0.984   1.052   2.769  0.1281 -0.1589  0.4192
 6569SOL    HW131169   0.930   0.995   2.823 -0.1097 -0.7812 -0.4858
 6569SOL    HW231170   0.947   1.134   2.803  0.6480  0.3923 -0.3435
 6570SOL     OW31171   3.759   1.397  10.719 -0.3670  0.2203  0.1680
 6570SOL    HW131172   3.818   1.353  10.658 -0.6485 -1.5356  1.1494
 6570SOL    HW231173   3.674   1.373  10.683  0.3021  0.7036 -1.7301
 6571SOL     OW31174   2.231   1.656   0.526 -0.1981 -0.1873  0.6140
 6571SOL    HW131175   2.163   1.700   0.476  0.2222  1.5826  1.6303
 6571SOL    HW231176   2.194   1.666   0.614  0.7649  1.4530  0.8254
 6572SOL     OW31177   1.639   3.113  13.444  0.3516 -0.0555  0.3525
 6572SOL    HW131178   1.705   3.052  13.411  1.8060  2.3303 -1.0992
 6572SOL    HW231179   1.632   3.168  13.366  1.6258 -1.9552 -1.1147
 6573SOL     OW31180   1.348   0.855   0.702 -0.9168  0.2931 -0.0981
 6573SOL    HW131181   1.411   0.916   0.664  0.1343 -0.4841  0.3863
 6573SOL    HW231182   1.359   0.881   0.793 -0.3917 -0.6983  0.1281
 6574SOL     OW31183   0.084   3.021   3.198 -0.2596 -0.2473  0.3707
 6574SOL    HW131184   0.105   2.944   3.251 -0.1179  0.2499  1.0251
 6574SOL    HW231185   0.002   2.996   3.155 -0.3754 -0.5630  0.7755
 6575SOL     OW31186   3.653   2.720   5.620 -0.3369  0.2989  0.5350
 6575SOL    HW131187   3.711   2.674   5.681 -3.0555 -0.5441  2.4777
 6575SOL    HW231188   3.721   2.737   5.555 -1.9107 -0.7088 -1.3668
 6576SOL     OW31189   0.767   3.847   1.520  0.0788 -0.3245  0.5614
 6576SOL    HW131190   0.678   3.880   1.517  0.3967  0.4413 -0.6212
 6576SOL    HW231191   0.791   3.896   1.599  0.0670 -0.3120  0.5572
 6577SOL     OW31192   0.039   3.655   7.986  0.2697  0.4663  0.5113
 6577SOL    HW131193   4.683   3.613   8.018  0.8579 -1.7019 -0.8435
 6577SOL    HW231194   0.070   3.687   8.071  0.9876 -0.8177  0.7339
 6578SOL     OW31195   3.691   1.589  15.164 -0.0466 -0.6951 -0.1773
 6578SOL    HW131196   3.696   1.566  15.071  0.5038 -2.5536  0.3062
 6578SOL    HW231197   3.641   1.670  15.164  1.8696  0.4812 -0.4719
 6579SOL     OW31198   4.088   3.176   6.442 -0.4879  0.1288 -0.2166
 6579SOL    HW131199   4.003   3.141   6.467 -1.0726  2.3460  0.9735
 6579SOL    HW231200   4.063   3.269   6.439 -0.3312  0.1371 -1.1729
 6580SOL     OW31201   0.310   2.750   8.193 -0.1704 -0.0192 -0.0600
 6580SOL    HW131202   0.264   2.827   8.227 -0.1241 -0.0025 -0.0347
 6580SOL    HW231203   0.295   2.765   8.100 -0.5896 -1.5031 -0.2221
 6581SOL     OW31204   4.445   3.466   6.021  0.1857 -0.2300 -0.4611
 6581SOL    HW131205   4.473   3.391   6.073 -1.2758  0.7084  1.6860
 6581SOL    HW231206   4.529   3.493   5.983  0.5863 -0.2497  0.4252
 6582SOL     OW31207   3.572   1.498  11.257  0.0388 -0.4257 -0.4350
 6582SOL    HW131208   3.632   1.423  11.260 -1.9429 -1.8799  3.0432
 6582SOL    HW231209   3.543   1.509  11.348 -0.4065 -1.6629 -0.4212
 6583SOL     OW31210   1.890   2.417   4.609 -0.7905 -0.0543 -0.9109
 6583SOL    HW131211   1.868   2.479   4.539  2.6024  3.3096  1.0144
 6583SOL    HW231212   1.984   2.403   4.599 -0.8885 -0.6373 -1.0294
 6584SOL     OW31213   2.164   1.257   8.653 -0.0850  0.3856  0.0578
 6584SOL    HW131214   2.206   1.336   8.688  1.9408 -0.2494 -0.9758
 6584SOL    HW231215   2.209   1.253   8.569  2.6436 -1.2544  1.6269
 6585SOL     OW31216   4.396   0.563   6.314  0.0666 -0.3406  0.3213
 6585SOL    HW131217   4.483   0.527   6.330 -0.1278 -0.8344  0.2720
 6585SOL    HW231218   4.346   0.495   6.359  1.2741 -1.8999 -0.7076
 6586SOL     OW31219   0.625   4.381   8.261  0.2244  0.1654  0.2293
 6586SOL    HW131220   0.720   4.396   8.256  0.0527  1.2796  0.3619
 6586SOL    HW231221   0.609   4.367   8.168  1.3878  0.4637 -0.0262
 6587SOL     OW31222   0.830   3.999  11.121 -0.4525  0.1256 -0.7995
 6587SOL    HW131223   0.877   4.017  11.040  2.5541 -1.4474  0.5724
 6587SOL    HW231224   0.823   3.905  11.102 -0.3831  0.0002 -0.2219
 6588SOL     OW31225   1.347   3.059   8.782  0.6312 -0.0505  0.3003
 6588SOL    HW131226   1.392   3.119   8.723  1.6281  0.4684  1.5829
 6588SOL    HW231227   1.406   2.985   8.771  0.7849  0.1126  0.0251
 6589SOL     OW31228   1.865   0.895  15.779 -0.4023 -0.3538 -0.0983
 6589SOL    HW131229   1.870   0.809  15.738 -4.0804 -0.8399  0.5039
 6589SOL    HW231230   1.844   0.955  15.708  0.2758  2.5110  2.1134
 6590SOL     OW31231   2.101   0.683  12.427 -0.1150 -0.4224  0.0623
 6590SOL    HW131232   2.040   0.636  12.482  2.3866 -2.7435  0.8261
 6590SOL    HW231233   2.102   0.769  12.470  1.1880  0.6503 -2.0597
 6591SOL     OW31234   2.568   2.724  17.065 -0.0450  0.0771 -0.0637
 6591SOL    HW131235   2.564   2.813  17.099  0.6342  0.6031 -1.3571
 6591SOL    HW231236   2.575   2.730  16.970  0.5770 -1.3878 -0.1108
 6592SOL     OW31237   2.863   4.426   2.554 -0.1588 -0.0366 -0.1900
 6592SOL    HW131238   2.828   4.340   2.530  1.3478 -0.0659 -2.3225
 6592SOL    HW231239   2.887   4.456   2.466 -2.0007  1.5661 -0.1380
 6593SOL     OW31240   0.352   4.562   2.805  0.7610  0.4657 -0.0745
 6593SOL    HW131241   0.446   4.547   2.812  0.8646  0.6777 -0.9829
 6593SOL    HW231242   0.319   4.479   2.841  1.2376  0.0608 -0.5539
 6594SOL     OW31243   4.536   0.995   5.906 -0.1602  0.1897 -0.1098
 6594SOL    HW131244   4.456   0.946   5.924 -1.2898  1.2724 -2.2723
 6594SOL    HW231245   4.593   0.963   5.976  0.3026  0.2358 -0.4717
 6595SOL     OW31246   2.441   4.261   7.152  0.5839  0.6672  0.2832
 6595SOL    HW131247   2.465   4.193   7.216 -0.6971  0.1838  0.2479
 6595SOL    HW231248   2.474   4.337   7.200  0.5843  1.2177 -0.5864
 6596SOL     OW31249   3.104   1.917   7.704 -0.0037 -0.6261 -0.1838
 6596SOL    HW131250   3.149   1.926   7.788  0.6331  1.9203 -0.8046
 6596SOL    HW231251   3.015   1.898   7.732  0.5365 -0.2450  1.7563
 6597SOL     OW31252   0.646   2.545   4.551 -0.7006 -0.0123  0.0448
 6597SOL    HW131253   0.723   2.583   4.593 -2.2886  1.5656  1.5189
 6597SOL    HW231254   0.606   2.507   4.630  0.5506 -1.0693  0.1724
 6598SOL     OW31255   2.535   1.762   7.085 -0.3994 -0.8624  0.1741
 6598SOL    HW131256   2.493   1.676   7.082 -1.4204 -0.3298 -0.8571
 6598SOL    HW231257   2.505   1.795   7.170 -0.3008  1.1250 -0.5732
 6599SOL     OW31258   0.350   3.103   2.701 -0.6917 -0.0448 -0.1631
 6599SOL    HW131259   0.272   3.155   2.719 -0.8587 -1.0400  1.9140
 6599SOL    HW231260   0.330   3.083   2.609  0.3816  0.6511 -0.5520
 6600SOL     OW31261   1.728   3.091   6.142  0.3052 -0.2711  0.1447
 6600SOL    HW131262   1.758   3.010   6.101  0.6107  0.2465 -0.6481
 6600SOL    HW231263   1.655   3.058   6.195  0.1317  0.6051  0.4629
 6601SOL     OW31264   1.915   2.525  15.078  0.1574 -0.1409  0.4594
 6601SOL    HW131265   1.876   2.607  15.048  1.1641 -0.5423 -1.9560
 6601SOL    HW231266   1.982   2.552  15.141  0.0539  3.2777 -0.8634
 6602SOL     OW31267   0.953   3.471   5.249  0.4841 -0.2427 -0.5221
 6602SOL    HW131268   0.891   3.426   5.192 -0.2918  1.4874 -1.0280
 6602SOL    HW231269   0.892   3.542   5.269 -0.0850 -1.5543  2.4424
 6603SOL     OW31270   4.235   1.715   5.531 -0.7430 -0.2306  0.1159
 6603SOL    HW131271   4.167   1.731   5.597  0.6407  0.1887  1.4311
 6603SOL    HW231272   4.280   1.799   5.538  0.1441 -0.6551 -0.5007
 6604SOL     OW31273   2.573   0.093   5.092  0.1202 -0.1817 -0.2283
 6604SOL    HW131274   2.618   0.102   5.176 -1.5229  1.4085  0.4692
 6604SOL    HW231275   2.489   0.129   5.119  0.6717  0.4984  0.5763
 6605SOL     OW31276   1.344   4.120  10.805 -0.2731  0.0962 -0.0818
 6605SOL    HW131277   1.346   4.163  10.890 -0.0636 -0.5724  0.2463
 6605SOL    HW231278   1.286   4.046  10.824 -1.1923  1.1774  1.3137
 6606SOL     OW31279   3.549   1.763   5.025  0.5139  0.0256 -0.0557
 6606SOL    HW131280   3.583   1.846   5.058  0.0912 -0.2255  1.0038
 6606SOL    HW231281   3.475   1.767   5.085  0.0229 -0.7687 -0.6129
 6607SOL     OW31282   2.486   3.368   7.870  0.4388 -0.4270  0.2974
 6607SOL    HW131283   2.575   3.339   7.851 -0.3115 -1.3028 -1.9518
 6607SOL    HW231284   2.447   3.349   7.784 -2.1731  1.4680  1.0411
 6608SOL     OW31285   1.633   3.804   5.432  0.2758  0.4657  0.2007
 6608SOL    HW131286   1.605   3.731   5.487 -2.2716  2.0003  0.9135
 6608SOL    HW231287   1.723   3.778   5.411 -0.4145 -2.6687  1.0646
 6609SOL     OW31288   1.383   2.438   7.756 -0.1035 -0.3937  0.3375
 6609SOL    HW131289   1.439   2.516   7.750 -0.4769 -0.1610 -0.1295
 6609SOL    HW231290   1.423   2.396   7.832 -0.2547 -0.9511  0.1021
 6610SOL     OW31291   1.793   3.612  17.355  0.0575  0.0285 -0.3254
 6610SOL    HW131292   1.787   3.582  17.264 -0.1749 -0.0045 -0.2994
 6610SOL    HW231293   1.809   3.537  17.412  0.2652 -0.6784 -1.3209
 6611SOL     OW31294   2.610   1.537   0.420 -0.2122 -0.1579 -0.3576
 6611SOL    HW131295   2.684   1.594   0.438 -0.4879  0.6632 -1.8240
 6611SOL    HW231296   2.540   1.592   0.455  0.4881  0.7910 -0.4839
 6612SOL     OW31297   3.633   0.824   1.566 -0.2505  0.5895  0.1128
 6612SOL    HW131298   3.546   0.799   1.599 -0.2149 -0.5248 -0.6390
 6612SOL    HW231299   3.612   0.901   1.513  2.3955  2.1614  1.3761
 6613SOL     OW31300   0.640   4.461  13.141 -0.3517 -0.5966  0.1498
 6613SOL    HW131301   0.604   4.544  13.172  0.2567 -0.1676 -0.3061
 6613SOL    HW231302   0.734   4.479  13.144 -0.0943 -2.1311  1.1006
 6614SOL     OW31303   3.032   3.830   9.814 -0.2199  0.9088 -0.2869
 6614SOL    HW131304   3.104   3.833   9.750  1.2813  0.6928  1.3841
 6614SOL    HW231305   2.989   3.745   9.802  1.4575 -0.3278  2.3935
 6615SOL     OW31306   2.299   4.429   4.880  0.3024  0.4804 -0.1727
 6615SOL    HW131307   2.338   4.390   4.958 -0.5810 -0.0984 -0.0202
 6615SOL    HW231308   2.335   4.517   4.891  1.4442  0.2893 -2.4374
 6616SOL     OW31309   0.823   4.652   8.650  0.3268  0.2689 -0.7507
 6616SOL    HW131310   0.761   4.608   8.707 -0.4804  1.1608 -0.9444
 6616SOL    HW231311   0.895   4.592   8.669  0.8006  0.8034 -0.8267
 6617SOL     OW31312   1.993   0.709   1.708  0.5666 -0.7019  0.7199
 6617SOL    HW131313   2.059   0.661   1.658 -0.3726 -0.6114 -0.5955
 6617SOL    HW231314   2.046   0.763   1.767  0.5552 -1.1863  1.1635
 6618SOL     OW31315   0.001   1.383   4.267 -0.1223 -0.5990  0.8248
 6618SOL    HW131316   0.027   1.472   4.243  1.3955 -1.4528 -0.7615
 6618SOL    HW231317   4.681   1.353   4.187  1.6027 -0.6928 -0.1037
 6619SOL     OW31318   1.908   0.670   3.875  0.2951  0.5385  0.1170
 6619SOL    HW131319   1.969   0.677   3.801 -0.3362  0.3114 -0.4202
 6619SOL    HW231320   1.900   0.575   3.875  1.1884  0.4643  0.6058
 6620SOL     OW31321   2.750   3.889  17.217 -0.0006  0.5244 -0.2335
 6620SOL    HW131322   2.782   3.831  17.148  1.0951  1.1041 -0.2066
 6620SOL    HW231323   2.795   3.969  17.190  1.3074 -0.4569 -0.9279
 6621SOL     OW31324   2.634   3.743  14.163 -0.2961  0.1219 -0.1092
 6621SOL    HW131325   2.575   3.671  14.144 -0.2359  0.7648 -2.6991
 6621SOL    HW231326   2.608   3.806  14.096 -3.0454 -1.4996 -0.5501
 6622SOL     OW31327   4.555   3.720   4.010 -0.5841  0.1351  0.3031
 6622SOL    HW131328   4.560   3.639   4.060  0.3865 -1.0989 -1.7952
 6622SOL    HW231329   4.489   3.768   4.060  0.0049  1.5026 -0.2289
 6623SOL     OW31330   2.807   1.878   5.506 -1.2362  0.4935 -0.1128
 6623SOL    HW131331   2.757   1.829   5.441 -2.2081  0.3340  0.7496
 6623SOL    HW231332   2.829   1.806   5.564 -0.3227  0.7710 -0.1104
 6624SOL     OW31333   3.344   4.458   4.165 -0.6212  0.3759  0.7060
 6624SOL    HW131334   3.322   4.365   4.153 -1.3356  0.5933  0.3443
 6624SOL    HW231335   3.382   4.488   4.083 -0.5840 -0.4443  0.4275
 6625SOL     OW31336   2.170   1.542   8.405 -0.4180  0.6193  0.1804
 6625SOL    HW131337   2.225   1.559   8.329  1.0521 -0.6477  0.9748
 6625SOL    HW231338   2.119   1.465   8.382 -0.5085  1.0459 -1.0572
 6626SOL     OW31339   0.671   0.693   1.114 -0.8630  0.1445 -0.1296
 6626SOL    HW131340   0.718   0.631   1.169  0.3376  0.1428 -1.1790
 6626SOL    HW231341   0.619   0.736   1.183  1.2891  1.3451  0.7348
 6627SOL     OW31342   0.244   2.862  16.622  0.5973  0.3173  0.7706
 6627SOL    HW131343   0.327   2.851  16.575  0.5181 -0.7470  0.8823
 6627SOL    HW231344   0.273   2.897  16.706  0.8266 -1.2348  1.3184
 6628SOL     OW31345   2.072   2.850   5.418  0.0800 -0.0885 -0.9432
 6628SOL    HW131346   2.060   2.938   5.383 -0.6935 -0.5575 -1.8660
 6628SOL    HW231347   2.106   2.858   5.507  1.9841 -1.6115 -1.5371
 6629SOL     OW31348   1.783   3.045   7.864 -0.2463  0.3897  0.0733
 6629SOL    HW131349   1.806   3.054   7.957 -0.9709 -1.1582  0.3968
 6629SOL    HW231350   1.849   3.105   7.830  0.1423 -0.8693 -1.4027
 6630SOL     OW31351   3.289   0.139  14.386 -0.0858  0.4935  0.4948
 6630SOL    HW131352   3.244   0.145  14.471 -1.0855  2.9938 -0.2034
 6630SOL    HW231353   3.372   0.177  14.415  0.4933 -0.9295  0.6711
 6631SOL     OW31354   1.874   2.044  15.596 -0.1496 -0.1556 -0.1927
 6631SOL    HW131355   1.968   2.053  15.610  0.2911 -0.1554 -3.1195
 6631SOL    HW231356   1.848   2.136  15.587 -0.5748 -0.1824  0.7439
 6632SOL     OW31357   4.043   4.698   1.170  0.3124 -0.3894  0.5594
 6632SOL    HW131358   4.087   4.718   1.253  0.2351  3.0786 -0.2378
 6632SOL    HW231359   3.957   4.675   1.207 -0.2760  0.1143 -0.5062
 6633SOL     OW31360   3.804   3.081   2.134  0.2221 -0.1237 -0.2269
 6633SOL    HW131361   3.823   3.075   2.040  1.4712  0.6231 -0.0106
 6633SOL    HW231362   3.845   2.998   2.155 -1.6901 -0.6029  1.5887
 6634SOL     OW31363   4.367   0.382  17.265 -0.7040 -0.9533  0.1795
 6634SOL    HW131364   4.459   0.388  17.241 -0.0986  2.6831  3.3411
 6634SOL    HW231365   4.355   0.293  17.232 -0.2823 -0.9095 -0.0961
 6635SOL     OW31366   1.502   2.337   1.932  0.0379  0.9137  0.4925
 6635SOL    HW131367   1.461   2.342   2.019  1.2736  1.0359  1.0747
 6635SOL    HW231368   1.490   2.427   1.904  1.1764  0.6171 -0.9714
 6636SOL     OW31369   3.942   1.434   2.162  0.2093  0.0271  0.3038
 6636SOL    HW131370   3.872   1.412   2.099  0.5589 -0.4794  0.0898
 6636SOL    HW231371   4.022   1.432   2.110  1.5262  1.8762  2.2987
 6637SOL     OW31372   2.895   4.070   7.780  0.9421 -0.0504 -0.7305
 6637SOL    HW131373   2.938   4.142   7.828 -0.3225  0.8882 -1.0059
 6637SOL    HW231374   2.823   4.054   7.841  1.4671  0.3973  0.0195
 6638SOL     OW31375   4.722   2.457   4.582 -0.2580  0.6320  0.2745
 6638SOL    HW131376   4.710   2.363   4.573  1.2127  0.2457  2.3384
 6638SOL    HW231377   0.008   2.479   4.489 -2.3367  0.2155 -0.0478
 6639SOL     OW31378   2.921   1.651  15.243 -0.1652 -0.1956 -0.0100
 6639SOL    HW131379   3.009   1.689  15.239  0.2935 -1.4688 -2.2247
 6639SOL    HW231380   2.885   1.670  15.156  0.0905  0.1014 -0.0518
 6640SOL     OW31381   1.845   1.731   4.335  0.2067  0.4539  0.0249
 6640SOL    HW131382   1.767   1.785   4.350 -0.6965 -1.6978  3.1061
 6640SOL    HW231383   1.830   1.647   4.379 -1.5954  1.3654  1.1692
 6641SOL     OW31384   3.514   1.020   6.050 -0.6986  0.0682 -0.3119
 6641SOL    HW131385   3.462   1.077   5.994  0.5343  0.7229 -0.7990
 6641SOL    HW231386   3.535   1.081   6.121  0.8890  0.9110 -1.5060
 6642SOL     OW31387   1.195   0.728   0.929  0.1341  0.1341  0.1055
 6642SOL    HW131388   1.234   0.810   0.961 -5.1795  2.0352  1.6951
 6642SOL    HW231389   1.102   0.738   0.946 -0.0606  0.1655 -1.0072
 6643SOL     OW31390   2.401   2.697  11.099  0.0857  0.3624 -0.1015
 6643SOL    HW131391   2.331   2.713  11.036 -1.1976 -1.6931  0.7878
 6643SOL    HW231392   2.365   2.739  11.177  1.3219  5.3876 -2.2379
 6644SOL     OW31393   4.332   0.672   8.438 -0.2699  0.0834  0.2939
 6644SOL    HW131394   4.288   0.613   8.377 -2.7222  0.5132  1.6713
 6644SOL    HW231395   4.275   0.664   8.514  0.0800 -1.2932  0.4162
 6645SOL     OW31396   0.883   1.816   3.215 -0.0461  0.0012 -0.5078
 6645SOL    HW131397   0.971   1.794   3.184 -0.1156  0.1897 -0.8417
 6645SOL    HW231398   0.841   1.875   3.152 -0.0888 -0.2696 -0.7320
 6646SOL     OW31399   1.169   4.005   9.460  0.3302 -0.3110 -0.1758
 6646SOL    HW131400   1.107   3.977   9.527 -0.0014  2.2737  0.6246
 6646SOL    HW231401   1.238   3.940   9.464  0.7471  0.2466  1.5352
 6647SOL     OW31402   3.453   1.312  16.713 -0.5181 -0.0720  0.2391
 6647SOL    HW131403   3.505   1.279  16.787 -0.3659  0.0578  0.1914
 6647SOL    HW231404   3.474   1.246  16.647 -0.4585 -0.8571  1.0466
 6648SOL     OW31405   2.997   1.073   4.078 -0.4245  0.4595  0.1057
 6648SOL    HW131406   3.002   1.046   3.986  0.3495 -2.6249  1.0566
 6648SOL    HW231407   2.949   1.155   4.066 -2.7363 -0.8741  0.1420
 6649SOL     OW31408   3.413   1.544   8.375  0.5510  0.4286  0.9969
 6649SOL    HW131409   3.341   1.527   8.314  1.0313 -0.5385  0.6973
 6649SOL    HW231410   3.372   1.588   8.450  0.4431 -2.3840  2.6007
 6650SOL     OW31411   3.670   3.774   3.717 -0.3495 -0.2225 -0.1208
 6650SOL    HW131412   3.647   3.682   3.701  0.6729 -0.1943 -1.8591
 6650SOL    HW231413   3.763   3.766   3.695 -0.3371  0.2456 -0.2286
 6651SOL     OW31414   1.375   0.865   1.450 -0.8382  0.2089 -0.5995
 6651SOL    HW131415   1.307   0.923   1.485  0.2673  0.5292  1.0483
 6651SOL    HW231416   1.455   0.919   1.447  0.3224 -1.4918 -0.5618
 6652SOL     OW31417   1.945   3.525  10.870  0.2435  0.2689  0.3968
 6652SOL    HW131418   2.005   3.497  10.939 -0.7830 -0.4061  1.0115
 6652SOL    HW231419   1.911   3.605  10.910 -0.4684  0.5777 -0.8056
 6653SOL     OW31420   0.329   2.657   4.847  0.0352  0.1665  0.0197
 6653SOL    HW131421   0.393   2.587   4.861  0.5236  0.1642 -2.3115
 6653SOL    HW231422   0.295   2.645   4.759  0.7677 -0.4708 -0.1750
 6654SOL     OW31423   2.023   2.770   9.762  0.2054 -0.4242 -0.1324
 6654SOL    HW131424   1.962   2.835   9.797  0.0595 -0.6640  0.0571
 6654SOL    HW231425   1.978   2.686   9.767 -0.5903  0.1001  1.3335
 6655SOL     OW31426   2.338   3.745   6.120  0.6100 -0.2261  0.5726
 6655SOL    HW131427   2.368   3.810   6.057  2.3490  0.5517  2.2121
 6655SOL    HW231428   2.285   3.684   6.068  0.1933  1.1901 -0.6660
 6656SOL     OW31429   1.935   3.473   7.170 -0.2864  0.3910 -0.3406
 6656SOL    HW131430   1.901   3.396   7.216  2.7982 -0.3475  0.7322
 6656SOL    HW231431   1.954   3.435   7.084 -0.2654  1.5730 -0.8529
 6657SOL     OW31432   3.656   1.805   2.505  0.6398 -0.1520  0.1950
 6657SOL    HW131433   3.714   1.787   2.431 -0.6244  0.8826 -1.0438
 6657SOL    HW231434   3.682   1.896   2.518  0.6464 -0.2381  0.7942
 6658SOL     OW31435   3.814   1.162  11.527 -0.1072  0.1869  0.0191
 6658SOL    HW131436   3.855   1.244  11.553  2.3533 -0.4296 -1.9216
 6658SOL    HW231437   3.731   1.190  11.488  0.5854 -1.7000 -2.7607
 6659SOL     OW31438   3.582   2.442   7.675 -0.1236 -0.3132 -0.0380
 6659SOL    HW131439   3.541   2.463   7.759 -0.5532  0.2974 -0.4032
 6659SOL    HW231440   3.502   2.439   7.622 -1.2248 -0.6717  1.6381
 6660SOL     OW31441   4.275   2.550  11.601 -0.0715  0.0620 -0.3411
 6660SOL    HW131442   4.363   2.587  11.600 -0.7346  1.6490 -0.3947
 6660SOL    HW231443   4.225   2.612  11.655  1.7093 -0.5409  1.9816
 6661SOL     OW31444   2.111   1.345   0.196 -0.6316  0.4492 -0.5653
 6661SOL    HW131445   2.151   1.428   0.224  1.9772 -1.5100  1.5693
 6661SOL    HW231446   2.170   1.323   0.123  1.3373  1.8357  0.5908
 6662SOL     OW31447   2.732   1.769   3.796  0.1075 -0.7521 -0.5738
 6662SOL    HW131448   2.821   1.799   3.814 -0.0668 -0.4130 -0.2817
 6662SOL    HW231449   2.689   1.743   3.877  1.1803  0.6575  0.4336
 6663SOL     OW31450   1.586   2.403  17.370 -0.0559 -0.1617 -0.1257
 6663SOL    HW131451   1.641   2.470  17.411 -0.4462  1.8925 -2.9788
 6663SOL    HW231452   1.650   2.338  17.341  1.1493  1.4035 -0.8930
 6664SOL     OW31453   1.069   0.204   2.803  0.4965 -0.2029  0.4940
 6664SOL    HW131454   1.041   0.123   2.846  0.5262  0.6996  2.1789
 6664SOL    HW231455   1.023   0.271   2.852 -0.1163 -1.1071  1.1666
 6665SOL     OW31456   1.320   4.034   2.255 -0.4839  0.3143 -0.7080
 6665SOL    HW131457   1.342   3.947   2.220 -0.3370 -0.6814  1.8558
 6665SOL    HW231458   1.235   4.048   2.214 -0.5904  1.0098 -0.2400
 6666SOL     OW31459   0.113   2.909   6.351  0.3455  0.2078  0.1806
 6666SOL    HW131460   0.021   2.935   6.352  0.2942  0.0297 -0.3058
 6666SOL    HW231461   0.133   2.885   6.442  0.9403 -0.2128 -0.0612
 6667SOL     OW31462   0.347   3.427  14.758  0.1995 -0.4996  0.1397
 6667SOL    HW131463   0.325   3.496  14.696  0.2023  0.2649  0.9824
 6667SOL    HW231464   0.360   3.354  14.698  0.5607 -0.1319 -0.2210
 6668SOL     OW31465   0.923   2.014   3.448  0.0328 -0.5012 -0.0468
 6668SOL    HW131466   1.014   2.044   3.438  0.1729 -0.3131  1.7512
 6668SOL    HW231467   0.915   1.956   3.373 -2.8170 -0.6476  0.3615
 6669SOL     OW31468   2.866   0.890   8.098 -0.2593  0.6986 -0.8484
 6669SOL    HW131469   2.787   0.922   8.053 -0.4242 -1.3070 -1.9604
 6669SOL    HW231470   2.945   0.917   8.051 -0.3008  0.5358 -1.0106
 6670SOL     OW31471   2.177   4.383   2.884 -0.2541 -0.1428 -0.2190
 6670SOL    HW131472   2.118   4.446   2.843  0.3925  0.9349  0.5076
 6670SOL    HW231473   2.261   4.428   2.878  0.6526 -1.4265  2.8628
 6671SOL     OW31474   2.068   0.132   2.642 -0.4339  0.1054  0.5498
 6671SOL    HW131475   2.043   0.219   2.610  1.0147  0.3539  0.0774
 6671SOL    HW231476   2.105   0.153   2.728  0.4659 -2.4502  0.7859
 6672SOL     OW31477   3.485   2.430  16.432 -0.8056  0.1748  0.1826
 6672SOL    HW131478   3.429   2.404  16.506  2.0781 -0.3440  2.2028
 6672SOL    HW231479   3.542   2.497  16.470  0.3318 -0.0207 -1.1794
 6673SOL     OW31480   1.451   2.970  10.470 -0.2048  0.4469 -0.5398
 6673SOL    HW131481   1.428   2.904  10.404 -1.3454 -0.0362  0.3337
 6673SOL    HW231482   1.370   3.020  10.460 -0.4190 -0.0503 -1.2565
 6674SOL     OW31483   4.180   3.843   3.301 -0.4030  0.3047  0.2138
 6674SOL    HW131484   4.206   3.889   3.222  1.8326 -2.7100 -0.7958
 6674SOL    HW231485   4.257   3.869   3.352 -0.3936  0.9289 -0.1274
 6675SOL     OW31486   0.907   1.949  10.716 -0.0974  0.6545 -0.6937
 6675SOL    HW131487   0.836   2.004  10.748 -0.6111 -0.1163 -0.4953
 6675SOL    HW231488   0.863   1.869  10.686  0.8522  0.4123 -1.4705
 6676SOL     OW31489   2.564   1.102   4.050  0.5610  0.2154 -0.3321
 6676SOL    HW131490   2.482   1.066   4.016  0.7365  0.5798 -1.1515
 6676SOL    HW231491   2.531   1.148   4.127  0.1399 -0.4420 -0.1111
 6677SOL     OW31492   0.634   1.646  15.391 -0.0402  0.0203  0.7044
 6677SOL    HW131493   0.685   1.679  15.317 -1.0479 -0.7493 -0.3404
 6677SOL    HW231494   0.567   1.599  15.340  0.5012  1.8045 -1.6714
 6678SOL     OW31495   2.393   3.790   6.737  0.4912 -0.4552  0.2585
 6678SOL    HW131496   2.300   3.808   6.725  0.8592  0.6566 -0.8944
 6678SOL    HW231497   2.384   3.717   6.798 -0.0787  0.6840  1.5324
 6679SOL     OW31498   1.900   2.176   8.760  0.0007  0.4141  0.7082
 6679SOL    HW131499   1.821   2.217   8.726  0.0855 -0.3459 -0.4317
 6679SOL    HW231500   1.965   2.243   8.782  1.3812 -0.7205  0.1243
 6680SOL     OW31501   0.415   2.088   2.740  0.1256  0.1884  0.0616
 6680SOL    HW131502   0.427   2.180   2.716 -0.7198  0.0780 -0.7740
 6680SOL    HW231503   0.388   2.043   2.660 -0.3213 -0.5604  0.6301
 6681SOL     OW31504   3.227   4.358  12.250 -0.3649  0.5719 -0.2854
 6681SOL    HW131505   3.259   4.448  12.255  0.2042  0.3540  0.0105
 6681SOL    HW231506   3.136   4.366  12.278  0.1813 -1.1190  1.9383
 6682SOL     OW31507   2.005   1.338   9.119  0.8029  0.1747  0.5300
 6682SOL    HW131508   2.048   1.332   9.204 -2.4016  2.5498  2.3206
 6682SOL    HW231509   2.064   1.403   9.079  0.1112  1.0958  1.0240
 6683SOL     OW31510   0.683   1.346   7.150 -0.1256 -0.7763 -0.7629
 6683SOL    HW131511   0.752   1.282   7.170 -1.1073 -1.6500 -0.1466
 6683SOL    HW231512   0.666   1.375   7.240  1.8959 -3.8708  0.6293
 6684SOL     OW31513   3.572   2.399   5.700  0.1159 -0.1915 -0.0744
 6684SOL    HW131514   3.630   2.458   5.748 -1.4084  0.9360  0.4139
 6684SOL    HW231515   3.485   2.432   5.723  1.3860  2.4205  1.0456
 6685SOL     OW31516   2.110   2.398   9.178  0.1857 -0.0218  0.2744
 6685SOL    HW131517   2.054   2.345   9.121  0.7236  0.9321 -1.1384
 6685SOL    HW231518   2.098   2.349   9.259  0.0523 -2.1377 -1.0079
 6686SOL     OW31519   1.383   3.124  14.574  0.0805  0.5321  0.1409
 6686SOL    HW131520   1.384   3.213  14.539 -0.5349 -0.1622 -1.6367
 6686SOL    HW231521   1.472   3.103  14.603  1.3154  1.3700 -3.0137
 6687SOL     OW31522   3.288   0.173   4.996 -0.0870  0.5441 -0.1105
 6687SOL    HW131523   3.348   0.218   4.936 -2.4102  2.8629 -0.6982
 6687SOL    HW231524   3.333   0.089   5.004 -0.0301  0.5058 -0.7966
 6688SOL     OW31525   3.802   4.437   5.064  0.2358  0.1436  0.1862
 6688SOL    HW131526   3.826   4.410   4.975 -3.7460 -2.5093 -0.0663
 6688SOL    HW231527   3.742   4.509   5.049 -0.9729 -0.9424 -0.2035
 6689SOL     OW31528   1.224   2.739   8.843  0.1552  0.0699 -0.4887
 6689SOL    HW131529   1.279   2.814   8.867  0.1235 -0.6033  1.7162
 6689SOL    HW231530   1.292   2.690   8.796 -0.9394 -1.8442 -0.0758
 6690SOL     OW31531   3.191   1.201   6.460  0.5408  0.9850 -0.0244
 6690SOL    HW131532   3.209   1.167   6.548 -2.8423  1.3944  0.7903
 6690SOL    HW231533   3.183   1.129   6.397  0.5502  0.0219  1.0607
 6691SOL     OW31534   2.887   3.989  11.582 -0.2096 -0.1628 -0.0338
 6691SOL    HW131535   2.901   3.963  11.491  1.4074 -0.3993  0.2806
 6691SOL    HW231536   2.792   3.990  11.577 -0.1472  1.1152 -0.8041
 6692SOL     OW31537   0.593   2.137  12.170  0.6132  0.6072 -0.0665
 6692SOL    HW131538   0.667   2.193  12.192  1.5371 -0.6164 -0.1105
 6692SOL    HW231539   0.548   2.129  12.254  1.3830 -1.1161  0.1677
 6693SOL     OW31540   3.991   1.491   2.707 -0.4884  0.6070 -0.9542
 6693SOL    HW131541   4.050   1.558   2.742  2.4652 -3.0856  1.1047
 6693SOL    HW231542   3.921   1.545   2.669 -0.3797  2.6045  1.6049
 6694SOL     OW31543   1.508   2.786  14.702  0.1131  0.0398 -0.3123
 6694SOL    HW131544   1.556   2.729  14.642  0.0760  1.0374 -1.2964
 6694SOL    HW231545   1.542   2.868  14.667  1.6731 -1.0268 -1.3085
 6695SOL     OW31546   3.057   3.956   2.240 -0.1025 -0.3039  0.5773
 6695SOL    HW131547   3.049   3.866   2.271 -0.4523 -1.6432 -3.3739
 6695SOL    HW231548   2.968   3.988   2.227  0.7965  1.4914 -1.1876
 6696SOL     OW31549   3.969   4.480  11.078 -0.2053  0.6164 -0.1453
 6696SOL    HW131550   3.954   4.572  11.101 -1.9546 -0.0853  1.5694
 6696SOL    HW231551   4.038   4.491  11.012 -0.2332  2.4462  0.1428
 6697SOL     OW31552   2.177   2.433   1.839 -0.2166 -0.1635 -0.2806
 6697SOL    HW131553   2.185   2.528   1.852  0.8273 -0.4846  1.4493
 6697SOL    HW231554   2.241   2.419   1.769  0.1448  0.3384 -0.0490
 6698SOL     OW31555   4.517   1.362   7.619 -0.2039  0.2799 -0.1622
 6698SOL    HW131556   4.597   1.312   7.608 -1.0760 -0.7967 -1.5946
 6698SOL    HW231557   4.518   1.416   7.540  0.1359 -1.3460 -1.2524
 6699SOL     OW31558   1.311   0.451   8.112 -0.0310 -0.2674 -0.3210
 6699SOL    HW131559   1.304   0.502   8.031  0.8323 -0.9249 -0.8030
 6699SOL    HW231560   1.257   0.502   8.173  3.9755 -1.6993  4.3559
 6700SOL     OW31561   3.149   0.368  11.181 -0.0088 -0.1051  0.1629
 6700SOL    HW131562   3.092   0.324  11.118 -0.1921  2.0116 -1.1604
 6700SOL    HW231563   3.212   0.405  11.119 -0.2130 -0.1902 -0.0933
 6701SOL     OW31564   4.680   3.841  16.968 -0.0651 -0.1424  0.0249
 6701SOL    HW131565   4.661   3.752  16.938 -0.3226 -0.0608 -0.0548
 6701SOL    HW231566   4.602   3.844  17.023  0.4576 -1.7324  0.8341
 6702SOL     OW31567   4.147   0.420   7.119 -0.2361  0.3564 -0.4105
 6702SOL    HW131568   4.129   0.367   7.042 -1.3454  0.9845 -0.5863
 6702SOL    HW231569   4.242   0.431   7.110 -0.5045  1.0244 -2.3710
 6703SOL     OW31570   3.066   2.858   6.652  0.6415  0.2973  0.1187
 6703SOL    HW131571   3.082   2.836   6.743  1.2970  0.9923  0.1734
 6703SOL    HW231572   3.118   2.938   6.640 -1.0024  1.4754  0.8951
 6704SOL     OW31573   2.755   3.311   5.832 -0.9011 -0.3192 -0.4506
 6704SOL    HW131574   2.743   3.376   5.901 -0.7594 -0.0883 -0.6427
 6704SOL    HW231575   2.803   3.353   5.761  2.1088 -3.3927 -0.2546
 6705SOL     OW31576   4.456   2.668  10.462 -0.3825 -0.2402  0.0764
 6705SOL    HW131577   4.429   2.758  10.446  2.2575  0.3016 -1.2937
 6705SOL    HW231578   4.545   2.667  10.426 -0.2669  3.4436  0.2503
 6706SOL     OW31579   1.401   3.374  15.757  0.3364 -0.0468  0.7924
 6706SOL    HW131580   1.306   3.375  15.770  0.0932  1.4955 -1.0498
 6706SOL    HW231581   1.417   3.468  15.747 -0.5043  0.1044  0.8190
 6707SOL     OW31582   1.465   1.033   5.986  0.0806  0.4560  0.0167
 6707SOL    HW131583   1.381   1.080   5.991  1.9103  3.7779 -0.5828
 6707SOL    HW231584   1.512   1.087   6.051  1.7702 -0.3374 -0.5623
 6708SOL     OW31585   0.076   1.196  11.166  0.3913 -0.1242 -0.2851
 6708SOL    HW131586   4.722   1.147  11.139 -0.2290  0.8209 -0.2074
 6708SOL    HW231587   0.097   1.246  11.087 -1.0622 -1.0384 -1.2581
 6709SOL     OW31588   2.050   3.276   4.006 -0.0886 -0.3288 -0.0202
 6709SOL    HW131589   2.082   3.268   3.916  0.8317  0.3586  0.2551
 6709SOL    HW231590   2.133   3.278   4.054  0.9207 -0.7253 -1.7357
 6710SOL     OW31591   1.536   3.235   8.706  0.4662 -0.4801  0.0562
 6710SOL    HW131592   1.495   3.315   8.739 -0.8134 -1.4918  0.8700
 6710SOL    HW231593   1.518   3.243   8.612 -0.8863 -0.0727  0.3634
 6711SOL     OW31594   3.100   3.614  11.195  0.4622 -0.6334 -0.4402
 6711SOL    HW131595   3.048   3.653  11.265 -0.4825  0.8864 -1.9987
 6711SOL    HW231596   3.169   3.681  11.196 -0.4686  0.3252 -0.8542
 6712SOL     OW31597   4.313   2.389   5.311 -0.0337 -0.3855  0.2301
 6712SOL    HW131598   4.230   2.387   5.265  1.1773 -1.0059 -1.9335
 6712SOL    HW231599   4.375   2.362   5.244 -2.4398 -2.2872 -1.2006
 6713SOL     OW31600   3.649   4.383   9.940 -0.3362 -0.0366  0.0548
 6713SOL    HW131601   3.603   4.370  10.023 -1.5239 -0.3397 -0.6593
 6713SOL    HW231602   3.613   4.311   9.888  0.2908  1.0487 -1.8739
 6714SOL     OW31603   1.780   0.124   4.934  0.6718  0.6315  0.2506
 6714SOL    HW131604   1.729   0.112   5.014  1.4824  0.3291  0.7146
 6714SOL    HW231605   1.797   0.219   4.933  0.5026  0.6210 -3.5193
 6715SOL     OW31606   0.177   3.047  11.158 -0.2040  0.1614  0.4102
 6715SOL    HW131607   0.102   3.000  11.123 -0.3200  0.1576  0.6669
 6715SOL    HW231608   0.177   3.109  11.084 -0.2156  1.0759  1.1767
 6716SOL     OW31609   3.004   2.180   9.617  0.1979 -0.0044 -0.2111
 6716SOL    HW131610   2.950   2.182   9.539  0.0297  0.5063 -0.0825
 6716SOL    HW231611   3.014   2.273   9.639 -1.5920  0.8357 -3.0079
 6717SOL     OW31612   3.264   4.106   8.690  0.2645  0.3352  0.2710
 6717SOL    HW131613   3.246   4.148   8.774  1.0792 -0.0666  0.6490
 6717SOL    HW231614   3.360   4.105   8.689  0.2999  0.8523  2.8925
 6718SOL     OW31615   3.937   1.319   6.775  0.4092 -0.1664 -0.1251
 6718SOL    HW131616   3.897   1.341   6.691 -1.1469 -1.7151  0.2101
 6718SOL    HW231617   3.877   1.366   6.834 -0.3186 -0.0228 -0.9767
 6719SOL     OW31618   2.882   0.387  13.657  0.4841 -0.2753 -0.2914
 6719SOL    HW131619   2.859   0.463  13.604  0.1241  0.4064  0.8412
 6719SOL    HW231620   2.798   0.370  13.699  0.4251  0.5231 -0.0931
 6720SOL     OW31621   1.587   4.159   0.263 -0.4001  0.2362 -0.1070
 6720SOL    HW131622   1.652   4.209   0.312  1.0043 -2.5602  0.8639
 6720SOL    HW231623   1.549   4.223   0.204 -3.2065 -1.2315  0.0998
 6721SOL     OW31624   4.158   1.981   1.863 -0.1916 -0.5337  0.4927
 6721SOL    HW131625   4.162   1.923   1.787  2.0269 -1.0634  1.0168
 6721SOL    HW231626   4.064   1.999   1.856 -0.2684 -0.9261  0.4554
 6722SOL     OW31627   1.337   4.230   4.828 -0.7249 -0.3108  0.0628
 6722SOL    HW131628   1.338   4.258   4.737 -2.0045 -0.4861 -0.0013
 6722SOL    HW231629   1.300   4.141   4.823  0.1622 -0.8211  2.6345
 6723SOL     OW31630   1.495   2.588  15.029  0.1202 -0.9106  0.3366
 6723SOL    HW131631   1.543   2.522  14.980 -0.1393 -0.0325 -1.1044
 6723SOL    HW231632   1.535   2.581  15.116 -0.4256 -0.9421  0.5903
 6724SOL     OW31633   3.270   2.745   7.465  0.1671  0.7280  0.0993
 6724SOL    HW131634   3.219   2.808   7.516  0.0562  0.8278 -0.1341
 6724SOL    HW231635   3.233   2.765   7.379  0.5951 -2.4082 -0.7934
 6725SOL     OW31636   0.917   0.566  11.255  0.6941 -0.4052  0.7728
 6725SOL    HW131637   0.965   0.645  11.229 -2.2856  1.0164 -0.4292
 6725SOL    HW231638   0.830   0.595  11.226 -0.0717 -1.0851  2.4251
 6726SOL     OW31639   4.432   2.093  15.461 -0.8477  0.1931 -0.4488
 6726SOL    HW131640   4.521   2.102  15.495 -0.6983 -0.8321 -0.5439
 6726SOL    HW231641   4.456   2.010  15.419 -0.1142 -0.6321  1.5585
 6727SOL     OW31642   2.466   2.965   1.351 -0.2625  0.9281 -0.0057
 6727SOL    HW131643   2.503   3.032   1.409  0.4259  1.3258 -0.9128
 6727SOL    HW231644   2.523   2.889   1.365 -0.8535  0.4485 -0.1842
 6728SOL     OW31645   0.565   3.902  14.409 -0.3209  0.3865 -0.3894
 6728SOL    HW131646   0.646   3.852  14.398  0.3777  1.2590  0.7938
 6728SOL    HW231647   0.601   3.991  14.407  0.4311  0.1234  1.1521
 6729SOL     OW31648   2.428   4.556   6.260  0.1509  0.2897  0.3165
 6729SOL    HW131649   2.382   4.577   6.178 -2.0927 -0.6838  1.3225
 6729SOL    HW231650   2.512   4.528   6.224 -1.0942  0.2636 -2.6425
 6730SOL     OW31651   4.105   0.719   9.903  0.1107 -0.2797 -0.4924
 6730SOL    HW131652   4.165   0.657   9.946 -2.2975 -2.1257  0.2029
 6730SOL    HW231653   4.068   0.671   9.829 -2.5996  1.1128 -0.0271
 6731SOL     OW31654   0.155   1.389   2.108  0.3880  0.2936  0.5356
 6731SOL    HW131655   0.100   1.370   2.031 -0.6217  2.2939  0.7493
 6731SOL    HW231656   0.136   1.483   2.115  0.3518  0.3576 -0.3768
 6732SOL     OW31657   3.924   4.470  11.854 -0.1804  0.6048 -0.3275
 6732SOL    HW131658   3.836   4.435  11.842 -0.7563  1.2942  1.8877
 6732SOL    HW231659   3.966   4.390  11.823  0.8775  1.1932 -0.4139
 6733SOL     OW31660   4.043   2.062   5.858  0.1906  0.2756 -0.7112
 6733SOL    HW131661   4.121   2.083   5.807 -0.2534  3.1308 -0.1800
 6733SOL    HW231662   4.060   2.118   5.933  4.0076  0.6727 -1.8519
 6734SOL     OW31663   0.096   2.831   4.351  0.0630  0.1089  0.7859
 6734SOL    HW131664   0.088   2.881   4.432  2.2867  1.1721  0.3750
 6734SOL    HW231665   0.003   2.818   4.333  0.5753 -0.4949 -1.4582
 6735SOL     OW31666   4.356   0.638  12.045 -0.1555 -0.5482  0.5837
 6735SOL    HW131667   4.263   0.655  12.036 -0.3557 -0.3207  2.9481
 6735SOL    HW231668   4.381   0.601  11.960  1.0500 -0.5521  0.9413
 6736SOL     OW31669   2.428   4.621   8.264 -0.2491  0.1961 -0.2504
 6736SOL    HW131670   2.438   4.708   8.224 -0.3560 -0.2550 -1.2567
 6736SOL    HW231671   2.367   4.629   8.337  0.6741 -2.4453  0.7927
 6737SOL     OW31672   3.186   3.389  11.317  0.4175 -0.3182  0.5012
 6737SOL    HW131673   3.116   3.395  11.383 -1.1994  0.2142 -1.2689
 6737SOL    HW231674   3.171   3.461  11.257 -0.8052 -2.2416 -1.5099
 6738SOL     OW31675   3.772   2.598   5.859  0.8273 -1.0477  0.0081
 6738SOL    HW131676   3.823   2.645   5.925  0.9222  2.4417 -2.5658
 6738SOL    HW231677   3.825   2.519   5.851  0.0433 -1.4429 -1.2545
 6739SOL     OW31678   4.168   1.291  15.116 -0.3151  0.5701 -0.8233
 6739SOL    HW131679   4.158   1.202  15.081  0.6190  0.7864 -1.6617
 6739SOL    HW231680   4.076   1.316  15.113 -0.5323 -0.1336  0.1211
 6740SOL     OW31681   0.169   0.860  14.228 -0.0896  0.1055 -0.2035
 6740SOL    HW131682   0.156   0.765  14.237 -1.3785  0.3211  0.0792
 6740SOL    HW231683   0.108   0.877  14.157  2.9775  2.2979 -2.3520
 6741SOL     OW31684   1.225   3.315  15.286  0.2496 -0.1156  0.7367
 6741SOL    HW131685   1.164   3.258  15.240  0.7943 -0.9689  1.0756
 6741SOL    HW231686   1.302   3.274  15.247  0.9060  0.8987  0.9649
 6742SOL     OW31687   1.903   0.437   5.144 -0.3303  0.1431  0.0170
 6742SOL    HW131688   1.891   0.410   5.053 -0.1392 -0.5718  0.1992
 6742SOL    HW231689   1.987   0.484   5.138  0.4275 -1.4730 -2.1150
 6743SOL     OW31690   2.297   4.679  12.599 -0.2953  0.0434  0.0278
 6743SOL    HW131691   2.353   4.723  12.664  0.5336  1.4246 -1.6195
 6743SOL    HW231692   2.291   4.591  12.635 -1.3019  0.4206  0.8082
 6744SOL     OW31693   4.292   1.194  16.118 -0.0994  0.0316 -0.2918
 6744SOL    HW131694   4.213   1.245  16.101  1.9163  2.4634 -2.3587
 6744SOL    HW231695   4.307   1.224  16.208  1.0717 -0.7671 -0.2174
 6745SOL     OW31696   3.747   1.827   6.783  0.2025  0.5488 -0.1412
 6745SOL    HW131697   3.689   1.775   6.838  1.8092  0.2517  1.2740
 6745SOL    HW231698   3.719   1.914   6.811  1.7592  0.2914  2.2341
 6746SOL     OW31699   3.847   1.559  11.349 -0.1372 -0.2961  0.2318
 6746SOL    HW131700   3.875   1.474  11.384  2.1515 -0.2523 -1.4667
 6746SOL    HW231701   3.779   1.579  11.413 -0.9023 -0.1332 -0.6427
 6747SOL     OW31702   0.211   1.389   2.391  0.6096  0.3782 -0.5159
 6747SOL    HW131703   0.178   1.405   2.303  0.3052 -1.8337 -0.8040
 6747SOL    HW231704   0.302   1.366   2.373  0.3947 -1.4054  0.6763
 6748SOL     OW31705   3.852   2.802   5.104 -0.5792  0.2297  0.3651
 6748SOL    HW131706   3.927   2.752   5.071 -3.0940 -2.9484 -0.5026
 6748SOL    HW231707   3.888   2.885   5.133 -0.8537  0.5283 -0.1541
 6749SOL     OW31708   0.017   2.020   8.732  0.2149  0.2883  0.4481
 6749SOL    HW131709   4.723   2.114   8.723 -1.0499 -0.0423 -0.6015
 6749SOL    HW231710   0.069   2.002   8.654  1.5160 -0.3692  1.4827
 6750SOL     OW31711   1.580   0.009   3.283  0.1389  0.3610 -0.0029
 6750SOL    HW131712   1.607   0.097   3.257  0.0132 -0.0026 -1.3803
 6750SOL    HW231713   1.487   0.014   3.261  0.1766 -1.2467 -0.5882
 6751SOL     OW31714   1.860   2.821  15.476  0.0619 -0.0630  0.2706
 6751SOL    HW131715   1.828   2.841  15.388 -3.9358  0.3896  1.8380
 6751SOL    HW231716   1.930   2.761  15.451 -0.1276  0.8384 -2.4179
 6752SOL     OW31717   1.761   1.794   7.462  0.4729  0.3661  0.4202
 6752SOL    HW131718   1.802   1.830   7.384  0.5894  1.0480  0.8006
 6752SOL    HW231719   1.753   1.701   7.440  2.9965  0.5379 -1.1933
 6753SOL     OW31720   0.382   3.780   5.447  0.4486 -0.1620 -0.1751
 6753SOL    HW131721   0.446   3.801   5.380 -1.9094 -0.1222 -2.4429
 6753SOL    HW231722   0.444   3.753   5.514 -0.4121 -1.3865  0.1406
 6754SOL     OW31723   0.091   0.601  10.972 -0.7731  0.1437  0.4942
 6754SOL    HW131724   0.025   0.629  11.036 -0.2027 -0.1322  1.2150
 6754SOL    HW231725   0.091   0.686  10.929  1.0001 -0.0060  0.1910
 6755SOL     OW31726   0.545   3.201  10.097 -0.3359  0.1522  0.0411
 6755SOL    HW131727   0.588   3.218  10.181 -1.5572  0.2830  0.6368
 6755SOL    HW231728   0.476   3.142  10.128  0.5940 -1.2572 -0.5800
 6756SOL     OW31729   1.431   4.541   8.003  0.4176 -0.0879  0.5183
 6756SOL    HW131730   1.445   4.548   7.908 -0.5148  2.1217  0.5555
 6756SOL    HW231731   1.482   4.461   8.017 -1.3027 -1.8468 -3.3214
 6757SOL     OW31732   4.240   0.663   4.054  0.1698 -0.2532 -0.1040
 6757SOL    HW131733   4.182   0.597   4.090 -1.4163  1.4042  0.3440
 6757SOL    HW231734   4.178   0.729   4.023  2.6691  2.4517  0.6874
 6758SOL     OW31735   4.018   4.053  11.622  0.5074  0.2604  0.3643
 6758SOL    HW131736   4.110   4.029  11.630  0.4924 -0.1874 -0.9184
 6758SOL    HW231737   4.019   4.142  11.588  0.8956  0.0045 -0.2870
 6759SOL     OW31738   2.415   1.121   5.646 -0.4682 -0.0976 -0.0261
 6759SOL    HW131739   2.392   1.194   5.589  0.6805 -0.8977 -1.5218
 6759SOL    HW231740   2.510   1.128   5.645 -0.3272 -2.3966 -1.4106
 6760SOL     OW31741   1.098   2.512   1.900  0.1040 -0.4895 -0.1680
 6760SOL    HW131742   1.024   2.565   1.931  1.3750 -0.7561  3.2268
 6760SOL    HW231743   1.101   2.534   1.806 -2.6667 -0.3623 -0.2232
 6761SOL     OW31744   1.148   3.912  10.734  0.5386  0.0409  0.4977
 6761SOL    HW131745   1.238   3.899  10.705 -0.4058 -1.0716 -1.8604
 6761SOL    HW231746   1.116   3.971  10.666  0.8095 -1.3587 -0.8360
 6762SOL     OW31747   3.280   1.526  16.623 -0.2561  0.5869  0.0753
 6762SOL    HW131748   3.194   1.490  16.643 -1.3126  2.9486 -0.2265
 6762SOL    HW231749   3.334   1.468  16.676 -1.9059 -1.3081 -0.3052
 6763SOL     OW31750   1.201   0.594   1.293  0.0158  0.5889 -0.6320
 6763SOL    HW131751   1.288   0.562   1.268  0.9840  1.2563  1.8364
 6763SOL    HW231752   1.150   0.590   1.213 -0.4329 -2.6671 -0.1949
 6764SOL     OW31753   3.483   2.208  17.631  0.1930 -0.3756 -0.1147
 6764SOL    HW131754   3.476   2.276   0.001  0.1967  1.8403 -2.3615
 6764SOL    HW231755   3.396   2.202  17.591 -1.6018  1.6460  3.5389
 6765SOL     OW31756   4.075   0.924   0.654 -0.0353 -0.3843  0.1311
 6765SOL    HW131757   4.029   0.844   0.629 -0.3070 -1.0716  2.8610
 6765SOL    HW231758   4.011   0.981   0.613  2.0751  0.9864 -1.2866
 6766SOL     OW31759   4.341   4.312   1.311 -0.0983  0.6891  0.9464
 6766SOL    HW131760   4.338   4.219   1.334  3.4560  0.8530  2.1015
 6766SOL    HW231761   4.434   4.337   1.314 -1.1614  4.5272  1.3857
 6767SOL     OW31762   1.442   1.056   8.296  0.1316  0.4229  0.4839
 6767SOL    HW131763   1.431   1.084   8.387 -0.9822  0.9818  0.1635
 6767SOL    HW231764   1.351   1.037   8.276  0.7054  0.5947 -2.2168
 6768SOL     OW31765   4.239   3.362   3.082 -0.4116 -0.0753  0.4919
 6768SOL    HW131766   4.213   3.441   3.035  0.3880 -0.4702 -0.6067
 6768SOL    HW231767   4.302   3.320   3.023 -0.4676 -1.7032  1.5901
 6769SOL     OW31768   1.055   4.557  11.505 -0.1562 -0.8304  0.5208
 6769SOL    HW131769   0.975   4.588  11.547 -0.2580 -0.6678  0.2013
 6769SOL    HW231770   1.106   4.530  11.581  0.5534 -0.3805  0.2094
 6770SOL     OW31771   1.699   4.012   7.657 -0.3869  0.1620  0.1010
 6770SOL    HW131772   1.696   3.999   7.751  2.0566 -1.7279 -0.1037
 6770SOL    HW231773   1.606   4.034   7.643 -0.1135  1.1601 -0.2120
 6771SOL     OW31774   3.842   0.184   8.496 -0.6055 -0.1845  0.1017
 6771SOL    HW131775   3.852   0.254   8.431  2.1989 -0.1122  0.5923
 6771SOL    HW231776   3.923   0.138   8.476  0.0234  0.3934  1.2776
 6772SOL     OW31777   4.099   2.009  12.251  0.1058  0.4502 -0.1208
 6772SOL    HW131778   4.148   1.972  12.178  1.3650  0.5524  0.6825
 6772SOL    HW231779   4.079   2.099  12.223  1.8514  0.5204 -1.1310
 6773SOL     OW31780   2.858   2.987   4.483  0.6455 -0.0065 -0.0549
 6773SOL    HW131781   2.883   2.942   4.402  0.1092  0.0722 -0.2638
 6773SOL    HW231782   2.813   2.912   4.523  2.2363  0.2533  2.2171
 6774SOL     OW31783   0.552   3.252  15.231  0.0207  0.4985  0.0754
 6774SOL    HW131784   0.567   3.345  15.248 -2.7246  0.6809  1.4033
 6774SOL    HW231785   0.635   3.238  15.185 -1.7807 -0.3563 -2.9491
 6775SOL     OW31786   3.284   1.116   8.424 -0.0250  0.2307  0.0882
 6775SOL    HW131787   3.285   1.084   8.514  0.2019 -1.1430 -0.4104
 6775SOL    HW231788   3.234   1.196   8.440 -2.3600 -1.2781  0.3239
 6776SOL     OW31789   3.617   4.328   6.159  0.0109  0.4698  0.2881
 6776SOL    HW131790   3.645   4.246   6.199 -0.5915 -0.3010 -0.8481
 6776SOL    HW231791   3.551   4.351   6.224 -0.2529 -0.5401  0.3738
 6777SOL     OW31792   3.564   1.509   9.690  0.1695  0.3473  0.6684
 6777SOL    HW131793   3.637   1.459   9.728 -1.3616 -0.4621  2.5505
 6777SOL    HW231794   3.602   1.592   9.663 -1.7016  0.3332 -1.9374
 6778SOL     OW31795   0.756   3.637  17.508  0.1300 -0.0890  0.1133
 6778SOL    HW131796   0.696   3.617  17.436 -0.5138  1.7480  0.1340
 6778SOL    HW231797   0.688   3.635  17.576 -1.3118 -1.4369 -1.3625
 6779SOL     OW31798   1.808   4.705   3.938 -0.2732 -0.4911  0.5431
 6779SOL    HW131799   1.792   4.650   3.861 -0.5685  0.9675 -0.4392
 6779SOL    HW231800   1.791   4.641   4.007  0.4563 -0.9317  0.3115
 6780SOL     OW31801   2.004   4.493   4.226  0.1845 -0.2534 -0.0762
 6780SOL    HW131802   2.059   4.448   4.162  0.3704  0.8457 -0.6965
 6780SOL    HW231803   2.035   4.583   4.213 -2.1742  0.2269 -2.4620
 6781SOL     OW31804   2.898   1.957   4.454  0.3057 -0.1636  0.5726
 6781SOL    HW131805   2.875   1.864   4.458 -1.8030  0.3614  0.8059
 6781SOL    HW231806   2.988   1.952   4.487  0.0796  0.0339  1.2339
 6782SOL     OW31807   0.576   4.669   6.386 -0.7579 -0.0484 -0.1910
 6782SOL    HW131808   0.483   4.657   6.369 -0.9278 -1.7309  2.0080
 6782SOL    HW231809   0.604   4.689   6.296 -3.5315  0.3516 -0.9644
 6783SOL     OW31810   4.207   2.319  13.195  0.1992 -0.0898  0.2403
 6783SOL    HW131811   4.218   2.407  13.158 -2.6497  0.4965  0.7493
 6783SOL    HW231812   4.140   2.282  13.138 -1.2801  1.1647  1.1422
 6784SOL     OW31813   3.030   1.461  16.703 -0.4218 -0.2215  0.0430
 6784SOL    HW131814   3.046   1.428  16.792  0.6609  0.5015  0.1117
 6784SOL    HW231815   2.938   1.441  16.686 -0.9649 -0.2283  2.9709
 6785SOL     OW31816   1.551   1.512  13.247 -0.0784  0.3128  0.1983
 6785SOL    HW131817   1.519   1.599  13.225  0.4376  0.6412  0.7485
 6785SOL    HW231818   1.478   1.476  13.298 -0.7539  0.9275 -0.3370
 6786SOL     OW31819   2.813   4.596   3.760  0.0164 -0.4994  0.3444
 6786SOL    HW131820   2.813   4.630   3.850  1.4756  1.3002 -0.3374
 6786SOL    HW231821   2.820   4.503   3.781  0.6838 -0.3001  1.0016
 6787SOL     OW31822   1.403   4.189   0.760 -0.2700 -0.3071 -0.1505
 6787SOL    HW131823   1.483   4.218   0.803 -1.6517  1.2744  1.3957
 6787SOL    HW231824   1.428   4.104   0.725  1.3057 -0.6847  1.9103
 6788SOL     OW31825   1.079   2.122   8.286 -0.1990  0.0267  0.0515
 6788SOL    HW131826   0.989   2.105   8.259 -0.5155  0.6804  0.7124
 6788SOL    HW231827   1.096   2.216   8.279  1.5634 -0.3239 -0.6030
 6789SOL     OW31828   0.580   0.391   7.778 -0.4025  0.3164 -0.4048
 6789SOL    HW131829   0.641   0.465   7.776 -1.9317  1.6737  1.8963
 6789SOL    HW231830   0.530   0.408   7.858 -0.2178  0.9181 -0.4164
 6790SOL     OW31831   3.178   3.717   2.880  0.1566 -0.4146  0.0186
 6790SOL    HW131832   3.246   3.754   2.935 -0.5728  0.4160  0.3639
 6790SOL    HW231833   3.192   3.768   2.800  0.5298  0.0943  0.4116
 6791SOL     OW31834   3.060   3.999  14.508  0.1162 -0.9427  0.4801
 6791SOL    HW131835   3.004   4.072  14.485  1.0261 -0.5310 -0.4078
 6791SOL    HW231836   2.990   3.937  14.530 -0.4529 -0.7652 -0.8540
 6792SOL     OW31837   1.116   4.490   4.732  0.0919  1.0018  0.1443
 6792SOL    HW131838   1.205   4.519   4.752  0.6229 -0.1308 -0.6306
 6792SOL    HW231839   1.067   4.544   4.795  0.2473  0.8936  0.3608
 6793SOL     OW31840   3.181   2.713   5.194 -0.3535  0.6809  0.2353
 6793SOL    HW131841   3.220   2.684   5.111  0.1920  0.7125  0.4800
 6793SOL    HW231842   3.176   2.808   5.182  1.6513  0.5351 -1.7094
 6794SOL     OW31843   0.887   2.163   8.817  0.2137 -0.2078  0.5121
 6794SOL    HW131844   0.837   2.093   8.858  1.5113 -0.0779  2.3322
 6794SOL    HW231845   0.869   2.241   8.870 -1.5914  0.3189 -0.8905
 6795SOL     OW31846   1.919   0.312   0.330 -0.1666  0.3944 -0.0853
 6795SOL    HW131847   1.980   0.238   0.331 -1.5681 -0.7724 -1.1282
 6795SOL    HW231848   1.982   0.381   0.349  1.0054 -0.6313 -0.2565
 6796SOL     OW31849   3.444   1.782  10.077 -0.2962 -0.3612 -0.0531
 6796SOL    HW131850   3.361   1.796  10.124 -0.2486 -1.1335  0.2634
 6796SOL    HW231851   3.413   1.728  10.005  1.4481  2.5086 -2.9484
 6797SOL     OW31852   2.444   0.840   0.937  0.1732 -0.1974  0.7076
 6797SOL    HW131853   2.472   0.863   0.849 -0.4678 -0.2025  0.5012
 6797SOL    HW231854   2.351   0.846   0.917  0.7229 -1.9880 -2.4314
 6798SOL     OW31855   1.655   2.747   2.721 -0.5781  0.3604 -0.0976
 6798SOL    HW131856   1.663   2.833   2.679 -0.3296 -0.2383 -1.2482
 6798SOL    HW231857   1.643   2.690   2.646 -2.7707  0.9612 -0.2139
 6799SOL     OW31858   1.041   0.038   6.170  0.0528 -0.5631 -0.4895
 6799SOL    HW131859   1.116   0.028   6.112  1.2239  0.5087  0.8475
 6799SOL    HW231860   0.980   0.030   6.097 -0.0071  0.6258 -0.5743
 6800SOL     OW31861   0.057   0.354  11.153  0.0033 -0.3954  0.0158
 6800SOL    HW131862   0.090   0.435  11.113  2.0387 -0.2953  1.8769
 6800SOL    HW231863   4.689   0.356  11.126 -0.1793  1.2593  0.7519
 6801SOL     OW31864   4.499   3.973   3.766 -0.4581  0.3442  0.0990
 6801SOL    HW131865   4.560   4.045   3.749  0.9959 -0.6729  0.9862
 6801SOL    HW231866   4.540   3.927   3.838  0.9092  2.8241  0.9245
 6802SOL     OW31867   2.158   4.114   5.194  0.1980 -0.7143 -0.1746
 6802SOL    HW131868   2.212   4.190   5.174  0.9719 -1.5488 -1.3153
 6802SOL    HW231869   2.114   4.099   5.110  0.7179  0.6451 -0.6876
 6803SOL     OW31870   2.970   4.015   5.509 -0.3337  0.5310 -0.2451
 6803SOL    HW131871   2.975   3.947   5.576 -2.4456  0.1377 -0.4909
 6803SOL    HW231872   2.876   4.033   5.501  0.2003  3.1239 -0.7630
 6804SOL     OW31873   3.922   1.011  11.713  0.5165 -0.2538 -0.2190
 6804SOL    HW131874   3.850   1.004  11.777  0.6870  0.2061  0.0210
 6804SOL    HW231875   3.888   1.081  11.657  2.0335  0.3128 -0.4125
 6805SOL     OW31876   1.153   0.547  17.215 -0.5453  0.2272  0.7087
 6805SOL    HW131877   1.145   0.617  17.280 -1.6604  0.2033  0.5975
 6805SOL    HW231878   1.225   0.493  17.248  0.4093  0.6693 -0.6677
 6806SOL     OW31879   1.043   1.428  14.386  0.2946  0.6010  0.2928
 6806SOL    HW131880   1.099   1.370  14.334  0.2583 -1.8239  2.9899
 6806SOL    HW231881   1.056   1.394  14.475  2.2354  2.9926  0.8941
 6807SOL     OW31882   3.919   3.066  10.261 -0.1838 -0.4099 -0.2726
 6807SOL    HW131883   3.916   3.071  10.165 -0.6081 -0.0328 -0.2435
 6807SOL    HW231884   4.002   3.021  10.277  1.5369  3.1736  0.7663
 6808SOL     OW31885   2.443   3.824   1.698 -0.9159  0.3825  1.0987
 6808SOL    HW131886   2.349   3.805   1.696 -0.5712 -0.9862 -2.0796
 6808SOL    HW231887   2.439   3.897   1.636  1.4935  1.3643  2.0859
 6809SOL     OW31888   4.043   1.632   1.886 -0.3513 -0.2655 -0.2055
 6809SOL    HW131889   3.974   1.681   1.929  0.0247 -0.6755  0.8484
 6809SOL    HW231890   4.056   1.688   1.809  1.4786 -0.4069 -0.0076
 6810SOL     OW31891   1.533   1.148   0.349  0.0444 -0.1659 -0.8012
 6810SOL    HW131892   1.540   1.136   0.255  1.3566  1.1230 -0.8657
 6810SOL    HW231893   1.440   1.130   0.363  0.4423  0.0937  2.3224
 6811SOL     OW31894   0.072   1.723   8.252  0.5495  0.4381  0.1536
 6811SOL    HW131895   4.702   1.714   8.235  0.4126  1.3050  0.4259
 6811SOL    HW231896   0.074   1.818   8.242 -0.8323  0.4228 -0.3094
 6812SOL     OW31897   0.772   4.570  16.829  0.0606  0.2761 -0.3776
 6812SOL    HW131898   0.735   4.579  16.917 -0.1772 -3.5238 -0.1093
 6812SOL    HW231899   0.818   4.487  16.834  1.3718  0.9813 -0.5772
 6813SOL     OW31900   0.725   4.459   8.823 -0.4220 -0.0445  0.3370
 6813SOL    HW131901   0.764   4.441   8.908  0.0164  2.6428  0.6974
 6813SOL    HW231902   0.644   4.411   8.841 -0.3091  0.0897  1.1707
 6814SOL     OW31903   2.412   1.527  15.413 -0.3775  0.5495 -0.0194
 6814SOL    HW131904   2.398   1.536  15.507  0.3644 -4.0309  0.5311
 6814SOL    HW231905   2.347   1.460  15.390 -0.9331  1.2257 -0.4168
 6815SOL     OW31906   0.194   4.055   0.100 -0.1435 -0.3321 -0.4470
 6815SOL    HW131907   0.206   4.133   0.046 -0.2231  0.6756  0.9808
 6815SOL    HW231908   0.266   4.061   0.163 -0.1350  1.1023 -0.5970
 6816SOL     OW31909   1.596   0.060   6.210  0.2621  0.1926 -0.3321
 6816SOL    HW131910   1.505   0.047   6.238  0.7654  0.5884  1.4536
 6816SOL    HW231911   1.589   0.108   6.127  2.1700 -0.6125 -0.9548
 6817SOL     OW31912   0.992   0.889   6.500  0.0642  0.0699  0.0622
 6817SOL    HW131913   1.075   0.845   6.477  0.6531 -0.7115  3.7492
 6817SOL    HW231914   1.005   0.907   6.593  1.0583 -1.3113  0.2037
 6818SOL     OW31915   1.242   3.233   4.544  0.6342 -0.2901  0.1917
 6818SOL    HW131916   1.290   3.260   4.622  0.3196 -2.0718  1.0019
 6818SOL    HW231917   1.316   3.236   4.483  0.0570  0.0573 -0.4875
 6819SOL     OW31918   2.177   3.894   7.738  0.3208 -0.0392 -0.4344
 6819SOL    HW131919   2.109   3.836   7.773  0.5121 -0.0466 -0.0787
 6819SOL    HW231920   2.234   3.905   7.814 -2.5886 -0.8292  1.8590
 6820SOL     OW31921   0.303   1.538   7.812  0.2638  0.6368  0.0042
 6820SOL    HW131922   0.212   1.510   7.802  0.8461 -0.5547 -1.9551
 6820SOL    HW231923   0.326   1.473   7.879 -0.4730  0.4998  0.1328
 6821SOL     OW31924   2.210   4.206   2.241 -0.5586  0.3024 -0.6437
 6821SOL    HW131925   2.212   4.286   2.293 -0.9180 -0.7517  0.9933
 6821SOL    HW231926   2.280   4.222   2.178  1.5760 -1.7865  1.2075
 6822SOL     OW31927   4.546   3.174   2.346  0.1214 -0.1066 -0.2477
 6822SOL    HW131928   4.504   3.106   2.294  2.1642 -0.9503 -0.7814
 6822SOL    HW231929   4.634   3.141   2.364  0.7723  1.8106  0.1654
 6823SOL     OW31930   2.111   1.796  10.677  0.3709  0.5252 -0.2654
 6823SOL    HW131931   2.182   1.752  10.723  0.7858  0.3240 -1.1092
 6823SOL    HW231932   2.155   1.881  10.685 -1.5249  1.4978 -0.0336
 6824SOL     OW31933   0.667   3.664  12.907  0.2103 -0.0281  0.5611
 6824SOL    HW131934   0.740   3.718  12.878 -1.3227  1.9917  0.4342
 6824SOL    HW231935   0.678   3.590  12.848 -1.6607  0.1786 -0.0674
 6825SOL     OW31936   1.956   1.243   3.239 -0.2272  0.4828 -0.3341
 6825SOL    HW131937   1.934   1.150   3.236  1.7291  0.0008  0.0029
 6825SOL    HW231938   1.870   1.279   3.216  0.3019  1.1828 -1.2050
 6826SOL     OW31939   2.873   0.222  10.689  0.4312  1.0139 -0.3120
 6826SOL    HW131940   2.875   0.280  10.764 -0.5185 -0.7291  1.0521
 6826SOL    HW231941   2.884   0.287  10.619 -0.0420  0.8211 -0.5693
 6827SOL     OW31942   4.294   1.488   5.069  0.1660  0.6743  0.8020
 6827SOL    HW131943   4.239   1.522   5.139  0.7588  0.8072  1.2037
 6827SOL    HW231944   4.370   1.453   5.116  1.1975  2.0173  0.1368
 6828SOL     OW31945   4.679   2.028  14.371 -0.3647  0.6886 -0.3697
 6828SOL    HW131946   4.612   2.053  14.435  0.2525 -2.7941  1.6483
 6828SOL    HW231947   4.618   1.992  14.306  2.5636 -1.4732 -1.9235
 6829SOL     OW31948   3.135   3.342   4.081 -0.0682  0.6188 -0.3612
 6829SOL    HW131949   3.105   3.265   4.130 -2.8180  0.7322 -1.8656
 6829SOL    HW231950   3.121   3.318   3.990  0.1778  0.1387 -0.2720
 6830SOL     OW31951   1.938   0.780   8.944  0.5744 -0.1986  0.1395
 6830SOL    HW131952   1.984   0.849   8.993 -0.4817 -1.4545  2.9173
 6830SOL    HW231953   2.007   0.715   8.958  0.3129 -0.5884 -0.4232
 6831SOL     OW31954   2.844   4.282   6.322  0.2101  0.1223 -0.2763
 6831SOL    HW131955   2.865   4.272   6.415  2.5665  0.4766 -0.7667
 6831SOL    HW231956   2.830   4.376   6.325  0.4262  0.1574 -0.3517
 6832SOL     OW31957   3.298   0.215   2.201 -0.1687  0.2820 -0.3401
 6832SOL    HW131958   3.318   0.277   2.131  2.7930  0.7685  0.9061
 6832SOL    HW231959   3.385   0.174   2.209  0.4753  1.8454  0.7638
 6833SOL     OW31960   0.608   4.429   7.822 -0.0668  0.4926  0.5557
 6833SOL    HW131961   0.588   4.338   7.802 -0.2399  0.3196  1.4934
 6833SOL    HW231962   0.521   4.462   7.800  0.0209 -0.3140 -0.9402
 6834SOL     OW31963   1.990   3.914  12.888  0.5440 -0.0832 -0.4834
 6834SOL    HW131964   2.003   3.856  12.963  0.9743 -0.6525 -1.0062
 6834SOL    HW231965   2.057   3.881  12.829  1.5969 -2.1304  1.8445
 6835SOL     OW31966   3.414   2.881   8.553  0.1669  0.9902  0.2295
 6835SOL    HW131967   3.456   2.820   8.614 -1.6661 -2.0936 -1.6282
 6835SOL    HW231968   3.481   2.934   8.509  1.2066 -0.8150 -0.3691
 6836SOL     OW31969   3.865   2.503   3.314 -0.4095  0.0475  0.4352
 6836SOL    HW131970   3.817   2.570   3.360 -2.1029  0.1723 -1.4985
 6836SOL    HW231971   3.957   2.526   3.327 -0.5000  0.8527 -0.3633
 6837SOL     OW31972   3.611   0.871  17.017  0.2249  0.0066 -0.3351
 6837SOL    HW131973   3.573   0.868  17.105  1.0956 -1.1184 -0.0051
 6837SOL    HW231974   3.702   0.898  17.032  0.3830 -0.7002 -0.0402
 6838SOL     OW31975   3.862   1.236   7.428  0.6107 -0.5229  0.5499
 6838SOL    HW131976   3.901   1.205   7.347  1.3246  3.0133 -0.4678
 6838SOL    HW231977   3.879   1.166   7.491 -1.3324 -1.9453 -0.5204
 6839SOL     OW31978   3.056   3.706   4.520  0.1723 -0.2440  0.7222
 6839SOL    HW131979   3.141   3.750   4.530 -0.5274  1.2769 -0.1087
 6839SOL    HW231980   2.994   3.760   4.472 -0.0764  0.4582  1.8412
 6840SOL     OW31981   0.655   0.312  14.530 -0.1153 -0.0139  0.1252
 6840SOL    HW131982   0.748   0.317  14.508  0.2253 -3.0318  0.8868
 6840SOL    HW231983   0.641   0.395  14.575 -0.2754 -0.3265  0.6565
 6841SOL     OW31984   4.595   1.954   9.183 -0.4140  0.1284  0.8243
 6841SOL    HW131985   4.668   1.937   9.243  1.5330 -1.4576 -1.9712
 6841SOL    HW231986   4.539   1.878   9.201 -2.0522  1.1220 -0.1459
 6842SOL     OW31987   1.753   2.641   7.509 -0.1526  0.8832  0.0817
 6842SOL    HW131988   1.723   2.637   7.600 -0.4936 -3.3440 -0.2009
 6842SOL    HW231989   1.818   2.571   7.511  0.9243  1.9493  2.2818
 6843SOL     OW31990   3.797   1.835   3.421 -0.2035  0.4065  0.0567
 6843SOL    HW131991   3.783   1.772   3.491  1.0911  0.3121  0.2217
 6843SOL    HW231992   3.853   1.781   3.366  0.0386  1.8527 -1.1238
 6844SOL     OW31993   2.647   3.356   6.443  0.0916  0.0175  0.0687
 6844SOL    HW131994   2.722   3.308   6.407  0.9232 -0.1786  2.0213
 6844SOL    HW231995   2.691   3.437   6.468  2.2165 -0.6029 -1.6036
 6845SOL     OW31996   3.212   1.928   6.713  0.2512 -0.0967 -0.3120
 6845SOL    HW131997   3.180   1.861   6.774  1.0023  0.2158  0.4245
 6845SOL    HW231998   3.132   1.982   6.717  0.8114  0.7623 -0.7857
 6846SOL     OW31999   4.336   1.750   7.570 -0.1706 -0.4574 -0.0179
 6846SOL    HW132000   4.426   1.783   7.563  0.5443 -2.0225  1.6874
 6846SOL    HW232001   4.291   1.819   7.523  0.8699  0.3353  0.1490
 6847SOL     OW32002   0.715   2.113   4.236  0.3409  0.1300  0.0272
 6847SOL    HW132003   0.810   2.113   4.251  0.6781  1.0719 -2.1424
 6847SOL    HW232004   0.688   2.200   4.267  1.3481  0.5134 -0.1720
 6848SOL     OW32005   2.901   0.089   0.509 -0.0828  0.3966 -0.3978
 6848SOL    HW132006   2.989   0.072   0.475 -0.5195  2.1727 -2.3937
 6848SOL    HW232007   2.923   0.052   0.595  1.9142  0.6993 -0.7819
 6849SOL     OW32008   3.871   2.126   4.853  0.5855 -0.1424 -0.1840
 6849SOL    HW132009   3.870   2.119   4.757  0.7086  1.2703 -0.2880
 6849SOL    HW232010   3.784   2.091   4.876  0.9207 -0.3690  0.7376
 6850SOL     OW32011   4.373   3.709   9.006  0.2151  0.8468 -0.2649
 6850SOL    HW132012   4.459   3.744   9.028  0.0969 -0.0431  1.5945
 6850SOL    HW232013   4.394   3.644   8.938  0.3858  1.3444 -0.6900
 6851SOL     OW32014   0.217   0.018   2.558 -0.0677 -0.0879 -0.1268
 6851SOL    HW132015   0.169   0.096   2.530 -0.7205 -0.1580  0.7746
 6851SOL    HW232016   0.297   0.025   2.506 -0.6786 -0.8336 -1.1695
 6852SOL     OW32017   2.842   2.357   7.940  1.1398 -0.2843  0.3940
 6852SOL    HW132018   2.756   2.390   7.913  1.5940  0.5366 -0.0567
 6852SOL    HW232019   2.885   2.341   7.856 -0.3259 -1.8945 -0.0579
 6853SOL     OW32020   2.531   3.470  14.264 -0.3282 -0.2333 -0.0766
 6853SOL    HW132021   2.492   3.475  14.177  3.9577  1.4099 -1.8827
 6853SOL    HW232022   2.489   3.544  14.309  0.7026  0.1921  0.1950
 6854SOL     OW32023   3.718   0.324  10.586 -0.3982  0.1581  0.4690
 6854SOL    HW132024   3.673   0.288  10.509 -1.7405  1.2354  0.7431
 6854SOL    HW232025   3.659   0.392  10.620 -1.2394  0.1728 -0.9644
 6855SOL     OW32026   2.113   1.361   5.902 -0.0927 -0.0618 -0.0765
 6855SOL    HW132027   2.125   1.434   5.841 -1.2110 -0.7095 -1.0544
 6855SOL    HW232028   2.020   1.361   5.925  0.0531 -0.3887  0.5117
 6856SOL     OW32029   4.297   1.290  16.386  0.4810  0.0800  0.1750
 6856SOL    HW132030   4.334   1.242  16.460  0.8473  0.1082  0.0110
 6856SOL    HW232031   4.349   1.370  16.374 -0.1461  0.4699  0.0748
 6857SOL     OW32032   2.433   0.363   2.971 -0.1302 -0.0270  0.1392
 6857SOL    HW132033   2.496   0.406   2.914  0.7383  2.5683  3.0859
 6857SOL    HW232034   2.481   0.282   2.989  0.6891  0.1816 -1.1612
 6858SOL     OW32035   1.285   4.577   8.723  0.3688  0.2091  0.0630
 6858SOL    HW132036   1.303   4.656   8.775 -2.7019  1.3399 -0.6197
 6858SOL    HW232037   1.373   4.566   8.688  0.7961 -0.1615  1.2341
 6859SOL     OW32038   4.478   0.628  13.471  0.5555 -0.1843 -0.6775
 6859SOL    HW132039   4.500   0.538  13.496 -0.8315 -0.1327  0.7358
 6859SOL    HW232040   4.433   0.650  13.553  1.0711 -1.0918 -0.1406
 6860SOL     OW32041   0.717   0.919  15.449  0.0591  0.4624  0.4093
 6860SOL    HW132042   0.677   0.850  15.396  1.5194 -0.2564  0.2483
 6860SOL    HW232043   0.806   0.924  15.415  0.3544 -2.1850  0.7368
 6861SOL     OW32044   0.561   4.088  11.491 -0.4295  0.2519  0.2346
 6861SOL    HW132045   0.609   4.007  11.476 -2.3716 -0.8705  0.0341
 6861SOL    HW232046   0.482   4.048  11.527  1.1306 -1.3529  1.8763
 6862SOL     OW32047   4.116   2.806   9.865  0.4671 -0.1146  0.4630
 6862SOL    HW132048   4.068   2.787   9.946  0.5842 -1.7933  0.1189
 6862SOL    HW232049   4.067   2.885   9.844  0.1044  0.1640  2.2998
 6863SOL     OW32050   4.160   0.926  11.805 -0.3949  0.4468 -0.2216
 6863SOL    HW132051   4.076   0.966  11.784 -0.1412  0.4026 -1.3368
 6863SOL    HW232052   4.208   0.924  11.722 -1.9858  2.6079 -1.2163
 6864SOL     OW32053   4.642   0.536   8.082  0.1068 -0.4725  0.6336
 6864SOL    HW132054   4.589   0.456   8.084 -0.5035 -0.0227  1.9983
 6864SOL    HW232055   4.583   0.609   8.101 -0.5184 -0.6214 -0.7150
 6865SOL     OW32056   0.129   4.618   5.267 -0.3968 -0.3849  1.0913
 6865SOL    HW132057   0.112   4.634   5.174 -2.4396  0.0135  1.5216
 6865SOL    HW232058   0.104   4.526   5.273  1.7304 -1.1067 -0.9963
 6866SOL     OW32059   3.866   0.415   7.841  0.2224  0.4037 -0.3036
 6866SOL    HW132060   3.870   0.467   7.760 -0.1926 -0.3983 -0.8343
 6866SOL    HW232061   3.774   0.420   7.867  1.2760  1.3665  3.2664
 6867SOL     OW32062   4.665   4.184   1.510  0.0036  0.2228  0.0553
 6867SOL    HW132063   4.663   4.123   1.436 -0.0363  1.3804 -0.8849
 6867SOL    HW232064   4.677   4.119   1.580 -1.8791 -1.0314 -0.7733
 6868SOL     OW32065   1.983   1.131   5.342 -0.1245  0.7121 -0.0324
 6868SOL    HW132066   1.941   1.177   5.414 -0.3023 -0.4190  0.5815
 6868SOL    HW232067   1.962   1.180   5.262  0.3035  0.6084 -0.2127
 6869SOL     OW32068   2.098   1.988  14.989 -0.0854 -0.1425  0.2616
 6869SOL    HW132069   2.120   1.902  14.952  1.7930  0.8403 -0.9024
 6869SOL    HW232070   2.163   2.009  15.056 -0.2895 -1.3627  0.8558
 6870SOL     OW32071   3.946   2.742  14.731 -0.3348 -0.5656 -0.2499
 6870SOL    HW132072   3.876   2.785  14.682  0.1032 -0.5583 -0.8682
 6870SOL    HW232073   3.929   2.658  14.687  1.7377 -0.8578 -0.4979
 6871SOL     OW32074   0.821   1.929  10.044 -0.1286 -0.1719 -0.4810
 6871SOL    HW132075   0.863   1.960   9.964 -1.6636  2.7483 -0.1595
 6871SOL    HW232076   0.893   1.923  10.107 -1.1081  0.7705  0.7195
 6872SOL     OW32077   0.653   0.680  12.464 -0.1937  0.6476 -0.1125
 6872SOL    HW132078   0.728   0.683  12.524 -0.2725 -0.2722  0.0306
 6872SOL    HW232079   0.591   0.661  12.534  1.7161 -1.9660  0.9000
 6873SOL     OW32080   3.150   0.297   4.513  0.4609 -0.2286 -0.0438
 6873SOL    HW132081   3.063   0.320   4.480  0.1293 -0.8818  0.3914
 6873SOL    HW232082   3.156   0.204   4.492  2.1839  0.2046 -1.5266
 6874SOL     OW32083   2.461   2.825   7.894  0.5334  0.1385  0.3227
 6874SOL    HW132084   2.483   2.784   7.977 -0.2172 -2.6297 -0.8284
 6874SOL    HW232085   2.445   2.914   7.923  1.0843  1.2805 -2.9289
 6875SOL     OW32086   3.408   1.596   9.887 -0.4196  0.2471  0.1128
 6875SOL    HW132087   3.419   1.510   9.928 -2.8130  0.0960  0.4221
 6875SOL    HW232088   3.457   1.560   9.813 -0.2889  0.0958  0.2722
 6876SOL     OW32089   4.450   1.245  13.682 -0.0545  0.1509  0.0194
 6876SOL    HW132090   4.443   1.209  13.593  0.8714 -0.0134  0.0188
 6876SOL    HW232091   4.361   1.245  13.718 -0.1345  1.8390 -0.1548
 6877SOL     OW32092   3.962   3.262   0.665 -0.0624 -0.3280  0.2185
 6877SOL    HW132093   4.008   3.340   0.697 -2.2900  0.4444  1.6343
 6877SOL    HW232094   3.897   3.257   0.736 -1.1849  1.3955 -0.6958
 6878SOL     OW32095   1.322   3.913  12.393 -0.0588  0.8356  0.2936
 6878SOL    HW132096   1.354   3.969  12.464  0.3148 -0.4081  1.1101
 6878SOL    HW232097   1.262   3.966  12.340 -2.4180 -0.2853  1.8682
 6879SOL     OW32098   3.302   2.744  10.680 -0.0074  0.3221  0.0563
 6879SOL    HW132099   3.344   2.696  10.752  0.6479 -0.5232 -0.8810
 6879SOL    HW232100   3.377   2.745  10.621  0.6210  1.4192  0.8715
 6880SOL     OW32101   3.259   0.282   7.892  0.5209  0.1496  0.5547
 6880SOL    HW132102   3.278   0.373   7.913  0.1757  0.2290  0.5234
 6880SOL    HW232103   3.266   0.282   7.797  1.5495 -2.0794  0.6311
 6881SOL     OW32104   1.022   0.676   2.168  0.0351  0.2181  0.0963
 6881SOL    HW132105   0.985   0.633   2.091  0.6533  2.3433 -1.3942
 6881SOL    HW232106   0.950   0.683   2.230 -1.4190  0.9670 -1.6812
 6882SOL     OW32107   3.416   3.412   1.999  0.4922 -0.1605  0.1705
 6882SOL    HW132108   3.444   3.389   1.910  1.0510  1.7580 -0.1566
 6882SOL    HW232109   3.475   3.358   2.051  3.5117  1.8484 -1.1607
 6883SOL     OW32110   1.113   3.306  13.413 -0.1890 -0.1021 -0.0662
 6883SOL    HW132111   1.127   3.327  13.320 -1.7009 -1.0711 -0.5023
 6883SOL    HW232112   1.189   3.249  13.427  0.1114  0.1247 -0.7503
 6884SOL     OW32113   0.877   0.410   6.888 -0.0310 -0.2516 -0.6752
 6884SOL    HW132114   0.812   0.431   6.956  2.0216  1.5937  0.7043
 6884SOL    HW232115   0.828   0.355   6.827 -1.7932  1.1313 -0.5011
 6885SOL     OW32116   0.157   1.168   2.823  0.0453  0.3582 -0.1772
 6885SOL    HW132117   0.191   1.143   2.737  1.8472  0.6212  0.4607
 6885SOL    HW232118   0.231   1.227   2.838 -0.7839  1.1470  0.7960
 6886SOL     OW32119   2.186   0.040  12.013 -0.0598 -0.1084 -0.3779
 6886SOL    HW132120   2.192   4.720  12.098 -1.1767  1.6500  0.6065
 6886SOL    HW232121   2.270   0.077  11.988  0.2880  0.5057  1.6894
 6887SOL     OW32122   3.332   3.936  16.921 -0.0182 -0.1078 -0.7190
 6887SOL    HW132123   3.381   4.001  16.871  0.7944 -0.4662 -0.3883
 6887SOL    HW232124   3.315   3.877  16.847 -2.3250 -0.7512  0.3282
 6888SOL     OW32125   1.854   2.947   4.504  0.2511  0.0412  0.5689
 6888SOL    HW132126   1.923   3.012   4.485 -0.9491  1.1082 -0.1828
 6888SOL    HW232127   1.846   2.900   4.421  2.8951  2.0485 -0.8403
 6889SOL     OW32128   4.689   1.763   6.054 -0.1490  0.2811 -0.5475
 6889SOL    HW132129   4.708   1.694   6.118  0.1185 -0.3966 -1.3433
 6889SOL    HW232130   0.042   1.820   6.059  0.0431 -0.1246  1.0386
 6890SOL     OW32131   3.124   0.813   9.892  0.4942 -0.2739  0.3943
 6890SOL    HW132132   3.039   0.796   9.933  0.0094 -0.5308 -0.6986
 6890SOL    HW232133   3.179   0.858   9.956  1.3418 -1.5420  0.5655
 6891SOL     OW32134   1.133   3.279   2.438  0.7492  0.6480 -0.2565
 6891SOL    HW132135   1.120   3.287   2.344 -0.3666 -1.0326 -0.2433
 6891SOL    HW232136   1.227   3.283   2.454  0.8998  0.8274 -1.1853
 6892SOL     OW32137   1.680   1.240   5.976  0.2104  0.4658  0.5331
 6892SOL    HW132138   1.618   1.249   5.905 -0.6507 -0.0914  1.2138
 6892SOL    HW232139   1.756   1.203   5.931 -1.3078  0.2871 -1.8510
 6893SOL     OW32140   0.293   4.256   1.834 -0.1436  0.0948 -0.2614
 6893SOL    HW132141   0.375   4.207   1.832  0.4166  1.0077  0.2536
 6893SOL    HW232142   0.324   4.331   1.783 -1.0110  1.6422  1.4708
 6894SOL     OW32143   1.005   3.733  17.367  0.5329 -0.0141 -0.7369
 6894SOL    HW132144   1.051   3.789  17.430 -0.4084  0.7987 -0.7677
 6894SOL    HW232145   1.066   3.748  17.295  1.6405 -1.0476 -0.0157
 6895SOL     OW32146   2.703   4.555   2.251  0.0382 -1.1231  0.9244
 6895SOL    HW132147   2.713   4.612   2.175  0.3476 -0.1968  1.6666
 6895SOL    HW232148   2.781   4.499   2.256 -0.0835 -1.2872  1.0128
 6896SOL     OW32149   0.168   1.025   8.548  0.1330 -0.0071  0.2486
 6896SOL    HW132150   0.203   1.036   8.459  1.1717 -0.4481  0.6001
 6896SOL    HW232151   0.076   1.014   8.526  0.6846  0.1508 -2.2338
 6897SOL     OW32152   1.652   3.489   7.089 -0.5289 -0.8785 -0.0866
 6897SOL    HW132153   1.642   3.561   7.027  1.4078 -0.9641 -0.4817
 6897SOL    HW232154   1.733   3.518   7.131 -0.4138 -3.2552  1.3143
 6898SOL     OW32155   2.219   1.552   5.750 -0.3474 -0.6165 -0.0007
 6898SOL    HW132156   2.174   1.503   5.681 -2.5777  1.0773  0.2383
 6898SOL    HW232157   2.166   1.631   5.759  0.0487 -0.3631  0.1179
 6899SOL     OW32158   3.763   2.548   7.434  0.4960 -0.1086 -0.6805
 6899SOL    HW132159   3.685   2.561   7.379 -0.1283  1.0618  0.4909
 6899SOL    HW232160   3.728   2.500   7.509  0.4644 -0.1838 -0.7437
 6900SOL     OW32161   2.180   2.051   9.608 -0.3814 -0.7881 -0.1994
 6900SOL    HW132162   2.172   2.140   9.643  1.4207 -0.7010 -0.0009
 6900SOL    HW232163   2.266   2.042   9.649 -0.2379 -0.0250 -0.3266
 6901SOL     OW32164   1.068   3.917   8.936 -0.0231 -0.0648  0.2983
 6901SOL    HW132165   1.029   3.965   8.862 -1.6742 -1.5630  0.2038
 6901SOL    HW232166   1.153   3.895   8.898  0.2784 -0.3296  1.1476
 6902SOL     OW32167   3.344   3.766  11.246 -0.3476 -0.0961 -0.1229
 6902SOL    HW132168   3.416   3.824  11.222 -0.6907  0.7671  0.9155
 6902SOL    HW232169   3.404   3.695  11.271  1.0099  1.6017  1.4866
 6903SOL     OW32170   4.509   1.176   1.949 -0.0129 -0.1033  0.0098
 6903SOL    HW132171   4.588   1.228   1.930 -0.3202 -0.3060 -1.8738
 6903SOL    HW232172   4.517   1.169   2.044  1.8366 -1.2795 -0.2250
 6904SOL     OW32173   3.804   1.967   5.770 -0.5513 -0.0561 -0.0307
 6904SOL    HW132174   3.750   1.958   5.848  3.4388 -1.7569  2.5649
 6904SOL    HW232175   3.882   1.998   5.816  0.4224  0.5527 -2.0762
 6905SOL     OW32176   0.728   3.474  10.275  0.7048  0.2551 -0.0123
 6905SOL    HW132177   0.768   3.530  10.341  0.6654 -1.0979  1.1594
 6905SOL    HW232178   0.697   3.409  10.338 -0.6258  2.5056  1.6261
 6906SOL     OW32179   1.648   2.343   8.207  0.1161  0.4847  0.1254
 6906SOL    HW132180   1.612   2.409   8.267  1.5672  1.3578  0.0465
 6906SOL    HW232181   1.579   2.278   8.218  1.3143 -0.8195 -0.1088
 6907SOL     OW32182   1.634   4.378  17.549 -0.7048 -0.3915 -0.4074
 6907SOL    HW132183   1.655   4.294  17.590 -1.4217 -0.5816 -0.4259
 6907SOL    HW232184   1.719   4.406  17.517 -0.4386 -0.5233  0.1902
 6908SOL     OW32185   3.760   3.040   6.152  0.2323  0.5485  0.2368
 6908SOL    HW132186   3.684   3.017   6.100 -1.3419  0.1763  2.6766
 6908SOL    HW232187   3.725   3.113   6.204  0.0055  0.4059  0.2824
 6909SOL     OW32188   1.020   2.045   5.317  0.1115 -0.0325  0.1266
 6909SOL    HW132189   0.994   2.006   5.233 -1.3229  1.3883 -0.0903
 6909SOL    HW232190   0.990   2.135   5.309 -3.4839 -1.4797 -2.3074
 6910SOL     OW32191   4.173   1.668   2.774  1.0995 -0.2034 -0.3018
 6910SOL    HW132192   4.248   1.693   2.828  1.8566  1.0946 -1.9503
 6910SOL    HW232193   4.139   1.754   2.748 -0.1064 -0.4144  0.6028
 6911SOL     OW32194   2.258   3.998   3.966 -0.2647 -0.2907  0.5867
 6911SOL    HW132195   2.193   4.043   3.912  0.0536 -1.1151 -0.4688
 6911SOL    HW232196   2.338   4.042   3.937 -0.4944 -0.5286 -0.3991
 6912SOL     OW32197   1.719   2.693   5.162  0.2207  0.2855  0.1546
 6912SOL    HW132198   1.658   2.628   5.127 -0.3804 -0.3373  2.3579
 6912SOL    HW232199   1.720   2.759   5.093  1.7552 -0.7275 -0.8035
 6913SOL     OW32200   3.700   2.342   9.789 -0.0132 -0.1993  0.0038
 6913SOL    HW132201   3.694   2.299   9.875  1.0920 -2.2677 -0.9382
 6913SOL    HW232202   3.627   2.403   9.794  0.5384  0.3107  1.6929
 6914SOL     OW32203   0.517   3.036   5.321  0.6480  0.2555 -0.0795
 6914SOL    HW132204   0.426   3.046   5.296  0.9835  4.1308  0.2563
 6914SOL    HW232205   0.527   2.942   5.338  0.3058  0.2549  0.1173
 6915SOL     OW32206   3.726   1.314   1.994  0.3941 -0.3434 -0.5135
 6915SOL    HW132207   3.751   1.222   1.991 -1.8464 -0.8921 -2.3618
 6915SOL    HW232208   3.711   1.326   1.900  3.8379 -0.6420 -1.0892
 6916SOL     OW32209   1.977   1.749   8.579  0.0882 -0.0151  0.1847
 6916SOL    HW132210   1.974   1.655   8.560  0.6506 -0.1086  0.5856
 6916SOL    HW232211   2.018   1.799   8.507 -1.6682  0.4511 -0.4888
 6917SOL     OW32212   0.437   4.212  15.044 -0.1807  0.5533  0.3477
 6917SOL    HW132213   0.477   4.131  15.012  0.3976  0.9401  0.1002
 6917SOL    HW232214   0.485   4.217  15.127  2.7835  2.2676 -1.4565
 6918SOL     OW32215   0.271   3.444   2.631  0.4794 -0.9497  0.8023
 6918SOL    HW132216   0.248   3.385   2.703  0.5954 -1.5228  0.3642
 6918SOL    HW232217   0.262   3.387   2.555  0.8807  0.2269 -0.1282
 6919SOL     OW32218   1.983   2.175   7.643  0.4337 -0.3961  0.3647
 6919SOL    HW132219   1.930   2.095   7.639 -1.0498  0.4817  2.2260
 6919SOL    HW232220   1.947   2.225   7.717 -0.3368 -0.0617 -0.2286
 6920SOL     OW32221   1.810   3.750   3.491  0.1857 -0.0115  0.0811
 6920SOL    HW132222   1.790   3.657   3.482  1.3548 -0.5977  3.6462
 6920SOL    HW232223   1.826   3.766   3.398  1.7394  3.1414  0.8979
 6921SOL     OW32224   1.997   0.524   1.310  0.4677  0.6179  0.0345
 6921SOL    HW132225   2.004   0.429   1.318  0.6253  0.8403  2.4201
 6921SOL    HW232226   1.946   0.546   1.387  0.5623 -0.4906  0.4163
 6922SOL     OW32227   3.821   2.007   9.938 -0.5908 -1.4603  0.6550
 6922SOL    HW132228   3.757   2.059   9.987 -1.2897 -1.4423 -0.2678
 6922SOL    HW232229   3.810   1.920   9.977 -2.3095 -1.5824 -0.0780
 6923SOL     OW32230   2.362   0.486   3.644 -0.1805 -0.1485 -1.0038
 6923SOL    HW132231   2.406   0.537   3.576 -0.4107  0.1661 -0.9150
 6923SOL    HW232232   2.427   0.480   3.714 -0.1360  0.0587 -1.0282
 6924SOL     OW32233   4.584   1.482   9.072  0.5470 -0.3544 -0.7803
 6924SOL    HW132234   4.644   1.543   9.115 -0.8630 -0.7465  1.7011
 6924SOL    HW232235   4.640   1.407   9.052 -0.3235 -1.0708 -0.4933
 6925SOL     OW32236   3.038   1.726  14.544 -0.3763  0.3483 -0.0118
 6925SOL    HW132237   2.968   1.665  14.522  0.7302 -1.3119  1.0306
 6925SOL    HW232238   2.984   1.798  14.575  0.7673  1.4729 -0.6360
 6926SOL     OW32239   3.542   2.561   9.863  0.2245  0.4586  0.0532
 6926SOL    HW132240   3.631   2.582   9.893  0.7688 -1.2214 -0.3777
 6926SOL    HW232241   3.504   2.553   9.951  2.5892  1.7482  1.2000
 6927SOL     OW32242   3.377   3.113   5.493 -0.5151  0.4438 -0.1016
 6927SOL    HW132243   3.412   3.104   5.582  1.4157  0.8247 -0.8189
 6927SOL    HW232244   3.309   3.046   5.487  0.6568 -0.7233 -0.3744
 6928SOL     OW32245   4.648   2.702   6.088 -0.9737 -0.0457 -0.1243
 6928SOL    HW132246   4.676   2.716   6.179  1.1403  1.9284 -1.1033
 6928SOL    HW232247   4.583   2.771   6.072 -1.4258 -0.6216 -0.7526
 6929SOL     OW32248   1.181   4.285   5.066 -0.2483 -0.1843  0.1452
 6929SOL    HW132249   1.239   4.307   4.993 -1.0675 -0.7731 -0.6922
 6929SOL    HW232250   1.115   4.226   5.031  1.7035 -1.8185 -0.7891
 6930SOL     OW32251   1.645   2.849   5.678  0.1001 -0.0724 -0.2861
 6930SOL    HW132252   1.736   2.836   5.706 -0.2183 -1.9139 -0.1099
 6930SOL    HW232253   1.663   2.853   5.584  2.7445  2.7039  0.3348
 6931SOL     OW32254   3.281   1.893   6.222 -0.5820 -0.5609  0.6381
 6931SOL    HW132255   3.247   1.813   6.263 -0.8917  0.0467  1.5535
 6931SOL    HW232256   3.209   1.955   6.215 -0.3885 -0.8365 -3.8101
 6932SOL     OW32257   2.450   2.898   4.978 -0.2783 -0.5304  0.0516
 6932SOL    HW132258   2.520   2.963   4.965 -0.7798  0.4875  2.3495
 6932SOL    HW232259   2.415   2.910   5.066 -0.4539  0.2493 -0.1179
 6933SOL     OW32260   1.892   1.115  15.609  0.4012  0.3234 -0.0181
 6933SOL    HW132261   1.895   1.143  15.517 -0.5998  1.6097  0.3359
 6933SOL    HW232262   1.945   1.179  15.658  1.3928 -0.1933 -0.4197
 6934SOL     OW32263   3.002   3.864   4.906 -0.0401  0.2134 -0.7524
 6934SOL    HW132264   2.941   3.880   4.978  0.2088 -1.4616 -0.1743
 6934SOL    HW232265   2.957   3.791   4.863 -1.0551  0.7939 -0.6855
 6935SOL     OW32266   3.389   2.953  13.476  0.0189  0.2865 -0.3968
 6935SOL    HW132267   3.439   2.983  13.552  0.4589 -0.1706 -0.5034
 6935SOL    HW232268   3.341   3.034  13.460 -0.1326  0.6424  1.8966
 6936SOL     OW32269   1.334   1.679   2.906  0.3738 -0.1862 -0.5146
 6936SOL    HW132270   1.324   1.726   2.823 -0.0354 -0.0663 -0.3969
 6936SOL    HW232271   1.428   1.691   2.918  0.3768 -1.8588  1.2148
 6937SOL     OW32272   1.317   3.114  13.424  0.0326 -0.3766 -0.5637
 6937SOL    HW132273   1.359   3.089  13.506  0.7231 -0.0579 -0.8243
 6937SOL    HW232274   1.395   3.146  13.379  1.0088 -2.3187 -0.2154
 6938SOL     OW32275   4.525   1.679   4.999  0.6377 -0.0929  0.2997
 6938SOL    HW132276   4.498   1.660   4.910 -2.2734 -0.7551  1.3136
 6938SOL    HW232277   4.449   1.660   5.054 -0.6360 -2.2546 -2.2486
 6939SOL     OW32278   3.320   1.764   3.537  0.6922  0.4884 -0.3411
 6939SOL    HW132279   3.302   1.703   3.465 -1.3406  0.0432  0.5440
 6939SOL    HW232280   3.374   1.827   3.489  1.6239 -0.0339  0.0091
 6940SOL     OW32281   4.091   0.142  17.162  0.2449 -0.1153  0.0921
 6940SOL    HW132282   4.088   0.077  17.233  0.6420  0.2818  0.4716
 6940SOL    HW232283   3.998   0.147  17.137 -0.3554 -1.2274  2.0942
 6941SOL     OW32284   2.438   3.326   1.776 -0.3643 -0.2477  0.0088
 6941SOL    HW132285   2.370   3.393   1.769  1.1346  1.1727 -0.8229
 6941SOL    HW232286   2.480   3.343   1.692 -0.6910  0.5878  0.0164
 6942SOL     OW32287   4.356   4.013   6.316  0.7599 -0.6701  0.0186
 6942SOL    HW132288   4.285   3.959   6.280  1.5321 -1.5502 -0.2043
 6942SOL    HW232289   4.329   4.034   6.405  0.1173 -2.7160  0.3112
 6943SOL     OW32290   3.930   4.057   1.396  0.0879  0.4493 -0.3382
 6943SOL    HW132291   3.851   4.009   1.372  1.0439 -0.9795 -0.6317
 6943SOL    HW232292   3.906   4.144   1.366  1.2803  0.3496 -1.5876
 6944SOL     OW32293   0.014   1.824   5.595 -0.0397 -0.2684 -0.0625
 6944SOL    HW132294   4.674   1.780   5.652  1.1428  0.0150  1.4704
 6944SOL    HW232295   0.040   1.899   5.648 -1.4319  0.6237 -0.6459
 6945SOL     OW32296   3.523   1.292   6.205 -0.1296  0.4131 -0.6034
 6945SOL    HW132297   3.584   1.363   6.223  0.3771 -0.6999  2.0015
 6945SOL    HW232298   3.449   1.307   6.263 -0.0642  0.5658 -0.5610
 6946SOL     OW32299   1.435   0.344   2.871  0.1858 -0.1635 -0.0962
 6946SOL    HW132300   1.429   0.401   2.794  0.8225  0.1732  0.1029
 6946SOL    HW232301   1.470   0.267   2.827  2.1792  2.8804 -3.8642
 6947SOL     OW32302   0.885   1.785  15.930  0.0268 -0.3136  0.1626
 6947SOL    HW132303   0.854   1.814  16.016  1.2989  1.8959 -0.1286
 6947SOL    HW232304   0.965   1.836  15.919  0.4022 -1.4531 -2.4131
 6948SOL     OW32305   3.042   4.635   5.754  0.2731 -0.1006 -0.3028
 6948SOL    HW132306   2.950   4.657   5.771  0.4848  0.0356  0.6556
 6948SOL    HW232307   3.049   4.572   5.826  2.6325 -1.7296 -1.9668
 6949SOL     OW32308   4.467   3.857   4.606  0.0299  0.0152 -0.0644
 6949SOL    HW132309   4.464   3.906   4.688  0.4449  0.4121 -0.2861
 6949SOL    HW232310   4.392   3.805   4.636  0.7629 -0.3737  1.0926
 6950SOL     OW32311   3.418   3.828   2.700  0.4064 -0.3224 -0.4212
 6950SOL    HW132312   3.439   3.847   2.791 -3.0260 -1.2755  0.5831
 6950SOL    HW232313   3.457   3.741   2.695  0.3915 -0.2261 -2.2840
 6951SOL     OW32314   2.498   1.526   4.164 -0.6534 -0.7427 -0.3836
 6951SOL    HW132315   2.507   1.433   4.184 -1.8807 -0.4111  1.7188
 6951SOL    HW232316   2.476   1.565   4.249  2.1891 -2.2241  1.0007
 6952SOL     OW32317   3.723   4.261   5.699  0.4784 -0.0773  0.0742
 6952SOL    HW132318   3.761   4.346   5.717 -0.3766  0.4686 -0.7073
 6952SOL    HW232319   3.802   4.217   5.669 -1.1176  0.0542 -4.2472
 6953SOL     OW32320   0.889   2.631   2.358 -1.0263  0.6646 -0.6358
 6953SOL    HW132321   0.952   2.703   2.353 -0.6904  0.2117 -2.9503
 6953SOL    HW232322   0.813   2.674   2.398 -0.1326  2.9587 -1.4162
 6954SOL     OW32323   3.058   1.945   1.987  0.4672  0.5313 -0.3592
 6954SOL    HW132324   3.142   1.938   1.941  0.3601  1.1145 -0.6342
 6954SOL    HW232325   3.071   1.873   2.050 -2.4419  0.8259  0.5565
 6955SOL     OW32326   4.477   4.340   1.658  0.2871  0.2305 -0.4370
 6955SOL    HW132327   4.543   4.302   1.600  0.0880 -0.0653 -0.4735
 6955SOL    HW232328   4.516   4.427   1.663 -1.9019  1.1795  0.2489
 6956SOL     OW32329   3.112   0.862   3.214 -0.2553 -0.4485  0.2392
 6956SOL    HW132330   3.074   0.789   3.262  1.3032 -1.1369  0.4461
 6956SOL    HW232331   3.194   0.824   3.182  0.6451  0.4635  1.4528
 6957SOL     OW32332   0.275   3.934   2.942 -0.3339 -0.4204  0.0320
 6957SOL    HW132333   0.183   3.945   2.968 -0.1352  2.5891 -0.6120
 6957SOL    HW232334   0.296   4.026   2.929  0.6297 -0.3271  2.2022
 6958SOL     OW32335   0.719   0.215   1.550  0.9098  0.0920  0.2304
 6958SOL    HW132336   0.738   0.169   1.468 -0.8714  1.7691 -1.1026
 6958SOL    HW232337   0.756   0.153   1.613 -0.5871 -0.6257  0.3995
 6959SOL     OW32338   4.669   2.737   3.744  0.0155 -0.0020 -0.0256
 6959SOL    HW132339   4.690   2.803   3.679  1.8426 -0.2516  0.3107
 6959SOL    HW232340   4.667   2.658   3.691 -0.8278  0.1483 -0.2221
 6960SOL     OW32341   1.643   3.429   0.984  0.0029 -0.1787  0.3227
 6960SOL    HW132342   1.641   3.371   1.060  0.7983  0.2691  0.6788
 6960SOL    HW232343   1.734   3.420   0.957  0.0809  0.0503  0.5194
 6961SOL     OW32344   2.456   2.336   9.509 -0.0606  0.1885 -0.2527
 6961SOL    HW132345   2.452   2.425   9.542  3.0498 -0.0928  0.8328
 6961SOL    HW232346   2.442   2.282   9.587 -0.6551 -0.4131 -0.7657
 6962SOL     OW32347   1.081   4.673   4.304 -0.3507  0.1330  0.0975
 6962SOL    HW132348   1.151   4.634   4.252 -1.5621 -0.9515 -0.7194
 6962SOL    HW232349   1.104   0.040   4.285  1.6239  0.1901  2.7186
 6963SOL     OW32350   3.637   3.107   2.825  0.1011 -0.6918 -0.5357
 6963SOL    HW132351   3.637   3.012   2.817 -1.1459 -0.7714  0.2656
 6963SOL    HW232352   3.678   3.119   2.911 -1.1216 -2.8274  0.3628
 6964SOL     OW32353   2.916   4.610  14.574 -0.0913  0.6438  0.1752
 6964SOL    HW132354   2.925   4.606  14.670  0.7845 -0.0673  0.0660
 6964SOL    HW232355   2.952   4.523  14.556 -1.0614  0.1336  0.6735
 6965SOL     OW32356   2.470   3.619   7.978 -0.0368  0.1396 -0.2342
 6965SOL    HW132357   2.528   3.646   7.907 -0.0443 -0.2978 -0.4101
 6965SOL    HW232358   2.476   3.524   7.969  0.0291  0.2867 -1.7959
 6966SOL     OW32359   4.515   4.176  11.154 -0.4244  0.2376 -0.5134
 6966SOL    HW132360   4.567   4.256  11.148 -0.0544 -0.0265 -0.8745
 6966SOL    HW232361   4.489   4.175  11.062 -2.1470  1.3660 -0.0236
 6967SOL     OW32362   3.444   1.205   9.470 -0.1022 -0.2157 -0.1253
 6967SOL    HW132363   3.353   1.175   9.471  0.1413 -0.9703 -1.5741
 6967SOL    HW232364   3.482   1.119   9.455 -1.1021 -0.3925 -1.5883
 6968SOL     OW32365   0.585   3.235   2.680  0.2022  0.0686  0.2727
 6968SOL    HW132366   0.501   3.193   2.695 -0.0269  0.3964 -0.1116
 6968SOL    HW232367   0.643   3.158   2.678 -0.1720 -0.2138  0.4058
 6969SOL     OW32368   2.960   3.745   9.124 -0.3615 -0.0867  0.2395
 6969SOL    HW132369   2.920   3.794   9.052 -0.1218 -0.1039  0.0966
 6969SOL    HW232370   2.892   3.708   9.181  0.8166  1.2872  2.4897
 6970SOL     OW32371   0.408   3.331   8.449  0.0228  0.1716  0.1157
 6970SOL    HW132372   0.421   3.250   8.497 -0.5526 -1.7789 -2.9858
 6970SOL    HW232373   0.379   3.375   8.528  0.3788  0.6606 -0.0255
 6971SOL     OW32374   2.461   2.565   1.783 -0.2180 -0.1346 -0.3982
 6971SOL    HW132375   2.473   2.499   1.714 -3.0535  0.3959 -1.4148
 6971SOL    HW232376   2.388   2.616   1.747 -0.1963 -0.3700 -0.7812
 6972SOL     OW32377   0.840   1.301   4.433 -0.1939  0.1298  0.2750
 6972SOL    HW132378   0.763   1.333   4.386  0.9684  0.5949 -1.3199
 6972SOL    HW232379   0.908   1.349   4.385  0.9836 -1.1617  0.6481
 6973SOL     OW32380   4.416   0.884   4.959  0.1384  0.1409 -0.1054
 6973SOL    HW132381   4.413   0.789   4.967  1.2207  0.1197  0.1314
 6973SOL    HW232382   4.415   0.924   5.046  0.5810 -1.9744  0.8609
 6974SOL     OW32383   2.702   2.110   0.609 -0.8420 -0.1042  0.2745
 6974SOL    HW132384   2.679   2.037   0.667 -2.5909  1.9959  2.2485
 6974SOL    HW232385   2.694   2.060   0.528 -0.4592  0.3153 -0.0170
 6975SOL     OW32386   2.725   3.092   3.955 -1.0179 -0.4651 -0.0593
 6975SOL    HW132387   2.688   3.149   3.888 -2.2091 -1.0053  0.1304
 6975SOL    HW232388   2.811   3.131   3.969 -1.5291  0.3096  0.9600
 6976SOL     OW32389   3.787   0.711   0.299  0.2425 -0.4094 -0.0161
 6976SOL    HW132390   3.867   0.762   0.286 -1.2081  1.8019 -0.2762
 6976SOL    HW232391   3.819   0.633   0.344  0.0237 -1.4845 -1.7250
 6977SOL     OW32392   0.641   2.478   5.150  0.6407 -0.2704 -0.4874
 6977SOL    HW132393   0.552   2.447   5.136 -0.0877  2.5422 -2.1000
 6977SOL    HW232394   0.675   2.406   5.203  0.9158 -1.5485 -2.3911
 6978SOL     OW32395   0.998   3.268   6.962  0.9007  0.2528  0.8281
 6978SOL    HW132396   0.913   3.274   6.918  1.2946 -2.8573 -0.3667
 6978SOL    HW232397   0.980   3.317   7.042 -0.5826 -0.8816  1.1948
 6979SOL     OW32398   3.202   2.707   0.844 -0.1409 -0.0557 -0.0072
 6979SOL    HW132399   3.139   2.754   0.790 -0.0684  0.1897  0.1174
 6979SOL    HW232400   3.274   2.702   0.782  1.7031 -1.1779  2.2177
 6980SOL     OW32401   1.003   0.775  11.087 -0.0194  0.4789 -0.3708
 6980SOL    HW132402   1.042   0.703  11.036 -1.6887 -0.9882  0.4059
 6980SOL    HW232403   1.043   0.849  11.042 -1.5875  2.0706  0.8561
 6981SOL     OW32404   1.100   0.313   8.790 -0.0503  0.1231  0.2106
 6981SOL    HW132405   1.062   0.275   8.710 -0.0422  2.1082 -0.7314
 6981SOL    HW232406   1.046   0.257   8.847  0.6974 -0.0526  0.7400
 6982SOL     OW32407   0.504   4.380   6.332  0.2028 -0.0205 -0.3484
 6982SOL    HW132408   0.436   4.443   6.355  2.2552  1.9007  0.4820
 6982SOL    HW232409   0.585   4.431   6.333 -0.2467  0.6606  0.5727
 6983SOL     OW32410   1.852   1.603   3.149 -0.0004 -0.0046  0.5329
 6983SOL    HW132411   1.857   1.523   3.201 -0.3311  1.4388  2.8115
 6983SOL    HW232412   1.945   1.627   3.150 -0.3376  1.3110  2.2518
 6984SOL     OW32413   3.515   1.384   9.994 -0.1654 -0.6979  0.2766
 6984SOL    HW132414   3.581   1.366   9.927 -1.6020  1.1548 -1.6276
 6984SOL    HW232415   3.477   1.298  10.015  0.6455 -1.5774 -1.9430
 6985SOL     OW32416   3.451   2.299   3.077  0.5714 -0.0427 -0.0076
 6985SOL    HW132417   3.401   2.357   3.020  1.8267  0.0961 -0.9640
 6985SOL    HW232418   3.382   2.243   3.113  2.4616  0.4768  4.5116
 6986SOL     OW32419   3.997   4.172   8.590  0.1714  0.3150 -0.7129
 6986SOL    HW132420   3.923   4.233   8.588 -1.2136 -1.3621  0.0234
 6986SOL    HW232421   3.956   4.119   8.659 -0.9498  0.1087 -1.5424
 6987SOL     OW32422   2.839   2.821   3.922 -0.1223 -0.3658  0.1901
 6987SOL    HW132423   2.931   2.846   3.911  0.4470 -2.5451 -0.0581
 6987SOL    HW232424   2.798   2.908   3.919  1.0038  0.1453 -0.4118
 6988SOL     OW32425   0.636   2.119  17.222  0.2791  0.1038  0.6554
 6988SOL    HW132426   0.698   2.191  17.234  1.2835 -0.5938 -0.3412
 6988SOL    HW232427   0.633   2.115  17.126  3.0744  1.4772  0.5147
 6989SOL     OW32428   0.265   1.591   9.621 -0.4370  0.1990  0.1131
 6989SOL    HW132429   0.186   1.538   9.612 -0.0334 -0.3628 -0.0549
 6989SOL    HW232430   0.228   1.680   9.629 -0.8561  0.0054  0.3508
 6990SOL     OW32431   3.052   2.814   0.638 -0.4572 -0.3138  0.2660
 6990SOL    HW132432   2.996   2.885   0.666  0.8469  1.5178 -1.7666
 6990SOL    HW232433   2.998   2.735   0.635  1.9736 -2.0171  0.9172
 6991SOL     OW32434   1.852   3.340   9.398 -0.0332  0.1981 -0.3143
 6991SOL    HW132435   1.916   3.403   9.365  0.3045 -0.4010 -0.8075
 6991SOL    HW232436   1.807   3.312   9.319  2.9565 -0.8544 -1.6649
 6992SOL     OW32437   0.932   1.719   5.960 -0.3670  0.1122 -0.5224
 6992SOL    HW132438   0.962   1.712   6.051  0.1711  0.9959 -0.6335
 6992SOL    HW232439   1.014   1.750   5.920 -0.4350 -0.9118 -1.4798
 6993SOL     OW32440   1.813   0.898  10.370  0.1041 -0.2583  0.3007
 6993SOL    HW132441   1.761   0.949  10.433  0.1815 -2.5930  2.2166
 6993SOL    HW232442   1.793   0.945  10.289 -1.9627  0.8116  1.4287
 6994SOL     OW32443   3.035   1.940   3.031 -0.5816  1.1076 -0.8807
 6994SOL    HW132444   3.041   2.035   3.018  0.4945  1.4010  1.8216
 6994SOL    HW232445   2.940   1.944   3.042 -0.4722 -1.2491  0.8526
 6995SOL     OW32446   0.225   0.186   4.935 -0.4636 -0.1982  0.3154
 6995SOL    HW132447   0.244   0.272   4.897 -0.9219 -0.7581 -1.1880
 6995SOL    HW232448   0.303   0.133   4.918  0.0754  1.1297 -1.3996
 6996SOL     OW32449   1.727   0.122   4.679 -0.3507 -0.1856  0.0267
 6996SOL    HW132450   1.741   0.112   4.773  2.0636 -2.6981 -0.5996
 6996SOL    HW232451   1.632   0.111   4.675 -0.2433 -1.6853  1.3829
 6997SOL     OW32452   0.893   3.255   6.268  0.2815 -0.0334 -0.4524
 6997SOL    HW132453   0.886   3.338   6.316  2.9854  1.1953 -2.1713
 6997SOL    HW232454   0.957   3.289   6.205 -1.9346  4.5369 -0.2840
 6998SOL     OW32455   3.376   0.988   1.446 -0.2730  0.0736  0.5638
 6998SOL    HW132456   3.292   0.981   1.491 -1.7224 -1.6882 -2.3545
 6998SOL    HW232457   3.394   0.896   1.427  1.8218  0.9379 -1.7684
 6999SOL     OW32458   4.416   4.625  11.411 -0.3177 -0.4628 -0.3989
 6999SOL    HW132459   4.458   4.703  11.447 -1.8499  0.6773 -1.0778
 6999SOL    HW232460   4.465   4.607  11.330  0.4124 -0.1819 -0.0125
 7000SOL     OW32461   2.038   1.498   7.422 -0.2255  0.6489 -0.0233
 7000SOL    HW132462   2.104   1.567   7.419 -1.2962  1.7237  1.1262
 7000SOL    HW232463   1.976   1.540   7.362  0.1097  0.3213 -0.5930
 7001SOL     OW32464   0.306   2.972  10.441 -0.5299  0.1977 -0.0877
 7001SOL    HW132465   0.226   2.921  10.427  0.8742 -1.7153 -1.2559
 7001SOL    HW232466   0.367   2.906  10.408  0.4108  1.0684 -0.0874
 7002SOL     OW32467   3.446   3.990   9.141  0.1460 -0.2336 -0.2602
 7002SOL    HW132468   3.502   4.065   9.162  0.3663 -0.7578  1.0007
 7002SOL    HW232469   3.471   3.924   9.206  0.4431  0.1785  0.0433
 7003SOL     OW32470   2.431   3.490  12.933 -0.0967 -0.1902 -0.4166
 7003SOL    HW132471   2.476   3.450  13.007 -2.0555 -0.8329  0.4453
 7003SOL    HW232472   2.457   3.582  12.937  1.8506 -0.6693 -2.1060
 7004SOL     OW32473   0.879   2.984  16.898 -0.3147  0.0580  0.6829
 7004SOL    HW132474   0.919   2.955  16.816  0.1266  1.7157  0.3180
 7004SOL    HW232475   0.850   3.070  16.869 -1.9773 -0.8865 -0.4671
 7005SOL     OW32476   0.478   1.645   0.537  0.1032  0.5638  0.2002
 7005SOL    HW132477   0.487   1.614   0.446  2.0331 -0.5847  0.7826
 7005SOL    HW232478   0.382   1.650   0.533  0.1250 -0.2101 -1.5664
 7006SOL     OW32479   1.025   1.669   8.240 -0.3359 -0.0060  0.0557
 7006SOL    HW132480   0.974   1.730   8.294 -0.9831 -0.2145 -0.3188
 7006SOL    HW232481   0.983   1.677   8.154  1.7176  0.1368 -0.9316
 7007SOL     OW32482   3.369   3.388   7.907 -0.5761 -0.1345  0.5605
 7007SOL    HW132483   3.363   3.431   7.821  0.7453 -2.1332 -0.5439
 7007SOL    HW232484   3.291   3.334   7.899 -2.9804  3.5345 -1.0665
 7008SOL     OW32485   3.743   2.564   8.113 -0.7718 -0.2780  0.1476
 7008SOL    HW132486   3.687   2.613   8.054 -1.2888 -0.9304  0.0886
 7008SOL    HW232487   3.686   2.539   8.186 -0.3360  0.6661  0.8092
 7009SOL     OW32488   2.564   3.826   4.288 -0.0014  0.7849  0.0950
 7009SOL    HW132489   2.501   3.816   4.217 -0.3099  1.6538  0.2452
 7009SOL    HW232490   2.572   3.922   4.282  0.1571  0.8307  1.0257
 7010SOL     OW32491   0.599   1.655  17.112  0.0612 -0.2670 -0.1317
 7010SOL    HW132492   0.584   1.587  17.177 -3.1510 -0.4581 -1.0669
 7010SOL    HW232493   0.556   1.725  17.163  0.5562 -0.5478  0.6761
 7011SOL     OW32494   3.991   3.658   5.106 -0.0453  0.2915 -0.8344
 7011SOL    HW132495   3.978   3.572   5.145  0.6641 -0.2487 -1.7978
 7011SOL    HW232496   4.046   3.705   5.169  0.5940 -0.4470 -0.8427
 7012SOL     OW32497   2.139   0.081   7.474 -0.2253  0.4225 -1.0643
 7012SOL    HW132498   2.187   0.028   7.411 -2.1502 -0.0663 -2.1074
 7012SOL    HW232499   2.059   0.028   7.472 -0.0321  0.1048 -0.1885
 7013SOL     OW32500   3.652   3.530   7.041 -0.2241  0.3688  0.1637
 7013SOL    HW132501   3.571   3.532   7.091 -0.9990 -0.3744 -1.0702
 7013SOL    HW232502   3.727   3.517   7.100 -0.7011  0.3361  0.7599
 7014SOL     OW32503   4.291   0.638   7.887  0.0543 -0.3563 -0.1974
 7014SOL    HW132504   4.373   0.684   7.904 -0.6974  0.8493  0.2065
 7014SOL    HW232505   4.217   0.696   7.905 -0.9493 -1.7624  0.2043
 7015SOL     OW32506   4.660   0.520   4.386  0.0544 -0.1196 -0.2053
 7015SOL    HW132507   4.719   0.580   4.341 -2.9473  1.4231 -2.0909
 7015SOL    HW232508   4.666   0.553   4.475 -1.9860  1.7102 -0.7423
 7016SOL     OW32509   4.600   3.240   0.203 -0.4539 -0.1245 -0.3162
 7016SOL    HW132510   4.603   3.335   0.218  0.4816 -0.8630  4.0579
 7016SOL    HW232511   4.653   3.233   0.124  1.7257  0.9105  1.0568
 7017SOL     OW32512   1.658   2.278  12.396 -0.6416  0.4058  0.1777
 7017SOL    HW132513   1.579   2.315  12.358 -0.5922 -0.0831 -0.3808
 7017SOL    HW232514   1.698   2.353  12.443  1.4698 -0.0922 -0.8148
 7018SOL     OW32515   2.909   0.527  11.844 -0.2556  0.1849  0.0011
 7018SOL    HW132516   2.839   0.497  11.902 -0.2942 -1.9336 -1.1311
 7018SOL    HW232517   2.907   0.622  11.856  1.3032 -0.2856  3.8740
 7019SOL     OW32518   3.760   0.262   6.276 -0.2058 -0.1877 -0.0005
 7019SOL    HW132519   3.769   0.347   6.233  1.1841 -1.8753 -3.0936
 7019SOL    HW232520   3.739   0.215   6.195 -1.1691  1.2283 -0.5767
 7020SOL     OW32521   2.587   3.494   5.204  0.2844 -0.4513  0.9558
 7020SOL    HW132522   2.548   3.533   5.126 -0.8673 -1.3998  1.0648
 7020SOL    HW232523   2.672   3.535   5.186 -0.8319  1.3094 -0.2836
 7021SOL     OW32524   2.060   3.769   4.746  0.3978  0.6419  0.1931
 7021SOL    HW132525   2.107   3.734   4.821  0.6141 -0.4936 -0.4620
 7021SOL    HW232526   2.076   3.694   4.688 -1.3959 -0.5241  1.2222
 7022SOL     OW32527   0.981   0.704   3.242  0.0641 -0.4475 -0.0270
 7022SOL    HW132528   0.998   0.614   3.270  0.0440 -0.8695 -1.3593
 7022SOL    HW232529   1.034   0.745   3.310 -1.7173  1.2217  0.3394
 7023SOL     OW32530   1.311   1.975  17.342 -0.3799 -0.2951  0.6029
 7023SOL    HW132531   1.356   1.998  17.423 -0.2231  1.3258  0.0444
 7023SOL    HW232532   1.218   1.973  17.366 -0.1375  0.0026  1.5847
 7024SOL     OW32533   4.479   0.862   5.251  0.6916 -0.0380  0.1320
 7024SOL    HW132534   4.494   0.956   5.259 -0.2832  0.1036  0.3091
 7024SOL    HW232535   4.565   0.827   5.272 -0.1927 -0.4506  3.0389
 7025SOL     OW32536   0.538   1.867   2.822  0.3169  0.2779  0.0829
 7025SOL    HW132537   0.486   1.945   2.803 -0.4623  0.2588  2.1665
 7025SOL    HW232538   0.492   1.806   2.763  2.4156 -0.7098 -0.5409
 7026SOL     OW32539   4.657   1.279  15.984 -0.2894  0.4537  0.1607
 7026SOL    HW132540   0.021   1.289  15.946 -0.6368 -1.0536 -1.0233
 7026SOL    HW232541   4.628   1.190  15.967  1.6678 -0.0165 -0.7193
 7027SOL     OW32542   2.696   1.569   7.801  0.0545  0.7951 -0.3003
 7027SOL    HW132543   2.669   1.538   7.714 -2.0410  1.2650  0.2013
 7027SOL    HW232544   2.648   1.511   7.860  1.2002  0.9545  0.7872
 7028SOL     OW32545   3.182   1.008   7.664 -0.1492  0.0655  0.6641
 7028SOL    HW132546   3.161   1.009   7.571  0.4387  1.4714  0.5429
 7028SOL    HW232547   3.174   1.100   7.690 -0.7332 -0.4880  2.4649
 7029SOL     OW32548   1.881   3.655   0.079 -0.1396 -0.3296 -0.1138
 7029SOL    HW132549   1.921   3.615   0.156  1.6871  3.2809  0.8122
 7029SOL    HW232550   1.927   3.738   0.068 -2.2434  0.7533 -0.6395
 7030SOL     OW32551   2.984   1.434   0.687  0.2376  0.6287  0.2033
 7030SOL    HW132552   2.961   1.459   0.776 -0.1565  2.1704 -0.3329
 7030SOL    HW232553   3.013   1.517   0.647 -0.6443  1.1547  0.6574
 7031SOL     OW32554   3.053   0.285   5.502  0.1948 -0.3885 -0.2831
 7031SOL    HW132555   3.058   0.315   5.412 -0.5446  0.3419 -0.0824
 7031SOL    HW232556   3.067   0.191   5.488  0.7557 -0.1660 -1.1872
 7032SOL     OW32557   3.867   2.249   5.282 -0.2531 -1.0006 -0.4329
 7032SOL    HW132558   3.795   2.305   5.314 -1.9598 -2.0435 -2.4402
 7032SOL    HW232559   3.821   2.166   5.273 -1.3452 -0.5346  0.8330
 7033SOL     OW32560   2.996   4.057   6.418  0.4669 -0.5593 -0.1417
 7033SOL    HW132561   2.911   4.093   6.393  0.1427 -0.6364  0.8734
 7033SOL    HW232562   2.981   4.011   6.501  0.7074 -0.0563  0.1789
 7034SOL     OW32563   3.379   1.271   1.869 -0.2266 -0.3470 -0.2265
 7034SOL    HW132564   3.400   1.210   1.798 -0.6714 -0.7772  0.0164
 7034SOL    HW232565   3.461   1.321   1.870 -1.2680  1.3737 -0.2984
 7035SOL     OW32566   3.642   3.332   2.102  0.2529 -0.1568  0.2234
 7035SOL    HW132567   3.731   3.298   2.108  0.2692 -0.0881  0.3806
 7035SOL    HW232568   3.654   3.415   2.148  0.2577 -0.5467  0.9345
 7036SOL     OW32569   2.538   0.428   5.000  0.6833 -0.7229  0.1015
 7036SOL    HW132570   2.554   0.520   5.021 -1.6326 -0.5070  0.8516
 7036SOL    HW232571   2.627   0.392   5.001  0.0082 -2.4097 -1.3856
 7037SOL     OW32572   1.211   2.782   6.794  0.7239 -0.6027 -0.4198
 7037SOL    HW132573   1.149   2.755   6.727  1.2738 -0.8074 -0.8489
 7037SOL    HW232574   1.195   2.876   6.800  0.6597 -0.6750  0.5209
 7038SOL     OW32575   4.419   4.178   5.748  0.3302 -0.3162  0.3833
 7038SOL    HW132576   4.404   4.252   5.806 -0.3358  0.1355 -0.3710
 7038SOL    HW232577   4.436   4.221   5.664  1.6087 -0.1383  0.7325
 7039SOL     OW32578   1.616   2.173   1.499  0.2491 -0.4723 -0.0713
 7039SOL    HW132579   1.676   2.148   1.570 -0.2530 -2.7853 -0.4587
 7039SOL    HW232580   1.549   2.105   1.499  0.2119 -0.4336  2.0767
 7040SOL     OW32581   4.105   1.050   6.850 -0.1961  0.2189 -0.5738
 7040SOL    HW132582   4.162   1.094   6.786  1.6872 -0.0592  0.9329
 7040SOL    HW232583   4.167   0.980   6.869 -0.4436  0.2923  0.5078
 7041SOL     OW32584   2.660   4.482   9.820  0.1049  0.1713 -0.4466
 7041SOL    HW132585   2.628   4.562   9.863  0.2274 -1.2144  2.1982
 7041SOL    HW232586   2.721   4.448   9.885 -1.5590 -1.6013  0.1606
 7042SOL     OW32587   0.474   2.481  16.344  0.7101 -0.5228  0.2739
 7042SOL    HW132588   0.404   2.425  16.309  0.1262  0.1890  0.2977
 7042SOL    HW232589   0.556   2.439  16.318  0.2016 -2.0124  1.0839
 7043SOL     OW32590   3.784   3.851   1.788 -0.0792 -0.0559 -0.1431
 7043SOL    HW132591   3.734   3.885   1.714 -1.0904  0.3314  0.7124
 7043SOL    HW232592   3.720   3.784   1.812 -0.4412 -0.1011 -1.2814
 7044SOL     OW32593   2.349   2.276   0.975  0.6124  0.4645 -0.4923
 7044SOL    HW132594   2.341   2.358   0.926  1.8147  0.8655  0.0009
 7044SOL    HW232595   2.319   2.218   0.905  1.0563  1.5290 -1.5698
 7045SOL     OW32596   2.484   1.764   8.870 -0.8059  0.0119 -0.2810
 7045SOL    HW132597   2.525   1.719   8.944 -0.8818 -1.1428 -0.9401
 7045SOL    HW232598   2.393   1.753   8.898 -0.7519  1.0683  0.2829
 7046SOL     OW32599   3.684   1.372   6.913 -0.3687  0.7409  0.6165
 7046SOL    HW132600   3.625   1.300   6.889  0.1216  0.4413  0.2982
 7046SOL    HW232601   3.636   1.421   6.979 -0.2841  2.1761 -0.3987
 7047SOL     OW32602   2.229   1.021   2.332 -0.5791  0.0406  0.0733
 7047SOL    HW132603   2.320   1.048   2.317 -0.1227 -0.8149  1.4008
 7047SOL    HW232604   2.190   1.082   2.268 -0.2823  0.9232  0.7290
 7048SOL     OW32605   3.650   2.264   9.061  0.2293  0.1108 -0.1197
 7048SOL    HW132606   3.566   2.245   9.101  1.0507 -1.1712  1.0229
 7048SOL    HW232607   3.665   2.180   9.017  0.2668  0.0647 -0.0195
 7049SOL     OW32608   3.807   1.454   4.886  0.4567 -0.1957 -0.0829
 7049SOL    HW132609   3.738   1.395   4.917  1.5163 -1.9093 -0.9746
 7049SOL    HW232610   3.806   1.441   4.791 -1.1416  1.8204 -0.3607
 7050SOL     OW32611   1.796   3.366   0.566 -0.3897 -0.5056 -0.3773
 7050SOL    HW132612   1.800   3.306   0.491 -0.8050 -0.6039 -0.3245
 7050SOL    HW232613   1.744   3.434   0.522  1.0923  1.9246  1.6690
 7051SOL     OW32614   2.328   0.096   7.662 -0.5111 -0.2478 -0.3676
 7051SOL    HW132615   2.251   0.073   7.609 -0.4176 -1.3431 -0.0204
 7051SOL    HW232616   2.290   0.081   7.749 -0.5970  0.9176 -0.2040
 7052SOL     OW32617   4.251   0.455   8.246  0.1627  0.3986  0.2323
 7052SOL    HW132618   4.318   0.423   8.185 -0.6858 -0.0118 -0.4903
 7052SOL    HW232619   4.182   0.490   8.189 -1.6612  1.9465  3.3604
 7053SOL     OW32620   3.238   0.657   6.056 -0.2756  0.1414  0.0468
 7053SOL    HW132621   3.245   0.748   6.027 -1.3976  1.0110  2.5650
 7053SOL    HW232622   3.179   0.661   6.131  1.4047  2.8095  1.2011
 7054SOL     OW32623   0.090   2.647   6.890 -0.0443  0.0121  0.2172
 7054SOL    HW132624   0.143   2.587   6.943  1.0942  1.6776  0.9283
 7054SOL    HW232625   0.159   2.703   6.856  0.6996 -0.4746  0.9050
 7055SOL     OW32626   2.100   4.390   7.395  0.4815  0.5542 -0.8463
 7055SOL    HW132627   2.069   4.470   7.439  0.8915  1.3628 -2.0215
 7055SOL    HW232628   2.189   4.375   7.427  0.2758 -0.4983 -0.7655
 7056SOL     OW32629   2.396   2.176   1.234 -0.2601 -0.6622  0.2695
 7056SOL    HW132630   2.401   2.219   1.148  0.6490 -1.4943 -0.0936
 7056SOL    HW232631   2.375   2.088   1.205 -2.5924 -0.1662  0.4289
 7057SOL     OW32632   0.252   0.917  13.900 -0.3419  0.2837  0.2297
 7057SOL    HW132633   0.273   1.005  13.869 -1.0046  0.8296  1.3192
 7057SOL    HW232634   0.168   0.931  13.945 -0.7977 -2.1328  0.0800
 7058SOL     OW32635   0.486   1.087   5.161  0.3920 -0.1667 -0.2193
 7058SOL    HW132636   0.480   0.994   5.137  2.2284 -0.4280  0.3249
 7058SOL    HW232637   0.527   1.079   5.247  0.7299  1.9071 -0.1918
 7059SOL     OW32638   0.323   3.576   8.147  0.2902  0.1696  0.2710
 7059SOL    HW132639   0.264   3.649   8.166  2.9941  2.1537  0.9760
 7059SOL    HW232640   0.340   3.588   8.053  2.6606 -2.0385  0.4381
 7060SOL     OW32641   3.458   1.249   4.557 -0.6438  0.0529 -0.0832
 7060SOL    HW132642   3.375   1.236   4.511 -0.9233 -0.4983  0.5798
 7060SOL    HW232643   3.497   1.163   4.540 -0.8757 -0.3161  1.2250
 7061SOL     OW32644   2.291   4.407   3.421  0.0442  0.5346 -0.0616
 7061SOL    HW132645   2.303   4.312   3.433  1.1884  0.9255  1.8751
 7061SOL    HW232646   2.312   4.442   3.507  1.4382  2.1952 -1.0568
 7062SOL     OW32647   3.381   1.138   4.203 -0.3609 -0.5352 -0.5258
 7062SOL    HW132648   3.422   1.152   4.118  1.7979  1.7763  0.9050
 7062SOL    HW232649   3.321   1.065   4.185 -1.1323 -0.3392  1.2012
 7063SOL     OW32650   1.106   2.271   2.013 -0.4878 -0.0855 -0.0351
 7063SOL    HW132651   1.116   2.363   1.989  0.3807 -0.7964 -2.3482
 7063SOL    HW232652   1.042   2.251   1.945 -1.0675  0.3190  0.3844
 7064SOL     OW32653   3.552   2.995   9.644  0.3514  0.5096 -0.6968
 7064SOL    HW132654   3.597   2.976   9.562  1.1329  1.1122 -0.4062
 7064SOL    HW232655   3.589   2.928   9.702 -1.1137  1.3784  1.2166
 7065SOL     OW32656   1.235   1.759  17.589 -0.1938 -0.3494  0.4561
 7065SOL    HW132657   1.330   1.767  17.582 -0.1309 -1.2299  0.3525
 7065SOL    HW232658   1.220   1.850  17.615 -1.0020  0.5059 -3.0265
 7066SOL     OW32659   3.195   3.481  15.800  0.6404 -0.1642  0.1381
 7066SOL    HW132660   3.235   3.404  15.760  0.7685 -0.0971  0.1377
 7066SOL    HW232661   3.113   3.478  15.751  0.6461  1.4149  0.0408
 7067SOL     OW32662   0.049   2.625   0.666 -0.4113  0.3057 -0.3376
 7067SOL    HW132663   0.052   2.720   0.649 -2.2058  0.1277 -1.6848
 7067SOL    HW232664   0.019   2.632   0.756 -2.2363  0.1866 -0.9278
 7068SOL     OW32665   1.084   0.085   1.501  0.4071 -0.0512  0.5498
 7068SOL    HW132666   1.096   0.179   1.515  1.7798 -0.2115  0.5140
 7068SOL    HW232667   1.062   0.081   1.408 -1.1947  0.2954  0.9265
 7069SOL     OW32668   2.235   2.911  13.642  0.3180  0.0836 -0.0488
 7069SOL    HW132669   2.288   2.908  13.562  2.3511 -1.0716  1.3351
 7069SOL    HW232670   2.287   2.970  13.696  1.6707 -1.2100  0.0726
 7070SOL     OW32671   0.039   3.006   7.765 -0.3045  0.2142  0.4547
 7070SOL    HW132672   4.695   3.052   7.814 -0.2257  1.2792 -0.4432
 7070SOL    HW232673   4.723   2.983   7.681  0.9518 -0.9845  0.1752
 7071SOL     OW32674   1.031   3.855   4.924 -0.3261 -0.1092  0.0646
 7071SOL    HW132675   1.116   3.842   4.883 -0.9681  1.1832 -1.6888
 7071SOL    HW232676   1.031   3.947   4.952 -1.3617 -0.6889  2.0101
 7072SOL     OW32677   3.627   0.467   1.111  0.0688  0.0407  0.1996
 7072SOL    HW132678   3.705   0.414   1.127 -1.4399 -1.8946  1.2917
 7072SOL    HW232679   3.565   0.433   1.177  1.2645 -0.0366  1.2760
 7073SOL     OW32680   1.968   1.190   4.662  0.4063 -0.0219 -0.4545
 7073SOL    HW132681   1.979   1.279   4.628  0.0052 -0.2582 -1.1976
 7073SOL    HW232682   2.030   1.184   4.734 -0.4222  1.3318  0.3732
 7074SOL     OW32683   3.682   1.549   4.385 -0.1318  0.2114  0.5529
 7074SOL    HW132684   3.632   1.504   4.316  2.0545 -2.0382  0.4867
 7074SOL    HW232685   3.667   1.641   4.361  0.4940 -0.3670 -2.0899
 7075SOL     OW32686   2.064   3.132   4.467  0.3905  0.3998  0.8583
 7075SOL    HW132687   2.151   3.094   4.466  0.5210  0.6822  1.3859
 7075SOL    HW232688   2.043   3.146   4.375  0.5550 -1.3927  0.5552
 7076SOL     OW32689   0.811   1.403   8.667  0.2648 -0.1234 -0.2854
 7076SOL    HW132690   0.787   1.314   8.642  0.7720 -0.3634  0.0904
 7076SOL    HW232691   0.899   1.373   8.691  0.7953  2.5484  1.1163
 7077SOL     OW32692   4.632   1.894   3.061  0.0216  0.9043  0.3430
 7077SOL    HW132693   4.685   1.857   2.991 -2.2765  0.2977 -1.0573
 7077SOL    HW232694   4.696   1.900   3.133 -0.4312 -1.1540  0.9253
 7078SOL     OW32695   4.341   2.038   5.826  0.8686  0.0618 -0.1364
 7078SOL    HW132696   4.320   1.967   5.887  0.5735  1.7045  1.6775
 7078SOL    HW232697   4.424   2.061   5.868  1.9040 -0.1531 -2.0711
 7079SOL     OW32698   0.564   1.096   5.422 -0.4460  0.3229  0.3823
 7079SOL    HW132699   0.633   1.150   5.460  1.0257 -1.7021  0.5631
 7079SOL    HW232700   0.497   1.164   5.424  1.5578  2.3224 -0.7598
 7080SOL     OW32701   4.707   0.871   6.772  0.4012  0.2998  0.8279
 7080SOL    HW132702   4.622   0.906   6.800  0.3387 -1.4825  2.9142
 7080SOL    HW232703   4.701   0.784   6.813 -0.7638  0.0754  0.2099
 7081SOL     OW32704   0.849   3.023   8.912  0.1919  0.1364 -0.2186
 7081SOL    HW132705   0.773   3.059   8.957  0.4939 -1.1304  1.3213
 7081SOL    HW232706   0.806   2.965   8.849  0.1895  2.6767 -2.5659
 7082SOL     OW32707   0.929   3.955   6.620  0.1474 -0.1260 -0.5507
 7082SOL    HW132708   0.980   3.972   6.541  1.4421  0.2907  0.3706
 7082SOL    HW232709   0.989   3.990   6.686  1.6227 -0.3018 -1.8234
 7083SOL     OW32710   0.451   2.440   8.815 -0.1630  0.5370 -0.2168
 7083SOL    HW132711   0.445   2.359   8.765  2.6256 -0.0826  0.4152
 7083SOL    HW232712   0.364   2.446   8.855  0.0342  1.8103  0.0123
 7084SOL     OW32713   3.025   2.344   3.246  0.7650  0.1914  0.0048
 7084SOL    HW132714   3.031   2.439   3.248  0.3423  0.2305 -0.6155
 7084SOL    HW232715   3.013   2.328   3.339  1.0954  1.2300  0.2246
 7085SOL     OW32716   2.641   0.522  15.699  0.4716 -0.4996 -0.6102
 7085SOL    HW132717   2.641   0.519  15.604 -0.9669  0.3459 -0.6377
 7085SOL    HW232718   2.579   0.454  15.726  0.2841  0.1772  0.6682
 7086SOL     OW32719   4.099   4.575   5.024  0.1069 -0.1760  0.2530
 7086SOL    HW132720   4.027   4.639   5.026  2.3994  2.4039 -0.2228
 7086SOL    HW232721   4.046   4.495   5.021  1.7869 -1.2628 -0.5471
 7087SOL     OW32722   0.484   0.635   3.607  0.6035  0.3367  0.4559
 7087SOL    HW132723   0.422   0.636   3.534  2.6980 -3.4206 -1.4026
 7087SOL    HW232724   0.434   0.691   3.665  0.4281 -0.7196  1.3250
 7088SOL     OW32725   3.532   3.583  15.792  0.3611 -0.5377  0.1031
 7088SOL    HW132726   3.525   3.500  15.839  1.8202  0.0774  1.4306
 7088SOL    HW232727   3.607   3.615  15.842 -0.6297  0.5744  0.8611
 7089SOL     OW32728   2.534   4.505   8.683  0.4061 -0.0223 -0.6961
 7089SOL    HW132729   2.499   4.593   8.666  0.4506 -0.5187 -3.3572
 7089SOL    HW232730   2.587   4.489   8.605 -0.5928  0.7416 -1.5250
 7090SOL     OW32731   3.846   2.885  15.946 -0.1770  0.3199  0.3868
 7090SOL    HW132732   3.937   2.860  15.965  0.0904 -0.6409 -2.1415
 7090SOL    HW232733   3.840   2.848  15.858 -0.0977  0.7520  0.1977
 7091SOL     OW32734   2.971   4.475  11.019 -0.3096  0.4843 -0.4198
 7091SOL    HW132735   2.905   4.460  11.086  1.4770 -1.8305  0.8252
 7091SOL    HW232736   2.965   4.568  10.999 -2.4277 -0.3235 -3.6084
 7092SOL     OW32737   3.094   2.728  13.175 -0.1063 -0.1548  0.0730
 7092SOL    HW132738   3.000   2.735  13.158 -0.0074 -0.9548 -0.7950
 7092SOL    HW232739   3.088   2.697  13.265  0.0525  2.0758  0.8663
 7093SOL     OW32740   3.287   2.349   5.096 -0.0317  0.0076  0.0161
 7093SOL    HW132741   3.383   2.354   5.098 -0.0192  0.1099 -0.8757
 7093SOL    HW232742   3.281   2.277   5.034 -1.1487 -1.4657  1.8595
 7094SOL     OW32743   1.372   3.461  13.335  0.4272  0.0942  0.3029
 7094SOL    HW132744   1.315   3.492  13.405  0.0060 -1.1435  0.5074
 7094SOL    HW232745   1.302   3.440  13.274  0.4773  2.1461 -0.4530
 7095SOL     OW32746   3.615   0.391  15.404 -0.1644 -0.1643  0.3437
 7095SOL    HW132747   3.703   0.424  15.387 -0.9213  1.8127  0.3151
 7095SOL    HW232748   3.612   0.379  15.499  2.0498 -0.4926  0.3742
 7096SOL     OW32749   3.618   3.884   4.397 -0.1038 -0.2682  0.3707
 7096SOL    HW132750   3.684   3.922   4.454  1.1337 -2.6730  0.5206
 7096SOL    HW232751   3.661   3.820   4.341  0.9761  0.6575  0.1490
 7097SOL     OW32752   2.332   2.184   1.972 -0.1752  0.1487  0.2853
 7097SOL    HW132753   2.426   2.166   1.967 -0.3775  0.0038 -2.5020
 7097SOL    HW232754   2.314   2.228   1.889  2.5016  2.3913  0.8914
 7098SOL     OW32755   0.731   2.174   2.119 -0.1724 -0.3073 -0.3770
 7098SOL    HW132756   0.748   2.263   2.150 -1.6792  0.6624 -2.2992
 7098SOL    HW232757   0.638   2.183   2.095  1.1625 -1.1612 -5.7659
 7099SOL     OW32758   3.160   2.872   3.822  0.3781 -0.4421 -0.0569
 7099SOL    HW132759   3.245   2.880   3.865 -0.0337  2.1402  0.2791
 7099SOL    HW232760   3.181   2.892   3.731  0.9920  0.5870  0.3152
 7100SOL     OW32761   2.029   4.015   3.136  0.7564  0.3019 -0.3368
 7100SOL    HW132762   2.040   4.029   3.042 -2.1590 -2.7513 -1.1306
 7100SOL    HW232763   2.097   3.954   3.166 -1.3726 -1.1568  1.5234
 7101SOL     OW32764   2.195   3.069   2.714  0.1809  0.0578  0.3801
 7101SOL    HW132765   2.199   2.975   2.733 -2.2524  0.2024  1.5852
 7101SOL    HW232766   2.104   3.075   2.684  1.0887  1.8545 -2.0228
 7102SOL     OW32767   2.507   0.547   4.697 -0.2697 -0.4017  0.6284
 7102SOL    HW132768   2.461   0.485   4.641  0.4000 -1.1358  0.8950
 7102SOL    HW232769   2.441   0.577   4.760  1.4475  1.2614  1.6310
 7103SOL     OW32770   4.526   0.289  12.778  0.0779 -0.0427  0.0171
 7103SOL    HW132771   4.526   0.332  12.692  1.7254  2.2871  1.1961
 7103SOL    HW232772   4.445   0.322  12.818 -2.9607 -5.4020 -1.6405
 7104SOL     OW32773   1.588   0.244   9.994  0.0713 -0.3441 -0.8904
 7104SOL    HW132774   1.666   0.255   9.940 -0.3771 -2.1867 -1.9058
 7104SOL    HW232775   1.532   0.285   9.928 -2.9316  0.4557  2.1270
 7105SOL     OW32776   0.508   1.768   4.256  0.2653  0.4850 -0.0942
 7105SOL    HW132777   0.557   1.828   4.200 -1.3341  1.4254 -0.4957
 7105SOL    HW232778   0.462   1.830   4.312 -1.5646 -1.6789  0.8330
 7106SOL     OW32779   4.250   3.216   3.518 -0.0836  0.2695 -0.2272
 7106SOL    HW132780   4.280   3.151   3.582  2.1586 -0.1225 -1.7009
 7106SOL    HW232781   4.313   3.287   3.534 -0.5262  0.4958  0.5132
 7107SOL     OW32782   1.330   3.306   3.215 -0.0148 -0.4188  0.1818
 7107SOL    HW132783   1.322   3.401   3.205  0.6936 -0.4070 -0.2794
 7107SOL    HW232784   1.303   3.259   3.136 -0.1469 -0.1400  0.0606
 7108SOL     OW32785   2.340   0.850   0.414 -0.0204 -0.1974  0.5621
 7108SOL    HW132786   2.262   0.896   0.382  0.0338  0.3806  1.2514
 7108SOL    HW232787   2.383   0.832   0.330  0.0892  1.1098  0.3301
 7109SOL     OW32788   3.634   3.044   4.059 -0.4581 -0.1556 -0.1298
 7109SOL    HW132789   3.585   3.099   3.997 -1.4793 -0.0821  0.7260
 7109SOL    HW232790   3.556   3.027   4.112  0.3056 -0.0523  1.0274
 7110SOL     OW32791   2.964   2.484   7.655  0.0293 -0.1179 -0.2959
 7110SOL    HW132792   3.030   2.546   7.686 -2.6280  2.2615  0.6130
 7110SOL    HW232793   2.900   2.555   7.648 -1.7429 -1.3440  3.6007
 7111SOL     OW32794   2.197   1.713   2.995  0.0755 -0.0444 -0.0273
 7111SOL    HW132795   2.260   1.784   3.009 -0.1356  0.0002  0.6997
 7111SOL    HW232796   2.171   1.697   3.086 -2.0838 -0.2571 -0.6715
 7112SOL     OW32797   3.081   4.591  17.441 -0.0448  0.2433 -0.3982
 7112SOL    HW132798   3.057   4.541  17.519 -1.9550  0.2964 -0.9544
 7112SOL    HW232799   3.173   4.570  17.426  0.0144 -0.9134  1.5675
 7113SOL     OW32800   2.714   0.523   1.413  0.2865  0.2194  0.6478
 7113SOL    HW132801   2.687   0.432   1.399  0.9549  0.2160 -0.5337
 7113SOL    HW232802   2.809   0.517   1.410  0.2950  0.0654  1.0756
 7114SOL     OW32803   3.873   0.012   7.067  0.0575 -0.2459 -0.1092
 7114SOL    HW132804   3.968   0.016   7.060  0.1527  0.0289  1.3599
 7114SOL    HW232805   3.843   0.028   6.978 -0.0696 -1.9123 -0.3586
 7115SOL     OW32806   1.416   0.484  17.319  0.5463  0.3585  0.1982
 7115SOL    HW132807   1.399   0.525  17.404  2.2647  2.1311 -0.3195
 7115SOL    HW232808   1.501   0.441  17.326 -0.8339 -2.2848  0.8060
 7116SOL     OW32809   3.770   0.375  11.300 -0.3624  0.0289 -0.1765
 7116SOL    HW132810   3.839   0.424  11.256 -2.7659  0.6269 -3.2099
 7116SOL    HW232811   3.748   0.302  11.243  1.6027  0.1048 -1.0284
 7117SOL     OW32812   1.504   1.741   8.572 -0.0588  0.5032 -0.2702
 7117SOL    HW132813   1.577   1.680   8.569 -1.0552 -0.7107  0.2039
 7117SOL    HW232814   1.536   1.800   8.640  0.1383  0.6489 -0.4866
 7118SOL     OW32815   3.172   2.969   3.549 -0.1788  0.1465  0.7817
 7118SOL    HW132816   3.091   2.927   3.520  0.5578 -1.0404  0.4510
 7118SOL    HW232817   3.225   2.948   3.472  0.9007  2.9046  0.7678
 7119SOL     OW32818   0.952   3.111   1.341  0.1388  0.1695 -0.4493
 7119SOL    HW132819   1.044   3.135   1.337  0.4946 -1.5281 -1.9904
 7119SOL    HW232820   0.939   3.151   1.427  1.0768  0.6994 -0.5554
 7120SOL     OW32821   4.542   1.993  17.523  0.1819  0.2240 -0.6805
 7120SOL    HW132822   4.474   1.945  17.570  0.0098 -1.2325 -2.4262
 7120SOL    HW232823   4.624   1.955  17.554 -0.0334 -1.0089 -1.6190
 7121SOL     OW32824   0.347   4.109   7.539 -0.4801  0.1441 -0.3346
 7121SOL    HW132825   0.310   4.025   7.565 -0.0524  0.3983  1.1391
 7121SOL    HW232826   0.293   4.176   7.582 -0.3345 -0.0894  0.2211
 7122SOL     OW32827   2.398   0.542  16.510 -0.4766  0.4664  0.2860
 7122SOL    HW132828   2.454   0.602  16.461 -0.4477  1.1016  1.1062
 7122SOL    HW232829   2.340   0.520  16.437 -0.1955 -2.3873  0.9109
 7123SOL     OW32830   1.572   4.460   5.150  0.1227  0.0335  0.1062
 7123SOL    HW132831   1.484   4.451   5.186  0.8672  0.4296  2.0164
 7123SOL    HW232832   1.575   4.375   5.106 -2.0983 -1.4399  2.7803
 7124SOL     OW32833   2.068   1.342   8.158 -0.0028  0.1817 -0.1739
 7124SOL    HW132834   2.127   1.272   8.129  0.0030  0.3076 -0.4678
 7124SOL    HW232835   2.099   1.419   8.111  4.0723 -0.6145  1.2507
 7125SOL     OW32836   2.363   1.898   1.368 -0.1354  0.2139  0.2043
 7125SOL    HW132837   2.368   1.899   1.273  2.7884  0.6856  0.3642
 7125SOL    HW232838   2.269   1.908   1.382 -0.3327  1.2066 -1.8125
 7126SOL     OW32839   3.225   1.482   3.859 -0.3636  0.1057  0.4250
 7126SOL    HW132840   3.202   1.544   3.929 -2.0742  0.0065 -0.0479
 7126SOL    HW232841   3.154   1.500   3.797  0.0974  2.5082  0.5888
 7127SOL     OW32842   3.563   2.823   4.918  0.2409  0.1860  0.0751
 7127SOL    HW132843   3.574   2.728   4.925 -3.5305 -0.2410  0.1869
 7127SOL    HW232844   3.622   2.855   4.987 -1.1817 -2.6841  2.6480
 7128SOL     OW32845   1.276   1.281   9.006  0.1924 -1.2240 -0.0316
 7128SOL    HW132846   1.208   1.232   8.960 -1.7665  0.4315  1.1341
 7128SOL    HW232847   1.348   1.296   8.944 -1.1984 -2.2975 -1.8838
 7129SOL     OW32848   4.304   4.155   7.522 -0.0317  0.2658  0.1149
 7129SOL    HW132849   4.394   4.152   7.555  1.3295 -0.8250 -3.6734
 7129SOL    HW232850   4.265   4.108   7.596  1.4203 -0.1482  0.6262
 7130SOL     OW32851   4.552   3.543   5.291  0.3651  0.0795 -0.4656
 7130SOL    HW132852   4.571   3.481   5.362 -3.5695  1.6205  1.9333
 7130SOL    HW232853   4.631   3.598   5.296 -1.2593  2.3587  0.2233
 7131SOL     OW32854   3.577   3.264  14.824 -0.3263 -1.0305  0.0685
 7131SOL    HW132855   3.502   3.258  14.765 -0.5634 -0.7646  0.3420
 7131SOL    HW232856   3.615   3.177  14.813  1.1650 -0.6591  2.3910
 7132SOL     OW32857   4.106   3.084   3.171  0.0822 -0.0232  0.0233
 7132SOL    HW132858   4.102   3.045   3.259  1.6500  1.2976  0.6910
 7132SOL    HW232859   4.177   3.148   3.177  0.9655 -0.8585 -1.6613
 7133SOL     OW32860   2.819   4.055  14.162 -0.3366  0.1989  0.1643
 7133SOL    HW132861   2.865   4.029  14.083  1.1793 -0.3036  1.2266
 7133SOL    HW232862   2.726   4.039  14.143 -0.2256  0.6169 -0.7032
 7134SOL     OW32863   0.712   0.359  17.509  0.0445 -0.3728  0.4270
 7134SOL    HW132864   0.650   0.432  17.520  0.6201  0.0236  1.0128
 7134SOL    HW232865   0.660   0.282  17.530 -4.6450  3.1264  1.7845
 7135SOL     OW32866   2.650   3.651   3.470 -0.4569  0.2719 -0.0089
 7135SOL    HW132867   2.624   3.709   3.398  0.8592 -0.8785 -1.4302
 7135SOL    HW232868   2.712   3.700   3.525 -2.2319  1.2318  1.1461
 7136SOL     OW32869   4.160   0.315   5.615 -0.2438  0.2448 -0.4387
 7136SOL    HW132870   4.133   0.316   5.706  0.4520 -3.1448 -0.1956
 7136SOL    HW232871   4.194   0.404   5.611 -1.7781  0.8750  0.7943
 7137SOL     OW32872   2.240   1.865   5.960  0.1399 -0.8765 -0.1929
 7137SOL    HW132873   2.277   1.953   5.951 -2.4215 -0.0044 -2.1501
 7137SOL    HW232874   2.317   1.809   5.962  1.3133  0.6916 -2.1070
 7138SOL     OW32875   2.210   1.557   8.055  0.0506 -0.5633 -0.3372
 7138SOL    HW132876   2.134   1.616   8.060  0.6327  0.0078  1.6035
 7138SOL    HW232877   2.285   1.616   8.053 -0.1257 -0.2842  1.3072
 7139SOL     OW32878   3.114   3.099   4.550  0.2141 -0.1405  0.4799
 7139SOL    HW132879   3.022   3.075   4.543 -0.5134  2.1855  2.0120
 7139SOL    HW232880   3.135   3.111   4.643  2.4803 -0.8358  0.0604
 7140SOL     OW32881   0.137   1.888   5.860 -0.6536  0.0510  0.6696
 7140SOL    HW132882   0.085   1.815   5.894 -2.3750  0.8251 -0.3173
 7140SOL    HW232883   0.222   1.845   5.858 -0.5930  0.1654  0.7621
 7141SOL     OW32884   1.924   3.398   2.416  0.2258  0.1449 -0.0796
 7141SOL    HW132885   2.009   3.394   2.461  0.3979  1.9794 -0.2280
 7141SOL    HW232886   1.952   3.451   2.342  0.5683 -1.5083 -1.1322
 7142SOL     OW32887   2.064   1.588  17.251  0.0400 -0.1613 -0.3552
 7142SOL    HW132888   2.024   1.650  17.190  1.4161 -2.0654 -3.1396
 7142SOL    HW232889   2.120   1.543  17.188 -0.1722  0.4832 -1.0071
 7143SOL     OW32890   1.193   3.154   5.004 -0.3119 -0.0978  0.3381
 7143SOL    HW132891   1.267   3.204   5.038 -0.8134  0.5818  0.4304
 7143SOL    HW232892   1.168   3.213   4.932  3.0360  0.9948  0.0439
 7144SOL     OW32893   3.387   1.955   3.298 -0.0315 -0.1529  0.4265
 7144SOL    HW132894   3.334   2.035   3.296 -0.1920 -0.2849 -0.9862
 7144SOL    HW232895   3.358   1.920   3.213 -3.2927  0.4340  1.2889
 7145SOL     OW32896   3.183   1.010   2.028 -0.1958 -0.0517 -0.3083
 7145SOL    HW132897   3.200   1.090   2.077  0.4303  0.0393 -0.6600
 7145SOL    HW232898   3.269   0.982   1.995  0.1181  0.1842  0.3076
 7146SOL     OW32899   3.790   3.134   5.353 -0.5114  0.2878  0.2005
 7146SOL    HW132900   3.828   3.107   5.437  0.2114 -1.1382 -0.5847
 7146SOL    HW232901   3.855   3.101   5.291 -1.3073  2.0940 -1.5905
 7147SOL     OW32902   1.264   1.184   2.422 -0.0139 -0.3540  0.4787
 7147SOL    HW132903   1.250   1.158   2.513 -0.4312  0.2509  0.5929
 7147SOL    HW232904   1.210   1.264   2.416 -1.5348 -1.3072  1.3351
 7148SOL     OW32905   0.653   4.551   7.462  0.2104  0.1842  0.3445
 7148SOL    HW132906   0.710   4.617   7.424 -0.0975 -1.5665 -3.1390
 7148SOL    HW232907   0.581   4.602   7.498 -0.2138  0.1958 -0.5201
 7149SOL     OW32908   3.641   0.639   6.080 -0.3671 -0.2695  0.0058
 7149SOL    HW132909   3.596   0.687   6.011  0.6245  1.3997  0.5341
 7149SOL    HW232910   3.578   0.567   6.086  0.2123 -0.8008 -0.2303
 7150SOL     OW32911   1.432   4.004  11.916 -0.2426 -0.0212 -0.1962
 7150SOL    HW132912   1.411   4.059  11.991 -0.0374  2.0762 -1.6852
 7150SOL    HW232913   1.359   3.944  11.932 -0.6459  0.2038 -1.1914
 7151SOL     OW32914   1.718   1.718   4.727 -0.0148 -0.2298  0.0291
 7151SOL    HW132915   1.639   1.698   4.676  0.0560  2.0582 -0.9640
 7151SOL    HW232916   1.700   1.799   4.775  0.0335 -0.0907 -0.1872
 7152SOL     OW32917   3.034   1.254   2.927  0.6137  0.1181 -0.0117
 7152SOL    HW132918   3.097   1.183   2.915 -0.4686 -0.7516 -0.5496
 7152SOL    HW232919   3.088   1.333   2.923  1.1932 -0.2448  0.9886
 7153SOL     OW32920   2.829   3.857  14.492  0.0384  0.3587  0.1097
 7153SOL    HW132921   2.810   3.811  14.574 -0.0936  0.3645  0.0821
 7153SOL    HW232922   2.757   3.918  14.477  0.3903  1.1620  1.6857
 7154SOL     OW32923   2.140   1.380  17.068  0.2483  0.7775  0.4665
 7154SOL    HW132924   2.136   1.320  17.143  1.2489  1.0717  0.7503
 7154SOL    HW232925   2.217   1.341  17.027 -1.3560  0.7233 -2.4489
 7155SOL     OW32926   1.206   0.776   2.771 -1.1426 -0.0954 -0.0953
 7155SOL    HW132927   1.209   0.703   2.708 -1.7519 -0.3883  0.2131
 7155SOL    HW232928   1.191   0.728   2.852  0.8791 -0.7337 -0.1050
 7156SOL     OW32929   2.171   2.871   5.656  0.4373 -0.1169  0.0227
 7156SOL    HW132930   2.227   2.938   5.695 -2.0087  1.5993  0.5953
 7156SOL    HW232931   2.223   2.792   5.672 -0.2685 -0.0863  2.4880
 7157SOL     OW32932   3.638   1.984   1.436  0.7783 -0.0355  0.5390
 7157SOL    HW132933   3.595   2.069   1.431  1.1429  0.0909 -0.3390
 7157SOL    HW232934   3.643   1.969   1.342 -0.8085  2.7994  0.0089
 7158SOL     OW32935   4.139   4.157   0.559 -0.4622  0.2864  0.4532
 7158SOL    HW132936   4.151   4.251   0.544  0.7267  0.4580  2.4958
 7158SOL    HW232937   4.079   4.129   0.490 -1.3937 -1.4199  1.9586
 7159SOL     OW32938   2.785   4.145  17.535  0.1799  0.7435  0.0981
 7159SOL    HW132939   2.735   4.063  17.532 -0.9947  1.5351 -1.6815
 7159SOL    HW232940   2.821   4.129  17.623 -2.8375 -0.1230  1.1828
 7160SOL     OW32941   0.422   2.584  14.517  0.1275 -0.2174  0.4099
 7160SOL    HW132942   0.355   2.516  14.516  1.3621 -1.4181  0.5174
 7160SOL    HW232943   0.366   2.654  14.551  2.8196  2.3231 -0.3837
 7161SOL     OW32944   3.555   1.940   5.347  0.3250  0.4387 -1.0809
 7161SOL    HW132945   3.602   1.963   5.427  1.4281  0.3751 -1.7095
 7161SOL    HW232946   3.465   1.968   5.363  0.6469  1.1194 -0.4756
 7162SOL     OW32947   0.691   3.372   8.500  0.1345  0.5399 -0.1656
 7162SOL    HW132948   0.598   3.356   8.481  0.9042 -3.5587 -0.5087
 7162SOL    HW232949   0.686   3.460   8.538  3.3363  1.5341 -2.0308
 7163SOL     OW32950   2.869   2.229  11.962  0.3464 -0.1819  0.5318
 7163SOL    HW132951   2.954   2.248  11.924  0.1559 -0.3051  0.0424
 7163SOL    HW232952   2.834   2.185  11.885  1.5587  1.3245 -0.8669
 7164SOL     OW32953   3.703   4.058   0.274  0.3332 -0.2081 -0.6063
 7164SOL    HW132954   3.665   4.071   0.187 -0.1028 -1.0718 -0.5475
 7164SOL    HW232955   3.777   4.004   0.247 -0.8550 -0.7815 -2.7486
 7165SOL     OW32956   3.298   0.870   4.092 -0.3625  0.3881 -0.2143
 7165SOL    HW132957   3.366   0.805   4.110 -1.6667 -1.2127 -1.0245
 7165SOL    HW232958   3.291   0.853   3.998  1.7748  0.0822 -0.3181
 7166SOL     OW32959   0.020   1.232  17.240  0.4065 -0.2137  0.0945
 7166SOL    HW132960   4.684   1.306  17.229  2.5416  1.6014  0.7683
 7166SOL    HW232961   0.004   1.185  17.321  0.1086 -0.1071  0.0981
 7167SOL     OW32962   3.627   3.850  13.340 -0.6567 -0.0328  0.2624
 7167SOL    HW132963   3.656   3.938  13.315 -0.9898 -0.4500 -1.5746
 7167SOL    HW232964   3.703   3.792  13.338 -1.2991 -0.8647  0.2251
 7168SOL     OW32965   4.268   0.964   6.247  0.0189 -0.0026 -0.1678
 7168SOL    HW132966   4.221   0.976   6.330 -2.0197 -0.3857 -1.2752
 7168SOL    HW232967   4.349   1.013   6.265  0.3549  0.5241 -3.1836
 7169SOL     OW32968   4.338   3.590   1.836  0.3534 -0.3295 -0.2489
 7169SOL    HW132969   4.372   3.607   1.749 -0.4672 -1.4836 -0.8008
 7169SOL    HW232970   4.326   3.679   1.869  1.9463 -1.1770  2.6231
 7170SOL     OW32971   1.332   4.064   6.619  0.3743 -0.6604 -0.0027
 7170SOL    HW132972   1.336   4.158   6.603  0.1361 -1.1366 -2.8643
 7170SOL    HW232973   1.418   4.044   6.581 -0.1649  0.0482 -1.6180
 7171SOL     OW32974   0.183   3.728   6.978 -0.1250 -0.2045 -0.0681
 7171SOL    HW132975   0.159   3.818   6.958  2.5816  0.4160 -0.4825
 7171SOL    HW232976   0.139   3.714   7.062  0.0861 -0.7095 -0.0414
 7172SOL     OW32977   4.344   0.331   8.942  0.0387 -0.8044  0.4050
 7172SOL    HW132978   4.417   0.389   8.917  0.4642 -0.6380  2.0291
 7172SOL    HW232979   4.371   0.319   9.033  0.0045 -0.8903  0.4035
 7173SOL     OW32980   0.804   3.572   7.731 -0.1114 -0.2999 -0.5689
 7173SOL    HW132981   0.838   3.494   7.775 -0.5188 -1.9002 -3.0559
 7173SOL    HW232982   0.881   3.628   7.743 -0.2486 -0.5313  1.3882
 7174SOL     OW32983   3.334   1.597   4.456 -0.8722 -0.0103 -0.1366
 7174SOL    HW132984   3.394   1.560   4.391  0.2511 -0.1514  0.9994
 7174SOL    HW232985   3.249   1.576   4.415 -1.3032 -0.6774  1.1048
 7175SOL     OW32986   0.458   1.155   7.455  0.2191 -0.2079 -1.1906
 7175SOL    HW132987   0.464   1.191   7.366 -3.1061  3.8472  0.1991
 7175SOL    HW232988   0.478   1.063   7.436  0.5232 -0.1530 -1.1328
 7176SOL     OW32989   2.929   1.547   9.472  0.6205 -0.0889 -0.0352
 7176SOL    HW132990   2.912   1.636   9.442  0.7416 -0.1572 -0.3038
 7176SOL    HW232991   2.845   1.510   9.500  1.6035 -0.4546  2.4288
 7177SOL     OW32992   2.222   1.986   7.614  0.6896 -0.2312 -0.6048
 7177SOL    HW132993   2.131   1.981   7.643  1.0387 -0.5054  0.4280
 7177SOL    HW232994   2.220   2.054   7.548  0.0866  0.9443  0.6344
 7178SOL     OW32995   1.435   4.676   1.260  0.2163  0.1825  0.3902
 7178SOL    HW132996   1.361   0.009   1.239 -0.0599 -0.7414 -1.1163
 7178SOL    HW232997   1.412   4.653   1.350  1.2015 -0.4411  0.4816
 7179SOL     OW32998   2.080   3.956   6.957 -0.1252  0.2193  0.2430
 7179SOL    HW132999   2.044   3.993   7.037 -3.6305  0.3929 -1.4240
 7179SOL    HW233000   2.133   4.035   6.942  1.4434 -0.7079  0.8383
 7180SOL     OW33001   1.876   2.204  16.484  0.1383 -0.6536 -0.3039
 7180SOL    HW133002   1.787   2.223  16.458 -0.2923 -1.1908  0.7593
 7180SOL    HW233003   1.901   2.133  16.424 -2.6446 -1.9512  0.0818
 7181SOL     OW33004   4.644   1.646  17.439 -0.6394 -0.6346 -0.2096
 7181SOL    HW133005   4.656   1.724  17.494  0.3718  0.8086 -2.4584
 7181SOL    HW233006   0.003   1.656  17.392 -1.9473 -0.7367 -2.5357
 7182SOL     OW33007   4.667   0.981   0.535 -0.1810  0.0861 -0.5850
 7182SOL    HW133008   4.640   1.025   0.454 -4.1792 -0.6673  0.3285
 7182SOL    HW233009   4.642   0.889   0.529 -1.9946  0.5850 -0.6782
 7183SOL     OW33010   1.618   0.806   2.328  0.0344  0.8139 -0.6668
 7183SOL    HW133011   1.620   0.794   2.233  0.3521 -1.8418 -0.3424
 7183SOL    HW233012   1.573   0.889   2.343  1.3947  1.7424 -1.7918
 7184SOL     OW33013   3.797   3.727   5.804 -0.3348  0.5233  0.1756
 7184SOL    HW133014   3.815   3.642   5.844 -0.5537 -0.0883 -1.0086
 7184SOL    HW233015   3.888   3.749   5.785 -0.9019  1.1046 -1.9709
 7185SOL     OW33016   3.990   2.068   7.386  0.5226 -0.3540  0.2622
 7185SOL    HW133017   3.967   2.156   7.416 -1.7390 -0.8162 -0.1502
 7185SOL    HW233018   3.911   2.025   7.417 -0.6412  2.1826  0.8066
 7186SOL     OW33019   2.089   3.619   5.928  0.4713 -0.0508  0.1387
 7186SOL    HW133020   2.007   3.582   5.895  0.5105  0.8397 -0.9555
 7186SOL    HW233021   2.099   3.693   5.869  1.7733 -0.6888 -0.4286
 7187SOL     OW33022   2.795   1.836   7.763  0.8012  0.6875  0.1879
 7187SOL    HW133023   2.812   1.886   7.843  0.7125  2.1755 -0.7130
 7187SOL    HW233024   2.744   1.760   7.790  0.7834  0.2925 -0.9653
 7188SOL     OW33025   3.268   3.497   0.400  0.2835 -0.1106 -0.5207
 7188SOL    HW133026   3.316   3.568   0.442 -2.1665  0.4878  1.2943
 7188SOL    HW233027   3.338   3.451   0.353  0.9453  1.4079 -0.9996
 7189SOL     OW33028   1.863   2.834   8.192  1.0541  0.3603  0.5070
 7189SOL    HW133029   1.865   2.793   8.278 -0.8703 -0.6896  0.0486
 7189SOL    HW233030   1.909   2.915   8.214 -1.6204  2.1847 -0.4982
 7190SOL     OW33031   2.771   3.452   6.787 -0.5103 -0.6090  0.4561
 7190SOL    HW133032   2.712   3.469   6.861  0.8448  1.5502  1.0544
 7190SOL    HW233033   2.853   3.435   6.833  0.7345  1.0382 -1.0971
 7191SOL     OW33034   3.559   1.962   7.994  0.0362 -0.3951 -0.2270
 7191SOL    HW133035   3.608   1.992   7.917 -1.2752  1.6051 -0.2841
 7191SOL    HW233036   3.551   2.043   8.044  2.3232 -0.4325  0.1781
 7192SOL     OW33037   3.691   2.904   3.157  0.4581 -0.2154  0.4108
 7192SOL    HW133038   3.689   2.879   3.249 -0.0778  0.5019  0.5908
 7192SOL    HW233039   3.700   2.824   3.106 -2.4086 -1.0091  1.1868
 7193SOL     OW33040   2.491   3.013  10.574  0.0364  0.2811 -0.0990
 7193SOL    HW133041   2.426   3.011  10.645 -0.8913  1.9239 -0.8930
 7193SOL    HW233042   2.546   2.947  10.614 -0.2568  0.6046  0.8340
 7194SOL     OW33043   4.639   2.148  15.637  0.1173  0.1131  0.4919
 7194SOL    HW133044   4.685   2.124  15.718  0.3401 -1.4532 -0.0963
 7194SOL    HW233045   4.710   2.139  15.573  0.1115  1.6310  0.2953
 7195SOL     OW33046   1.883   0.077   1.101 -0.2769  0.6525 -0.2173
 7195SOL    HW133047   1.927   4.719   1.080 -2.2850 -0.9962  2.0473
 7195SOL    HW233048   1.795   0.045   1.083 -0.4663  1.8772 -1.5065
 7196SOL     OW33049   1.246   3.261   5.642  0.2285 -0.2124  0.0835
 7196SOL    HW133050   1.310   3.193   5.624 -1.1575 -1.3983 -0.3809
 7196SOL    HW233051   1.248   3.320   5.566 -1.4161 -0.5534 -0.2234
 7197SOL     OW33052   4.671   0.550   9.226 -0.1720  0.0399 -0.7779
 7197SOL    HW133053   0.037   0.582   9.229 -0.5007  0.8509  0.4915
 7197SOL    HW233054   4.671   0.531   9.133  0.6847 -1.1168 -0.5404
 7198SOL     OW33055   1.570   0.464  15.253  0.2695  0.3826 -0.5769
 7198SOL    HW133056   1.491   0.518  15.247  0.8838  1.4458  0.8845
 7198SOL    HW233057   1.539   0.400  15.317  0.3060 -0.9730 -1.9111
 7199SOL     OW33058   4.137   0.762   1.410  0.5115 -0.4812  0.0323
 7199SOL    HW133059   4.071   0.723   1.467  0.2070  1.0427  0.7224
 7199SOL    HW233060   4.197   0.690   1.390  2.3001  1.4026 -1.2988
 7200SOL     OW33061   2.031   1.806   2.028  0.2061  0.0224  0.1596
 7200SOL    HW133062   2.085   1.774   1.956  2.9445  1.5307  1.5685
 7200SOL    HW233063   2.076   1.887   2.050 -1.1363  0.2924  1.8984
 7201SOL     OW33064   1.320   2.958   2.395  0.3633  0.1351  0.3925
 7201SOL    HW133065   1.333   3.052   2.408  1.4111  0.1606 -0.7728
 7201SOL    HW233066   1.404   2.926   2.362 -0.3720 -1.9959  0.6142
 7202SOL     OW33067   3.973   2.466  14.651 -0.3215  0.3280  0.3779
 7202SOL    HW133068   3.935   2.384  14.679 -2.7482  0.7241 -1.8104
 7202SOL    HW233069   4.027   2.433  14.579 -1.9346 -0.4844 -0.4424
 7203SOL     OW33070   3.639   2.562   4.979 -0.3217 -0.5434  0.5084
 7203SOL    HW133071   3.620   2.500   5.050 -2.2881 -0.0419  0.4207
 7203SOL    HW233072   3.712   2.520   4.934  0.6556  2.2621 -0.5479
 7204SOL     OW33073   0.045   1.083   4.441  0.2135 -0.2670 -0.1066
 7204SOL    HW133074   0.129   1.040   4.451  0.0881 -0.2167  1.1854
 7204SOL    HW233075   4.714   1.005   4.445  0.9199 -0.6516  1.9146
 7205SOL     OW33076   2.281   2.397   5.801 -0.3146 -0.1943 -0.6509
 7205SOL    HW133077   2.369   2.361   5.796 -1.0056 -2.1683  1.4747
 7205SOL    HW233078   2.290   2.492   5.794  1.7390 -0.2219  1.5906
 7206SOL     OW33079   0.250   2.831   3.680  0.1506  0.0193 -0.3973
 7206SOL    HW133080   0.255   2.735   3.681  1.0237  0.1014  1.8641
 7206SOL    HW233081   0.323   2.844   3.620 -0.6417 -1.3091 -1.6722
 7207SOL     OW33082   2.488   1.538   3.868  0.1018  0.3141  0.1993
 7207SOL    HW133083   2.403   1.570   3.839 -0.1422  1.6775  2.4240
 7207SOL    HW233084   2.481   1.552   3.963 -3.2635 -1.3195  0.2237
 7208SOL     OW33085   1.038   1.330   8.752 -0.6488  0.4988  0.4945
 7208SOL    HW133086   1.037   1.256   8.813 -0.3555  0.1134  0.0346
 7208SOL    HW233087   1.121   1.325   8.703 -1.0168 -0.8755  0.0160
 7209SOL     OW33088   3.143   3.703  12.803 -0.0477 -0.0578 -0.4072
 7209SOL    HW133089   3.188   3.703  12.887  0.0241 -1.0420 -0.4501
 7209SOL    HW233090   3.114   3.612  12.802 -3.4392  1.0079  1.2905
 7210SOL     OW33091   0.533   3.905   7.144  0.1066  0.0242 -0.2249
 7210SOL    HW133092   0.615   3.886   7.189 -0.2572 -2.0876 -0.4519
 7210SOL    HW233093   0.483   3.957   7.206  1.9227 -0.0142  1.2621
 7211SOL     OW33094   2.499   3.937   5.326 -0.0651  0.1599  0.5587
 7211SOL    HW133095   2.574   3.929   5.385 -1.3700  2.2873  2.5311
 7211SOL    HW233096   2.444   4.001   5.373 -0.8747  0.2142 -0.4698
 7212SOL     OW33097   3.136   3.385   8.732 -0.1657  0.4930 -0.6518
 7212SOL    HW133098   3.160   3.466   8.776  0.8009 -0.3217  0.3289
 7212SOL    HW233099   3.083   3.414   8.658 -0.5954 -0.4970 -0.7404
 7213SOL     OW33100   1.229   4.011   9.817  0.8395  0.3700  0.9734
 7213SOL    HW133101   1.199   3.960   9.893 -1.5437 -0.1595 -0.3352
 7213SOL    HW233102   1.165   3.975   9.756  0.6190 -1.0119  2.0120
 7214SOL     OW33103   1.859   1.538  17.418  0.2684  0.4465  0.4324
 7214SOL    HW133104   1.822   1.460  17.376  1.2525  0.1930  0.0462
 7214SOL    HW233105   1.926   1.569  17.358  0.9127 -1.8426 -0.0228
 7215SOL     OW33106   3.138   3.969   5.242 -0.0365 -0.2356  0.4846
 7215SOL    HW133107   3.104   3.952   5.330 -1.6410  2.9279  0.4670
 7215SOL    HW233108   3.085   4.043   5.213 -0.9988 -0.7406  0.9493
 7216SOL     OW33109   4.475   3.679   3.084 -0.1067  0.0092  0.5572
 7216SOL    HW133110   4.555   3.686   3.032 -1.4792 -0.8923 -1.6658
 7216SOL    HW233111   4.407   3.687   3.017 -0.1672  3.0667  0.9784
 7217SOL     OW33112   1.337   4.384  12.300  0.0035  0.1283 -0.0082
 7217SOL    HW133113   1.267   4.436  12.260  0.7750  0.6985 -0.6027
 7217SOL    HW233114   1.346   4.315  12.234 -0.5871  0.9230 -0.9196
 7218SOL     OW33115   0.719   3.617  11.673 -0.1643  0.3346 -0.2038
 7218SOL    HW133116   0.769   3.686  11.715 -1.6231  1.7740 -0.8405
 7218SOL    HW233117   0.636   3.664  11.679 -0.0918  0.5257 -0.7351
 7219SOL     OW33118   0.818   1.736   8.057 -0.0670 -0.5153 -0.5896
 7219SOL    HW133119   0.756   1.686   8.003 -0.9003 -1.8324  1.5876
 7219SOL    HW233120   0.759   1.776   8.121  0.7031 -0.1260 -0.1356
 7220SOL     OW33121   2.745   2.326   1.424  0.3157  0.0918  1.0978
 7220SOL    HW133122   2.832   2.365   1.430 -0.3963  2.0144 -0.8758
 7220SOL    HW233123   2.771   2.241   1.459 -0.5932 -0.8657 -0.5282
 7221SOL     OW33124   4.345   3.090   5.401 -0.2391  0.4174 -0.3807
 7221SOL    HW133125   4.353   2.995   5.395  1.7858  0.5738 -0.1224
 7221SOL    HW233126   4.408   3.100   5.473 -0.5641 -0.2334 -0.0107
 7222SOL     OW33127   1.696   1.900   1.075  0.1802 -0.1126 -0.3285
 7222SOL    HW133128   1.729   1.843   1.006 -0.6501 -2.4766  1.1947
 7222SOL    HW233129   1.657   1.972   1.024  1.3139  0.0430 -0.9676
 7223SOL     OW33130   1.493   3.331   7.763 -0.6240  0.0268  0.4989
 7223SOL    HW133131   1.500   3.277   7.684  0.2384 -0.4826  0.9151
 7223SOL    HW233132   1.582   3.367   7.764 -1.3797  1.8454  2.8099
 7224SOL     OW33133   2.807   1.400  10.981  0.4031  0.8061  0.2242
 7224SOL    HW133134   2.771   1.487  10.961  1.8669  0.6556 -3.0824
 7224SOL    HW233135   2.851   1.376  10.900  0.3957  0.5658  0.2925
 7225SOL     OW33136   2.875   0.799  11.760 -0.1009  0.9114  0.3115
 7225SOL    HW133137   2.880   0.731  11.693  0.9146  0.9768  0.3289
 7225SOL    HW233138   2.876   0.867  11.692 -2.0679 -1.3230 -1.9812
 7226SOL     OW33139   2.831   4.330  16.052 -0.4071  0.3770  0.5094
 7226SOL    HW133140   2.748   4.345  16.097 -1.3640 -0.3328 -1.0162
 7226SOL    HW233141   2.865   4.419  16.053 -2.2222  1.1241 -2.5848
 7227SOL     OW33142   4.531   3.544   7.605 -0.0169 -0.1841  0.2931
 7227SOL    HW133143   4.443   3.562   7.572  0.5448  0.0240 -1.0785
 7227SOL    HW233144   4.567   3.627   7.634 -1.2795  0.9412 -1.4069
 7228SOL     OW33145   0.387   2.349   5.088 -0.0373 -0.0237 -0.4175
 7228SOL    HW133146   0.304   2.389   5.064 -0.2132 -0.4274 -0.4900
 7228SOL    HW233147   0.346   2.275   5.132  0.5685 -0.6492 -0.8964
 7229SOL     OW33148   2.615   1.741  10.133  0.2883 -0.1673  0.3731
 7229SOL    HW133149   2.653   1.672  10.186 -0.2270 -0.3441  0.5109
 7229SOL    HW233150   2.659   1.728  10.049 -0.5980 -2.2986  0.2504
 7230SOL     OW33151   2.331   1.966   8.649 -0.2229 -0.6200 -0.2991
 7230SOL    HW133152   2.323   2.040   8.589  1.2909 -0.4021 -0.2292
 7230SOL    HW233153   2.410   1.993   8.697 -1.1661  0.5125  0.6351
 7231SOL     OW33154   2.587   4.256   3.538  0.5752  0.2509 -0.1114
 7231SOL    HW133155   2.657   4.225   3.595 -0.1734  0.1492  0.7582
 7231SOL    HW233156   2.541   4.316   3.596 -2.6687 -2.1973 -0.1153
 7232SOL     OW33157   2.308   0.601   7.019 -0.5740  0.2153 -0.1065
 7232SOL    HW133158   2.226   0.612   7.067 -0.7501  1.0610 -0.5922
 7232SOL    HW233159   2.351   0.686   7.024  1.5840 -0.8016 -1.3373
 7233SOL     OW33160   2.580   0.672  12.958 -0.3835  0.0644 -0.2802
 7233SOL    HW133161   2.601   0.655  13.050  0.3199  0.7517 -0.3129
 7233SOL    HW233162   2.530   0.753  12.961  0.8766  0.8522 -0.7050
 7234SOL     OW33163   3.575   1.092   9.747 -0.8025 -0.1139 -0.1298
 7234SOL    HW133164   3.669   1.078   9.737 -0.8005  1.8583 -2.8463
 7234SOL    HW233165   3.559   1.163   9.685 -0.8689 -2.2364 -2.5152
 7235SOL     OW33166   0.732   2.379  16.365  0.0503 -0.2302 -0.6643
 7235SOL    HW133167   0.797   2.317  16.333  1.7131  1.3770 -0.4382
 7235SOL    HW233168   0.784   2.407  16.440 -0.4197 -1.2776  0.0529
 7236SOL     OW33169   3.914   0.464  17.143 -0.2053  0.1278  0.4253
 7236SOL    HW133170   3.903   0.530  17.211  2.1216  0.4564  0.5009
 7236SOL    HW233171   3.898   0.518  17.066  0.2975 -3.0459 -1.9360
 7237SOL     OW33172   1.268   3.504   1.621 -0.4402  0.4776 -0.5940
 7237SOL    HW133173   1.258   3.594   1.649 -1.3074  0.8428 -2.0362
 7237SOL    HW233174   1.210   3.506   1.545 -1.7586 -0.6419  0.3812
 7238SOL     OW33175   3.180   2.698   5.468  0.2292  0.1373  0.4394
 7238SOL    HW133176   3.171   2.724   5.376  2.6278 -0.4441  0.0465
 7238SOL    HW233177   3.274   2.691   5.481  0.3445  2.1325  0.8305
 7239SOL     OW33178   3.282   2.214   3.292 -0.0747 -0.6228  0.1507
 7239SOL    HW133179   3.342   2.288   3.300 -1.2778  0.2602  1.0103
 7239SOL    HW233180   3.200   2.262   3.278  0.9647  0.1993 -3.2705
 7240SOL     OW33181   0.882   4.466   1.776  0.1101 -0.7299  0.3050
 7240SOL    HW133182   0.883   4.441   1.869  1.1228  0.1480  0.5282
 7240SOL    HW233183   0.878   4.384   1.727  1.0274 -0.1620 -0.7163
 7241SOL     OW33184   4.105   3.835   1.710  0.4201 -0.8548  0.4563
 7241SOL    HW133185   4.143   3.861   1.625  0.0174 -0.5455  0.3720
 7241SOL    HW233186   4.049   3.763   1.683  0.6177 -0.4857 -0.9924
 7242SOL     OW33187   3.744   0.227   1.949 -0.2118  0.4882 -0.5519
 7242SOL    HW133188   3.803   0.268   2.012  1.9112  0.5239 -2.5593
 7242SOL    HW233189   3.798   0.169   1.895 -0.5720 -1.2145  0.9282
 7243SOL     OW33190   4.313   1.455   3.530  0.3125 -0.2507 -0.0276
 7243SOL    HW133191   4.401   1.456   3.569  0.3998  0.4382 -0.2463
 7243SOL    HW233192   4.337   1.473   3.439  0.7773  2.2037  0.5673
 7244SOL     OW33193   0.178   0.172   7.343  0.7086 -0.4694 -0.8175
 7244SOL    HW133194   0.207   0.082   7.328 -0.8026 -1.1720  0.4731
 7244SOL    HW233195   0.118   0.188   7.270  0.8761 -0.3667 -0.9327
 7245SOL     OW33196   1.256   3.015   5.336 -0.3521  0.4687 -0.2977
 7245SOL    HW133197   1.173   3.063   5.338 -0.4103  0.3437  0.2471
 7245SOL    HW233198   1.222   2.930   5.362 -0.4867  0.5780 -0.1123
 7246SOL     OW33199   3.373   2.920   8.958  0.2635 -0.0852 -0.1433
 7246SOL    HW133200   3.457   2.917   8.911 -1.1190  1.1714 -2.6463
 7246SOL    HW233201   3.319   2.922   8.879  0.4250 -3.6888 -0.3529
 7247SOL     OW33202   3.711   4.129   9.101 -0.1342  0.5877  0.0522
 7247SOL    HW133203   3.805   4.142   9.087 -0.0194 -0.7062 -0.4428
 7247SOL    HW233204   3.677   4.071   9.032  1.7758 -2.5824  1.7730
 7248SOL     OW33205   0.511   3.308   7.579  0.3380  0.0159  0.0624
 7248SOL    HW133206   0.463   3.247   7.635 -1.5408  2.3626  1.0196
 7248SOL    HW233207   0.439   3.362   7.546 -0.6667 -2.4669 -1.8023
 7249SOL     OW33208   2.457   0.195   1.409 -0.4779 -0.1654  0.2433
 7249SOL    HW133209   2.478   0.183   1.316 -0.7836  3.4763 -0.2763
 7249SOL    HW233210   2.543   0.220   1.443 -0.6085  0.8508 -0.1852
 7250SOL     OW33211   4.084   3.827   5.301  0.0908  0.6981 -0.3827
 7250SOL    HW133212   4.138   3.847   5.377 -0.0550 -0.1971 -0.0377
 7250SOL    HW233213   3.998   3.860   5.327  0.2591 -1.5097  3.0546
 7251SOL     OW33214   2.533   3.124   8.903 -0.0107  0.1479 -0.0819
 7251SOL    HW133215   2.568   3.169   8.981  0.4409  3.3210 -2.0911
 7251SOL    HW233216   2.580   3.042   8.915 -2.2095 -1.0397  0.2904
 7252SOL     OW33217   1.900   2.808  12.765  0.0610  0.5095  0.6626
 7252SOL    HW133218   1.907   2.732  12.708  2.7516 -0.1099  1.8477
 7252SOL    HW233219   1.925   2.871  12.698 -2.4561  0.5582 -0.2465
 7253SOL     OW33220   3.833   3.121   7.445  0.3157 -0.5196 -0.8953
 7253SOL    HW133221   3.898   3.113   7.375  2.0056 -0.0496  0.6331
 7253SOL    HW233222   3.871   3.182   7.508 -0.2529 -2.1260  1.0084
 7254SOL     OW33223   3.886   3.253  12.139 -0.0174  0.8657 -0.0966
 7254SOL    HW133224   3.894   3.331  12.084 -0.3371  0.4251 -0.7650
 7254SOL    HW233225   3.793   3.266  12.159  0.0774 -2.2677  2.2831
 7255SOL     OW33226   2.763   1.869   1.010 -0.5805 -0.1779 -0.0173
 7255SOL    HW133227   2.725   1.916   1.083 -0.4987  0.8968 -0.6737
 7255SOL    HW233228   2.752   1.777   1.036 -0.2538 -0.6524 -1.5167
 7256SOL     OW33229   2.361   4.396   3.682  0.0166  0.0089 -0.3179
 7256SOL    HW133230   2.423   4.465   3.657  2.2967 -1.0387  2.4953
 7256SOL    HW233231   2.375   4.397   3.777  1.5860 -0.5284 -0.5471
 7257SOL     OW33232   0.636   2.948  14.774 -1.1046 -0.7349 -0.1960
 7257SOL    HW133233   0.680   2.957  14.690  2.7681 -0.4706  1.8302
 7257SOL    HW233234   0.678   3.024  14.816 -0.2145 -1.8275  0.8985
 7258SOL     OW33235   2.936   3.699   6.263 -0.2359 -0.0052  0.2628
 7258SOL    HW133236   3.028   3.673   6.271 -0.1066  0.3976  0.0572
 7258SOL    HW233237   2.899   3.651   6.190  0.6526  1.3677 -1.0898
 7259SOL     OW33238   1.449   1.273   9.239  0.0435  0.1591 -0.2946
 7259SOL    HW133239   1.471   1.222   9.161 -0.6877  0.3036 -0.6008
 7259SOL    HW233240   1.530   1.324   9.248 -0.0657  0.9781 -3.7395
 7260SOL     OW33241   4.193   2.168  12.561  0.7171 -0.3843  0.1346
 7260SOL    HW133242   4.223   2.218  12.486  0.8455 -0.6303  0.0234
 7260SOL    HW233243   4.198   2.237  12.628 -0.8830  0.2411 -0.4013
 7261SOL     OW33244   0.642   3.930   3.941 -0.0053 -0.4017 -0.0007
 7261SOL    HW133245   0.676   3.890   3.861 -1.3209 -2.1025  0.2963
 7261SOL    HW233246   0.679   3.873   4.008  0.7244 -0.2172 -0.2429
 7262SOL     OW33247   0.078   1.002   3.808 -0.2353  0.6294 -0.3042
 7262SOL    HW133248   0.036   0.956   3.881 -0.8027  0.9244 -0.4412
 7262SOL    HW233249   0.101   0.936   3.743  0.1192  0.2427  0.2116
 7263SOL     OW33250   4.005   0.555  11.102 -0.4680 -0.7139 -0.7907
 7263SOL    HW133251   3.989   0.585  11.013 -1.3845 -1.0322 -0.7303
 7263SOL    HW233252   3.978   0.633  11.151 -0.2994 -2.0787  1.4908
 7264SOL     OW33253   2.575   2.352  12.367 -0.6304 -0.9144  0.1164
 7264SOL    HW133254   2.604   2.416  12.432 -1.3798 -1.4475  0.9705
 7264SOL    HW233255   2.659   2.322  12.332 -0.0599 -0.6687  1.2732
 7265SOL     OW33256   2.722   0.491  12.044 -0.4086 -0.0564 -0.2986
 7265SOL    HW133257   2.682   0.529  12.122  0.7036 -0.4675  0.4711
 7265SOL    HW233258   2.640   0.470  11.999 -1.3746  0.1482  1.3986
 7266SOL     OW33259   1.322   3.937   4.846 -0.4049  0.2361  0.1672
 7266SOL    HW133260   1.362   3.893   4.921 -0.4437 -0.5958 -0.2978
 7266SOL    HW233261   1.391   3.936   4.780  1.3456  0.8060  1.9942
 7267SOL     OW33262   3.719   2.016   7.455  0.1295  0.2385  0.4749
 7267SOL    HW133263   3.705   1.925   7.481  0.7156  0.9319  3.2425
 7267SOL    HW233264   3.680   2.071   7.523  3.2101  2.6436  0.2787
 7268SOL     OW33265   1.514   2.170   4.518  0.1757  0.2104  0.2206
 7268SOL    HW133266   1.583   2.216   4.566  0.9024  0.4527 -1.0308
 7268SOL    HW233267   1.561   2.088   4.501 -1.3331 -0.7078  0.5173
 7269SOL     OW33268   4.680   3.870  10.221  0.6571 -0.2447 -0.1767
 7269SOL    HW133269   4.655   3.959  10.243 -0.4360 -0.1492 -1.7936
 7269SOL    HW233270   4.668   3.826  10.305 -1.5576  0.2396 -0.2466
 7270SOL     OW33271   0.017   3.451   3.653  0.4257  0.0006  0.2460
 7270SOL    HW133272   0.033   3.468   3.561  0.9966 -2.2018 -0.0699
 7270SOL    HW233273   4.711   3.534   3.689 -0.6945 -1.4033  2.6199
 7271SOL     OW33274   3.997   2.276   2.726 -0.0529  0.0679 -0.1775
 7271SOL    HW133275   4.006   2.318   2.641 -0.3716  0.2282 -0.1302
 7271SOL    HW233276   3.998   2.350   2.787 -1.7336  0.1608 -0.2675
 7272SOL     OW33277   4.198   0.380  12.450  0.3958 -0.0854 -0.0905
 7272SOL    HW133278   4.226   0.457  12.400 -0.1457 -0.1147 -0.4404
 7272SOL    HW233279   4.282   0.360  12.491 -0.7734 -1.5500  1.5984
 7273SOL     OW33280   1.748   4.347   3.165 -0.1613  0.1667 -0.2456
 7273SOL    HW133281   1.665   4.389   3.143 -0.8747 -0.6881  0.8259
 7273SOL    HW233282   1.804   4.425   3.166  1.6401 -1.1325  1.1992
 7274SOL     OW33283   1.809   0.390   4.887  0.7126  0.8293  0.2637
 7274SOL    HW133284   1.768   0.474   4.870  0.3096  0.3920 -0.9499
 7274SOL    HW233285   1.870   0.391   4.813  1.3982  1.8602  0.8529
 7275SOL     OW33286   0.858   1.530  15.763  0.1518 -0.3026 -0.4670
 7275SOL    HW133287   0.885   1.546  15.854 -0.1952  0.8859 -0.5617
 7275SOL    HW233288   0.772   1.495  15.784 -0.2985  1.8478  1.3643
 7276SOL     OW33289   2.416   1.155   0.418  0.0974 -0.0635  0.5692
 7276SOL    HW133290   2.349   1.214   0.451 -1.3499 -0.1300 -2.2668
 7276SOL    HW233291   2.364   1.075   0.426 -2.6835  1.5699 -1.0876
 7277SOL     OW33292   4.661   2.977   8.577 -0.2025 -0.0179  0.0530
 7277SOL    HW133293   4.703   2.919   8.514  2.5661 -1.6370  3.3415
 7277SOL    HW233294   0.017   3.011   8.618 -0.3381  1.6411 -1.0708
 7278SOL     OW33295   3.408   3.559  12.377  0.0380 -0.0717  0.4258
 7278SOL    HW133296   3.328   3.545  12.429  0.6569 -1.9336  0.8607
 7278SOL    HW233297   3.387   3.652  12.363  1.8314  0.3578  0.5683
 7279SOL     OW33298   1.367   2.597   8.619  0.0044 -0.6326  0.1513
 7279SOL    HW133299   1.333   2.678   8.580 -1.0767  0.1033  2.6413
 7279SOL    HW233300   1.433   2.629   8.680 -1.6484  0.1834  1.5399
 7280SOL     OW33301   3.784   2.935  12.170  0.3044  0.2779 -0.2412
 7280SOL    HW133302   3.724   2.977  12.231  0.9617  0.4952  0.2584
 7280SOL    HW233303   3.720   2.873  12.136 -0.7870  0.5688  1.2971
 7281SOL     OW33304   2.162   2.026   2.111  0.6299  0.1580 -0.6397
 7281SOL    HW133305   2.220   1.963   2.154  0.1423 -0.0171 -0.2401
 7281SOL    HW233306   2.223   2.088   2.072 -0.3373  0.4119 -1.7491
 7282SOL     OW33307   4.687   0.417   4.105  0.5162 -0.2194 -0.0611
 7282SOL    HW133308   4.613   0.388   4.052  1.4525 -1.7810 -0.5201
 7282SOL    HW233309   4.667   0.380   4.191  1.6429 -0.6823 -0.0016
 7283SOL     OW33310   2.696   0.094   6.389 -0.2485 -0.0674 -0.1231
 7283SOL    HW133311   2.788   0.095   6.365 -0.5343 -0.7177 -1.2712
 7283SOL    HW233312   2.676   0.183   6.418  0.6249  0.7357 -1.9702
 7284SOL     OW33313   3.356   0.081   0.372 -0.3247 -0.2938 -0.1597
 7284SOL    HW133314   3.316   0.157   0.331  1.4564 -0.2812 -1.8858
 7284SOL    HW233315   3.284   0.063   0.432 -0.1269  1.1069  0.4736
 7285SOL     OW33316   2.596   3.813   4.814 -0.6884 -0.4470  0.0009
 7285SOL    HW133317   2.520   3.820   4.756 -0.9088 -0.5515  0.2816
 7285SOL    HW233318   2.634   3.900   4.803 -0.0910 -0.7163 -0.1032
 7286SOL     OW33319   4.090   0.435   4.153  0.1007  0.0812  0.2221
 7286SOL    HW133320   3.996   0.451   4.144 -0.2555  0.7588  4.9279
 7286SOL    HW233321   4.095   0.339   4.156 -0.1813  0.0447 -0.4486
 7287SOL     OW33322   3.455   2.494   3.599  0.3247  0.1163  0.0519
 7287SOL    HW133323   3.501   2.473   3.517 -0.9271  0.7451 -0.8085
 7287SOL    HW233324   3.362   2.493   3.576  0.0916 -0.9200  1.0881
 7288SOL     OW33325   1.290   4.164   8.839 -0.0215  0.1867  0.3930
 7288SOL    HW133326   1.357   4.220   8.798 -1.3143  0.8768 -0.7755
 7288SOL    HW233327   1.212   4.192   8.792  0.0265 -1.0947 -0.4677
 7289SOL     OW33328   3.681   1.133   6.519 -0.2979 -0.1644 -0.7421
 7289SOL    HW133329   3.612   1.081   6.477  0.4167 -1.5698 -0.1799
 7289SOL    HW233330   3.747   1.066   6.536  0.2823  0.6629  0.2460
 7290SOL     OW33331   3.165   2.251  16.466  0.5769 -0.3400  0.0085
 7290SOL    HW133332   3.112   2.317  16.510 -0.8241 -0.5320 -1.3986
 7290SOL    HW233333   3.215   2.289  16.394  1.9292 -1.4779  0.3331
 7291SOL     OW33334   1.998   3.864  10.243 -0.1851  0.3509  0.0346
 7291SOL    HW133335   1.956   3.813  10.173 -0.1736  0.4333 -0.0320
 7291SOL    HW233336   2.023   3.802  10.311  1.0383 -0.1643 -0.8768
 7292SOL     OW33337   3.303   1.436   5.811 -0.3704 -0.0796 -0.0328
 7292SOL    HW133338   3.240   1.495   5.852  0.7115 -0.1351  1.6911
 7292SOL    HW233339   3.327   1.376   5.881 -2.6352 -2.8224 -1.6104
 7293SOL     OW33340   4.408   2.832   9.883  0.1226 -0.3545 -0.8777
 7293SOL    HW133341   4.322   2.792   9.901  0.5965 -1.0430 -0.0994
 7293SOL    HW233342   4.429   2.875   9.966 -1.2141 -0.2452 -0.5888
 7294SOL     OW33343   0.097   3.954   6.627 -0.9431 -0.6314 -0.4691
 7294SOL    HW133344   0.087   3.996   6.541  0.5147 -0.0098 -0.3341
 7294SOL    HW233345   0.185   3.987   6.645 -0.6029 -0.5917 -2.2387
 7295SOL     OW33346   3.477   0.869   1.998 -1.0307 -0.0169  0.2641
 7295SOL    HW133347   3.413   0.798   1.994  0.2722 -1.2844  1.8339
 7295SOL    HW233348   3.500   0.862   2.091 -2.7408  0.5030  0.7400
 7296SOL     OW33349   1.970   1.888   9.285  0.5436 -0.3057  0.0535
 7296SOL    HW133350   2.047   1.831   9.289  0.8406  0.1480  0.6972
 7296SOL    HW233351   1.946   1.859   9.197 -0.8436  1.2274 -0.0682
 7297SOL     OW33352   0.482   4.697  15.507  0.3952 -0.4379 -1.0687
 7297SOL    HW133353   0.409   0.011  15.459 -1.4177 -1.4579  0.8942
 7297SOL    HW233354   0.539   0.050  15.500  0.1285 -0.1146  0.2792
 7298SOL     OW33355   2.383   1.881   2.217 -0.7382 -0.0988 -0.1088
 7298SOL    HW133356   2.443   1.855   2.288  0.1831  0.1581 -0.7997
 7298SOL    HW233357   2.435   1.836   2.151 -0.3545  2.6851 -1.7004
 7299SOL     OW33358   0.969   2.657   8.628 -0.4051  0.6060  0.0960
 7299SOL    HW133359   1.006   2.686   8.712  0.2816 -1.5075  0.5179
 7299SOL    HW233360   0.909   2.728   8.605  0.1182  0.7722 -0.7535
 7300SOL     OW33361   0.411   0.431  12.893 -0.0041  0.0119 -0.2912
 7300SOL    HW133362   0.335   0.390  12.851 -0.8800 -0.7131  1.9498
 7300SOL    HW233363   0.481   0.366  12.882 -1.0987 -0.5193 -3.9328
 7301SOL     OW33364   3.730   2.304  10.055 -0.2007  0.1948  0.2437
 7301SOL    HW133365   3.763   2.231  10.107 -1.3152  0.4800  1.3582
 7301SOL    HW233366   3.698   2.356  10.129  0.0648 -0.1601  0.6028
 7302SOL     OW33367   2.286   0.487  12.381 -0.1242  0.3867  0.4486
 7302SOL    HW133368   2.227   0.559  12.358  0.4229 -0.2673 -3.0689
 7302SOL    HW233369   2.235   0.437  12.444 -2.1413  0.1185 -1.4024
 7303SOL     OW33370   0.290   3.307   8.209  0.1611  0.0734 -0.0595
 7303SOL    HW133371   0.287   3.395   8.170 -0.4935  0.3090  0.5271
 7303SOL    HW233372   0.324   3.329   8.296  0.3954  0.0495 -0.1453
 7304SOL     OW33373   4.697   2.360  14.017 -0.1050  0.0624  0.0608
 7304SOL    HW133374   4.649   2.359  13.934 -0.6662 -3.3067  0.4278
 7304SOL    HW233375   4.622   2.345  14.073 -0.1579  2.5293  0.6445
 7305SOL     OW33376   1.802   3.498   6.825 -0.0338 -0.4376  0.2565
 7305SOL    HW133377   1.873   3.516   6.764  1.7646 -1.3578  2.0701
 7305SOL    HW233378   1.795   3.580   6.873  0.6773 -0.1600 -0.1107
 7306SOL     OW33379   1.875   0.995   4.129  0.6065  0.1168  0.6725
 7306SOL    HW133380   1.800   1.004   4.189  0.1913 -0.6676  0.2792
 7306SOL    HW233381   1.895   1.086   4.109  3.6377 -0.5307  0.7344
 7307SOL     OW33382   0.818   0.887  10.539  0.6877 -0.7041  0.4856
 7307SOL    HW133383   0.822   0.969  10.586 -1.6950 -0.3384  0.0522
 7307SOL    HW233384   0.874   0.912  10.465 -1.5416 -0.3416 -1.0687
 7308SOL     OW33385   3.124   0.455  15.799 -0.5851  0.5303 -0.3645
 7308SOL    HW133386   3.157   0.521  15.738  0.3850  1.1200  0.8086
 7308SOL    HW233387   3.152   0.378  15.750  0.8533  1.1645 -0.5216
 7309SOL     OW33388   4.360   2.210   3.104  0.3357  0.7915  0.1022
 7309SOL    HW133389   4.277   2.188   3.063  1.1595 -1.3652 -0.3644
 7309SOL    HW233390   4.402   2.256   3.031 -1.9520  3.4090  0.4335
 7310SOL     OW33391   3.609   0.887   5.406 -0.0529  0.0579  0.4122
 7310SOL    HW133392   3.588   0.794   5.399 -1.2771  0.3972 -0.3442
 7310SOL    HW233393   3.618   0.891   5.502  2.3060 -2.9809  0.3204
 7311SOL     OW33394   1.469   1.748  13.171  0.4582  0.1023 -0.0253
 7311SOL    HW133395   1.418   1.801  13.231  2.7814  1.8105  0.4398
 7311SOL    HW233396   1.539   1.812  13.157 -1.5712  2.4219  0.3575
 7312SOL     OW33397   0.730   1.094   7.286  0.4602 -0.0064 -0.1974
 7312SOL    HW133398   0.757   1.145   7.363 -0.0944 -2.2271  1.4682
 7312SOL    HW233399   0.777   1.011   7.293  0.7116 -0.0621 -2.4478
 7313SOL     OW33400   3.356   2.427  17.170 -1.2467 -0.0976  0.1927
 7313SOL    HW133401   3.301   2.470  17.236 -1.1888 -0.4418  0.4652
 7313SOL    HW233402   3.428   2.386  17.218  0.3857  0.6890 -1.5943
 7314SOL     OW33403   4.043   1.653   9.772 -0.0185 -0.1786  0.1174
 7314SOL    HW133404   4.057   1.687   9.861 -1.7843  0.4918  0.1367
 7314SOL    HW233405   4.073   1.562   9.763 -0.6015 -0.2937 -0.6272
 7315SOL     OW33406   1.654   2.538   3.293  0.3681  0.4506  0.1160
 7315SOL    HW133407   1.682   2.574   3.377 -0.1349  0.5842  0.2289
 7315SOL    HW233408   1.737   2.512   3.253  0.8730  0.3164  1.2596
 7316SOL     OW33409   0.807   3.058   0.447  0.2404  0.2998 -0.1781
 7316SOL    HW133410   0.863   3.023   0.517 -1.3703 -1.7220  0.0678
 7316SOL    HW233411   0.714   3.049   0.464  0.3997 -1.1431 -0.1287
 7317SOL     OW33412   2.624   3.244   3.745  0.3211 -0.1337 -0.2459
 7317SOL    HW133413   2.638   3.332   3.781 -3.5508 -0.0693  1.0780
 7317SOL    HW233414   2.630   3.252   3.649 -2.2155  0.6802 -0.3368
 7318SOL     OW33415   3.533   4.392   8.532  0.7728 -0.4179  0.5666
 7318SOL    HW133416   3.507   4.436   8.451 -0.7030  0.2306  1.3823
 7318SOL    HW233417   3.482   4.436   8.600  1.0991 -0.5722  0.9098
 7319SOL     OW33418   3.141   2.614   7.151 -0.2709 -0.2722 -0.0192
 7319SOL    HW133419   3.228   2.575   7.142 -0.0440  0.5660 -1.5096
 7319SOL    HW233420   3.101   2.532   7.179  2.1823 -1.9820 -1.5599
 7320SOL     OW33421   3.889   2.032   1.949  0.4301  0.3116  0.0723
 7320SOL    HW133422   3.850   2.088   1.882  0.1137 -0.9764 -0.8136
 7320SOL    HW233423   3.824   2.053   2.016  1.1175  0.8441  0.5682
 7321SOL     OW33424   1.994   2.155   3.005 -0.4429 -0.3720  0.2728
 7321SOL    HW133425   2.038   2.109   3.076 -0.6145 -0.0556  0.5797
 7321SOL    HW233426   2.068   2.207   2.973 -0.7751 -1.9348 -3.0812
 7322SOL     OW33427   0.854   3.403   5.949 -0.2042  0.1983 -0.3115
 7322SOL    HW133428   0.919   3.381   6.016  0.1725  2.2096 -0.0403
 7322SOL    HW233429   0.901   3.472   5.904 -1.7246  1.3587 -0.1151
 7323SOL     OW33430   0.237   1.259  17.035 -0.5902  0.1469 -0.5045
 7323SOL    HW133431   0.214   1.215  16.954 -3.6534 -0.9579  0.9748
 7323SOL    HW233432   0.166   1.236  17.095  0.3829  2.2414  1.4879
 7324SOL     OW33433   2.251   3.875   7.262  0.0107  0.2545  0.1342
 7324SOL    HW133434   2.221   3.965   7.256 -1.3238 -0.1757  0.4386
 7324SOL    HW233435   2.188   3.842   7.327 -0.2654 -1.3027 -0.9176
 7325SOL     OW33436   0.008   2.683   4.734 -0.3085  0.0551  0.0611
 7325SOL    HW133437   4.644   2.663   4.702  0.1961  0.4754 -1.5435
 7325SOL    HW233438   0.049   2.606   4.695  1.2975  1.1569 -0.4394
 7326SOL     OW33439   4.687   0.670   2.160  0.1822 -0.5192  0.6206
 7326SOL    HW133440   4.700   0.600   2.096  0.3400 -0.4560  0.5827
 7326SOL    HW233441   0.043   0.720   2.140 -0.4079  0.0608 -0.2513
 7327SOL     OW33442   4.325   2.585   8.269  0.5280  0.5191  0.0524
 7327SOL    HW133443   4.317   2.627   8.355  0.4018  0.3442  0.1244
 7327SOL    HW233444   4.410   2.619   8.240  0.6775  0.7240  0.7357
 7328SOL     OW33445   4.438   0.906   7.146  0.4543  0.2946  0.4064
 7328SOL    HW133446   4.352   0.865   7.146  1.1284 -1.1046  0.1641
 7328SOL    HW233447   4.421   0.991   7.187 -2.3946  0.5006 -1.1493
 7329SOL     OW33448   4.009   2.480   9.231 -0.2174 -0.0529 -0.8464
 7329SOL    HW133449   4.024   2.386   9.239 -1.7311 -0.2955 -0.8797
 7329SOL    HW233450   3.920   2.478   9.265  0.2740 -1.7149  0.3136
 7330SOL     OW33451   1.350   0.222   3.563  0.1692 -0.2243  0.1452
 7330SOL    HW133452   1.333   0.310   3.598  0.8376 -0.1352  0.2378
 7330SOL    HW233453   1.446   0.219   3.567  0.1145 -0.7953  1.0993
 7331SOL     OW33454   2.039   3.200   5.753  0.0309 -0.2499  0.1729
 7331SOL    HW133455   2.128   3.165   5.745 -0.9636 -2.0608 -3.0639
 7331SOL    HW233456   2.020   3.210   5.846 -1.0904 -2.7620  0.1912
 7332SOL     OW33457   4.722   4.233   6.496  0.3885 -0.4496 -0.0858
 7332SOL    HW133458   0.045   4.236   6.580 -0.7811  0.8460  0.5166
 7332SOL    HW233459   4.633   4.208   6.520  0.1295  2.6931  2.2304
 7333SOL     OW33460   2.011   2.380   6.218 -0.2849 -0.0378  0.0916
 7333SOL    HW133461   2.006   2.331   6.300 -0.7081 -0.2046 -0.0330
 7333SOL    HW233462   2.078   2.443   6.244  0.6756 -0.8999 -0.2586
 7334SOL     OW33463   4.176   1.234   5.390  0.2940 -0.6479 -0.1203
 7334SOL    HW133464   4.137   1.319   5.369  0.1403 -0.6626  0.1100
 7334SOL    HW233465   4.176   1.190   5.305 -1.3894 -0.0333 -0.4271
 7335SOL     OW33466   1.871   0.384   3.798 -0.0317  0.7470  0.0440
 7335SOL    HW133467   1.874   0.318   3.867  0.1282 -0.1730 -0.8341
 7335SOL    HW233468   1.885   0.328   3.722  2.1019 -0.6962  1.4992
 7336SOL     OW33469   0.964   2.869   3.055  0.1341 -0.0685 -0.2463
 7336SOL    HW133470   1.050   2.891   3.021 -0.7999  1.8327 -1.3220
 7336SOL    HW233471   0.944   2.794   2.999 -0.5180  0.7480 -1.0985
 7337SOL     OW33472   3.111   2.787   2.060 -0.1005 -0.2030  0.0821
 7337SOL    HW133473   3.018   2.781   2.080  0.1094  2.5273  1.8674
 7337SOL    HW233474   3.141   2.847   2.129 -0.6452 -0.1562  0.2812
 7338SOL     OW33475   1.261   1.446   7.879  0.0060 -0.5095 -0.0554
 7338SOL    HW133476   1.297   1.535   7.882  0.3805 -0.6445 -0.5582
 7338SOL    HW233477   1.183   1.461   7.932 -1.1630  2.8850 -2.7182
 7339SOL     OW33478   0.942   0.380   1.610 -0.2742  0.0765 -0.3380
 7339SOL    HW133479   0.849   0.359   1.602 -0.2090 -1.4298  2.9000
 7339SOL    HW233480   0.963   0.385   1.517  1.7246  1.5035  0.1792
 7340SOL     OW33481   4.193   3.989   2.185  0.0379 -0.2022 -0.4329
 7340SOL    HW133482   4.249   4.064   2.166 -1.7534  2.0495  3.0516
 7340SOL    HW233483   4.199   3.994   2.280 -0.3550 -1.0250 -0.3603
 7341SOL     OW33484   1.214   3.145  12.356  0.2980 -0.0157 -0.3807
 7341SOL    HW133485   1.218   3.222  12.299  1.0181 -1.1790 -1.9130
 7341SOL    HW233486   1.306   3.145  12.383  0.3976 -1.2214 -0.7361
 7342SOL     OW33487   2.338   3.656   3.462  0.6644  0.0872 -0.3738
 7342SOL    HW133488   2.377   3.647   3.549  0.2102  0.9691 -0.0741
 7342SOL    HW233489   2.408   3.695   3.410  0.3036 -1.2652 -1.8961
 7343SOL     OW33490   4.374   1.159   4.295  0.5842 -0.2444  0.1058
 7343SOL    HW133491   4.370   1.191   4.205 -0.4995 -0.8158 -0.0552
 7343SOL    HW233492   4.362   1.064   4.287  0.7813 -0.3864  1.4402
 7344SOL     OW33493   0.944   0.124   5.692  0.2523  0.0957 -0.1997
 7344SOL    HW133494   1.017   0.139   5.752 -1.0761 -0.4139  1.5409
 7344SOL    HW233495   0.960   0.032   5.673 -1.5982 -0.8865  2.9477
 7345SOL     OW33496   0.381   2.220   6.808 -0.1194  0.2460  0.5014
 7345SOL    HW133497   0.453   2.208   6.747 -0.4480  1.2570 -0.0951
 7345SOL    HW233498   0.428   2.277   6.869  0.5560  0.8624 -0.5975
 7346SOL     OW33499   1.514   0.018   7.557  0.0385  0.2154  0.3097
 7346SOL    HW133500   1.514   0.109   7.587 -0.5954 -0.1430  1.3802
 7346SOL    HW233501   1.597   0.015   7.509  1.0268 -0.3661  2.0416
 7347SOL     OW33502   3.361   0.964  15.942 -0.5142  0.1431 -0.5461
 7347SOL    HW133503   3.376   0.885  15.890  1.5521  1.8001 -2.5038
 7347SOL    HW233504   3.333   0.935  16.028 -0.1866  1.4058 -0.0121
 7348SOL     OW33505   1.076   3.155  17.333  0.3063 -0.1763  0.1903
 7348SOL    HW133506   1.058   3.180  17.242 -2.0558  1.1803  1.0362
 7348SOL    HW233507   1.149   3.094  17.327 -0.6755 -1.3219 -0.2250
 7349SOL     OW33508   3.415   2.846  10.138 -0.0304  0.4230 -0.1821
 7349SOL    HW133509   3.483   2.875  10.077 -0.9788  1.1817 -0.8942
 7349SOL    HW233510   3.342   2.818  10.083 -0.7599  2.4817 -0.2861
 7350SOL     OW33511   2.982   4.603   7.830 -0.0279  0.2220 -0.4309
 7350SOL    HW133512   2.922   4.621   7.902  0.8122  0.1678  0.2758
 7350SOL    HW233513   2.911   4.584   7.768 -2.1716  1.0217  1.7871
 7351SOL     OW33514   4.116   1.710   4.352  0.1422  0.0797  0.3443
 7351SOL    HW133515   4.172   1.736   4.424 -0.1016 -0.8419  0.8656
 7351SOL    HW233516   4.061   1.649   4.400  0.3976 -0.2093  0.2708
 7352SOL     OW33517   4.687   2.399  16.443  0.2057  0.1170  0.3176
 7352SOL    HW133518   4.630   2.449  16.384  1.2527  0.2489 -0.5842
 7352SOL    HW233519   4.669   2.447  16.525 -1.4208  1.6451 -0.9127
 7353SOL     OW33520   4.554   4.326   3.772 -0.2057  0.2364 -0.2700
 7353SOL    HW133521   4.514   4.279   3.846  0.6701  0.3417  0.2670
 7353SOL    HW233522   4.647   4.322   3.793 -0.2821 -0.1124  0.0155
 7354SOL     OW33523   2.732   1.167   3.858  0.0207 -0.0935 -0.3867
 7354SOL    HW133524   2.660   1.169   3.921 -0.7178 -0.3410 -1.2171
 7354SOL    HW233525   2.734   1.076   3.827  0.5995 -0.5782  1.0830
 7355SOL     OW33526   0.648   0.722  13.338  0.6538  0.0141  0.3242
 7355SOL    HW133527   0.667   0.690  13.249  0.1453 -0.2098  0.2953
 7355SOL    HW233528   0.557   0.695  13.348  1.3857 -2.9617 -0.8797
 7356SOL     OW33529   2.168   3.387   1.939  0.4806 -0.0044  0.2376
 7356SOL    HW133530   2.102   3.432   1.992  0.7869  0.3733  0.2923
 7356SOL    HW233531   2.196   3.452   1.875 -1.1230 -1.4482 -1.9437
 7357SOL     OW33532   4.390   2.352   7.219  0.6763  0.0326  0.0032
 7357SOL    HW133533   4.401   2.432   7.269 -0.6845 -0.3907  0.9895
 7357SOL    HW233534   4.296   2.342   7.206  0.3912 -0.2768  2.1918
 7358SOL     OW33535   1.978   2.579  16.124  0.1342 -0.3865  0.3557
 7358SOL    HW133536   2.020   2.648  16.073 -0.2927  0.3899  1.0491
 7358SOL    HW233537   2.049   2.562  16.187  0.4515 -0.6444 -0.0725
 7359SOL     OW33538   4.623   2.418   5.801  0.3689 -0.5530 -0.5190
 7359SOL    HW133539   4.684   2.420   5.875 -0.3855 -1.2090  0.1104
 7359SOL    HW233540   4.652   2.348   5.742 -2.5173 -1.9638 -0.2219
 7360SOL     OW33541   3.239   3.413   5.799 -0.1466 -0.0256  0.1313
 7360SOL    HW133542   3.220   3.410   5.893  2.8595 -0.1294  0.7320
 7360SOL    HW233543   3.329   3.383   5.790  0.5469  1.6080  1.5998
 7361SOL     OW33544   4.313   1.643  12.213  0.7250 -0.2990 -0.0534
 7361SOL    HW133545   4.370   1.645  12.290 -0.0644 -4.1216  0.6018
 7361SOL    HW233546   4.371   1.657  12.138  0.8618  1.2665  0.3300
 7362SOL     OW33547   0.321   2.809   6.853 -0.6044 -0.0304  0.5361
 7362SOL    HW133548   0.360   2.734   6.807  1.9027  1.3050  0.4857
 7362SOL    HW233549   0.343   2.794   6.944  0.9184 -0.4305  0.1059
 7363SOL     OW33550   4.099   1.531  15.322 -0.6063  0.0539  0.2334
 7363SOL    HW133551   4.056   1.475  15.257  0.9341 -1.0133  0.1511
 7363SOL    HW233552   4.082   1.483  15.403  1.2781  0.1751  0.6835
 7364SOL     OW33553   0.404   2.561   7.815  0.4222  0.1505  0.2179
 7364SOL    HW133554   0.496   2.534   7.822  0.0111 -1.2385  0.4296
 7364SOL    HW233555   0.414   2.622   7.743  0.2735  0.4869  0.4859
 7365SOL     OW33556   1.525   1.137   1.950 -0.2618  0.1410 -0.3526
 7365SOL    HW133557   1.496   1.177   2.032 -0.1425  0.1947 -0.3368
 7365SOL    HW233558   1.477   1.055   1.960  0.4675  0.1215  2.8992
 7366SOL     OW33559   2.989   0.242   2.640 -0.2365  0.3100  0.2288
 7366SOL    HW133560   3.007   0.317   2.697 -0.5995 -0.7549  1.7148
 7366SOL    HW233561   3.055   0.185   2.680  1.4908  0.5606 -2.2185
 7367SOL     OW33562   0.144   1.546  16.434  0.3270 -0.1586 -0.0858
 7367SOL    HW133563   0.096   1.600  16.497  0.9111  0.9383 -0.5762
 7367SOL    HW233564   0.116   1.463  16.472  0.6676  0.3377  1.2337
 7368SOL     OW33565   4.246   0.954  16.904 -0.2767 -0.2603 -0.5190
 7368SOL    HW133566   4.247   1.025  16.840  2.5429 -0.6365 -0.9077
 7368SOL    HW233567   4.163   0.968  16.950 -0.2929 -0.5162 -0.4705
 7369SOL     OW33568   1.679   4.017   3.353 -0.3908 -0.5605  0.4766
 7369SOL    HW133569   1.631   3.934   3.354  0.6298 -1.2118 -2.7496
 7369SOL    HW233570   1.772   3.993   3.345 -0.8805 -2.1932 -0.4611
 7370SOL     OW33571   3.051   1.151   5.584 -0.0071 -0.3999  0.4554
 7370SOL    HW133572   3.052   1.197   5.500 -2.5154  1.2777  1.3650
 7370SOL    HW233573   3.136   1.180   5.617  0.2530 -3.2538  2.3272
 7371SOL     OW33574   0.340   0.185   6.209  0.6043  0.4443  0.7998
 7371SOL    HW133575   0.255   0.216   6.240  1.0350  0.4552  1.9512
 7371SOL    HW233576   0.389   0.222   6.282  1.1805 -0.3225  0.8123
 7372SOL     OW33577   1.854   3.305   2.825 -0.0222  0.2422 -0.0052
 7372SOL    HW133578   1.920   3.283   2.890 -0.3622 -0.6557  0.0337
 7372SOL    HW233579   1.832   3.397   2.835 -2.2752 -0.4290  1.1915
 7373SOL     OW33580   4.386   3.036   6.216  0.1238  0.1497 -0.2481
 7373SOL    HW133581   4.428   2.995   6.140 -0.1032  0.4135 -0.5171
 7373SOL    HW233582   4.382   2.967   6.281 -3.0089 -0.5977 -1.2155
 7374SOL     OW33583   3.538   1.834  16.557  0.4440 -0.7091 -0.0499
 7374SOL    HW133584   3.451   1.864  16.584  0.0614 -1.7250 -0.1585
 7374SOL    HW233585   3.574   1.811  16.642 -0.4894  0.9737  0.7993
 7375SOL     OW33586   0.882   2.157   2.590  0.6789  0.2231 -0.0133
 7375SOL    HW133587   0.975   2.174   2.576  0.3411  1.2519 -1.0428
 7375SOL    HW233588   0.872   2.063   2.576  3.0364  0.0354 -0.3864
 7376SOL     OW33589   4.454   4.253   4.546 -0.3858 -0.7393 -0.5026
 7376SOL    HW133590   4.429   4.187   4.611 -2.0503  0.1031 -0.2830
 7376SOL    HW233591   4.501   4.311   4.606  0.8371 -0.4215 -1.7834
 7377SOL     OW33592   3.919   0.251   4.485 -0.2212 -0.1500  0.2541
 7377SOL    HW133593   3.905   0.274   4.577 -1.4206  0.2847 -0.0364
 7377SOL    HW233594   3.998   0.303   4.470 -0.5383  0.0626 -0.6510
 7378SOL     OW33595   1.398   0.951   2.706 -0.0052  0.5589  0.3762
 7378SOL    HW133596   1.469   0.888   2.720 -0.1874  0.2391 -0.1300
 7378SOL    HW233597   1.326   0.906   2.750  0.9347  1.1023  2.4545
 7379SOL     OW33598   0.910   3.810  12.825 -0.0462  0.8884  0.0151
 7379SOL    HW133599   0.940   3.901  12.822 -1.3349  1.3780  2.2143
 7379SOL    HW233600   0.983   3.771  12.872 -0.9466  0.3854  1.0113
 7380SOL     OW33601   2.229   0.431   0.772 -0.0791  0.5623  0.4338
 7380SOL    HW133602   2.308   0.441   0.824 -0.2255 -1.8685  1.1404
 7380SOL    HW233603   2.237   0.489   0.697 -0.8315 -0.2371 -0.2715
 7381SOL     OW33604   1.215   4.410   9.028  0.0586 -0.4105  0.3348
 7381SOL    HW133605   1.214   4.320   8.995 -2.4603  0.7664 -2.8380
 7381SOL    HW233606   1.297   4.439   8.989 -1.4713  1.9701 -1.0900
 7382SOL     OW33607   2.454   0.036   4.483  0.3598 -0.5534  0.4363
 7382SOL    HW133608   2.531   0.004   4.531  0.8844  0.6251  0.3900
 7382SOL    HW233609   2.435   4.679   4.437  1.1479  1.0332 -2.6951
 7383SOL     OW33610   3.398   2.202   9.147  0.4216 -0.0001  0.1464
 7383SOL    HW133611   3.350   2.134   9.100 -0.1563  1.9071 -1.9882
 7383SOL    HW233612   3.350   2.206   9.230  1.6351  1.4530  0.7623
 7384SOL     OW33613   4.065   2.442  14.190 -0.2800  0.1858 -0.1140
 7384SOL    HW133614   4.024   2.402  14.267  1.3664 -1.3032 -0.0211
 7384SOL    HW233615   4.137   2.497  14.221 -1.8727  1.2163  1.7879
 7385SOL     OW33616   3.011   3.213   9.378 -0.0998  0.3329  0.6833
 7385SOL    HW133617   2.925   3.182   9.406 -1.0802  1.4722 -1.0655
 7385SOL    HW233618   2.986   3.300   9.348  0.5390  0.0937 -0.5491
 7386SOL     OW33619   4.650   1.667   7.548 -0.1069 -0.1270 -0.1385
 7386SOL    HW133620   4.612   1.628   7.470 -2.6473  1.8627  0.0996
 7386SOL    HW233621   0.000   1.607   7.552 -0.5135 -0.6694 -1.0380
 7387SOL     OW33622   4.410   4.200   5.288 -0.4028 -0.3946 -0.3951
 7387SOL    HW133623   4.438   4.109   5.272 -1.0706 -0.1775 -2.6541
 7387SOL    HW233624   4.490   4.235   5.327  0.6539 -2.1269 -1.0041
 7388SOL     OW33625   2.110   4.453   5.218  0.0462  0.4530 -0.0542
 7388SOL    HW133626   2.201   4.422   5.211 -0.4300 -0.2197 -3.5926
 7388SOL    HW233627   2.132   4.545   5.232 -1.3005  0.4081  2.2461
 7389SOL     OW33628   4.065   1.640   3.640  0.2347  0.2713 -0.1710
 7389SOL    HW133629   3.983   1.688   3.640 -0.5417 -1.0640  1.2936
 7389SOL    HW233630   4.111   1.686   3.570  1.5660 -1.7275 -0.6321
 7390SOL     OW33631   2.425   1.183  13.818 -0.9933  0.4468 -0.1216
 7390SOL    HW133632   2.493   1.197  13.884 -0.0500 -2.2201 -0.4889
 7390SOL    HW233633   2.407   1.089  13.816  0.7242  0.0895  1.1954
 7391SOL     OW33634   4.059   2.084   2.160  0.9370 -0.2706  0.1591
 7391SOL    HW133635   4.137   2.056   2.112  0.8509  1.0539 -0.7347
 7391SOL    HW233636   3.994   2.052   2.097  0.0429  0.4733  0.6897
 7392SOL     OW33637   4.195   2.384   1.063 -0.0572 -0.1548  0.1244
 7392SOL    HW133638   4.188   2.479   1.052 -0.7982 -0.1968  0.2600
 7392SOL    HW233639   4.133   2.345   1.002 -0.8134 -1.2249  1.5835
 7393SOL     OW33640   0.559   3.764  13.460 -0.3581 -0.0759 -0.8518
 7393SOL    HW133641   0.535   3.857  13.458 -1.3918 -0.3548 -1.0853
 7393SOL    HW233642   0.478   3.732  13.498  0.3266  0.0851  0.7729
 7394SOL     OW33643   3.862   2.933   8.013  0.6833 -0.4407  0.4480
 7394SOL    HW133644   3.951   2.917   7.983  0.0466  2.6686 -3.0227
 7394SOL    HW233645   3.836   2.978   7.933 -0.2167  1.6138  1.8822
 7395SOL     OW33646   0.770   1.841  11.050  0.0393 -0.4654 -0.4031
 7395SOL    HW133647   0.826   1.909  11.012  0.5494  0.7858  2.5836
 7395SOL    HW233648   0.736   1.888  11.126  0.0356  0.1629 -0.8005
 7396SOL     OW33649   0.164   1.087   5.084 -0.0494 -0.0319  0.3205
 7396SOL    HW133650   0.251   1.047   5.071  0.7699  1.9428 -0.2802
 7396SOL    HW233651   0.141   1.065   5.174  0.3926  3.2567  1.2202
 7397SOL     OW33652   0.664   2.642   7.276  0.0517  0.2955  0.2179
 7397SOL    HW133653   0.721   2.571   7.247  1.0136  1.2781 -0.2940
 7397SOL    HW233654   0.705   2.721   7.240 -1.0143  0.9285  0.3721
 7398SOL     OW33655   2.948   4.021   6.119  0.6947 -0.4075  0.4387
 7398SOL    HW133656   2.961   4.102   6.168  0.3694  0.9787 -1.8171
 7398SOL    HW233657   2.982   3.956   6.181  2.6722  0.8747  0.6943
 7399SOL     OW33658   3.539   1.595  16.414  0.8036 -0.1877  0.0457
 7399SOL    HW133659   3.447   1.574  16.399  1.4762 -2.7323 -0.5504
 7399SOL    HW233660   3.533   1.669  16.474  0.4159 -0.1502 -0.0397
 7400SOL     OW33661   0.281   3.374   5.522 -0.4536  0.0869 -0.1351
 7400SOL    HW133662   0.282   3.407   5.612  2.4965 -0.6854  0.1000
 7400SOL    HW233663   0.319   3.291   5.549 -0.4579 -0.3905 -1.6476
 7401SOL     OW33664   4.397   1.862   0.062  0.2366 -0.3494 -0.1591
 7401SOL    HW133665   4.475   1.820   0.098  0.1634 -0.8775 -0.6326
 7401SOL    HW233666   4.355   1.800   0.003 -0.2104 -2.4850  2.4429
 7402SOL     OW33667   3.774   0.971  11.944 -0.2775 -0.0216 -0.0906
 7402SOL    HW133668   3.830   0.998  12.018 -4.0533  1.3441  2.2894
 7402SOL    HW233669   3.688   0.996  11.977 -0.5282 -1.6156  0.4747
 7403SOL     OW33670   3.263   2.424   2.251 -0.0695  0.1983 -0.3540
 7403SOL    HW133671   3.227   2.351   2.201 -1.7580  1.2009 -0.5770
 7403SOL    HW233672   3.279   2.486   2.180  1.4301  1.4842  1.0925
 7404SOL     OW33673   0.748   2.330   4.924 -0.9194  0.1605 -0.4102
 7404SOL    HW133674   0.653   2.322   4.912 -0.8430  0.1914 -1.0797
 7404SOL    HW233675   0.748   2.406   4.982 -0.6019  0.2558 -0.5333
 7405SOL     OW33676   1.443   0.394   2.508  0.0728 -0.1610  0.1398
 7405SOL    HW133677   1.529   0.388   2.466  0.0785 -0.8696  0.2448
 7405SOL    HW233678   1.397   0.327   2.458  1.0586 -1.2527  0.6984
 7406SOL     OW33679   2.069   2.423   0.924  0.3192 -0.0673  0.5773
 7406SOL    HW133680   2.031   2.488   0.984  0.5617 -0.6425  1.3495
 7406SOL    HW233681   2.155   2.458   0.897 -0.5895  1.6852 -0.0734
 7407SOL     OW33682   3.958   2.041   9.542 -0.1133  0.4890 -0.1286
 7407SOL    HW133683   4.027   1.978   9.564 -0.6481  0.6294  1.9625
 7407SOL    HW233684   3.955   2.082   9.628  1.0509 -0.4914  0.3779
 7408SOL     OW33685   3.114   1.749  16.932  0.1441 -0.8114 -0.1128
 7408SOL    HW133686   3.174   1.718  17.000  0.8095  1.3125  0.2848
 7408SOL    HW233687   3.047   1.681  16.927  0.2391 -1.0043  1.1718
 7409SOL     OW33688   2.933   1.568   5.101 -0.1395 -0.0843 -0.3357
 7409SOL    HW133689   2.874   1.610   5.038 -0.2971  1.4332  0.8222
 7409SOL    HW233690   3.006   1.547   5.043 -0.1809  0.6783 -0.6691
 7410SOL     OW33691   2.898   4.641   3.221 -0.5035  0.0846  0.2768
 7410SOL    HW133692   2.819   4.625   3.271 -0.5013  1.6507  0.7914
 7410SOL    HW233693   2.869   4.715   3.167 -0.1185 -1.0928 -1.5499
 7411SOL     OW33694   1.764   2.537   5.445  0.5162  0.1089 -0.3243
 7411SOL    HW133695   1.709   2.557   5.370  0.8494  0.7168 -0.4014
 7411SOL    HW233696   1.841   2.506   5.398 -0.0595 -1.4566 -0.2460
 7412SOL     OW33697   4.608   4.500  11.154  0.9221 -0.4960  0.3937
 7412SOL    HW133698   4.624   4.581  11.105 -0.0353 -0.2247  0.5255
 7412SOL    HW233699   4.698   4.485  11.182  0.3743 -2.2268  1.2544
 7413SOL     OW33700   2.229   3.805   4.366 -0.1656  0.1439  0.6070
 7413SOL    HW133701   2.276   3.812   4.283 -0.6947 -0.2442  0.2776
 7413SOL    HW233702   2.149   3.762   4.336  0.0069  0.4036 -0.2176
 7414SOL     OW33703   1.764   3.464   4.340 -0.3374  0.1849 -0.5597
 7414SOL    HW133704   1.693   3.525   4.320 -1.8444 -1.7842 -1.2468
 7414SOL    HW233705   1.782   3.470   4.434 -3.8571  1.5185  0.0529
 7415SOL     OW33706   4.194   3.497   2.583  0.0744  0.1407  0.8198
 7415SOL    HW133707   4.277   3.461   2.552 -0.0659  0.0804  0.5079
 7415SOL    HW233708   4.137   3.504   2.506  1.2926  0.5812 -0.0480
 7416SOL     OW33709   4.356   2.819   7.467  0.1522 -0.0528 -0.2740
 7416SOL    HW133710   4.365   2.908   7.501  1.3386  0.1447 -1.0933
 7416SOL    HW233711   4.324   2.767   7.540 -0.0485  0.8856  0.2933
 7417SOL     OW33712   1.822   3.884   9.848 -0.3430 -0.2878  0.9531
 7417SOL    HW133713   1.823   3.836   9.765  1.3386  0.1475  0.7334
 7417SOL    HW233714   1.731   3.910   9.863  0.0997  1.4950  0.4871
 7418SOL     OW33715   0.295   1.954   5.122  0.6852 -0.0623 -0.4154
 7418SOL    HW133716   0.318   1.992   5.037  1.3857 -0.5743 -0.4441
 7418SOL    HW233717   0.378   1.943   5.167  1.3501 -3.6891 -2.5453
 7419SOL     OW33718   1.206   2.096   9.697  0.3180 -0.2731 -0.6071
 7419SOL    HW133719   1.291   2.098   9.740 -1.1828 -1.8045  2.4725
 7419SOL    HW233720   1.218   2.008   9.659 -0.5861 -1.2522  1.3810
 7420SOL     OW33721   0.251   3.264   7.252 -0.0452  0.1098 -0.2871
 7420SOL    HW133722   0.339   3.272   7.289 -0.8868  1.2088  1.4827
 7420SOL    HW233723   0.208   3.334   7.301  1.1282 -0.4888  1.5888
 7421SOL     OW33724   0.267   3.880   2.051 -0.4151 -0.2336 -0.3811
 7421SOL    HW133725   0.185   3.856   2.008 -0.8800  0.6917 -0.0236
 7421SOL    HW233726   0.255   3.968   2.086 -0.1957 -1.4932  2.9451
 7422SOL     OW33727   3.171   0.289  10.725 -0.0616 -0.4747 -0.8773
 7422SOL    HW133728   3.164   0.260  10.816 -2.6706 -1.0674 -1.2657
 7422SOL    HW233729   3.110   0.225  10.687  1.0597 -1.3847 -1.1508
 7423SOL     OW33730   0.614   3.453   5.763  0.2337 -0.3115  0.0997
 7423SOL    HW133731   0.660   3.453   5.848 -1.6782 -0.0227  1.1338
 7423SOL    HW233732   0.668   3.382   5.730  0.0366 -0.7163  0.6533
 7424SOL     OW33733   0.436   0.611  12.611 -0.1480  0.0455 -0.0710
 7424SOL    HW133734   0.427   0.532  12.558 -0.9624  0.6049 -0.7768
 7424SOL    HW233735   0.420   0.582  12.701  0.8841  0.8125  0.3598
 7425SOL     OW33736   0.527   0.354   1.162  0.2109 -0.6872 -0.4708
 7425SOL    HW133737   0.607   0.357   1.109 -0.3717  1.4959 -1.2389
 7425SOL    HW233738   0.525   0.259   1.168  0.5943 -0.7052 -0.5718
 7426SOL     OW33739   1.257   4.691   6.014 -0.0237 -0.2425  0.3794
 7426SOL    HW133740   1.259   0.016   5.932  1.4081 -0.0513  0.5269
 7426SOL    HW233741   1.340   4.644   6.001  0.8389  1.1425  0.9029
 7427SOL     OW33742   1.711   1.026   8.237  0.0540 -0.7259  0.1935
 7427SOL    HW133743   1.632   1.017   8.290 -1.2179  1.4037 -1.3508
 7427SOL    HW233744   1.689   0.954   8.177 -2.9308 -0.2617  0.7255
 7428SOL     OW33745   2.145   2.305   3.793 -0.2198  0.2583  0.3825
 7428SOL    HW133746   2.164   2.390   3.755 -0.6371 -0.5672 -1.6483
 7428SOL    HW233747   2.195   2.248   3.735  0.2740  0.4012  0.6671
 7429SOL     OW33748   1.478   4.405   1.476 -0.6033 -0.0134 -0.4729
 7429SOL    HW133749   1.547   4.400   1.542 -1.0293 -0.7468 -0.0844
 7429SOL    HW233750   1.400   4.408   1.532 -0.8433  0.6921 -0.8347
 7430SOL     OW33751   2.266   4.089   8.256 -0.0855 -0.1035 -0.0682
 7430SOL    HW133752   2.228   4.008   8.224  2.0788 -0.6610 -1.2100
 7430SOL    HW233753   2.294   4.060   8.343 -2.1049  0.5386  0.7894
 7431SOL     OW33754   2.646   3.920   5.553 -0.5741  0.4724 -0.1340
 7431SOL    HW133755   2.667   3.848   5.611 -0.5522 -0.9386 -1.8790
 7431SOL    HW233756   2.712   3.897   5.487  2.2435  0.5568  2.6845
 7432SOL     OW33757   3.126   0.234   1.930  0.1463 -0.2097  0.8100
 7432SOL    HW133758   3.185   0.257   1.857  0.0977 -3.0228 -0.1267
 7432SOL    HW233759   3.121   0.139   1.934  1.0026 -0.3046 -0.3804
 7433SOL     OW33760   3.543   1.224   1.229  0.0163  0.7993  0.4621
 7433SOL    HW133761   3.609   1.270   1.281  2.0250  0.1242 -1.4745
 7433SOL    HW233762   3.529   1.146   1.281  0.9295  1.5905  1.8913
 7434SOL     OW33763   4.188   1.676   9.334  0.2820  0.4224  0.8603
 7434SOL    HW133764   4.157   1.730   9.262  0.0470 -2.3289 -1.0829
 7434SOL    HW233765   4.233   1.603   9.293 -0.2676  1.6655 -1.9198
 7435SOL     OW33766   3.318   1.063  14.270 -0.0170  0.0661  0.0005
 7435SOL    HW133767   3.368   1.129  14.318  0.7480 -1.2228  0.9805
 7435SOL    HW233768   3.287   1.013  14.346 -2.7480  1.2160 -0.3627
 7436SOL     OW33769   3.822   1.278   8.305 -0.1899 -0.2847  0.0963
 7436SOL    HW133770   3.772   1.212   8.351 -1.8311  1.2315  0.4855
 7436SOL    HW233771   3.829   1.354   8.363 -0.1599 -1.5421  1.7413
 7437SOL     OW33772   1.576   2.343  15.902 -0.0135  0.3735 -0.2789
 7437SOL    HW133773   1.628   2.380  15.973  1.3236 -1.4271 -0.3207
 7437SOL    HW233774   1.541   2.426  15.869 -0.7676  0.8619  1.7228
 7438SOL     OW33775   4.013   3.160   2.682  0.4015 -0.4230  0.6644
 7438SOL    HW133776   3.981   3.118   2.762 -1.8977 -1.2570 -0.7353
 7438SOL    HW233777   3.935   3.189   2.635  2.0551  4.1711  0.6684
 7439SOL     OW33778   4.507   2.105   6.272 -0.1371  0.2551  0.2082
 7439SOL    HW133779   4.587   2.134   6.316  0.1744  0.9411 -0.7999
 7439SOL    HW233780   4.450   2.140   6.340 -1.4025 -0.6872 -0.3771
 7440SOL     OW33781   2.139   3.163   8.644 -0.7148  0.7627 -0.0362
 7440SOL    HW133782   2.195   3.107   8.697 -0.7096 -1.0926 -2.0378
 7440SOL    HW233783   2.067   3.160   8.707 -0.6559 -0.2238 -0.0196
 7441SOL     OW33784   2.118   3.184   6.071 -0.0281 -0.2511  0.5980
 7441SOL    HW133785   2.100   3.095   6.101 -2.2416  0.1762  0.5141
 7441SOL    HW233786   2.213   3.176   6.081 -0.0243  2.8991  2.7221
 7442SOL     OW33787   1.388   2.502   3.309  0.2099  0.3421  0.4690
 7442SOL    HW133788   1.356   2.591   3.299  0.6341  0.3347 -0.9879
 7442SOL    HW233789   1.476   2.514   3.273 -0.3607 -0.1138 -1.1134
 7443SOL     OW33790   3.266   1.675   1.980 -0.1486  0.5783 -0.3221
 7443SOL    HW133791   3.227   1.594   2.012 -0.2369  0.7586  0.0285
 7443SOL    HW233792   3.248   1.654   1.889 -1.3562  0.2302  0.0038
 7444SOL     OW33793   3.579   2.763  10.840 -0.4246 -0.1115 -0.3357
 7444SOL    HW133794   3.512   2.695  10.844 -0.1314 -0.4757 -1.7979
 7444SOL    HW233795   3.646   2.707  10.800  2.1917  2.8425 -0.1041
 7445SOL     OW33796   2.766   3.216   6.161  0.3912 -1.1316 -0.0612
 7445SOL    HW133797   2.790   3.162   6.085  0.5404  1.1969 -1.6875
 7445SOL    HW233798   2.815   3.174   6.231 -1.4064 -0.0674  1.8621
 7446SOL     OW33799   0.596   3.636   2.193 -0.7071  0.0050  0.0491
 7446SOL    HW133800   0.635   3.581   2.261 -1.9714 -2.0807 -0.9355
 7446SOL    HW233801   0.660   3.632   2.122 -0.2156 -2.0816  0.5992
 7447SOL     OW33802   1.748   0.946   1.982 -0.4651  0.0346 -0.1543
 7447SOL    HW133803   1.751   1.005   2.058 -1.7945 -1.3799  0.9964
 7447SOL    HW233804   1.789   1.006   1.920 -1.7831  1.1069 -0.0110
 7448SOL     OW33805   3.489   0.004   5.829  0.3844  0.0615  0.1716
 7448SOL    HW133806   3.462   4.661   5.891 -1.9703  0.1659 -0.7249
 7448SOL    HW233807   3.438   4.706   5.751 -0.1757 -1.0524  0.8605
 7449SOL     OW33808   2.598   4.559   4.642 -0.2350  0.2275 -0.3470
 7449SOL    HW133809   2.555   4.563   4.727  0.9893 -2.4604  0.3989
 7449SOL    HW233810   2.548   4.489   4.601  0.1542 -0.0297 -0.3827
 7450SOL     OW33811   2.446   2.120   4.342 -0.4659 -0.3258  0.4783
 7450SOL    HW133812   2.506   2.189   4.370  0.6682 -0.8256 -0.7232
 7450SOL    HW233813   2.363   2.165   4.353  1.1349  2.4958  0.8085
 7451SOL     OW33814   2.087   0.532   0.366 -0.2500 -0.1254  0.4979
 7451SOL    HW133815   2.059   0.589   0.294 -1.9595 -0.1772  1.1329
 7451SOL    HW233816   2.122   0.593   0.430  3.5106  0.2292 -1.8723
 7452SOL     OW33817   1.590   3.004   4.279  0.0886 -0.1133  0.2495
 7452SOL    HW133818   1.655   2.944   4.243  1.2257  0.1295  1.8867
 7452SOL    HW233819   1.640   3.059   4.339 -1.9446  0.0467  1.8115
 7453SOL     OW33820   2.145   3.601   8.786 -0.0991  0.1270  0.1855
 7453SOL    HW133821   2.201   3.546   8.732  0.1024  0.9683 -0.4552
 7453SOL    HW233822   2.105   3.534   8.842 -2.6018  1.2384 -0.2502
 7454SOL     OW33823   0.061   0.939   0.100 -0.5304  0.0865  0.2099
 7454SOL    HW133824   0.081   0.846   0.109  2.5494  0.8979  1.6782
 7454SOL    HW233825   0.121   0.976   0.164  3.2680 -3.2533 -1.4565
 7455SOL     OW33826   3.435   1.181   1.625  0.5372  0.0612 -0.1861
 7455SOL    HW133827   3.526   1.175   1.597  0.9586 -0.8939  1.3665
 7455SOL    HW233828   3.398   1.133   1.552  1.2045 -0.6382 -0.0615
 7456SOL     OW33829   1.138   2.512   5.821  0.2728 -0.5795  0.5745
 7456SOL    HW133830   1.067   2.450   5.804 -1.8564  1.7050  1.0725
 7456SOL    HW233831   1.200   2.510   5.748 -2.9629  0.9786 -2.2089
 7457SOL     OW33832   2.944   0.778   5.827  0.2568  0.1817  0.0480
 7457SOL    HW133833   2.969   0.763   5.918  0.3876 -0.2767 -0.0632
 7457SOL    HW233834   2.850   0.759   5.836 -0.2404  1.9563 -1.2578
 7458SOL     OW33835   0.940   2.086  13.850 -0.2360  0.0588 -0.4910
 7458SOL    HW133836   0.935   2.003  13.802 -0.8547 -0.0213 -0.2816
 7458SOL    HW233837   0.876   2.074  13.920 -1.9467  2.7554 -1.5626
 7459SOL     OW33838   1.376   3.439   9.297 -0.3323  0.1590 -0.2360
 7459SOL    HW133839   1.382   3.388   9.216  0.3150 -0.7120  0.3621
 7459SOL    HW233840   1.467   3.460   9.320 -0.4154 -0.0660  0.2959
 7460SOL     OW33841   3.565   1.246   2.878  0.4142  0.1547 -0.1559
 7460SOL    HW133842   3.627   1.189   2.923  0.0250  0.7093  1.0645
 7460SOL    HW233843   3.630   1.276   2.813 -0.2144 -0.8072 -1.2214
 7461SOL     OW33844   1.709   0.657   4.821 -0.2246  0.0476  0.4432
 7461SOL    HW133845   1.625   0.698   4.845 -1.2995 -1.0460 -1.4848
 7461SOL    HW233846   1.713   0.667   4.726 -0.8567 -2.2452  0.1869
 7462SOL     OW33847   3.155   2.570   2.787  0.2991  0.1452 -0.3423
 7462SOL    HW133848   3.152   2.662   2.760 -0.1861  0.4126  0.6402
 7462SOL    HW233849   3.063   2.546   2.771 -0.5482  3.4427 -0.3730
 7463SOL     OW33850   4.189   3.033   4.140 -0.3044  0.0647  0.4560
 7463SOL    HW133851   4.239   3.021   4.221  0.8770 -3.1271 -0.7294
 7463SOL    HW233852   4.210   3.122   4.111 -0.0471 -0.6578 -1.6044
 7464SOL     OW33853   1.942   2.364  13.037  0.0946 -0.8342 -0.3115
 7464SOL    HW133854   1.965   2.369  13.130 -1.1690  0.1439 -0.0531
 7464SOL    HW233855   2.000   2.297  13.002  0.4568 -1.0461  0.6891
 7465SOL     OW33856   3.347   1.694   5.220 -0.3340 -0.0171  0.0716
 7465SOL    HW133857   3.262   1.685   5.179 -1.5968 -0.8954  2.8673
 7465SOL    HW233858   3.346   1.613   5.271 -0.4266  0.4610  0.8360
 7466SOL     OW33859   2.686   0.509   9.330  0.4555 -0.8745  0.6837
 7466SOL    HW133860   2.608   0.461   9.301  0.7593  0.1129 -1.7899
 7466SOL    HW233861   2.760   0.450   9.321  0.7049 -0.5833  0.8484
 7467SOL     OW33862   2.890   1.015   2.310 -0.5624 -0.2765 -0.5133
 7467SOL    HW133863   2.818   1.061   2.267 -0.9706 -1.9154 -1.5635
 7467SOL    HW233864   2.960   1.075   2.284 -0.6273 -0.2018 -0.5142
 7468SOL     OW33865   3.165   2.404   6.671 -0.1121  0.2274  0.9332
 7468SOL    HW133866   3.201   2.405   6.760 -0.1376  1.0837  0.9320
 7468SOL    HW233867   3.070   2.412   6.684 -0.3787 -1.9158  0.2717
 7469SOL     OW33868   4.632   2.215   5.349  0.2167  0.4283  0.3052
 7469SOL    HW133869   4.714   2.206   5.301 -0.1754 -0.8459 -0.1216
 7469SOL    HW233870   4.608   2.124   5.368  0.2250  0.1804 -0.9048
 7470SOL     OW33871   3.367   3.225   9.472  0.4996  0.3626 -0.5070
 7470SOL    HW133872   3.310   3.192   9.542 -0.8640 -0.5068 -2.0470
 7470SOL    HW233873   3.454   3.230   9.513 -0.0333 -1.6040  0.8631
 7471SOL     OW33874   1.686   3.320   9.836 -0.7063  0.1426 -0.0189
 7471SOL    HW133875   1.673   3.348   9.746  0.2773  2.6677  0.6316
 7471SOL    HW233876   1.779   3.339   9.845 -0.5935  0.6345 -2.1872
 7472SOL     OW33877   2.764   4.303  11.576 -0.1337 -0.3106  0.6054
 7472SOL    HW133878   2.776   4.219  11.620  3.3357 -0.6022 -0.9039
 7472SOL    HW233879   2.851   4.318  11.539 -0.1744  0.6994  0.9181
 7473SOL     OW33880   4.252   3.423   5.815 -0.5401  0.2021  0.0805
 7473SOL    HW133881   4.278   3.510   5.784  0.1630  0.0941  0.3852
 7473SOL    HW233882   4.302   3.417   5.896  1.0147 -0.1010 -0.9058
 7474SOL     OW33883   1.701   2.577  16.098 -0.1906  0.3066 -0.0158
 7474SOL    HW133884   1.795   2.561  16.112 -0.6085 -1.2868  1.0201
 7474SOL    HW233885   1.679   2.575  16.191  1.8953  1.4468  0.5057
 7475SOL     OW33886   2.104   2.468  11.052  0.0438 -0.0632  0.7595
 7475SOL    HW133887   2.044   2.523  11.103 -0.7860  1.0274 -1.4064
 7475SOL    HW233888   2.151   2.422  11.122  0.0340 -1.4940 -0.1768
 7476SOL     OW33889   3.907   2.148   8.189 -0.5842  0.4789 -0.6334
 7476SOL    HW133890   3.921   2.220   8.129 -0.5907 -0.1034 -1.3325
 7476SOL    HW233891   3.911   2.175   8.281  1.6822  0.0046 -0.5739
 7477SOL     OW33892   1.901   2.047   6.740 -0.0549  0.3739 -0.0704
 7477SOL    HW133893   1.911   2.053   6.835 -0.8763  0.5019  0.0139
 7477SOL    HW233894   1.806   2.033   6.745  0.3057 -2.4083 -0.9434
 7478SOL     OW33895   3.370   4.204  12.516  0.4128  0.1949 -0.3649
 7478SOL    HW133896   3.344   4.292  12.544  1.3142  0.7235 -1.1848
 7478SOL    HW233897   3.285   4.161  12.522 -0.2394  1.4100 -0.8724
 7479SOL     OW33898   4.027   0.933  14.617 -0.0567 -0.2745  0.0227
 7479SOL    HW133899   4.051   0.851  14.661 -1.3597 -0.9614 -0.5486
 7479SOL    HW233900   4.115   0.962  14.592  0.4772 -1.2806  0.7153
 7480SOL     OW33901   1.279   0.723   3.721 -0.4172 -0.5056 -0.0432
 7480SOL    HW133902   1.241   0.769   3.796 -0.1705 -1.6593  0.7901
 7480SOL    HW233903   1.336   0.784   3.674  2.1762 -1.7844  1.4590
 7481SOL     OW33904   3.339   1.128  17.624  0.0423  0.0361 -0.5665
 7481SOL    HW133905   3.354   1.056  17.685 -1.3657  0.1543 -0.0765
 7481SOL    HW233906   3.385   1.198  17.671  1.1511  0.1419 -1.8131
 7482SOL     OW33907   3.412   1.796  14.936  0.2227 -0.3510 -0.2746
 7482SOL    HW133908   3.367   1.824  14.856  2.0480  0.8514 -0.8818
 7482SOL    HW233909   3.381   1.707  14.948 -0.2379 -0.1636 -0.0712
 7483SOL     OW33910   3.219   0.363   9.940 -0.2190 -0.0239 -0.1129
 7483SOL    HW133911   3.301   0.407   9.959 -1.0160  1.0247  0.9301
 7483SOL    HW233912   3.215   0.385   9.847 -2.4288 -0.1581 -0.0566
 7484SOL     OW33913   2.922   3.008   5.015 -0.0729  0.0615 -0.1510
 7484SOL    HW133914   2.858   2.988   5.084 -1.0924  3.2990 -0.1256
 7484SOL    HW233915   3.001   2.979   5.059 -1.1202 -1.2461  0.8628
 7485SOL     OW33916   0.795   1.153   6.338  0.8553 -0.5241  0.5385
 7485SOL    HW133917   0.880   1.117   6.314  0.3658 -0.2010 -1.6495
 7485SOL    HW233918   0.751   1.072   6.362 -0.8339  0.5341  1.0046
 7486SOL     OW33919   1.283   3.433   6.293 -0.0873  0.5456 -0.1373
 7486SOL    HW133920   1.344   3.488   6.243 -0.3718  0.4903 -0.5471
 7486SOL    HW233921   1.344   3.393   6.354 -0.4104 -0.2048 -0.3100
 7487SOL     OW33922   4.216   1.539   2.475 -0.2268  0.1685  0.2345
 7487SOL    HW133923   4.244   1.615   2.424 -1.1288  0.4974  0.2275
 7487SOL    HW233924   4.169   1.573   2.551  0.2151 -2.1499  1.5648
 7488SOL     OW33925   1.820   2.813   7.305  0.2286 -0.2862  0.0649
 7488SOL    HW133926   1.813   2.883   7.371 -0.4460 -0.9317  0.6803
 7488SOL    HW233927   1.786   2.739   7.355  1.5712 -1.2780 -0.4792
 7489SOL     OW33928   0.968   0.485   4.376 -0.1470 -0.2947  0.1083
 7489SOL    HW133929   0.976   0.423   4.305  0.3508 -0.0010 -0.0971
 7489SOL    HW233930   0.905   0.550   4.346 -0.2764 -1.2786 -1.7159
 7490SOL     OW33931   2.250   1.568   1.967  0.0032  0.1286  0.3218
 7490SOL    HW133932   2.339   1.563   1.932 -0.3507  1.1643 -0.7465
 7490SOL    HW233933   2.227   1.654   1.930  2.2915 -0.1951 -1.9145
 7491SOL     OW33934   1.716   2.289   7.527 -0.5331 -0.0926  0.0348
 7491SOL    HW133935   1.705   2.270   7.620 -0.8849  0.0668  0.0265
 7491SOL    HW233936   1.797   2.339   7.537 -1.7236  1.7658  0.5060
 7492SOL     OW33937   2.582   4.722   7.700  0.1580  0.0917 -0.3740
 7492SOL    HW133938   2.490   0.025   7.705 -0.2642 -1.4129 -0.1420
 7492SOL    HW233939   2.556   4.630   7.702  2.6312 -0.6120 -0.3171
 7493SOL     OW33940   2.872   1.619   3.216  0.3385 -0.6141  0.1163
 7493SOL    HW133941   2.938   1.555   3.191  1.7510  0.5116  0.9407
 7493SOL    HW233942   2.845   1.649   3.129  1.2922 -0.8378 -0.2561
 7494SOL     OW33943   3.144   1.895  15.419  0.0300 -0.9059  0.5300
 7494SOL    HW133944   3.235   1.918  15.437  0.4565 -2.2965  0.1593
 7494SOL    HW233945   3.159   1.806  15.387 -1.7431 -1.5004  1.3570
 7495SOL     OW33946   2.750   1.452   7.410 -0.0429 -0.1437 -0.9107
 7495SOL    HW133947   2.671   1.399   7.424  0.6500 -0.9289  0.0852
 7495SOL    HW233948   2.751   1.467   7.316 -1.2628  1.3070 -0.6923
 7496SOL     OW33949   3.682   4.312   6.887  0.2608  0.3495 -0.1032
 7496SOL    HW133950   3.772   4.345   6.891  0.4081 -0.1472  0.6092
 7496SOL    HW233951   3.674   4.279   6.976  1.1401 -2.5587 -1.0727
 7497SOL     OW33952   0.366   2.411   2.270  0.2828  0.3900  0.0247
 7497SOL    HW133953   0.342   2.481   2.331 -1.1103  0.1673 -0.2811
 7497SOL    HW233954   0.457   2.392   2.294  0.7391 -0.9415 -2.7674
 7498SOL     OW33955   0.788   2.707   6.043  0.4188 -0.0539  0.0272
 7498SOL    HW133956   0.843   2.639   6.005  0.6148 -0.9261  1.8743
 7498SOL    HW233957   0.700   2.674   6.026 -0.4413  1.7313  0.9796
 7499SOL     OW33958   1.508   2.549   4.466 -0.3486 -0.0421 -0.2497
 7499SOL    HW133959   1.603   2.553   4.471 -0.3538  0.4412 -0.6202
 7499SOL    HW233960   1.490   2.633   4.508 -0.4918  0.2462 -0.8851
 7500SOL     OW33961   3.389   4.552  11.516  0.2743  0.1043  0.1039
 7500SOL    HW133962   3.391   4.459  11.540 -0.8738  0.7718  2.8680
 7500SOL    HW233963   3.478   4.577  11.542  0.0495  4.3020 -3.2724
 7501SOL     OW33964   2.418   3.217   5.099 -0.1722 -0.2095 -0.2660
 7501SOL    HW133965   2.463   3.200   5.182 -2.2694 -0.1271  0.8839
 7501SOL    HW233966   2.486   3.254   5.042  0.2704 -1.9239 -0.8592
 7502SOL     OW33967   1.673   1.342   7.696 -0.3167 -0.1900  0.0377
 7502SOL    HW133968   1.736   1.270   7.688  0.3046  0.3352  0.2625
 7502SOL    HW233969   1.701   1.380   7.779 -1.0053 -0.6943  0.5048
 7503SOL     OW33970   4.302   2.748  16.992  0.0046  0.2802  0.5602
 7503SOL    HW133971   4.222   2.800  16.988 -1.6633 -2.2473  0.6805
 7503SOL    HW233972   4.303   2.749  17.088 -3.1075  0.1447  0.6204
 7504SOL     OW33973   3.152   3.944   3.753 -0.8287 -0.7615 -0.3554
 7504SOL    HW133974   3.118   3.884   3.687 -1.3878  0.2717 -1.0164
 7504SOL    HW233975   3.131   4.022   3.701 -2.5176 -1.6772 -1.0319
 7505SOL     OW33976   3.511   3.756  15.491 -0.3462 -0.3816  0.0947
 7505SOL    HW133977   3.509   3.809  15.412  1.2357  1.3673  1.2385
 7505SOL    HW233978   3.588   3.799  15.528  0.7909 -0.6325 -1.9555
 7506SOL     OW33979   1.203   3.982   5.868  0.2504 -0.0104 -0.0462
 7506SOL    HW133980   1.218   3.993   5.962  0.5608 -0.4501 -0.0406
 7506SOL    HW233981   1.121   3.934   5.877  0.5999 -0.6825 -0.3978
 7507SOL     OW33982   1.900   0.396   2.245 -0.3688 -0.3461 -0.2464
 7507SOL    HW133983   1.877   0.475   2.293  0.6416 -0.9047  1.1494
 7507SOL    HW233984   1.990   0.385   2.275 -0.0727 -0.3700 -1.1451
 7508SOL     OW33985   2.720   2.224   8.402 -0.3802  0.4844 -0.3217
 7508SOL    HW133986   2.766   2.201   8.322 -1.4017 -0.4433 -0.6306
 7508SOL    HW233987   2.655   2.289   8.374 -1.3904 -0.1619  0.5086
 7509SOL     OW33988   3.715   1.015   3.618  0.3930 -0.3867  0.2697
 7509SOL    HW133989   3.709   1.101   3.660  0.6337 -0.3657  0.2577
 7509SOL    HW233990   3.678   0.955   3.684 -1.2945  1.5143  1.0612
 7510SOL     OW33991   4.396   1.048   4.569 -0.3414 -0.3096 -0.6089
 7510SOL    HW133992   4.464   0.986   4.541  1.2181  1.0803  0.1326
 7510SOL    HW233993   4.311   1.010   4.548  0.0229 -0.3319 -2.1046
 7511SOL     OW33994   2.518   1.336  12.783 -0.4141 -0.1942 -0.1840
 7511SOL    HW133995   2.525   1.248  12.820  0.7585 -1.0154 -2.3601
 7511SOL    HW233996   2.490   1.382  12.862  0.8370 -0.2610  0.2898
 7512SOL     OW33997   1.404   0.041  14.639 -0.1311  0.0663  0.1046
 7512SOL    HW133998   1.385   0.030  14.546 -1.0887  0.0527  0.2963
 7512SOL    HW233999   1.469   0.107  14.615 -0.7263  0.8142  0.5567
 7513SOL     OW34000   1.010   3.274   1.876  0.3043  0.4758  0.4892
 7513SOL    HW134001   1.080   3.292   1.813  1.0076 -1.3293  0.7508
 7513SOL    HW234002   0.980   3.365   1.876  0.4062  0.5097  0.4491
 7514SOL     OW34003   4.128   2.354   9.550 -0.1317  0.0328  0.3502
 7514SOL    HW134004   4.084   2.290   9.607 -0.6023  2.1376  2.3245
 7514SOL    HW234005   4.114   2.434   9.600  3.3552 -0.7417  2.5201
 7515SOL     OW34006   0.946   1.390  13.487  0.0770  0.3033 -0.0493
 7515SOL    HW134007   1.038   1.403  13.510 -0.1361  2.0127 -0.1984
 7515SOL    HW234008   0.914   1.460  13.544 -0.2628 -0.2311  0.4227
 7516SOL     OW34009   4.634   3.438   9.195  0.3738  0.1832 -0.2282
 7516SOL    HW134010   4.698   3.371   9.219 -1.2907 -1.0886  0.6783
 7516SOL    HW234011   4.548   3.397   9.209  0.2444  1.3040  2.2003
 7517SOL     OW34012   2.572   0.758   6.492  0.1711 -0.0722 -0.8862
 7517SOL    HW134013   2.572   0.692   6.423 -2.3658 -2.1375  1.0819
 7517SOL    HW234014   2.659   0.796   6.480  1.0263 -2.1004 -1.0700
 7518SOL     OW34015   2.785   3.729   8.082  0.2215  0.5249  0.7512
 7518SOL    HW134016   2.712   3.790   8.084 -0.2375  0.0415 -1.1194
 7518SOL    HW234017   2.836   3.779   8.146  0.3588 -3.0113  3.3801
 7519SOL     OW34018   2.224   3.829  11.338  0.1184  0.4512  0.3834
 7519SOL    HW134019   2.162   3.826  11.266 -1.8657  1.0907  2.0513
 7519SOL    HW234020   2.165   3.839  11.412  0.0044 -1.0506  0.4844
 7520SOL     OW34021   3.903   1.673   2.288 -0.3954  0.1780  0.2446
 7520SOL    HW134022   3.986   1.671   2.335 -0.0800  0.6969 -0.2795
 7520SOL    HW234023   3.919   1.600   2.228  3.6372 -0.1509  1.7436
 7521SOL     OW34024   0.486   1.640   7.634 -0.7304 -0.5637  0.0267
 7521SOL    HW134025   0.418   1.616   7.697 -1.9829  2.6500 -0.0818
 7521SOL    HW234026   0.439   1.662   7.554 -1.4216  1.8612  1.0813
 7522SOL     OW34027   3.204   1.401  11.004 -0.1742 -0.5398  0.2924
 7522SOL    HW134028   3.271   1.469  10.998  0.3062 -1.1161 -0.7252
 7522SOL    HW234029   3.129   1.445  10.965  0.5920  1.7088  1.3784
 7523SOL     OW34030   3.931   0.030   3.591  0.1142  0.3021  0.2357
 7523SOL    HW134031   3.849   4.705   3.589  1.4625 -2.0274  1.7310
 7523SOL    HW234032   3.978   4.700   3.656 -1.2993  1.1108  1.9262
 7524SOL     OW34033   0.897   3.239  12.404  0.4974  0.1266 -0.1633
 7524SOL    HW134034   0.915   3.174  12.336  0.9696 -0.8751  0.9179
 7524SOL    HW234035   0.877   3.318  12.354 -1.2547 -1.3815 -1.8533
 7525SOL     OW34036   0.490   4.373  11.546  0.1642  0.0248 -0.3099
 7525SOL    HW134037   0.480   4.317  11.469  2.0720  1.1695 -1.3855
 7525SOL    HW234038   0.535   4.442  11.498 -0.7914  0.1451 -1.0176
 7526SOL     OW34039   2.100   0.697  13.226  0.0972  0.2129  0.2475
 7526SOL    HW134040   2.098   0.785  13.262 -0.6851 -0.8307  2.8036
 7526SOL    HW234041   2.006   0.683  13.217  0.1902 -1.0370  1.2168
 7527SOL     OW34042   4.290   2.268   6.377 -0.1765 -0.2102 -0.2654
 7527SOL    HW134043   4.249   2.202   6.322 -2.3937  0.1094  1.0260
 7527SOL    HW234044   4.244   2.262   6.460 -1.1907  1.0689 -0.7351
 7528SOL     OW34045   0.811   1.225  15.835 -0.0919 -0.1677  0.2637
 7528SOL    HW134046   0.793   1.230  15.741  0.1980 -0.8300  0.1714
 7528SOL    HW234047   0.818   1.131  15.854  3.7465  0.3687  1.4314
 7529SOL     OW34048   2.779   2.965   5.240 -0.2624  0.3615 -0.0216
 7529SOL    HW134049   2.704   2.931   5.288  1.4268 -0.7768  1.8104
 7529SOL    HW234050   2.829   3.013   5.306  0.1009  0.6220 -0.4811
 7530SOL     OW34051   3.850   1.075   2.994  0.0954  0.4043 -0.0087
 7530SOL    HW134052   3.945   1.067   2.985  0.1097  0.4940  0.0517
 7530SOL    HW234053   3.845   1.170   2.983  0.3537  0.4104 -0.0712
 7531SOL     OW34054   0.588   4.408   3.498  0.3517  0.0851 -0.0073
 7531SOL    HW134055   0.624   4.483   3.450  1.1490 -1.4541 -1.8022
 7531SOL    HW234056   0.620   4.425   3.587  1.1368 -1.6143  0.0430
 7532SOL     OW34057   3.859   1.415   9.550 -0.5834 -0.1736  0.0364
 7532SOL    HW134058   3.806   1.355   9.497  0.7014 -0.4938 -0.8711
 7532SOL    HW234059   3.812   1.411   9.633 -2.3677 -1.1564 -0.9947
 7533SOL     OW34060   2.789   2.062   6.569  0.5004  0.2153  0.2367
 7533SOL    HW134061   2.811   2.150   6.600  0.6976  0.5179 -0.7737
 7533SOL    HW234062   2.694   2.072   6.567  0.5131  0.5684  1.1409
 7534SOL     OW34063   3.704   1.160   1.524  0.3222  0.0242 -0.1390
 7534SOL    HW134064   3.788   1.119   1.546  0.2973  0.3568  0.5744
 7534SOL    HW234065   3.739   1.248   1.530  1.1464 -0.1884 -1.8333
 7535SOL     OW34066   4.326   3.045   6.546  0.0276  0.4035 -0.2829
 7535SOL    HW134067   4.281   3.104   6.485  1.8541 -0.8861 -2.8614
 7535SOL    HW234068   4.264   2.972   6.542  1.7654 -1.0993  0.5003
 7536SOL     OW34069   2.280   4.297  15.495  0.2759 -0.3479 -0.0717
 7536SOL    HW134070   2.358   4.266  15.450  0.2577 -1.1115  0.4099
 7536SOL    HW234071   2.281   4.381  15.450  1.1076 -0.8416 -0.9967
 7537SOL     OW34072   3.199   1.016   2.829 -0.6385  0.1537  0.2477
 7537SOL    HW134073   3.250   1.001   2.750 -2.2963 -3.4634 -0.1495
 7537SOL    HW234074   3.147   0.936   2.823  0.0058 -0.2231 -0.2720
 7538SOL     OW34075   3.469   0.839   7.180 -0.6068  0.3597 -0.0611
 7538SOL    HW134076   3.465   0.801   7.267  0.7111  0.4393  0.0368
 7538SOL    HW234077   3.489   0.929   7.205 -2.3669  1.0483 -1.0996
 7539SOL     OW34078   2.076   2.946   9.249 -0.1687  0.4904  0.6767
 7539SOL    HW134079   2.035   2.943   9.335  0.2430  0.9174  0.8913
 7539SOL    HW234080   2.074   2.851   9.236 -0.6065  0.3316  1.8801
 7540SOL     OW34081   0.343   1.777  12.250  0.3834 -0.8136 -0.8922
 7540SOL    HW134082   0.437   1.757  12.250  0.2569 -1.4314  1.9560
 7540SOL    HW234083   0.317   1.778  12.158 -1.7524  1.3871 -0.2556
 7541SOL     OW34084   2.400   3.828   8.350  0.8612  0.1826  0.2892
 7541SOL    HW134085   2.331   3.787   8.402  0.0307 -0.4307 -1.3186
 7541SOL    HW234086   2.440   3.748   8.317  1.3619  0.8895 -0.8215
 7542SOL     OW34087   0.847   3.147   8.435  0.3059 -0.2916 -0.4808
 7542SOL    HW134088   0.802   3.231   8.439 -1.6342 -1.4222  1.2537
 7542SOL    HW234089   0.870   3.142   8.342 -0.1724 -0.2232 -0.6003
 7543SOL     OW34090   2.313   1.551  16.820 -0.0213 -0.6413 -0.1710
 7543SOL    HW134091   2.280   1.475  16.868 -0.5813 -1.1555 -1.3863
 7543SOL    HW234092   2.293   1.612  16.891 -0.5215  0.0926 -0.9466
 7544SOL     OW34093   3.531   3.762   7.282  0.6793  0.2120 -0.5094
 7544SOL    HW134094   3.481   3.682   7.266 -2.0021  1.6670  0.5799
 7544SOL    HW234095   3.619   3.739   7.253  0.8317  1.4099 -1.0268
 7545SOL     OW34096   4.068   0.598   2.798 -0.0389 -0.3294 -0.0085
 7545SOL    HW134097   4.136   0.596   2.865 -0.9699 -0.2570  0.9403
 7545SOL    HW234098   4.067   0.691   2.778 -1.0542 -0.5553 -1.0057
 7546SOL     OW34099   0.003   4.659   6.340  0.4839  0.0668 -0.1619
 7546SOL    HW134100   4.645   4.611   6.339  0.5373 -0.0288  0.0314
 7546SOL    HW234101   0.004   4.698   6.252 -0.0052  0.7182  0.1204
 7547SOL     OW34102   0.429   1.202  17.234 -0.1676  0.3675  0.6247
 7547SOL    HW134103   0.388   1.227  17.152 -2.6646 -1.7922  1.2311
 7547SOL    HW234104   0.404   1.110  17.232 -1.1244  0.6483  0.0354
 7548SOL     OW34105   4.093   1.016   4.533  0.2081 -0.5214  0.3956
 7548SOL    HW134106   4.133   0.971   4.458 -0.0198 -1.4912  0.8531
 7548SOL    HW234107   4.006   1.041   4.502  0.1941  0.5193  1.3041
 7549SOL     OW34108   3.418   2.396  16.911 -0.0051 -0.6266 -0.4359
 7549SOL    HW134109   3.411   2.301  16.901  0.9504 -0.8305  0.8218
 7549SOL    HW234110   3.402   2.407  17.005 -0.2350  0.7438 -0.6420
 7550SOL     OW34111   1.812   3.463   3.514  0.1003  0.2169 -0.3821
 7550SOL    HW134112   1.854   3.470   3.600 -1.6616 -1.3792  0.6099
 7550SOL    HW234113   1.765   3.380   3.516  1.9502 -0.8014  1.1067
 7551SOL     OW34114   2.132   3.846   2.747 -0.2163  0.0479  0.3593
 7551SOL    HW134115   2.226   3.830   2.751  0.1785  2.3858  0.2574
 7551SOL    HW234116   2.134   3.941   2.760  0.2257 -0.4437  3.8442
 7552SOL     OW34117   1.035   0.561   8.342  0.7249 -0.6955  0.9359
 7552SOL    HW134118   0.948   0.523   8.348  0.4589 -0.1684  0.4186
 7552SOL    HW234119   1.040   0.587   8.250  2.0691  0.4929  1.3315
 7553SOL     OW34120   1.533   0.720   2.951  0.3632 -0.4184 -0.2532
 7553SOL    HW134121   1.510   0.678   2.867 -0.3872  0.8474 -0.6771
 7553SOL    HW234122   1.572   0.805   2.933  0.0349 -0.0239  0.8899
 7554SOL     OW34123   2.261   0.615   7.408 -0.4586 -0.3995  0.0281
 7554SOL    HW134124   2.211   0.548   7.360  0.0164  1.1447 -2.5989
 7554SOL    HW234125   2.253   0.690   7.349 -2.3619  0.4714  1.3932
 7555SOL     OW34126   2.374   4.174   0.865  0.1788  0.4214 -0.0217
 7555SOL    HW134127   2.297   4.186   0.921  0.3685 -1.5776  0.6669
 7555SOL    HW234128   2.398   4.090   0.904  1.2288 -0.1350 -1.8683
 7556SOL     OW34129   1.596   1.614   8.916  0.1818 -0.6356  0.7522
 7556SOL    HW134130   1.522   1.622   8.856  0.4050 -3.6449  0.1310
 7556SOL    HW234131   1.584   1.695   8.967 -1.3005  0.5575 -1.4927
 7557SOL     OW34132   3.998   4.147   9.008 -0.1187  0.1536 -0.3547
 7557SOL    HW134133   4.005   4.080   9.076  0.0775  0.9859  0.4470
 7557SOL    HW234134   4.071   4.206   9.027 -0.5439  0.8800 -0.9838
 7558SOL     OW34135   3.955   0.764  11.620  0.0952  0.3898 -0.1054
 7558SOL    HW134136   3.958   0.714  11.702 -0.3542 -1.0956 -1.0006
 7558SOL    HW234137   3.946   0.855  11.648  0.4730 -0.2725  2.2244
 7559SOL     OW34138   2.328   0.056   6.916 -0.4238  0.5763  0.1445
 7559SOL    HW134139   2.412   0.103   6.913 -0.6348  0.9674  0.2433
 7559SOL    HW234140   2.355   4.719   6.985 -1.3517 -2.0091 -1.7720
 7560SOL     OW34141   3.560   4.307  14.020  0.4104  0.3444  0.4632
 7560SOL    HW134142   3.529   4.331  13.932  2.8188 -0.4892 -0.6048
 7560SOL    HW234143   3.558   4.215  13.996  0.3326  0.1111  1.3712
 7561SOL     OW34144   3.904   3.045   6.830 -0.4651 -0.1118  0.5263
 7561SOL    HW134145   3.893   2.959   6.869 -1.7877 -0.7109 -1.2044
 7561SOL    HW234146   3.839   3.043   6.760  0.1539 -1.2339 -0.0049
 7562SOL     OW34147   2.146   1.664   0.774 -0.3208  0.7964  0.1774
 7562SOL    HW134148   2.098   1.719   0.835 -0.8249 -1.2173  1.5684
 7562SOL    HW234149   2.208   1.614   0.827 -1.2130  0.2505  0.6804
 7563SOL     OW34150   0.991   2.641   9.015  0.1795 -0.0488  0.0177
 7563SOL    HW134151   0.962   2.702   9.082 -0.7843  0.5340 -0.9274
 7563SOL    HW234152   1.067   2.685   8.976  0.3570  1.3513  1.9814
 7564SOL     OW34153   0.700   1.503   7.671  0.3888 -0.2067  0.4972
 7564SOL    HW134154   0.714   1.522   7.764 -1.1617  0.3773  0.6059
 7564SOL    HW234155   0.627   1.560   7.649 -1.2296 -1.9299  1.4594
 7565SOL     OW34156   3.242   0.391   8.316  0.1348  0.5486 -0.5208
 7565SOL    HW134157   3.229   0.479   8.280  1.0934  1.5388  1.4921
 7565SOL    HW234158   3.205   0.332   8.251 -0.1938 -1.0452  1.0968
 7566SOL     OW34159   3.884   1.609   9.116  0.4003  0.0713 -0.3988
 7566SOL    HW134160   3.938   1.686   9.098 -0.2475  1.2493  2.6866
 7566SOL    HW234161   3.912   1.581   9.204 -2.1983  0.2816  0.4861
 7567SOL     OW34162   2.395   3.146   8.264 -0.3691 -0.7705  0.0288
 7567SOL    HW134163   2.470   3.162   8.321 -0.3355 -3.0880  0.6268
 7567SOL    HW234164   2.355   3.075   8.313  1.8616 -1.7389  0.4769
 7568SOL     OW34165   4.452   3.220   3.208 -0.4085 -0.1567 -0.1104
 7568SOL    HW134166   4.441   3.263   3.293  0.8399  0.8439 -0.4548
 7568SOL    HW234167   4.376   3.263   3.167 -1.4297 -1.5412  0.3278
 7569SOL     OW34168   2.053   3.893   5.490  0.6780 -0.4834 -0.2093
 7569SOL    HW134169   2.091   3.847   5.416 -0.3626  0.8307 -1.5642
 7569SOL    HW234170   1.984   3.831   5.514  0.3045 -0.8333 -2.2400
 7570SOL     OW34171   3.474   1.510   4.681  0.0300  0.0569  0.1941
 7570SOL    HW134172   3.486   1.422   4.645  0.6325  1.3931 -2.8479
 7570SOL    HW234173   3.404   1.536   4.622  0.6888 -1.7079 -1.3606
 7571SOL     OW34174   2.411   3.898   7.905 -0.5446  0.4690 -0.5490
 7571SOL    HW134175   2.463   3.881   7.984 -1.3286 -0.1863 -0.1828
 7571SOL    HW234176   2.445   3.831   7.846 -0.5212  0.8696 -0.9905
 7572SOL     OW34177   0.885   4.696   5.953 -0.2490 -0.2430 -0.3765
 7572SOL    HW134178   0.838   0.018   5.883  2.5591  0.6253 -1.7235
 7572SOL    HW234179   0.905   4.610   5.916 -0.7410  0.2941 -1.9157
 7573SOL     OW34180   3.353   0.492  15.418  0.0805  0.2064 -0.7366
 7573SOL    HW134181   3.446   0.472  15.418  0.1698  0.6991  1.3387
 7573SOL    HW234182   3.330   0.419  15.360  2.0329 -2.2196  1.5062
 7574SOL     OW34183   3.633   4.676  12.539  0.2844  0.0648  0.1243
 7574SOL    HW134184   3.678   4.652  12.458  0.4754  1.8705 -0.2967
 7574SOL    HW234185   3.697   0.005  12.586  0.1706  1.9296 -1.8338
 7575SOL     OW34186   3.223   3.095   6.607 -0.2969 -0.0305  0.0485
 7575SOL    HW134187   3.222   3.054   6.520 -2.3581 -2.0335  1.0217
 7575SOL    HW234188   3.273   3.174   6.587  0.6936 -0.6552  0.0496
 7576SOL     OW34189   2.414   0.234  12.027 -0.0810 -0.0488  0.2225
 7576SOL    HW134190   2.445   0.188  12.105 -0.4454 -0.7746 -0.0637
 7576SOL    HW234191   2.410   0.323  12.061  2.5399  0.5893 -1.1137
 7577SOL     OW34192   0.988   0.236   8.543 -0.2378  0.3321 -0.0779
 7577SOL    HW134193   1.026   0.150   8.525  2.2200  1.0082  1.9087
 7577SOL    HW234194   0.896   0.218   8.528 -0.6152 -0.0610  2.7814
 7578SOL     OW34195   0.171   4.070   5.967  0.1132  0.6554  0.0167
 7578SOL    HW134196   0.144   3.993   6.017  0.7926  0.7491  0.5195
 7578SOL    HW234197   0.238   4.110   6.022 -1.0341  1.4798  0.8032
 7579SOL     OW34198   2.582   4.524   8.958  0.2526 -0.0757 -0.1309
 7579SOL    HW134199   2.539   4.520   8.873  0.2541 -1.5437 -0.0671
 7579SOL    HW234200   2.546   4.445   8.999  1.8532 -0.4610  0.5464
 7580SOL     OW34201   1.912   3.679   3.971  0.6290  0.1494 -0.0594
 7580SOL    HW134202   1.960   3.710   3.894  1.1902  1.1646  0.6977
 7580SOL    HW234203   1.861   3.608   3.933  0.5970  0.5048 -0.6859
 7581SOL     OW34204   1.871   3.714   7.603 -0.0987 -0.1431 -0.1956
 7581SOL    HW134205   1.780   3.716   7.572 -0.2466  0.8983  0.3349
 7581SOL    HW234206   1.859   3.719   7.698  0.5482 -0.4003 -0.1050
 7582SOL     OW34207   0.059   2.115  11.210  0.5055 -0.2290  0.4039
 7582SOL    HW134208   4.710   2.055  11.190  1.4951 -0.5805 -2.1838
 7582SOL    HW234209   0.039   2.143  11.299 -1.6927 -0.3305 -0.0617
 7583SOL     OW34210   0.115   4.672   7.023 -0.0917  1.1985  0.5546
 7583SOL    HW134211   0.174   0.011   6.981 -0.7292  0.9044 -0.7662
 7583SOL    HW234212   0.178   4.615   7.067  0.2666  0.6766 -0.6278
 7584SOL     OW34213   2.185   3.541  11.048  0.3755  0.3559 -0.2366
 7584SOL    HW134214   2.163   3.634  11.043 -0.0782  0.2257 -0.6386
 7584SOL    HW234215   2.278   3.559  11.062  0.0466  2.5704 -0.8441
 7585SOL     OW34216   0.956   4.715  12.177  0.0693  0.5934  0.0014
 7585SOL    HW134217   0.912   0.025  12.099  1.4368 -0.4548 -1.2069
 7585SOL    HW234218   0.958   0.062  12.242  0.3519 -0.2305  0.8902
 7586SOL     OW34219   3.063   3.009  12.677  0.3586 -0.3259  0.8241
 7586SOL    HW134220   3.158   3.003  12.668  0.4159  0.8511  0.6726
 7586SOL    HW234221   3.052   2.990  12.584 -3.8715  0.9752  1.0594
 7587SOL     OW34222   1.422   4.172   5.328 -0.3048 -0.3001  0.0309
 7587SOL    HW134223   1.471   4.202   5.252  1.1909  0.1975  1.1864
 7587SOL    HW234224   1.424   4.249   5.385  0.4634 -0.6700  0.5087
 7588SOL     OW34225   3.362   1.206   5.682  0.4680  0.4834 -0.3737
 7588SOL    HW134226   3.419   1.178   5.754 -0.6502  2.1329  1.1359
 7588SOL    HW234227   3.324   1.277   5.733 -1.4033 -1.5085  0.9797
 7589SOL     OW34228   4.302   3.425  16.717  0.1410  0.1988 -0.4070
 7589SOL    HW134229   4.366   3.393  16.780 -0.4925 -1.0442 -0.3957
 7589SOL    HW234230   4.222   3.380  16.742 -0.7530  0.4139 -2.7939
 7590SOL     OW34231   3.166   2.622   4.257  0.4264 -0.0438  0.4376
 7590SOL    HW134232   3.110   2.553   4.221 -0.3984  0.7642  0.1824
 7590SOL    HW234233   3.180   2.594   4.347  0.7829 -0.2585  0.3154
 7591SOL     OW34234   2.176   0.857  16.210  0.8476 -0.0072  0.1995
 7591SOL    HW134235   2.192   0.950  16.226  0.2767 -0.0126  0.7683
 7591SOL    HW234236   2.082   0.855  16.195  0.9029  2.8806 -0.6105
 7592SOL     OW34237   2.996   1.195   7.767 -0.1778  0.0558  0.0720
 7592SOL    HW134238   2.957   1.147   7.694 -0.9321  1.6510 -0.5659
 7592SOL    HW234239   3.007   1.283   7.732  0.4501  0.3271  0.9387
 7593SOL     OW34240   3.583   2.710   4.303 -0.0840  0.0328  0.7223
 7593SOL    HW134241   3.638   2.635   4.279 -2.3466 -1.2959 -0.3513
 7593SOL    HW234242   3.646   2.764   4.350  0.2934 -0.3706  0.6806
 7594SOL     OW34243   0.058   3.918  13.526 -0.5378  0.6197  0.5591
 7594SOL    HW134244   0.102   3.836  13.509 -0.4808  0.3767  1.8662
 7594SOL    HW234245   0.098   3.957  13.604  1.3190  0.0510 -0.1308
 7595SOL     OW34246   3.177   0.975   6.012 -0.2422  0.1788  0.5842
 7595SOL    HW134247   3.172   1.070   6.000 -0.2557  0.2667  1.2914
 7595SOL    HW234248   3.185   0.965   5.917  1.0637  3.4428  0.3236
 7596SOL     OW34249   4.499   0.200   2.392 -0.2884 -0.4783  0.1536
 7596SOL    HW134250   4.413   0.218   2.355 -0.3100  2.2666  1.6251
 7596SOL    HW234251   4.559   0.236   2.327 -1.1657  0.8973  0.1167
 7597SOL     OW34252   3.608   1.666   8.654 -0.4716 -0.0509 -0.3199
 7597SOL    HW134253   3.691   1.629   8.625  0.6528  1.3939  1.0897
 7597SOL    HW234254   3.646   1.736   8.706  0.7807  0.6446 -2.1867
 7598SOL     OW34255   0.559   3.230   5.512  0.4541  0.5741 -0.0524
 7598SOL    HW134256   0.506   3.179   5.572 -0.1657  0.1212 -0.9889
 7598SOL    HW234257   0.542   3.174   5.436 -0.5027  1.6753 -0.6454
 7599SOL     OW34258   3.280   1.580  12.145  0.0488  0.2318 -0.0035
 7599SOL    HW134259   3.351   1.629  12.186 -0.3674  1.0776 -0.2930
 7599SOL    HW234260   3.206   1.602  12.202  1.8633  1.2521  1.9589
 7600SOL     OW34261   1.948   2.682   0.288  0.2311 -0.8715 -0.1494
 7600SOL    HW134262   1.960   2.743   0.215 -0.0441  1.9929  2.2034
 7600SOL    HW234263   2.001   2.729   0.352  0.3722  0.4561 -1.2397
 7601SOL     OW34264   0.026   0.191  15.356  0.7589  0.3898 -0.2673
 7601SOL    HW134265   0.066   0.273  15.326  0.8514  0.5350  0.2610
 7601SOL    HW234266   4.674   0.178  15.299 -0.8448  0.0725  1.9182
 7602SOL     OW34267   1.165   3.882   0.878  0.2009  0.4403 -0.0265
 7602SOL    HW134268   1.198   3.887   0.789 -0.1791  1.2011 -0.1262
 7602SOL    HW234269   1.232   3.927   0.930 -0.3431  0.7055  0.4527
 7603SOL     OW34270   1.770   1.447   4.884 -0.1360  0.2424 -0.0303
 7603SOL    HW134271   1.748   1.534   4.850  0.0095  0.0728 -0.5667
 7603SOL    HW234272   1.685   1.404   4.875  0.7010 -1.8530  2.1852
 7604SOL     OW34273   0.439   1.971   4.450  0.1205  0.3404 -0.2599
 7604SOL    HW134274   0.386   1.982   4.529  2.2098  0.4609  1.1198
 7604SOL    HW234275   0.463   2.064   4.441 -0.4638  0.5638  0.4583
 7605SOL     OW34276   3.190   3.898   7.986  0.2481  0.5515 -0.0342
 7605SOL    HW134277   3.169   3.936   7.900 -1.4504  1.2831  0.7030
 7605SOL    HW234278   3.201   3.978   8.038 -3.5748  1.6052 -0.8594
 7606SOL     OW34279   1.714   2.959   2.560  0.0871 -0.1266 -0.3376
 7606SOL    HW134280   1.684   2.913   2.482 -3.0413  2.4173 -0.6213
 7606SOL    HW234281   1.696   3.048   2.529  2.1701  0.0203 -1.1754
 7607SOL     OW34282   3.139   2.834   2.755 -0.4882  0.4006  0.0492
 7607SOL    HW134283   3.166   2.859   2.666  1.4768 -0.8561  0.2939
 7607SOL    HW234284   3.137   2.922   2.793 -0.8759  0.2564  0.3617
 7608SOL     OW34285   4.358   0.964   1.957  0.4557  0.3637  0.2733
 7608SOL    HW134286   4.422   1.036   1.961 -1.3510  1.9010  1.1908
 7608SOL    HW234287   4.368   0.911   2.036 -2.9589  0.4426  0.7437
 7609SOL     OW34288   4.199   0.632   1.012  0.4246 -0.0635 -0.2572
 7609SOL    HW134289   4.104   0.634   1.022  0.5137 -0.1569  0.6348
 7609SOL    HW234290   4.211   0.555   0.958  2.8098 -0.3736  0.7033
 7610SOL     OW34291   1.096   1.610   6.611  0.4059  0.0777  0.1181
 7610SOL    HW134292   1.046   1.657   6.678  0.3347  2.6384 -1.7313
 7610SOL    HW234293   1.051   1.639   6.532  1.7119  1.2440 -0.1878
 7611SOL     OW34294   4.357   4.555   6.543  0.6563 -0.2599  0.2734
 7611SOL    HW134295   4.370   4.540   6.450  3.4044 -1.6080  0.8732
 7611SOL    HW234296   4.372   4.465   6.575  3.0115  1.0921  3.0036
 7612SOL     OW34297   3.044   2.496  13.034  0.0333 -0.0074 -0.3842
 7612SOL    HW134298   3.109   2.449  13.087 -1.0219 -1.4354 -0.3383
 7612SOL    HW234299   3.063   2.589  13.039 -0.1463  0.0300 -0.3902
 7613SOL     OW34300   3.040   3.736  11.630 -0.1873 -0.5209 -0.5676
 7613SOL    HW134301   2.980   3.802  11.666  1.2743 -0.7093  2.2361
 7613SOL    HW234302   3.002   3.732  11.542 -0.8738 -0.1136 -0.2871
 7614SOL     OW34303   2.166   2.758  10.975 -0.6861 -0.4680 -0.2949
 7614SOL    HW134304   2.131   2.670  10.981 -0.2362 -0.7223 -1.5579
 7614SOL    HW234305   2.096   2.812  11.013  1.3420  0.4707  2.0912
 7615SOL     OW34306   4.155   2.942   9.364  0.4348  0.8368  0.9069
 7615SOL    HW134307   4.145   2.859   9.318 -0.8800  1.0565  0.7806
 7615SOL    HW234308   4.211   2.911   9.435 -0.8225 -0.9184  1.1201
 7616SOL     OW34309   1.655   0.780   0.832  0.4951 -0.1512  0.1307
 7616SOL    HW134310   1.686   0.690   0.842  0.7059  0.0126  0.9806
 7616SOL    HW234311   1.613   0.799   0.916  1.0386  3.6729 -0.4941
 7617SOL     OW34312   3.885   2.474  13.939  0.2445  0.1149  0.1908
 7617SOL    HW134313   3.922   2.445  14.022 -3.8086 -0.2113  1.8874
 7617SOL    HW234314   3.796   2.496  13.965  0.8530  2.8569 -0.0785
 7618SOL     OW34315   2.330   0.521   4.292  0.6919  0.3199  0.0941
 7618SOL    HW134316   2.396   0.458   4.320  2.9172  2.7164  0.1907
 7618SOL    HW234317   2.282   0.472   4.225  2.4020 -0.6315 -0.4188
 7619SOL     OW34318   1.849   2.454   8.070 -0.1844 -0.0521 -0.0181
 7619SOL    HW134319   1.881   2.511   8.140 -0.1621 -1.6927  1.3187
 7619SOL    HW234320   1.779   2.411   8.118  0.2167 -0.0699  0.5597
 7620SOL     OW34321   3.895   3.990   2.592 -0.8161 -0.3403 -0.4932
 7620SOL    HW134322   3.973   4.043   2.607  0.1670 -2.0482  0.4591
 7620SOL    HW234323   3.933   3.914   2.548  1.6272  0.8634 -0.4358
 7621SOL     OW34324   1.328   4.665   3.881  0.1194 -0.2853  0.0656
 7621SOL    HW134325   1.379   0.021   3.863 -0.7263  0.7008  2.1236
 7621SOL    HW234326   1.347   4.616   3.801 -1.4177 -1.9296  0.7324
 7622SOL     OW34327   2.305   4.364   4.619  0.1791  0.1480 -0.1582
 7622SOL    HW134328   2.223   4.380   4.572  0.3628  4.2150  0.9129
 7622SOL    HW234329   2.287   4.393   4.708 -0.0177  0.3136 -0.2509
 7623SOL     OW34330   4.173   1.358   4.823 -0.5722  0.2448 -0.4624
 7623SOL    HW134331   4.254   1.401   4.850  0.1536 -1.3302 -0.1287
 7623SOL    HW234332   4.155   1.293   4.891  2.2466  2.0122  2.0025
 7624SOL     OW34333   1.320   2.892   4.001 -0.1259 -0.7238 -0.6346
 7624SOL    HW134334   1.291   2.983   4.006 -1.6490 -1.1785 -1.4600
 7624SOL    HW234335   1.233   2.856   3.987 -0.7162  0.4268  0.0627
 7625SOL     OW34336   2.411   2.626   7.735 -0.4606 -0.1329  0.0757
 7625SOL    HW134337   2.401   2.676   7.654  0.4467  0.3436  0.2554
 7625SOL    HW234338   2.396   2.698   7.796 -1.3237 -2.8531  3.0707
 7626SOL     OW34339   0.447   1.416   2.053  0.2399  0.1588  0.4107
 7626SOL    HW134340   0.371   1.467   2.081  0.2886 -0.4503  1.6424
 7626SOL    HW234341   0.520   1.473   2.078  0.7911  0.9332 -3.0498
 7627SOL     OW34342   4.479   0.726   8.207 -0.9646  0.2934  0.0816
 7627SOL    HW134343   4.414   0.792   8.184  0.0303  0.3036 -2.7414
 7627SOL    HW234344   4.439   0.711   8.292  0.2696 -3.6972 -0.0217
 7628SOL     OW34345   1.995   4.174  15.402  0.2767 -0.0921  0.6450
 7628SOL    HW134346   2.015   4.114  15.475  1.4615  0.1424  0.4973
 7628SOL    HW234347   1.912   4.216  15.425  1.3751  3.5474 -2.0694
 7629SOL     OW34348   0.926   3.968   7.738 -0.2662  0.0457 -0.5385
 7629SOL    HW134349   0.873   3.929   7.808  1.2997 -1.7258 -0.3346
 7629SOL    HW234350   0.944   4.059   7.761  0.4247 -0.0483 -0.7168
 7630SOL     OW34351   1.869   1.104   5.812  0.4794  0.0452  0.3018
 7630SOL    HW134352   1.965   1.099   5.813  0.3953 -1.3389  1.5156
 7630SOL    HW234353   1.841   1.073   5.726  0.6368  0.0806  0.2372
 7631SOL     OW34354   3.216   3.982  11.366  0.3959  0.3273 -0.2252
 7631SOL    HW134355   3.253   3.906  11.322 -0.7097 -2.0304  2.8849
 7631SOL    HW234356   3.126   3.948  11.367  0.3471  0.4497 -0.7775
 7632SOL     OW34357   2.981   3.820   4.125  0.2222  0.2914  0.0034
 7632SOL    HW134358   3.051   3.758   4.106  0.5663  1.1085 -1.4085
 7632SOL    HW234359   2.989   3.860   4.212  1.3197 -0.2062  0.1285
 7633SOL     OW34360   3.847   3.891  17.254  0.5148  0.4130 -0.3059
 7633SOL    HW134361   3.943   3.892  17.246  0.6569 -0.0316  1.2875
 7633SOL    HW234362   3.825   3.858  17.167  0.3096  0.1815 -0.1633
 7634SOL     OW34363   2.516   1.309   7.386  0.0994 -0.1466 -0.5496
 7634SOL    HW134364   2.506   1.214   7.385 -0.9421 -0.0220 -1.6095
 7634SOL    HW234365   2.426   1.334   7.404  0.0887 -0.8904  0.4880
 7635SOL     OW34366   0.488   2.900  17.504 -0.3732  0.0207  0.4828
 7635SOL    HW134367   0.531   2.975  17.544  1.2909 -0.9904  0.5699
 7635SOL    HW234368   0.449   2.937  17.424 -2.1169  0.0938  1.3517
 7636SOL     OW34369   0.217   0.814   2.767  0.0039  0.0442 -0.0499
 7636SOL    HW134370   0.148   0.876   2.743 -1.4640 -0.7900  2.0269
 7636SOL    HW234371   0.227   0.781   2.678 -2.3105 -0.8112 -0.0089
 7637SOL     OW34372   0.877   3.928   8.454  0.6067 -0.2800  0.2648
 7637SOL    HW134373   0.947   3.898   8.512 -0.2039 -2.9513 -0.1304
 7637SOL    HW234374   0.919   3.994   8.400  1.7254 -0.8521  0.4359
 7638SOL     OW34375   3.371   3.962  15.756 -0.5442  0.1314 -0.1815
 7638SOL    HW134376   3.307   3.999  15.817 -0.2072  2.1785 -1.0623
 7638SOL    HW234377   3.391   4.029  15.689 -0.5623  0.8086  0.4895
 7639SOL     OW34378   1.407   2.150   9.886 -0.6882  0.2506  0.0723
 7639SOL    HW134379   1.450   2.213   9.945  1.4228 -1.8287  0.7742
 7639SOL    HW234380   1.397   2.077   9.947 -0.5932  0.3723  0.2364
 7640SOL     OW34381   2.635   2.596  11.311 -0.3218  0.8215  0.5382
 7640SOL    HW134382   2.578   2.638  11.375  1.7200  2.4480  1.2721
 7640SOL    HW234383   2.717   2.632  11.345 -0.4947  1.0323  0.7282
 7641SOL     OW34384   3.199   0.755   9.639  0.3087 -0.0892 -0.0864
 7641SOL    HW134385   3.184   0.778   9.731  3.7298  0.4769  0.3351
 7641SOL    HW234386   3.291   0.776   9.622  0.3141  0.2571  0.3764
 7642SOL     OW34387   3.665   1.701   9.337 -0.4908  0.0019  0.2338
 7642SOL    HW134388   3.743   1.659   9.373  0.1464 -1.3749 -2.6784
 7642SOL    HW234389   3.680   1.795   9.334 -0.6818  0.0623  1.3730
 7643SOL     OW34390   0.002   2.450   8.166 -0.0494 -0.2824 -0.0390
 7643SOL    HW134391   0.093   2.467   8.139 -0.2797  0.6472 -0.2507
 7643SOL    HW234392   4.672   2.480   8.093 -0.6567 -0.7906  0.2011
 7644SOL     OW34393   3.245   2.669  15.032  0.6879 -0.1940  0.8722
 7644SOL    HW134394   3.241   2.732  14.960 -0.4111  0.4263  1.4624
 7644SOL    HW234395   3.241   2.728  15.108 -1.6024 -0.0831  0.6824
 7645SOL     OW34396   3.633   2.031   3.327  0.0919  0.9250 -0.8105
 7645SOL    HW134397   3.688   1.953   3.333 -2.5179 -1.0373 -2.4656
 7645SOL    HW234398   3.544   1.994   3.321  0.4569 -0.2762  1.1816
 7646SOL     OW34399   1.903   1.134  14.773  0.0318  0.4749  0.5944
 7646SOL    HW134400   1.942   1.166  14.691  1.8117 -2.3375  0.3367
 7646SOL    HW234401   1.976   1.097  14.824 -1.8050  0.7077  3.3872
 7647SOL     OW34402   0.110   4.199   5.440 -0.2867 -0.1574  0.1418
 7647SOL    HW134403   0.139   4.135   5.505  0.2994 -1.6391 -1.5877
 7647SOL    HW234404   0.173   4.176   5.372 -2.3683 -0.2406 -1.7682
 7648SOL     OW34405   2.712   1.747  11.204 -0.1161 -0.0413 -0.6863
 7648SOL    HW134406   2.709   1.698  11.122  2.4415  0.7477 -1.2764
 7648SOL    HW234407   2.729   1.677  11.267 -0.2530 -0.3039 -0.9440
 7649SOL     OW34408   3.063   0.790  16.598 -0.0060  0.3146 -0.5225
 7649SOL    HW134409   3.030   0.864  16.547  0.4566  0.0107 -1.2490
 7649SOL    HW234410   3.158   0.793  16.592 -0.1050  0.3184 -1.9840
 7650SOL     OW34411   2.717   1.194   7.090 -0.0050  0.6269 -0.5306
 7650SOL    HW134412   2.679   1.140   7.161 -0.6646  1.6377 -0.1110
 7650SOL    HW234413   2.671   1.155   7.016 -0.6317  0.3557 -0.0028
 7651SOL     OW34414   1.005   2.985  12.261  0.2235  0.1121  0.6922
 7651SOL    HW134415   1.004   2.914  12.324 -0.2339 -1.9352 -1.6364
 7651SOL    HW234416   1.080   3.033  12.297 -0.9068 -0.3925  3.7343
 7652SOL     OW34417   1.566   1.883  12.844 -0.1470  0.2608  0.4865
 7652SOL    HW134418   1.474   1.883  12.815 -0.0697  0.0212  0.2379
 7652SOL    HW234419   1.552   1.946  12.915 -0.2589  0.6487  0.1236
 7653SOL     OW34420   2.283   3.541   9.629  0.0043 -0.0267  0.2743
 7653SOL    HW134421   2.282   3.623   9.579  0.5166 -0.0289  0.2595
 7653SOL    HW234422   2.373   3.551   9.661 -0.0953 -0.3179  0.6538
 7654SOL     OW34423   0.008   2.938   3.520  0.4703  0.2076  0.0847
 7654SOL    HW134424   0.092   2.947   3.565 -0.5106  2.5366  1.4271
 7654SOL    HW234425   0.043   2.923   3.432  3.0430  1.0708  0.9554
 7655SOL     OW34426   0.497   1.203   4.549 -0.2535 -0.0081  0.0041
 7655SOL    HW134427   0.560   1.131   4.543 -1.2801 -0.9833  0.9026
 7655SOL    HW234428   0.546   1.261   4.607  1.9511 -0.7750 -1.0906
 7656SOL     OW34429   0.739   0.117   8.487  0.1536 -0.1034 -0.0804
 7656SOL    HW134430   0.743   0.042   8.547 -1.4134 -0.8638 -0.9168
 7656SOL    HW234431   0.683   0.079   8.419 -0.9737  1.4710 -0.0271
 7657SOL     OW34432   1.040   0.345   3.656  0.0900  0.1365  0.0625
 7657SOL    HW134433   0.968   0.356   3.593  0.0124 -1.9698 -0.2055
 7657SOL    HW234434   1.039   0.251   3.675 -1.3891  0.3106  0.8146
 7658SOL     OW34435   0.679   3.219   9.367 -0.1648  0.3952  0.0533
 7658SOL    HW134436   0.748   3.248   9.307 -0.6318  0.2859 -0.5238
 7658SOL    HW234437   0.741   3.164   9.415  0.5619  0.9614 -0.2201
 7659SOL     OW34438   3.955   0.059   7.591 -0.4378 -0.7080  0.0412
 7659SOL    HW134439   3.990   0.104   7.668 -3.6881 -1.1562  1.8129
 7659SOL    HW234440   4.000   0.103   7.519  0.8153 -1.0174  0.6416
 7660SOL     OW34441   3.213   1.670  15.281 -0.1067  0.0954  0.1366
 7660SOL    HW134442   3.302   1.649  15.308 -0.2443 -0.2589  0.3134
 7660SOL    HW234443   3.219   1.640  15.190 -0.2254  0.4267  0.0199
 7661SOL     OW34444   0.194   2.828   6.600 -0.8870 -0.5333  0.6592
 7661SOL    HW134445   0.205   2.867   6.687 -3.9001 -0.9949  1.2454
 7661SOL    HW234446   0.250   2.752   6.612  1.1190  0.4991 -2.1607
 7662SOL     OW34447   4.533   4.171  16.250 -0.1959 -0.6222 -0.0764
 7662SOL    HW134448   4.556   4.205  16.336 -0.1237  1.0378 -0.7454
 7662SOL    HW234449   4.543   4.252  16.199  1.9482 -0.8253  0.0355
 7663SOL     OW34450   2.796   1.386   3.017 -0.7895 -0.8338  0.7952
 7663SOL    HW134451   2.779   1.348   3.103  1.2343  2.1061  2.4807
 7663SOL    HW234452   2.874   1.331   3.005 -0.1551  0.7952 -2.4801
 7664SOL     OW34453   4.617   4.015   3.348  0.3874 -0.5588 -0.0980
 7664SOL    HW134454   4.551   3.971   3.402 -0.3071  0.0391 -0.4514
 7664SOL    HW234455   4.701   3.975   3.370 -0.3956 -1.0761  1.8944
 7665SOL     OW34456   0.670   0.054  12.308 -0.1127  0.2406 -0.3938
 7665SOL    HW134457   0.715   0.083  12.228  1.2644  1.3862  0.8020
 7665SOL    HW234458   0.662   4.684  12.293 -0.0189  0.0729  0.6154
 7666SOL     OW34459   3.524   2.806   6.426  0.6843 -0.4808  0.1800
 7666SOL    HW134460   3.449   2.776   6.478  1.0970 -0.6503  0.6795
 7666SOL    HW234461   3.549   2.724   6.383  2.4282 -0.3190  0.9001
 7667SOL     OW34462   4.529   2.575   0.501  0.1840  0.4452  0.0235
 7667SOL    HW134463   4.591   2.644   0.476 -2.0525  2.1867 -0.7086
 7667SOL    HW234464   4.584   2.506   0.464  0.6421  1.2347 -0.7652
 7668SOL     OW34465   4.306   1.499   7.703 -0.0452  0.1485  0.3576
 7668SOL    HW134466   4.368   1.450   7.650 -0.0342  0.8661 -0.2908
 7668SOL    HW234467   4.304   1.582   7.655  1.1896 -0.3630 -0.5578
 7669SOL     OW34468   2.477   4.424   5.591  0.1450  0.2033  0.6691
 7669SOL    HW134469   2.382   4.419   5.598  0.1056 -0.9195 -0.6229
 7669SOL    HW234470   2.510   4.336   5.572 -0.6282  0.5623 -2.3152
 7670SOL     OW34471   3.338   0.587   4.460  0.2485 -0.9956 -0.0633
 7670SOL    HW134472   3.271   0.526   4.491 -2.5567  1.0930 -2.0250
 7670SOL    HW234473   3.304   0.669   4.498  0.6673 -0.0538 -1.7484
 7671SOL     OW34474   0.033   1.606  12.381 -0.0913 -0.1660 -0.7401
 7671SOL    HW134475   0.079   1.550  12.318  2.3851  0.0376  0.8643
 7671SOL    HW234476   0.102   1.662  12.418  0.2034 -0.0641 -1.4363
 7672SOL     OW34477   3.477   1.548   8.871 -0.1619 -0.0009 -0.4331
 7672SOL    HW134478   3.476   1.579   8.781 -1.5861 -2.1549 -1.1602
 7672SOL    HW234479   3.383   1.544   8.891 -0.1250  0.3875 -0.1766
 7673SOL     OW34480   3.736   1.387   4.591  0.1449  0.4892  0.6120
 7673SOL    HW134481   3.673   1.317   4.577  4.0629 -2.2738 -3.3276
 7673SOL    HW234482   3.681   1.454   4.550  0.7053  0.5153 -0.0932
 7674SOL     OW34483   2.196   3.470   4.172 -0.5504 -0.4314 -0.4721
 7674SOL    HW134484   2.127   3.536   4.183 -0.0351  0.1816 -0.9498
 7674SOL    HW234485   2.261   3.530   4.136 -0.1752 -0.3977  0.2506
 7675SOL     OW34486   3.871   2.019   2.762 -0.0289 -0.3450 -0.4940
 7675SOL    HW134487   3.920   2.101   2.760  0.8941 -0.8810  0.4260
 7675SOL    HW234488   3.794   2.054   2.718 -0.3769 -0.4405  0.0486
 7676SOL     OW34489   2.346   2.376   2.206  0.1453 -0.3202 -0.2768
 7676SOL    HW134490   2.322   2.457   2.160  1.7365  1.1836  1.4951
 7676SOL    HW234491   2.262   2.333   2.193 -0.0259 -0.3514  0.8860
 7677SOL     OW34492   2.060   4.578  13.498  0.3067 -0.4346  0.6678
 7677SOL    HW134493   2.008   4.629  13.436  0.2239 -1.5217 -0.1400
 7677SOL    HW234494   2.010   4.498  13.514 -0.6693 -0.3342 -1.8874
 7678SOL     OW34495   1.030   3.867   0.397  0.0571  0.0779  0.0040
 7678SOL    HW134496   1.087   3.884   0.322  0.3529 -2.5835 -0.3647
 7678SOL    HW234497   1.051   3.947   0.445  1.5877 -0.3769  0.0939
 7679SOL     OW34498   4.457   3.387   7.246 -0.0409 -0.2524  0.8229
 7679SOL    HW134499   4.467   3.329   7.170 -1.9050  0.9400 -0.3465
 7679SOL    HW234500   4.427   3.465   7.199 -1.4140 -1.8213 -0.9069
 7680SOL     OW34501   2.458   1.999  16.895 -0.2760 -0.5874  0.4691
 7680SOL    HW134502   2.372   1.956  16.890 -0.7279  0.2524  0.8592
 7680SOL    HW234503   2.522   1.938  16.860  0.3218 -0.1001  0.7155
 7681SOL     OW34504   1.826   2.744   8.442  0.3980  0.0411  0.2120
 7681SOL    HW134505   1.754   2.806   8.452  1.3647  0.9513  1.4655
 7681SOL    HW234506   1.792   2.680   8.505 -0.5490  0.1839 -0.1400
 7682SOL     OW34507   1.665   0.118   0.810 -0.3753  0.1068  0.2952
 7682SOL    HW134508   1.649   0.050   0.875  0.8551  0.0120  0.4942
 7682SOL    HW234509   1.623   0.194   0.849  0.4611 -0.2228  1.8390
 7683SOL     OW34510   2.619   3.309   4.846  0.0283  0.1645  0.0784
 7683SOL    HW134511   2.545   3.368   4.835  0.0879  0.4842  1.3614
 7683SOL    HW234512   2.694   3.367   4.831  0.8027 -1.2109 -1.4239
 7684SOL     OW34513   0.824   0.148   4.827 -0.0364 -0.2000  0.0916
 7684SOL    HW134514   0.731   0.156   4.806 -0.1900 -0.4082  0.6872
 7684SOL    HW234515   0.865   0.234   4.822 -1.9251  0.7680  1.5788
 7685SOL     OW34516   1.318   0.798   3.218  0.5177 -0.3829 -0.6457
 7685SOL    HW134517   1.271   0.769   3.141 -1.2044  2.3816 -0.6277
 7685SOL    HW234518   1.349   0.886   3.195 -0.2785  0.6564  2.2428
 7686SOL     OW34519   4.191   3.910   8.923 -0.3601  0.4621  0.4225
 7686SOL    HW134520   4.101   3.877   8.922  1.3496 -4.2965  2.3547
 7686SOL    HW234521   4.240   3.828   8.934  0.5098  0.7677 -1.2249
 7687SOL     OW34522   1.793   1.422  13.384  0.2210  0.5787 -0.1256
 7687SOL    HW134523   1.724   1.457  13.326 -0.1479 -0.0200 -0.0414
 7687SOL    HW234524   1.849   1.500  13.377  2.7191 -1.0875  1.5006
 7688SOL     OW34525   0.121   2.154   5.215  0.3834 -0.0881  0.1615
 7688SOL    HW134526   0.175   2.087   5.174  1.0508 -0.2299  1.2768
 7688SOL    HW234527   0.170   2.189   5.289 -0.6650 -1.2434  1.4261
 7689SOL     OW34528   1.882   3.818   2.925  0.4219 -0.7528  0.4715
 7689SOL    HW134529   1.870   3.726   2.950  0.3500 -0.2424  2.2999
 7689SOL    HW234530   1.962   3.810   2.874 -0.0873  2.7308 -0.8609
 7690SOL     OW34531   2.150   1.115   5.796 -0.1610 -0.5389 -0.8354
 7690SOL    HW134532   2.159   1.204   5.831 -2.0429 -0.8709  0.4751
 7690SOL    HW234533   2.227   1.096   5.743  1.1444  1.2537  0.4173
 7691SOL     OW34534   1.974   0.826   7.127 -0.2827 -0.0092 -0.0523
 7691SOL    HW134535   1.892   0.847   7.171 -1.3900 -0.1193 -2.1105
 7691SOL    HW234536   1.951   0.802   7.038  3.7460  0.1571 -1.1642
 7692SOL     OW34537   4.211   4.372   1.064  0.6489 -0.5297 -0.4649
 7692SOL    HW134538   4.249   4.378   1.152 -0.3984  0.0223 -0.0540
 7692SOL    HW234539   4.275   4.431   1.024  0.4182  0.1046  0.0938
 7693SOL     OW34540   3.825   3.640   6.655  0.2850 -0.2562 -0.0271
 7693SOL    HW134541   3.861   3.568   6.706  0.7573 -0.3064 -0.4344
 7693SOL    HW234542   3.790   3.705   6.717  0.7011 -0.0868  0.0296
 7694SOL     OW34543   0.810   3.554   9.753  0.4676 -0.0887 -0.0760
 7694SOL    HW134544   0.821   3.647   9.735  0.4750  0.1458  1.1641
 7694SOL    HW234545   0.733   3.548   9.809 -0.1664  1.2592 -0.8038
 7695SOL     OW34546   3.758   2.723   2.655  0.4025  0.0412  0.1456
 7695SOL    HW134547   3.764   2.817   2.639 -0.3279 -0.0982 -0.9680
 7695SOL    HW234548   3.673   2.731   2.698 -0.1505 -1.0437 -0.7468
 7696SOL     OW34549   3.273   2.185   9.386 -0.1496  0.1480  0.2570
 7696SOL    HW134550   3.252   2.275   9.409 -2.5904 -0.4252  0.2367
 7696SOL    HW234551   3.286   2.148   9.473 -2.1401  1.4191  1.0687
 7697SOL     OW34552   1.864   1.175   6.191  0.1298 -0.1744 -0.3245
 7697SOL    HW134553   1.902   1.236   6.255  1.3204  0.0957 -1.3037
 7697SOL    HW234554   1.792   1.227   6.155 -0.6291 -0.9925  0.0116
 7698SOL     OW34555   2.611   0.747   2.676  0.2373 -0.4869  0.2993
 7698SOL    HW134556   2.659   0.822   2.643 -1.4223  0.6455  0.4879
 7698SOL    HW234557   2.615   0.684   2.604  1.4798  0.7184 -0.6801
 7699SOL     OW34558   0.752   3.864  17.035  0.0989  0.0260  0.4228
 7699SOL    HW134559   0.784   3.811  16.962  0.7971 -0.1854  0.8792
 7699SOL    HW234560   0.795   3.817  17.107  0.4187 -1.2630 -0.6148
 7700SOL     OW34561   3.739   0.429   1.727 -0.1974 -0.0708 -0.0906
 7700SOL    HW134562   3.806   0.420   1.659 -0.3162 -0.0226 -0.2141
 7700SOL    HW234563   3.742   0.348   1.778  0.6834  0.5689  0.8891
 7701SOL     OW34564   1.725   2.339  15.226 -0.1959 -0.4128 -0.3864
 7701SOL    HW134565   1.722   2.434  15.236 -0.3019 -0.5129  0.5248
 7701SOL    HW234566   1.811   2.336  15.183  0.7187  1.5921  1.3119
 7702SOL     OW34567   4.680   2.358   3.979 -0.7013  0.0522  0.1985
 7702SOL    HW134568   4.588   2.351   4.004 -0.8128 -0.2266 -0.2940
 7702SOL    HW234569   4.685   2.352   3.883  1.2651 -1.7205  0.4217
 7703SOL     OW34570   0.071   4.709  16.056  0.6845  0.5215 -0.1242
 7703SOL    HW134571   0.151   0.037  16.044  1.1221 -0.1057  0.0876
 7703SOL    HW234572   0.022   4.716  15.974 -1.0482 -3.6209  0.5640
 7704SOL     OW34573   3.454   2.313   0.416  0.1110 -0.1438 -0.4985
 7704SOL    HW134574   3.520   2.259   0.460 -0.3757  0.4522  0.9683
 7704SOL    HW234575   3.371   2.279   0.448 -1.1085 -0.3702 -3.9111
 7705SOL     OW34576   4.652   3.264   5.947  0.4887  0.6195  0.4896
 7705SOL    HW134577   4.604   3.187   5.919  2.1985 -1.0709  2.1484
 7705SOL    HW234578   4.660   3.316   5.867  0.7843 -1.0577 -0.5533
 7706SOL     OW34579   1.916   2.328  13.951 -0.9353  0.2843  0.9205
 7706SOL    HW134580   1.951   2.397  13.893  0.5201  0.6918  2.2921
 7706SOL    HW234581   1.964   2.253  13.915 -3.2042 -1.0749  0.7523
 7707SOL     OW34582   3.504   0.491   5.413  0.1417  0.3696  0.1111
 7707SOL    HW134583   3.575   0.544   5.449  1.9910 -2.5188  0.7152
 7707SOL    HW234584   3.442   0.487   5.485 -0.8383 -0.9134 -0.7791
 7708SOL     OW34585   3.745   0.104   6.020  0.0603  0.3248 -0.2596
 7708SOL    HW134586   3.714   0.175   5.963  2.3537  0.5069 -1.2798
 7708SOL    HW234587   3.687   0.036   5.986 -0.0951  0.1680  0.3275
 7709SOL     OW34588   0.814   1.106  17.665  0.3501  0.4556  0.8400
 7709SOL    HW134589   0.768   1.100   0.052 -1.3791  1.2182 -0.0547
 7709SOL    HW234590   0.739   1.141  17.616  0.4435 -0.7885 -0.1997
 7710SOL     OW34591   3.799   0.201   1.104 -0.7014 -0.4893 -0.2313
 7710SOL    HW134592   3.752   0.158   1.033 -0.8149  0.1282 -0.5295
 7710SOL    HW234593   3.800   0.125   1.163  0.1602  0.3451  0.8265
 7711SOL     OW34594   4.109   2.116   3.068  0.2701 -0.1039  0.5040
 7711SOL    HW134595   4.032   2.059   3.062 -1.4301  2.5007 -2.3534
 7711SOL    HW234596   4.071   2.176   3.132  1.6447  0.6880  0.5838
 7712SOL     OW34597   2.786   3.831   0.781  0.2892  0.0207 -0.1106
 7712SOL    HW134598   2.817   3.889   0.712  0.0691  1.7900  1.2829
 7712SOL    HW234599   2.692   3.845   0.776  0.0314 -0.8849  1.9866
 7713SOL     OW34600   4.139   3.211   7.903  0.1952  0.0419 -0.3735
 7713SOL    HW134601   4.144   3.120   7.933  1.9985  0.6098  1.0624
 7713SOL    HW234602   4.080   3.244   7.972 -0.0808 -1.7383  0.2641
 7714SOL     OW34603   4.155   2.810   8.158  0.2748  0.7230 -0.1241
 7714SOL    HW134604   4.190   2.883   8.208 -0.3411  0.6468  0.4243
 7714SOL    HW234605   4.080   2.798   8.216  0.4572 -0.5782 -0.1376
 7715SOL     OW34606   4.248   3.639   0.206  0.0340  0.1123 -0.2583
 7715SOL    HW134607   4.302   3.682   0.273  0.1057  1.0008 -0.8836
 7715SOL    HW234608   4.295   3.670   0.129 -1.2298  0.1795 -1.0008
 7716SOL     OW34609   0.503   0.214   6.531 -0.4538  0.2200  0.1316
 7716SOL    HW134610   0.485   0.126   6.497  1.7031  1.2136 -3.6063
 7716SOL    HW234611   0.434   0.267   6.491 -2.2948 -0.0318  2.9900
 7717SOL     OW34612   2.959   3.072   8.202  0.2666 -0.2527 -0.0379
 7717SOL    HW134613   2.980   3.128   8.277  0.5891  0.1476 -0.4202
 7717SOL    HW234614   3.040   3.022   8.202 -0.3847 -1.2850  1.6474
 7718SOL     OW34615   3.311   0.229  11.972  0.1964  0.2766 -0.3436
 7718SOL    HW134616   3.366   0.281  12.030 -1.0900  0.9475  0.2717
 7718SOL    HW234617   3.246   0.293  11.943  0.0534  0.1349 -0.3369
 7719SOL     OW34618   2.477   4.628   4.880  0.2159 -0.2196 -0.5633
 7719SOL    HW134619   2.523   4.670   4.952  2.3560 -1.9809 -0.9106
 7719SOL    HW234620   2.417   4.695   4.847 -0.8338 -0.9733 -0.2124
 7720SOL     OW34621   2.997   1.277  11.150 -0.0752 -0.3974  0.4601
 7720SOL    HW134622   2.919   1.299  11.098  0.0358 -1.3881 -0.1435
 7720SOL    HW234623   3.071   1.267  11.089 -1.9932 -0.9994 -1.7928
 7721SOL     OW34624   3.266   4.484   4.664 -0.2409 -0.2897 -0.5133
 7721SOL    HW134625   3.313   4.454   4.586  0.6089 -0.7227  0.1663
 7721SOL    HW234626   3.205   4.413   4.686 -0.8907  0.3765 -0.1860
 7722SOL     OW34627   1.960   3.249   6.688 -0.1019 -0.2716 -0.5339
 7722SOL    HW134628   2.015   3.179   6.653 -0.8837 -2.3148  2.3513
 7722SOL    HW234629   1.974   3.312   6.616 -2.0098 -0.5166 -1.1198
 7723SOL     OW34630   3.702   0.309   5.848 -0.1895 -0.2159  0.1086
 7723SOL    HW134631   3.717   0.277   5.759  2.3012 -0.0975  0.4695
 7723SOL    HW234632   3.660   0.394   5.835  0.1606 -0.0685 -0.0549
 7724SOL     OW34633   2.862   1.180  12.466 -0.7033 -0.6816  0.7120
 7724SOL    HW134634   2.797   1.243  12.496 -0.9695 -1.6945  2.2249
 7724SOL    HW234635   2.818   1.159  12.383  0.9752 -0.7485 -0.1585
 7725SOL     OW34636   1.833   0.158   1.541 -0.0846 -0.0654  0.5041
 7725SOL    HW134637   1.852   0.108   1.621  0.2317  0.0806  0.5228
 7725SOL    HW234638   1.920   0.167   1.502  0.5906 -0.9672  1.7987
 7726SOL     OW34639   1.355   0.959   7.710  0.1243  0.1181 -0.5239
 7726SOL    HW134640   1.383   0.885   7.657 -1.4689 -0.7328 -0.1600
 7726SOL    HW234641   1.347   1.036   7.652 -2.7952 -1.1902 -1.8880
 7727SOL     OW34642   4.263   3.959   9.637 -0.0868 -0.0752 -0.5051
 7727SOL    HW134643   4.245   4.051   9.615 -0.9284 -0.1779 -0.2410
 7727SOL    HW234644   4.352   3.943   9.605 -0.6603 -0.7906 -1.7030
 7728SOL     OW34645   4.165   4.489  10.853  0.0310 -0.1405  0.2927
 7728SOL    HW134646   4.234   4.554  10.872 -0.1594  1.0807 -3.0987
 7728SOL    HW234647   4.116   4.537  10.786  1.6050  0.0003 -0.7625
 7729SOL     OW34648   0.303   1.159   2.023  0.3797 -0.6123 -0.8108
 7729SOL    HW134649   0.226   1.205   2.055  0.1858 -1.5032  0.0109
 7729SOL    HW234650   0.365   1.232   2.020 -0.3521 -0.0052 -1.1842
 7730SOL     OW34651   3.279   0.108  16.868  0.2087  0.1046  0.3389
 7730SOL    HW134652   3.305   0.147  16.784 -1.7062 -3.3424 -1.8406
 7730SOL    HW234653   3.205   0.165  16.890 -0.2562 -0.2594 -0.2795
 7731SOL     OW34654   0.124   2.997   8.965 -0.7938 -0.8756 -0.2421
 7731SOL    HW134655   0.138   2.909   8.998 -1.1174  0.2518  2.9331
 7731SOL    HW234656   0.033   3.011   8.990  0.4578  1.4991  2.9967
 7732SOL     OW34657   3.544   0.994   3.862 -0.4475  0.0843 -0.3367
 7732SOL    HW134658   3.575   1.050   3.934 -0.1259  0.3196 -0.6598
 7732SOL    HW234659   3.460   1.036   3.842 -1.0215 -0.8279  0.1768
 7733SOL     OW34660   4.478   4.409  17.377 -0.4478 -0.3310  0.3867
 7733SOL    HW134661   4.502   4.483  17.321  0.2301  0.5473  1.8154
 7733SOL    HW234662   4.414   4.463  17.424 -1.0680  0.3112 -1.1966
 7734SOL     OW34663   1.773   3.378   1.542  0.3548  0.1004  0.0419
 7734SOL    HW134664   1.736   3.460   1.511  2.9666  0.8921 -0.9787
 7734SOL    HW234665   1.704   3.313   1.524  0.7891 -0.2664 -0.2934
 7735SOL     OW34666   1.300   0.194   8.189 -0.2396 -0.5129 -0.0140
 7735SOL    HW134667   1.251   0.191   8.272 -1.6081 -2.4103 -0.9180
 7735SOL    HW234668   1.311   0.289   8.178 -3.9087 -0.2523 -1.2964
 7736SOL     OW34669   0.458   4.322   3.867  0.1474 -0.0955  0.0571
 7736SOL    HW134670   0.470   4.359   3.955  0.5886  0.7270 -0.3477
 7736SOL    HW234671   0.520   4.374   3.816  1.3095 -0.6960  0.8680
 7737SOL     OW34672   2.262   3.079  13.217  0.2502 -0.4452  0.3384
 7737SOL    HW134673   2.227   3.150  13.163  1.8419 -0.0833 -0.2306
 7737SOL    HW234674   2.194   3.015  13.197 -0.0656  0.5003 -1.6415
 7738SOL     OW34675   1.887   2.533   9.833  0.0482  0.0629 -0.0942
 7738SOL    HW134676   1.843   2.449   9.818  0.8385 -0.4603  0.5502
 7738SOL    HW234677   1.938   2.515   9.912  0.6813  2.4790  0.0550
 7739SOL     OW34678   4.428   3.633   8.712  0.4218 -0.1173  0.1146
 7739SOL    HW134679   4.381   3.552   8.691 -0.0777 -0.2824  1.8524
 7739SOL    HW234680   4.522   3.618   8.701  0.5198 -0.4697  1.4774
 7740SOL     OW34681   4.409   2.131   8.498  0.5301  0.5913  0.1934
 7740SOL    HW134682   4.401   2.191   8.425  0.0548 -1.5627 -1.5332
 7740SOL    HW234683   4.428   2.054   8.445 -1.3823  1.6282 -1.9975
 7741SOL     OW34684   4.167   0.768   3.013  0.2866 -0.4526  0.1753
 7741SOL    HW134685   4.113   0.829   2.962 -2.0107 -1.7004  1.1157
 7741SOL    HW234686   4.201   0.815   3.088  1.8106  0.5832 -1.1719
 7742SOL     OW34687   1.790   0.753   5.315  0.2198 -0.5813  0.2581
 7742SOL    HW134688   1.805   0.682   5.252 -1.8334  0.1111 -1.0075
 7742SOL    HW234689   1.747   0.811   5.253  0.2849  0.1668  0.9049
 7743SOL     OW34690   2.557   1.071   9.117 -0.3058  0.2932  0.2420
 7743SOL    HW134691   2.496   1.101   9.184 -0.0813 -0.8179  0.9430
 7743SOL    HW234692   2.503   1.067   9.037 -1.3729  2.2365  0.8639
 7744SOL     OW34693   2.557   3.908   8.158 -0.0597  0.2996  0.2456
 7744SOL    HW134694   2.495   3.895   8.229  0.9453  1.4437  1.3243
 7744SOL    HW234695   2.589   3.997   8.174 -1.5923  1.4969 -3.3258
 7745SOL     OW34696   3.792   3.077   4.625 -0.9594  0.2902 -0.0540
 7745SOL    HW134697   3.705   3.073   4.664 -0.3992 -1.3865  1.0254
 7745SOL    HW234698   3.771   3.100   4.535  0.5975  0.9364 -0.2478
 7746SOL     OW34699   2.343   4.600   4.051  0.1357  0.0820  0.0351
 7746SOL    HW134700   2.288   4.522   4.052  0.3609 -0.0436  1.9881
 7746SOL    HW234701   2.279   4.660   4.012  0.8615  0.3023 -0.8112
 7747SOL     OW34702   3.858   0.608   8.087 -0.5216 -0.1978 -0.1742
 7747SOL    HW134703   3.766   0.631   8.096 -0.4758 -0.7411  1.6354
 7747SOL    HW234704   3.861   0.523   8.131 -2.4809  0.4417  1.2038
 7748SOL     OW34705   0.586   1.034  13.820  0.1474  0.6451  0.5256
 7748SOL    HW134706   0.641   1.086  13.761  1.8596 -1.8611 -0.1171
 7748SOL    HW234707   0.583   1.098  13.892 -3.8725 -0.2146  1.0972
 7749SOL     OW34708   1.671   0.857  17.289  0.4410 -0.4014 -0.2929
 7749SOL    HW134709   1.642   0.941  17.252  0.3503 -0.2027  0.2319
 7749SOL    HW234710   1.611   0.796  17.247 -0.1985  0.0755 -0.0636
 7750SOL     OW34711   1.028   4.700  16.366 -0.8711  0.7606  0.3019
 7750SOL    HW134712   0.975   0.052  16.390 -0.0304  1.6022 -0.5100
 7750SOL    HW234713   1.107   4.708  16.420 -0.4574 -0.7147 -0.0864
 7751SOL     OW34714   4.578   2.043   7.651 -0.2333 -0.2954 -0.3590
 7751SOL    HW134715   4.660   2.009   7.687 -0.7566  0.4624  1.5540
 7751SOL    HW234716   4.509   2.015   7.711 -0.3250  0.3884 -0.1365
 7752SOL     OW34717   1.887   2.542   4.871  0.3812 -0.1978 -0.0936
 7752SOL    HW134718   1.815   2.558   4.809  0.4369 -1.7152 -0.5346
 7752SOL    HW234719   1.943   2.505   4.802 -1.1441 -0.1524 -1.3641
 7753SOL     OW34720   4.721   0.907   6.111  0.2652  0.3455 -0.4153
 7753SOL    HW134721   0.040   0.968   6.173  1.2196  2.2559 -2.9476
 7753SOL    HW234722   4.665   0.853   6.167  2.3879 -2.3227 -0.8449
 7754SOL     OW34723   0.838   3.165  11.581 -0.0370 -0.2985 -0.1513
 7754SOL    HW134724   0.878   3.243  11.543  0.4565 -0.0583  0.8494
 7754SOL    HW234725   0.875   3.099  11.523  1.5696 -1.1641  1.8495
 7755SOL     OW34726   1.267   4.319   0.300 -0.5402 -0.3929  0.5218
 7755SOL    HW134727   1.278   4.414   0.303  2.6603 -0.7379 -1.0571
 7755SOL    HW234728   1.342   4.297   0.245  0.2177  0.3691  1.2473
 7756SOL     OW34729   3.072   1.156   9.198 -0.0626 -0.2180 -0.0091
 7756SOL    HW134730   3.041   1.238   9.160 -0.3008 -1.4492 -2.5015
 7756SOL    HW234731   3.061   1.184   9.288 -0.8389  0.0246 -0.1797
 7757SOL     OW34732   4.363   3.805  16.884  0.3831  0.5019  0.2612
 7757SOL    HW134733   4.390   3.776  16.971  1.0152  1.2103  0.3025
 7757SOL    HW234734   4.268   3.806  16.896  0.4756  1.1152  0.9542
 7758SOL     OW34735   0.646   2.964   8.078  0.5746  0.0999  0.0070
 7758SOL    HW134736   0.598   3.038   8.113  2.1962  0.8053  0.7357
 7758SOL    HW234737   0.589   2.943   8.004 -0.7221 -0.1202  1.0687
 7759SOL     OW34738   1.725   0.367   9.761  0.0088 -0.6749 -0.0878
 7759SOL    HW134739   1.671   0.439   9.728  1.6020  0.1370 -0.9191
 7759SOL    HW234740   1.811   0.404   9.784 -1.0455  0.5631  1.8515
 7760SOL     OW34741   3.397   3.247  12.765  0.4375  0.4830  0.1924
 7760SOL    HW134742   3.434   3.288  12.687 -2.0800  1.9731 -0.2338
 7760SOL    HW234743   3.483   3.241  12.806  1.2017 -1.1024 -1.6398
 7761SOL     OW34744   2.644   2.831   7.461 -0.5470  0.6244 -0.2957
 7761SOL    HW134745   2.556   2.813   7.428 -0.4895  0.8954 -0.5842
 7761SOL    HW234746   2.632   2.872   7.546 -1.8673  0.1376 -0.2439
 7762SOL     OW34747   1.068   2.012   1.293  0.3670  0.4899 -0.0880
 7762SOL    HW134748   1.100   2.102   1.284 -0.0557  0.3595 -2.9328
 7762SOL    HW234749   1.071   1.995   1.199  0.1222  0.2467 -0.0525
 7763SOL     OW34750   0.563   4.487   5.911  0.2948 -0.1081  0.0048
 7763SOL    HW134751   0.579   4.547   5.984 -2.4948  0.8577 -0.1796
 7763SOL    HW234752   0.475   4.452   5.927 -0.1750  0.4177 -1.5074
 7764SOL     OW34753   1.374   3.544   0.630 -0.2958  0.6632 -0.6471
 7764SOL    HW134754   1.388   3.551   0.724  0.8669 -1.7401 -0.6504
 7764SOL    HW234755   1.279   3.533   0.638 -0.3556  2.2869  0.8017
 7765SOL     OW34756   3.701   3.399   8.172 -0.0854  0.5096  0.7080
 7765SOL    HW134757   3.630   3.335   8.165  0.9988 -0.6319  0.2231
 7765SOL    HW234758   3.678   3.437   8.257 -0.5701 -2.5539  1.9621
 7766SOL     OW34759   3.351   0.727   9.331 -0.0915 -0.2397  0.2243
 7766SOL    HW134760   3.380   0.661   9.268 -0.6709 -1.6231  1.4039
 7766SOL    HW234761   3.429   0.732   9.387 -1.1546  0.6041  1.6275
 7767SOL     OW34762   3.999   2.444   6.445 -0.4012  0.0767  0.1319
 7767SOL    HW134763   4.073   2.466   6.502  1.1224  1.5142 -2.4285
 7767SOL    HW234764   3.918   2.439   6.497 -2.6953 -1.6925 -3.6264
 7768SOL     OW34765   1.755   4.615   3.092 -0.1659  0.1646  0.5200
 7768SOL    HW134766   1.706   4.640   3.170 -1.6161 -1.4303  0.1342
 7768SOL    HW234767   1.819   4.686   3.085  0.9422 -0.9850 -1.1924
 7769SOL     OW34768   3.661   2.744  16.241  0.4695 -0.0125  0.6578
 7769SOL    HW134769   3.735   2.685  16.229 -0.4775 -0.9886 -0.4881
 7769SOL    HW234770   3.641   2.731  16.334  0.3004  0.3306  0.6694
 7770SOL     OW34771   0.766   1.694   3.829  0.1324 -0.0687  0.0230
 7770SOL    HW134772   0.772   1.751   3.906 -2.6323 -1.4091  1.2436
 7770SOL    HW234773   0.762   1.757   3.757 -2.6237  1.8516  1.8775
 7771SOL     OW34774   3.066   1.673   5.920 -0.4876 -0.2929 -0.5221
 7771SOL    HW134775   3.018   1.604   5.873 -2.4476  0.5129  0.2916
 7771SOL    HW234776   3.080   1.724   5.840  1.9556  0.5438  0.4477
 7772SOL     OW34777   3.213   3.537   9.682  0.0536  0.0701 -0.1005
 7772SOL    HW134778   3.207   3.614   9.626 -1.2791  1.3305  1.7881
 7772SOL    HW234779   3.131   3.550   9.729 -0.5322 -0.4928 -0.9714
 7773SOL     OW34780   3.989   0.574   6.922  0.2297  0.3770 -0.5345
 7773SOL    HW134781   3.936   0.625   6.984 -1.4447 -3.4859  1.2567
 7773SOL    HW234782   4.057   0.534   6.976  0.3834  0.3652 -0.7390
 7774SOL     OW34783   1.627   4.649  14.214 -0.2139  0.3856  0.0140
 7774SOL    HW134784   1.612   4.584  14.146  2.0833 -1.3117  1.1194
 7774SOL    HW234785   1.546   4.651  14.265 -0.6655  1.2722 -0.7297
 7775SOL     OW34786   0.782   2.276   3.726 -0.4747  0.3725 -0.1202
 7775SOL    HW134787   0.725   2.246   3.797 -1.1554 -4.1308 -2.5542
 7775SOL    HW234788   0.722   2.261   3.653 -0.1781  1.5104 -0.5885
 7776SOL     OW34789   1.216   4.302   4.068 -0.4929  0.1046  0.0337
 7776SOL    HW134790   1.200   4.268   3.980 -3.9249  0.1232  0.6331
 7776SOL    HW234791   1.305   4.268   4.078 -0.7097 -0.3247  0.5142
 7777SOL     OW34792   4.621   1.279  16.261  0.1400 -0.0537  0.4106
 7777SOL    HW134793   4.671   1.197  16.268  2.1095  0.8292 -3.1895
 7777SOL    HW234794   4.637   1.309  16.171 -0.0328 -1.6345 -0.1510
 7778SOL     OW34795   0.493   1.838   2.111 -0.4001 -0.2458 -0.1597
 7778SOL    HW134796   0.546   1.759   2.121  2.1425  1.1924 -2.3238
 7778SOL    HW234797   0.539   1.879   2.038  1.1158  0.9595  1.4604
 7779SOL     OW34798   4.238   0.602  11.211  0.5569 -0.0258  0.2511
 7779SOL    HW134799   4.284   0.519  11.199  0.1793  0.1301 -2.4265
 7779SOL    HW234800   4.151   0.574  11.184  0.4764 -0.9070  1.4256
 7780SOL     OW34801   3.040   3.121  12.930 -0.6960 -0.0002 -0.3139
 7780SOL    HW134802   2.993   3.195  12.892  0.5152  1.4109  0.9363
 7780SOL    HW234803   3.073   3.089  12.846  1.0076  1.1076 -0.0478
 7781SOL     OW34804   3.299   1.536   3.330 -0.2559 -0.9739 -0.1694
 7781SOL    HW134805   3.360   1.462   3.320  1.4790  0.6029 -1.1825
 7781SOL    HW234806   3.220   1.483   3.315 -0.0005 -1.5763  0.6101
 7782SOL     OW34807   0.385   1.244   4.072 -0.3943 -0.1310  0.2845
 7782SOL    HW134808   0.329   1.291   4.010 -0.4567 -1.4272 -0.6342
 7782SOL    HW234809   0.320   1.195   4.122  0.2898 -1.3752 -0.0475
 7783SOL     OW34810   1.520   3.859   3.680 -0.7592 -0.4762  0.1564
 7783SOL    HW134811   1.521   3.772   3.718 -2.6529 -1.9711 -3.2262
 7783SOL    HW234812   1.587   3.851   3.612 -0.6897  1.8598 -0.0811
 7784SOL     OW34813   1.300   0.605   5.783  0.5149  0.3915  0.1458
 7784SOL    HW134814   1.384   0.573   5.815  0.4428 -0.2002 -0.2559
 7784SOL    HW234815   1.300   0.574   5.692 -0.0609 -3.1241  1.3275
 7785SOL     OW34816   2.000   1.725   5.383  0.0002 -0.1486 -0.7341
 7785SOL    HW134817   2.048   1.758   5.307  0.5514 -1.5764 -1.0203
 7785SOL    HW234818   1.947   1.803   5.397  4.0813  2.2498  1.5703
 7786SOL     OW34819   0.819   0.599  10.541  0.2359  0.2613 -0.3249
 7786SOL    HW134820   0.764   0.541  10.488 -0.5346  2.5449 -2.0220
 7786SOL    HW234821   0.859   0.671  10.491  1.1888 -1.2621 -1.7532
 7787SOL     OW34822   3.649   3.165   0.053 -0.0386 -0.0618  0.8023
 7787SOL    HW134823   3.573   3.111   0.078 -0.8076  1.5970  2.0841
 7787SOL    HW234824   3.616   3.188  17.663  0.4847  1.5098  1.0232
 7788SOL     OW34825   1.832   1.704  16.688 -0.0057 -0.0111  0.5389
 7788SOL    HW134826   1.925   1.683  16.679 -0.1330 -0.4397  0.2024
 7788SOL    HW234827   1.807   1.697  16.595  2.9835  1.7242 -0.3915
 7789SOL     OW34828   3.664   3.437  13.206  0.0389 -0.6408  0.9025
 7789SOL    HW134829   3.710   3.392  13.134 -0.0941 -1.5858  1.4095
 7789SOL    HW234830   3.656   3.522  13.163 -0.2475 -1.2749 -0.2924
 7790SOL     OW34831   0.052   1.823   8.977 -0.1920  0.2912 -0.0987
 7790SOL    HW134832   0.059   1.735   9.015 -1.5339  0.6410  0.9644
 7790SOL    HW234833   0.011   1.867   9.052 -0.2248  0.6213 -0.3131
 7791SOL     OW34834   2.000   2.148   5.230 -0.3360  0.4099 -0.2433
 7791SOL    HW134835   2.035   2.204   5.161  0.7727 -1.3281 -1.0741
 7791SOL    HW234836   1.919   2.129   5.182 -0.9700 -0.2210  1.0837
 7792SOL     OW34837   0.305   1.568   4.504 -0.7822 -0.8120 -0.1357
 7792SOL    HW134838   0.300   1.599   4.414  2.7113 -1.3073 -0.5123
 7792SOL    HW234839   0.275   1.478   4.512  1.0532 -1.5759 -1.8406
 7793SOL     OW34840   2.921   1.890   5.079 -0.3385 -0.2120 -0.0405
 7793SOL    HW134841   2.871   1.960   5.037  0.7301  0.8581  0.4621
 7793SOL    HW234842   2.904   1.817   5.020  3.7092 -2.6643  1.8078
 7794SOL     OW34843   4.047   0.785   7.877 -0.5346  0.6518  0.2579
 7794SOL    HW134844   3.983   0.845   7.914 -0.2870  0.1546  1.5005
 7794SOL    HW234845   4.040   0.804   7.784 -0.2226 -3.6285 -0.6422
 7795SOL     OW34846   3.543   3.010  11.156  0.0388  0.0581 -0.1199
 7795SOL    HW134847   3.462   3.056  11.178  0.4425  0.8545 -0.3271
 7795SOL    HW234848   3.549   3.037  11.064 -0.2647 -0.9867 -0.4518
 7796SOL     OW34849   2.302   3.178  15.804  0.3844 -0.0009  0.7018
 7796SOL    HW134850   2.354   3.257  15.789 -0.5352  0.2629 -1.2596
 7796SOL    HW234851   2.312   3.183  15.899 -1.0990 -1.7709  0.9344
 7797SOL     OW34852   2.152   1.034   7.422  0.2307  0.3380 -0.4183
 7797SOL    HW134853   2.199   0.979   7.360  1.5143  0.2579  0.6529
 7797SOL    HW234854   2.065   0.997   7.403  0.2460  0.1228 -0.0669
 7798SOL     OW34855   1.601   4.193  14.348 -0.0275 -0.2125 -0.1350
 7798SOL    HW134856   1.606   4.107  14.391 -2.9275 -1.2827 -1.9046
 7798SOL    HW234857   1.538   4.167  14.280 -1.6347 -1.1280  1.6868
 7799SOL     OW34858   3.849   1.019   6.718  0.4103 -0.6341  0.2134
 7799SOL    HW134859   3.806   1.102   6.739  1.5445 -0.0616  0.2681
 7799SOL    HW234860   3.931   1.029   6.766  0.5072 -0.6725  0.0544
 7800SOL     OW34861   1.647   0.918   9.968 -0.2027 -0.1119  0.0443
 7800SOL    HW134862   1.566   0.898  10.016  0.4978 -1.4332  0.6767
 7800SOL    HW234863   1.684   0.986  10.024  0.3009 -1.5063  1.3952
 7801SOL     OW34864   1.919   2.064  12.616 -0.2159  0.4359  0.4272
 7801SOL    HW134865   1.959   2.060  12.529 -2.6634 -0.0250 -0.7039
 7801SOL    HW234866   1.839   2.012  12.607 -0.2893  0.6029  0.0663
 7802SOL     OW34867   0.666   0.462   7.444  0.1253 -0.3830  0.1759
 7802SOL    HW134868   0.660   0.522   7.518  0.1958 -0.1860  0.0252
 7802SOL    HW234869   0.761   0.469   7.427  0.1665  0.1738  0.6164
 7803SOL     OW34870   0.929   2.626   2.072 -0.5587 -0.0638  0.5241
 7803SOL    HW134871   0.924   2.581   2.156  3.6551  0.7205  1.1833
 7803SOL    HW234872   0.834   2.629   2.061 -0.3161  3.4786 -0.5355
 7804SOL     OW34873   3.347   1.598  11.796 -0.2398  0.1854 -0.0467
 7804SOL    HW134874   3.371   1.508  11.817 -0.0150  0.7823  2.2762
 7804SOL    HW234875   3.422   1.653  11.818 -0.0488 -0.1685  0.1905
 7805SOL     OW34876   1.140   3.720   2.553  0.5231  0.7391  0.2768
 7805SOL    HW134877   1.091   3.695   2.630  0.5380 -2.6398 -0.8018
 7805SOL    HW234878   1.084   3.792   2.527 -1.0228 -0.8962 -0.9253
 7806SOL     OW34879   1.008   1.177   7.732 -0.4382  0.0373 -0.0282
 7806SOL    HW134880   0.967   1.117   7.795 -0.8400 -0.3973 -0.7009
 7806SOL    HW234881   1.096   1.203   7.757 -0.5703  2.6651 -2.2164
 7807SOL     OW34882   4.047   4.597  13.446  0.2981  0.2707  0.8038
 7807SOL    HW134883   4.127   4.649  13.449 -0.0723  0.9807 -1.7724
 7807SOL    HW234884   4.067   4.509  13.478  2.4869  0.9983  1.4792
 7808SOL     OW34885   4.022   2.985   2.453  0.3373  0.0731 -0.1140
 7808SOL    HW134886   4.080   2.988   2.376  1.0140  1.5452  0.4420
 7808SOL    HW234887   4.075   3.024   2.523  0.0647 -1.9842  1.2302
 7809SOL     OW34888   0.923   2.386   7.995 -0.5970  0.5813  0.3282
 7809SOL    HW134889   0.944   2.479   8.006  1.5440  0.1953 -0.5446
 7809SOL    HW234890   0.965   2.374   7.910  0.2139  2.7815  0.4164
 7810SOL     OW34891   1.132   2.349   9.771 -0.4150 -0.3493 -0.0037
 7810SOL    HW134892   1.039   2.332   9.754 -0.4371 -0.2938  0.0586
 7810SOL    HW234893   1.164   2.267   9.735  0.4773 -0.1246  0.2840
 7811SOL     OW34894   2.830   2.349   6.553  0.5833 -0.0744 -0.6236
 7811SOL    HW134895   2.893   2.399   6.502 -0.8868  4.4451  1.9687
 7811SOL    HW234896   2.759   2.336   6.489  0.3193  3.5683 -1.1097
 7812SOL     OW34897   0.804   1.876  17.107 -0.8527  0.5665 -0.4882
 7812SOL    HW134898   0.748   1.930  17.051  2.1331  2.5529 -1.5537
 7812SOL    HW234899   0.737   1.809  17.121  1.0000 -1.4853 -1.3342
 7813SOL     OW34900   3.856   2.661   4.608  0.3689 -0.0994  0.1152
 7813SOL    HW134901   3.937   2.639   4.561 -0.8372  0.6429 -2.3190
 7813SOL    HW234902   3.825   2.737   4.559  0.7009  1.1981  1.9502
 7814SOL     OW34903   1.398   2.187   6.721 -0.1337 -0.0630 -0.2294
 7814SOL    HW134904   1.345   2.108   6.717 -1.8750  0.9724  2.8548
 7814SOL    HW234905   1.383   2.220   6.809 -1.2814 -0.1082 -0.4175
 7815SOL     OW34906   3.331   2.172   8.686  0.2324  0.3548  1.1143
 7815SOL    HW134907   3.320   2.095   8.630  0.3834  1.1204  0.0422
 7815SOL    HW234908   3.243   2.210   8.694 -0.1574  0.1453 -2.3774
 7816SOL     OW34909   3.792   2.814  13.904 -0.3421  0.0968 -0.4590
 7816SOL    HW134910   3.833   2.761  13.973  1.8698  1.0288 -1.0392
 7816SOL    HW234911   3.864   2.805  13.841 -0.0813  0.9508 -0.2806
 7817SOL     OW34912   3.191   2.073  10.078  0.7230 -0.1612  0.0448
 7817SOL    HW134913   3.263   2.135  10.084  0.4568 -0.0059  1.4595
 7817SOL    HW234914   3.174   2.082   9.984  1.1468  2.6350  0.2529
 7818SOL     OW34915   4.465   0.157   6.196  0.5971 -0.5295 -0.2274
 7818SOL    HW134916   4.443   0.250   6.205  1.7174 -0.3353  0.6167
 7818SOL    HW234917   4.494   0.149   6.105  1.0499 -2.2596  0.0705
 7819SOL     OW34918   3.811   4.090   9.929 -0.2715  0.6317  0.7450
 7819SOL    HW134919   3.862   4.038   9.868  0.0008  0.4053  1.1605
 7819SOL    HW234920   3.883   4.147   9.954 -1.5289  1.5851  2.2740
 7820SOL     OW34921   2.575   3.418   6.098 -0.1811 -0.1495 -0.8465
 7820SOL    HW134922   2.640   3.350   6.119 -0.8482  0.1779  2.2387
 7820SOL    HW234923   2.556   3.451   6.185 -1.7789 -0.8511 -0.9185
 7821SOL     OW34924   0.890   1.124   6.797  0.0515  0.0349 -0.4802
 7821SOL    HW134925   0.973   1.083   6.773 -0.9323 -1.3495 -1.5116
 7821SOL    HW234926   0.865   1.172   6.718  1.0714  1.4974  0.0828
 7822SOL     OW34927   2.731   2.453  14.658 -0.3446  0.2152 -0.6920
 7822SOL    HW134928   2.727   2.472  14.752  0.7145  0.0505 -0.6254
 7822SOL    HW234929   2.636   2.446  14.644 -0.5493 -0.1823  0.8132
 7823SOL     OW34930   0.802   2.423   6.546  0.1092 -0.1547  0.1409
 7823SOL    HW134931   0.896   2.439   6.549 -0.2522  2.3083 -1.8941
 7823SOL    HW234932   0.799   2.380   6.460 -1.2833 -1.1485  0.6811
 7824SOL     OW34933   0.296   2.700   5.526 -0.5797  0.3240 -0.0674
 7824SOL    HW134934   0.223   2.641   5.506 -2.7084  2.7290  0.6248
 7824SOL    HW234935   0.272   2.727   5.614  0.2978  0.6366  0.0757
 7825SOL     OW34936   3.579   0.926   0.595 -0.2073 -0.2924  0.3719
 7825SOL    HW134937   3.543   0.840   0.571 -2.5946  1.0486 -0.8643
 7825SOL    HW234938   3.668   0.917   0.562  0.7057 -1.1943  3.0048
 7826SOL     OW34939   0.792   4.090   3.677 -1.0262  0.3993 -0.1702
 7826SOL    HW134940   0.850   4.021   3.709 -1.7442  0.4583  1.2384
 7826SOL    HW234941   0.715   4.042   3.648  0.2720 -1.0659 -1.1466
 7827SOL     OW34942   2.495   2.968   6.339 -0.4781  0.1719 -0.0468
 7827SOL    HW134943   2.418   2.911   6.337  0.4387 -1.1289  1.2345
 7827SOL    HW234944   2.525   2.964   6.249  1.8254  0.2534  0.7269
 7828SOL     OW34945   1.729   4.452   4.048 -0.2181 -0.0772 -0.1212
 7828SOL    HW134946   1.643   4.411   4.052  0.3289 -1.2878 -0.6601
 7828SOL    HW234947   1.763   4.433   4.136  1.5496 -1.4528 -1.0814
 7829SOL     OW34948   3.584   0.034   6.631 -0.4002  1.2094  0.2662
 7829SOL    HW134949   3.515   0.093   6.661 -0.3641  1.5974 -0.4203
 7829SOL    HW234950   3.551   4.673   6.660  0.6573  0.1013 -1.7356
 7830SOL     OW34951   2.991   1.563   3.731  0.9178  0.6519  0.2580
 7830SOL    HW134952   2.937   1.558   3.652 -1.5127 -1.5462  2.0863
 7830SOL    HW234953   3.006   1.657   3.737 -0.6066  0.8982  0.1473
 7831SOL     OW34954   1.968   2.624  16.557 -0.6819 -0.0504 -0.1523
 7831SOL    HW134955   1.994   2.593  16.470 -0.2426 -0.4310  0.1163
 7831SOL    HW234956   1.899   2.683  16.527  1.3816  2.9584  1.0100
 7832SOL     OW34957   4.057   2.557  11.806  0.0010  0.4432 -0.4775
 7832SOL    HW134958   4.145   2.518  11.811 -0.4766 -0.9072 -2.8137
 7832SOL    HW234959   4.022   2.521  11.888 -0.4126 -0.4146 -1.0361
 7833SOL     OW34960   4.613   3.178   3.632  0.1955  0.0348  0.7828
 7833SOL    HW134961   4.642   3.099   3.586 -1.5039  0.7937 -1.6016
 7833SOL    HW234962   4.696   3.227   3.634  1.2832 -1.9089  2.9539
 7834SOL     OW34963   1.274   0.063   7.880 -0.3063 -0.2170  0.1190
 7834SOL    HW134964   1.223   0.020   7.812  0.5177 -1.5916  0.3576
 7834SOL    HW234965   1.333   0.126   7.837 -1.0657  0.8389  0.6158
 7835SOL     OW34966   3.195   3.319   1.321 -0.5682 -0.0450  0.5605
 7835SOL    HW134967   3.166   3.291   1.234  0.9827 -3.4739  1.1743
 7835SOL    HW234968   3.132   3.387   1.345 -0.9035  0.1698 -0.8958
 7836SOL     OW34969   1.272   0.787   2.222 -0.9325  0.0958 -0.2417
 7836SOL    HW134970   1.252   0.827   2.307 -1.0203 -0.4296 -0.0174
 7836SOL    HW234971   1.186   0.754   2.199 -0.9531 -0.8205  1.1660
 7837SOL     OW34972   3.503   4.168   4.282 -0.4190  0.3601 -0.3164
 7837SOL    HW134973   3.421   4.177   4.233 -1.4283  0.7026  1.4555
 7837SOL    HW234974   3.510   4.073   4.292  0.7364  0.4078 -0.6622
 7838SOL     OW34975   2.052   3.398   3.666 -0.3385  0.0951  0.1182
 7838SOL    HW134976   2.055   3.463   3.596  0.7209  2.7519  2.6525
 7838SOL    HW234977   1.985   3.341   3.629 -0.0072 -0.5267  0.4786
 7839SOL     OW34978   2.112   2.289   1.283  0.5123 -0.4931  0.1296
 7839SOL    HW134979   2.054   2.217   1.257 -0.7992  0.3693  0.6520
 7839SOL    HW234980   2.188   2.277   1.227  0.8213 -0.4290  0.5391
 7840SOL     OW34981   0.814   0.334   8.221  0.3696  0.3559  0.2946
 7840SOL    HW134982   0.872   0.276   8.173  0.5545  0.0115  0.9390
 7840SOL    HW234983   0.730   0.288   8.219 -0.6137  2.0860  1.6503
 7841SOL     OW34984   4.443   4.345  13.023 -0.3668 -0.2710 -0.6683
 7841SOL    HW134985   4.509   4.276  13.019  0.0816  0.1372 -0.3894
 7841SOL    HW234986   4.372   4.291  12.988  0.9066  0.0206 -3.6679
 7842SOL     OW34987   0.531   3.910   2.105  0.2779 -0.2762  0.4759
 7842SOL    HW134988   0.445   3.891   2.067  0.9112 -0.1692 -1.0093
 7842SOL    HW234989   0.564   3.829   2.144  1.5050  0.3488  0.7369
 7843SOL     OW34990   0.235   1.984  14.400 -0.9652 -0.2603  0.5522
 7843SOL    HW134991   0.143   1.958  14.396 -1.6471  2.0181  1.4080
 7843SOL    HW234992   0.268   1.935  14.476 -0.3521 -0.2878  0.2719
 7844SOL     OW34993   2.906   2.047   3.493  0.1728 -0.5352  0.3990
 7844SOL    HW134994   2.998   2.071   3.479 -0.5456  3.0543  1.9058
 7844SOL    HW234995   2.912   1.953   3.509  1.5859 -0.6465 -0.7163
 7845SOL     OW34996   1.570   1.821   7.042 -0.0543 -0.0428  0.1016
 7845SOL    HW134997   1.628   1.898   7.042 -0.2516  0.1068  1.6518
 7845SOL    HW234998   1.503   1.857   7.100  0.7067  1.3886  0.0995
 7846SOL     OW34999   2.619   1.487   5.567  0.8913  0.1184  0.4599
 7846SOL    HW135000   2.672   1.436   5.627  0.0754  0.8373  1.8027
 7846SOL    HW235001   2.586   1.556   5.625 -2.5229 -0.6672 -0.5231
 7847SOL     OW35002   3.441   4.372   0.402 -0.6241 -0.2059  0.0406
 7847SOL    HW135003   3.389   4.304   0.444  1.6254 -0.8663  1.7662
 7847SOL    HW235004   3.448   4.346   0.310  2.0889 -1.2192  0.5390
 7848SOL     OW35005   0.098   2.981   5.530 -0.0305 -0.2725  0.3476
 7848SOL    HW135006   0.068   2.977   5.439 -0.1456  0.1924  0.3661
 7848SOL    HW235007   0.192   3.001   5.524 -0.0722 -0.7617 -2.0818
 7849SOL     OW35008   2.896   2.140   9.370 -0.2083  0.2203 -0.0754
 7849SOL    HW135009   2.906   2.232   9.344 -0.9205  0.3756  0.2070
 7849SOL    HW235010   2.803   2.129   9.352 -0.3644  0.0990  0.8027
 7850SOL     OW35011   1.809   1.277   3.523 -0.3832 -0.4279  0.2280
 7850SOL    HW135012   1.832   1.363   3.559  1.0214 -0.5476 -0.3707
 7850SOL    HW235013   1.885   1.229   3.555  1.1042  0.3977 -2.0189
 7851SOL     OW35014   4.581   4.122  15.966  0.2327 -0.3068 -0.2622
 7851SOL    HW135015   4.671   4.107  15.995  0.1671 -0.7631 -0.2840
 7851SOL    HW235016   4.535   4.115  16.049 -0.1186 -0.1924 -0.4479
 7852SOL     OW35017   1.386   2.510  14.633  0.1827 -0.1241  0.1734
 7852SOL    HW135018   1.457   2.528  14.570 -0.8670 -1.9475 -1.5415
 7852SOL    HW235019   1.354   2.599  14.650  2.6843  1.2359 -2.1165
 7853SOL     OW35020   1.766   4.686   6.512 -0.0948 -0.6933  0.3307
 7853SOL    HW135021   1.806   4.697   6.426 -1.1088  1.0223  0.0811
 7853SOL    HW235022   1.840   4.651   6.562  0.9158  0.1552 -0.5794
 7854SOL     OW35023   0.173   0.325  11.675  0.4900 -0.3014 -0.0368
 7854SOL    HW135024   0.143   0.341  11.586 -0.3732 -0.6767  0.1894
 7854SOL    HW235025   0.169   0.230  11.686  0.2663  0.0169  2.4932
 7855SOL     OW35026   2.400   3.389   0.922 -0.6577  0.0752 -0.4848
 7855SOL    HW135027   2.412   3.390   1.017  0.9470 -2.4170 -0.6409
 7855SOL    HW235028   2.418   3.483   0.913  1.5146 -0.3450 -0.5282
 7856SOL     OW35029   3.461   3.581   8.873  0.2535 -0.2657 -0.2137
 7856SOL    HW135030   3.509   3.544   8.947 -1.0305  2.2205  1.8664
 7856SOL    HW235031   3.381   3.605   8.920 -0.7974 -0.1309 -2.0948
 7857SOL     OW35032   2.397   4.492  10.456 -0.7881 -0.8016 -0.4020
 7857SOL    HW135033   2.417   4.581  10.486  1.1493 -1.6796  0.8441
 7857SOL    HW235034   2.309   4.498  10.418 -0.5458 -0.0183 -0.8426
 7858SOL     OW35035   2.154   3.321   9.958  0.3502  0.0746  0.1456
 7858SOL    HW135036   2.210   3.288  10.029  0.1658 -1.6095 -0.4877
 7858SOL    HW235037   2.185   3.411   9.971 -0.2439  0.1567  1.0288
 7859SOL     OW35038   0.211   1.014  17.599 -0.0210  0.0514 -0.5248
 7859SOL    HW135039   0.142   1.050  17.544 -1.1770 -0.7139  0.4333
 7859SOL    HW235040   0.160   1.005  17.679  1.2978 -2.8513  0.0177
 7860SOL     OW35041   0.630   2.556   5.690  0.1741 -0.1866 -0.5545
 7860SOL    HW135042   0.715   2.593   5.666  0.4615 -0.5582 -0.1151
 7860SOL    HW235043   0.618   2.585   5.781  0.6412 -0.1526 -0.4999
 7861SOL     OW35044   0.665   3.509  13.573  0.2345 -0.3299 -0.5235
 7861SOL    HW135045   0.601   3.460  13.523 -0.9680  0.5976  0.0999
 7861SOL    HW235046   0.665   3.595  13.530  0.2375 -0.4863 -0.8357
 7862SOL     OW35047   0.182   4.441   4.537 -1.1945  0.7947 -0.3885
 7862SOL    HW135048   0.217   4.369   4.483  1.0687  1.3473  0.3347
 7862SOL    HW235049   0.233   4.426   4.617 -0.1292  1.0045 -1.0218
 7863SOL     OW35050   2.621   1.227   7.759 -0.7348 -1.0575 -0.1287
 7863SOL    HW135051   2.534   1.194   7.783 -0.8103  0.9469  2.3092
 7863SOL    HW235052   2.599   1.255   7.670  0.4033  0.7472  0.1656
 7864SOL     OW35053   3.449   3.248   3.099  0.5567 -0.2935  0.0742
 7864SOL    HW135054   3.460   3.297   3.181  2.4104  1.4231 -1.1893
 7864SOL    HW235055   3.444   3.159   3.136 -0.3964 -0.3767 -0.2781
 7865SOL     OW35056   4.212   3.637   1.458  0.0656 -0.0946  0.2218
 7865SOL    HW135057   4.283   3.656   1.397  0.8428 -0.0170  1.1510
 7865SOL    HW235058   4.278   3.610   1.521  0.3454 -1.1221 -0.5182
 7866SOL     OW35059   1.323   2.209  15.404 -0.7492 -0.0729 -0.0735
 7866SOL    HW135060   1.351   2.117  15.401 -1.5530 -0.2851 -1.0572
 7866SOL    HW235061   1.407   2.250  15.424  0.9604 -2.3452 -2.5348
 7867SOL     OW35062   3.734   2.989  16.162 -0.3783 -0.5315 -0.3330
 7867SOL    HW135063   3.686   2.913  16.196 -0.6696 -0.6107 -0.9191
 7867SOL    HW235064   3.769   2.934  16.092  0.2558 -2.3498  1.3814
 7868SOL     OW35065   3.345   3.310   8.436  0.1380 -0.0302  0.4912
 7868SOL    HW135066   3.389   3.311   8.351  0.6495 -0.6880  0.7530
 7868SOL    HW235067   3.367   3.392   8.480  1.7116 -1.5107  2.4151
 7869SOL     OW35068   3.966   4.539   8.803  0.2435 -0.4248  0.0785
 7869SOL    HW135069   3.961   4.616   8.746  0.9972 -1.9083 -1.9526
 7869SOL    HW235070   3.942   4.476   8.735  2.4465 -0.8010 -0.3418
 7870SOL     OW35071   0.053   3.005   2.123 -0.3187  0.2539  0.0893
 7870SOL    HW135072   0.068   3.032   2.214  0.5440  1.6070 -0.4568
 7870SOL    HW235073   0.024   3.091   2.091  1.3832  1.4915  1.8987
 7871SOL     OW35074   2.982   2.751   7.821 -0.2565 -0.0598  0.4055
 7871SOL    HW135075   2.985   2.842   7.790 -1.0394 -0.1025  0.2039
 7871SOL    HW235076   2.906   2.745   7.879  0.7477 -2.0606  1.4903
 7872SOL     OW35077   3.649   3.798   6.808 -0.3264  0.0624  0.3541
 7872SOL    HW135078   3.590   3.799   6.883  0.8972  2.3885  1.2703
 7872SOL    HW235079   3.642   3.889   6.779 -2.0140 -0.2775 -0.3008
 7873SOL     OW35080   2.529   2.308   5.152  0.6561 -0.0983  0.2117
 7873SOL    HW135081   2.597   2.285   5.089 -0.4915  1.8589 -1.7885
 7873SOL    HW235082   2.488   2.381   5.104  1.6173  0.4200  0.1913
 7874SOL     OW35083   1.594   2.511   4.959  0.0514  0.5502  0.1881
 7874SOL    HW135084   1.503   2.532   4.937  0.1366  2.1696  1.3787
 7874SOL    HW235085   1.589   2.416   4.954  0.6584  0.6306 -2.0115
 7875SOL     OW35086   1.789   0.001  14.576  0.6574 -0.4967  0.2800
 7875SOL    HW135087   1.840   0.011  14.657 -0.2886 -0.1530  0.8361
 7875SOL    HW235088   1.821   4.645  14.534  1.9563  2.0568 -3.5083
 7876SOL     OW35089   2.127   1.364   5.541 -0.3079  0.2351 -0.2554
 7876SOL    HW135090   2.216   1.343   5.511 -0.0664  0.8599  0.0394
 7876SOL    HW235091   2.092   1.393   5.456  1.1511  2.8065  0.0315
 7877SOL     OW35092   0.118   2.151  15.396 -0.6912 -0.1812  0.4274
 7877SOL    HW135093   0.133   2.230  15.345  0.4970 -2.0846 -2.2227
 7877SOL    HW235094   0.097   2.089  15.326 -0.7279  1.2181 -0.7996
 7878SOL     OW35095   0.210   0.664   2.546  0.4893 -0.1775 -0.2994
 7878SOL    HW135096   0.287   0.653   2.490  0.5843  0.0015 -0.2046
 7878SOL    HW235097   0.138   0.617   2.503 -0.2580  0.7588 -0.0779
 7879SOL     OW35098   2.937   4.162   5.214 -0.0079  0.2997  0.7655
 7879SOL    HW135099   2.877   4.208   5.272 -0.8013 -0.5272  0.5941
 7879SOL    HW235100   2.889   4.140   5.134  1.0150  1.4270 -0.1666
 7880SOL     OW35101   1.789   4.496   2.440 -0.4359  0.0986 -0.2370
 7880SOL    HW135102   1.828   4.439   2.373  2.6706 -0.8058  2.3822
 7880SOL    HW235103   1.844   4.574   2.430  0.2646 -0.3632  0.0652
 7881SOL     OW35104   4.013   4.011   9.748 -0.5400  0.8409  0.3109
 7881SOL    HW135105   3.956   3.943   9.711  1.4602 -1.5491  1.6695
 7881SOL    HW235106   4.090   3.970   9.709 -0.3861  0.7355  0.7272
 7882SOL     OW35107   1.860   0.868   7.620  1.0423  0.3824 -0.3521
 7882SOL    HW135108   1.857   0.836   7.710  1.3029 -1.4791 -0.9969
 7882SOL    HW235109   1.943   0.827   7.595  0.6714 -1.9346  2.2419
 7883SOL     OW35110   3.615   4.062   6.780 -0.0702 -0.1483 -0.4228
 7883SOL    HW135111   3.619   4.144   6.829 -3.9073 -0.0024 -0.2940
 7883SOL    HW235112   3.682   4.079   6.714 -0.8591  2.2185 -0.6215
 7884SOL     OW35113   1.082   2.978   8.693  0.2985 -0.2757  0.1444
 7884SOL    HW135114   0.987   2.973   8.709  0.6957 -0.9877  2.2764
 7884SOL    HW235115   1.121   3.054   8.736  1.8782  0.0850 -1.9512
 7885SOL     OW35116   2.112   1.888   3.380 -0.0458 -0.2276  0.3764
 7885SOL    HW135117   2.075   1.805   3.350 -1.8594  0.3113  1.1513
 7885SOL    HW235118   2.188   1.852   3.427  1.5460  0.6602 -1.5378
 7886SOL     OW35119   0.233   1.415   3.835  0.5133 -0.1719  0.0227
 7886SOL    HW135120   0.169   1.351   3.868 -0.3579 -0.0708 -1.4664
 7886SOL    HW235121   0.276   1.362   3.767  0.6447 -1.5557  1.1774
 7887SOL     OW35122   0.773   4.682  16.136 -0.5553 -0.2638  0.1611
 7887SOL    HW135123   0.726   0.041  16.133 -1.9304 -1.0696 -0.5523
 7887SOL    HW235124   0.718   4.628  16.079 -1.0525 -0.2539  0.6422
 7888SOL     OW35125   1.757   4.486   8.939 -0.0104  0.2140 -0.4957
 7888SOL    HW135126   1.807   4.559   8.975 -1.3870  1.9690 -2.1142
 7888SOL    HW235127   1.808   4.465   8.861  1.5571  1.1309  0.2881
 7889SOL     OW35128   0.981   3.200   4.674 -0.0181 -0.1138  0.3735
 7889SOL    HW135129   1.064   3.223   4.632 -1.9478  3.8492 -1.1914
 7889SOL    HW235130   1.000   3.109   4.697  1.1024  0.2750  1.0045
 7890SOL     OW35131   4.075   3.504  13.700 -0.2554 -0.2133  0.0965
 7890SOL    HW135132   4.035   3.587  13.677 -1.5524 -0.6095  0.9122
 7890SOL    HW235133   4.025   3.475  13.776 -0.2920  0.2935  0.2672
 7891SOL     OW35134   0.711   0.463   5.154  0.4619 -0.2346 -0.2517
 7891SOL    HW135135   0.719   0.369   5.142  2.8906  0.0129 -0.6232
 7891SOL    HW235136   0.799   0.491   5.182 -0.4095  3.4898 -1.2036
 7892SOL     OW35137   3.470   3.718   7.596 -0.0022 -0.1994  0.7091
 7892SOL    HW135138   3.472   3.791   7.657 -0.8646  0.8549 -0.5234
 7892SOL    HW235139   3.556   3.723   7.553 -0.7621  0.0625 -0.7679
 7893SOL     OW35140   3.338   3.188  11.143 -0.1856  0.1405  0.1299
 7893SOL    HW135141   3.308   3.264  11.193 -1.9904  0.4603 -1.4170
 7893SOL    HW235142   3.361   3.229  11.060 -0.6572 -0.1852 -0.1639
 7894SOL     OW35143   3.251   1.839   3.805  0.3004 -0.1588 -0.2222
 7894SOL    HW135144   3.306   1.916   3.790 -3.0543  1.9963 -1.2797
 7894SOL    HW235145   3.279   1.789   3.728 -1.4619 -0.6639 -0.5272
 7895SOL     OW35146   1.155   2.010   2.804  0.4720  0.6521  0.7102
 7895SOL    HW135147   1.165   2.077   2.736  0.6120 -1.5693 -1.4568
 7895SOL    HW235148   1.197   1.934   2.763  2.9992  0.9036  2.7991
 7896SOL     OW35149   4.354   1.654  14.226 -0.7684  0.3414 -0.6230
 7896SOL    HW135150   4.285   1.603  14.269  1.6823 -1.4709  1.2120
 7896SOL    HW235151   4.317   1.740  14.245  0.1035  0.6548 -0.3630
 7897SOL     OW35152   4.054   2.497   2.861  0.1485 -0.0104 -0.2288
 7897SOL    HW135153   4.053   2.546   2.779  1.4888 -0.9107 -0.7832
 7897SOL    HW235154   4.026   2.558   2.929  1.2332 -1.3654  1.4292
 7898SOL     OW35155   2.239   3.607  10.547  0.2232  0.4270  0.6139
 7898SOL    HW135156   2.278   3.532  10.592 -0.2329 -0.8957 -1.1925
 7898SOL    HW235157   2.276   3.680  10.597  1.2838  0.1665  0.2125
 7899SOL     OW35158   2.997   4.257   3.180 -0.1836  0.0981  0.7565
 7899SOL    HW135159   3.093   4.249   3.182 -0.1533  0.2027 -1.2275
 7899SOL    HW235160   2.970   4.201   3.254  2.8236 -2.4336 -0.0250
 7900SOL     OW35161   1.419   2.999  13.737  0.1927 -0.3466 -0.1225
 7900SOL    HW135162   1.363   3.070  13.769 -0.3612 -0.7399 -0.2221
 7900SOL    HW235163   1.363   2.921  13.737  0.0559 -0.2436 -2.3084
 7901SOL     OW35164   1.997   0.328   6.381  0.7900 -0.5006  0.4742
 7901SOL    HW135165   1.992   0.300   6.473 -0.4649 -1.4821  0.1222
 7901SOL    HW235166   1.930   0.396   6.384 -0.7608 -2.1062  2.7994
 7902SOL     OW35167   4.392   2.765   7.850 -0.2176 -0.0891 -0.4206
 7902SOL    HW135168   4.357   2.719   7.774 -0.3338 -1.0036  0.1796
 7902SOL    HW235169   4.315   2.801   7.894  1.5526  1.1985  1.6538
 7903SOL     OW35170   4.403   3.472   6.492  0.0930 -0.7144  0.4699
 7903SOL    HW135171   4.438   3.558   6.515 -0.4609 -0.2863 -0.2526
 7903SOL    HW235172   4.360   3.486   6.407  0.3496  0.9741  0.6137
 7904SOL     OW35173   3.397   3.046   8.073 -0.6320 -0.3374 -0.4206
 7904SOL    HW135174   3.418   3.089   7.990  0.8489 -1.1901 -0.4846
 7904SOL    HW235175   3.461   2.975   8.073  0.3675  0.5664  1.2837
 7905SOL     OW35176   3.375   2.753   4.134 -0.5087  0.0030  0.0004
 7905SOL    HW135177   3.445   2.753   4.199  0.9061  1.6548 -1.5214
 7905SOL    HW235178   3.297   2.717   4.177 -0.5368 -2.6561 -2.3158
 7906SOL     OW35179   1.745   2.770   7.941 -0.2793 -0.0986  0.0966
 7906SOL    HW135180   1.735   2.859   7.908  1.1164 -0.5215 -1.5039
 7906SOL    HW235181   1.795   2.785   8.021 -0.2133  0.9347 -0.1312
 7907SOL     OW35182   4.363   4.345   7.916 -0.0224  0.1732 -0.4681
 7907SOL    HW135183   4.429   4.414   7.916 -0.3240  0.4617 -0.5915
 7907SOL    HW235184   4.312   4.356   7.835  0.3254  1.8957 -0.4465
 7908SOL     OW35185   1.691   4.189  15.301 -0.2970  0.3818  0.4095
 7908SOL    HW135186   1.628   4.215  15.233  0.4491 -0.0210 -0.4303
 7908SOL    HW235187   1.637   4.193  15.380 -2.1580 -0.5308 -0.8213
 7909SOL     OW35188   4.605   4.515   4.463  0.1007 -0.7226  0.1054
 7909SOL    HW135189   4.701   4.511   4.469  0.3390  2.1452 -1.7113
 7909SOL    HW235190   4.593   4.485   4.374  0.4507 -1.7156  0.3946
 7910SOL     OW35191   1.272   1.902   6.654  0.0502 -0.0040 -0.4264
 7910SOL    HW135192   1.340   1.843   6.684 -0.6871 -0.1750  0.9090
 7910SOL    HW235193   1.207   1.885   6.722  0.4711 -0.7023 -0.1982
 7911SOL     OW35194   3.832   4.490   3.922  0.6025 -0.4544 -0.4444
 7911SOL    HW135195   3.873   4.405   3.938  2.7036  0.5870 -0.3678
 7911SOL    HW235196   3.900   4.531   3.870 -0.1007 -2.7672 -3.1864
 7912SOL     OW35197   1.198   2.869   2.936  0.4170 -0.0641  0.6873
 7912SOL    HW135198   1.261   2.799   2.951 -1.0301 -1.2181  1.3233
 7912SOL    HW235199   1.189   2.875   2.841  0.2995  2.1651  0.8172
 7913SOL     OW35200   0.175   0.795  16.502 -0.3809  0.3056 -0.7092
 7913SOL    HW135201   0.238   0.746  16.554 -0.1168  0.3536 -0.9857
 7913SOL    HW235202   0.223   0.876  16.481  0.0984 -0.2008 -1.5525
 7914SOL     OW35203   3.940   1.117  17.416  0.0418  0.7558  0.3188
 7914SOL    HW135204   3.921   1.111  17.322  1.3382 -0.5673  0.1469
 7914SOL    HW235205   3.974   1.028  17.423  1.8978  1.3053 -1.7996
 7915SOL     OW35206   2.113   2.919   6.111  0.3601  0.1395 -0.1408
 7915SOL    HW135207   2.156   2.837   6.086  1.2952  0.4361  0.4803
 7915SOL    HW235208   2.123   2.920   6.206  2.5608  0.8279 -0.3704
 7916SOL     OW35209   1.820   0.749  11.758  0.2533 -0.5000  0.1434
 7916SOL    HW135210   1.825   0.659  11.789 -0.5603 -1.0890 -1.4151
 7916SOL    HW235211   1.733   0.772  11.790 -0.1869 -0.6712 -0.9052
 7917SOL     OW35212   2.618   1.723   9.344 -0.4482  0.2224 -0.1067
 7917SOL    HW135213   2.594   1.808   9.308  2.2881  0.9972 -0.0935
 7917SOL    HW235214   2.703   1.746   9.383 -0.7416 -0.8080  1.1437
 7918SOL     OW35215   0.464   2.723   4.432  0.1914  0.1647 -0.1750
 7918SOL    HW135216   0.407   2.679   4.496 -1.8979  1.7526 -0.9479
 7918SOL    HW235217   0.550   2.683   4.445 -0.6198 -0.5485  3.2101
 7919SOL     OW35218   2.052   0.218   3.080 -0.3549 -0.3437  0.1119
 7919SOL    HW135219   2.082   0.127   3.094  2.0162  0.8757  3.0067
 7919SOL    HW235220   1.960   0.196   3.073 -1.0084  2.2263  0.7137
 7920SOL     OW35221   3.494   0.922   6.459 -0.5596  0.0967 -0.2491
 7920SOL    HW135222   3.508   0.830   6.439  3.5130  0.5968  0.2957
 7920SOL    HW235223   3.431   0.945   6.391  1.2457  1.4463 -1.4616
 7921SOL     OW35224   1.708   2.573   8.623  0.1754 -0.7230 -0.1599
 7921SOL    HW135225   1.678   2.482   8.617 -0.8290 -0.4683  1.0469
 7921SOL    HW235226   1.646   2.607   8.688 -1.0881  0.2684 -1.9189
 7922SOL     OW35227   4.451   2.695   6.639 -0.4070  0.1690 -0.2153
 7922SOL    HW135228   4.510   2.623   6.664 -1.9751 -0.7416  0.9082
 7922SOL    HW235229   4.487   2.761   6.698 -0.9319  1.1530 -1.0023
 7923SOL     OW35230   1.721   2.888  15.255 -0.2273  0.1482  0.0742
 7923SOL    HW135231   1.760   2.915  15.172 -0.9314  2.1353  0.3894
 7923SOL    HW235232   1.696   2.968  15.302 -1.8910 -0.1590 -0.2891
 7924SOL     OW35233   1.740   3.058   0.344 -0.0294 -0.0250 -0.8498
 7924SOL    HW135234   1.715   3.008   0.266  0.4142 -1.2798 -0.1862
 7924SOL    HW235235   1.704   3.141   0.316  0.2282 -0.1170 -1.4501
 7925SOL     OW35236   2.722   4.069  12.486  0.3598  0.2880  0.0589
 7925SOL    HW135237   2.800   4.049  12.538 -0.8250  1.0797  2.1243
 7925SOL    HW235238   2.753   4.084  12.397 -0.6333  1.5281 -0.0807
 7926SOL     OW35239   3.937   3.350   3.277 -0.5967  0.5492  0.3882
 7926SOL    HW135240   3.961   3.280   3.216 -0.5778 -0.5158  1.6286
 7926SOL    HW235241   4.001   3.418   3.257  0.7563 -0.5085  1.1901
 7927SOL     OW35242   2.037   2.878   0.071  0.1100  0.1497 -0.0788
 7927SOL    HW135243   2.101   2.875   0.000  0.5143  1.2302  0.2425
 7927SOL    HW235244   2.061   2.965   0.104  0.1659  0.0414  0.1628
 7928SOL     OW35245   1.363   2.290   2.678 -0.7066 -0.3083 -0.1063
 7928SOL    HW135246   1.370   2.358   2.745 -0.1935  0.6588 -1.1365
 7928SOL    HW235247   1.456   2.276   2.660 -0.5237 -0.4187  0.9684
 7929SOL     OW35248   2.110   4.181  16.969 -0.0985  0.0116 -0.2132
 7929SOL    HW135249   2.201   4.153  16.970  0.0284  0.4172 -2.0603
 7929SOL    HW235250   2.093   4.182  17.064 -0.5466 -0.4710 -0.2882
 7930SOL     OW35251   0.027   1.625   9.210  0.6473  0.0067 -0.3305
 7930SOL    HW135252   0.120   1.604   9.215  0.5991  0.0314  0.6567
 7930SOL    HW235253   0.021   1.707   9.259 -0.0981 -2.0367  3.0093
 7931SOL     OW35254   4.524   4.076  10.560 -0.3478  0.4634 -0.1533
 7931SOL    HW135255   4.580   4.046  10.632 -0.0736 -1.9447 -1.3715
 7931SOL    HW235256   4.586   4.075  10.487 -0.1790 -0.1410 -0.0103
 7932SOL     OW35257   1.367   3.746   2.409  0.4826  0.0460 -0.4170
 7932SOL    HW135258   1.407   3.823   2.448 -0.8453  0.6813 -0.2989
 7932SOL    HW235259   1.281   3.738   2.451  0.4929  1.0411 -0.2267
 7933SOL     OW35260   3.605   0.461   2.849  0.4380 -0.4915  0.0841
 7933SOL    HW135261   3.699   0.460   2.867  0.2811 -0.5576  0.9136
 7933SOL    HW235262   3.612   0.506   2.765  0.8881  3.4529  2.1982
 7934SOL     OW35263   1.832   0.158  16.837  0.0232  0.0729 -0.5651
 7934SOL    HW135264   1.901   0.118  16.889 -0.9291  0.8945  1.3239
 7934SOL    HW235265   1.807   0.220  16.906 -0.5472  0.1693 -0.8504
 7935SOL     OW35266   3.657   3.347   2.690  0.4877 -0.0699 -0.2523
 7935SOL    HW135267   3.651   3.256   2.716 -0.2116 -0.2053 -0.8685
 7935SOL    HW235268   3.711   3.386   2.759  0.1637 -3.0377  1.6705
 7936SOL     OW35269   2.745   0.743  14.133 -0.5256 -0.4223  0.1923
 7936SOL    HW135270   2.749   0.694  14.215  0.0329 -0.2283  0.2779
 7936SOL    HW235271   2.784   0.825  14.161 -1.7071  0.7161 -1.4735
 7937SOL     OW35272   2.488   0.678  11.018 -0.3860  0.7018  0.0870
 7937SOL    HW135273   2.410   0.693  10.965  0.8424  1.0430 -1.6520
 7937SOL    HW235274   2.523   0.767  11.028 -0.6871  0.4830  2.9242
 7938SOL     OW35275   0.412   2.657   6.642 -0.1375 -0.0011 -0.4791
 7938SOL    HW135276   0.436   2.571   6.607  1.0794  0.4465 -0.7348
 7938SOL    HW235277   0.474   2.718   6.602 -0.0262 -0.4209 -0.9466
 7939SOL     OW35278   1.466   2.713   7.939 -0.0818  0.1309 -0.3250
 7939SOL    HW135279   1.446   2.734   7.848  1.5045 -1.3540 -1.0047
 7939SOL    HW235280   1.562   2.715   7.937 -0.1029 -0.6704 -1.4817
 7940SOL     OW35281   4.624   2.740   8.724  0.3335  0.3561 -0.0710
 7940SOL    HW135282   4.641   2.800   8.651 -2.6237 -0.7937 -1.6955
 7940SOL    HW235283   4.693   2.673   8.728 -2.3135 -2.5220 -2.3021
 7941SOL     OW35284   1.406   2.502   0.854  0.2227 -0.1173  0.0088
 7941SOL    HW135285   1.433   2.502   0.763 -1.2723  0.5758 -0.4326
 7941SOL    HW235286   1.354   2.582   0.864  2.1941  1.2192 -0.4072
 7942SOL     OW35287   1.068   3.241   7.292 -0.0224  0.1287 -0.4338
 7942SOL    HW135288   1.047   3.173   7.228  0.0092 -1.2869  1.0373
 7942SOL    HW235289   1.003   3.229   7.361  0.1631  2.1132  0.0760
 7943SOL     OW35290   2.805   2.682   5.226  0.2585 -0.5033 -0.1386
 7943SOL    HW135291   2.814   2.777   5.227 -2.4828 -0.2119 -3.2538
 7943SOL    HW235292   2.727   2.669   5.279 -0.2718 -1.4633 -1.1631
 7944SOL     OW35293   0.837   2.861   8.479 -0.5353  0.7048 -0.3122
 7944SOL    HW135294   0.862   2.953   8.478 -1.7545  1.0412  0.2191
 7944SOL    HW235295   0.899   2.826   8.415  0.7816  2.0947  0.1923
 7945SOL     OW35296   3.239   4.229  11.277  0.1946 -0.4339  0.4800
 7945SOL    HW135297   3.334   4.221  11.268  0.1336  0.0181 -0.5239
 7945SOL    HW235298   3.228   4.135  11.296 -0.5256 -0.2658  0.9029
 7946SOL     OW35299   1.345   3.138   7.362 -0.3617  0.2118  0.2642
 7946SOL    HW135300   1.379   3.124   7.274 -1.7399  0.4662 -0.3008
 7946SOL    HW235301   1.255   3.169   7.350 -0.5331  0.7404  2.8296
 7947SOL     OW35302   3.862   0.533   6.206  0.3676  0.1233 -0.1157
 7947SOL    HW135303   3.936   0.588   6.179  2.0283 -1.3423  1.4168
 7947SOL    HW235304   3.788   0.579   6.166  1.5473  1.1302 -1.1847
 7948SOL     OW35305   4.196   2.733   4.315 -0.2504  0.6029 -0.0678
 7948SOL    HW135306   4.254   2.745   4.390  1.0769 -0.5587 -0.8903
 7948SOL    HW235307   4.187   2.822   4.281  0.9843  1.1065  0.9234
 7949SOL     OW35308   3.941   4.240   7.345  0.2621  0.0952 -0.2798
 7949SOL    HW135309   3.885   4.313   7.321 -0.6163 -0.0801  1.2589
 7949SOL    HW235310   3.925   4.178   7.273  0.5919 -1.4258  0.9513
 7950SOL     OW35311   0.540   0.440  11.812 -0.1420 -0.0181 -0.1331
 7950SOL    HW135312   0.576   0.524  11.785 -1.6004  0.4326 -0.6891
 7950SOL    HW235313   0.498   0.459  11.896 -0.9643  0.8479 -0.7466
 7951SOL     OW35314   3.060   2.631   1.430 -0.1358  0.0398 -0.4266
 7951SOL    HW135315   3.093   2.678   1.507 -2.1446 -1.4627  1.3438
 7951SOL    HW235316   3.037   2.546   1.468  1.4732  0.3312  1.2120
 7952SOL     OW35317   3.863   1.928   1.616 -0.0934 -0.3027  0.3014
 7952SOL    HW135318   3.788   1.920   1.557 -0.0031 -0.7267  0.2439
 7952SOL    HW235319   3.831   2.002   1.667  3.5977  1.7990 -0.4736
 7953SOL     OW35320   2.972   0.600   7.988 -0.2847  0.1253  0.0784
 7953SOL    HW135321   3.013   0.628   7.907  1.9001  0.6956  1.3956
 7953SOL    HW235322   3.033   0.625   8.057  0.0887 -1.9258  0.4946
 7954SOL     OW35323   3.219   4.442   3.876 -0.1901  0.2736  0.1820
 7954SOL    HW135324   3.218   4.528   3.918  0.3415 -0.6763  2.1304
 7954SOL    HW235325   3.262   4.466   3.794  0.5151  1.8002  0.9911
 7955SOL     OW35326   0.800   1.541   6.982  0.7610  0.0366 -0.3060
 7955SOL    HW135327   0.842   1.478   6.924 -0.4641 -1.6710  0.6560
 7955SOL    HW235328   0.771   1.483   7.052 -0.3879  0.2711 -0.6014
 7956SOL     OW35329   0.250   1.407  17.305 -0.9249 -0.7514  0.1752
 7956SOL    HW135330   0.171   1.360  17.332 -1.6119  1.0357  1.2471
 7956SOL    HW235331   0.304   1.332  17.280  2.2007  0.9510  1.9585
 7957SOL     OW35332   3.015   2.404  14.902 -0.3605  0.5384 -0.2314
 7957SOL    HW135333   3.027   2.494  14.872 -2.5976  0.5536 -1.0514
 7957SOL    HW235334   3.009   2.353  14.822 -0.2037  0.9461 -0.5002
 7958SOL     OW35335   3.216   2.582   8.400 -0.0031 -0.2479 -0.1579
 7958SOL    HW135336   3.292   2.610   8.349  0.1561  1.7205  1.1523
 7958SOL    HW235337   3.218   2.641   8.475 -0.0107  0.1990 -0.5103
 7959SOL     OW35338   1.642   2.301   8.636 -0.1231  0.2903 -0.1352
 7959SOL    HW135339   1.611   2.274   8.722 -0.1431 -0.0099 -0.2369
 7959SOL    HW235340   1.626   2.224   8.581  0.1878  0.5379 -0.5756
 7960SOL     OW35341   0.603   4.005   4.581 -0.0664  0.5772 -0.5270
 7960SOL    HW135342   0.602   3.915   4.550 -0.8193  0.7019 -0.8611
 7960SOL    HW235343   0.532   4.045   4.531  0.0571 -0.5608 -1.6177
 7961SOL     OW35344   0.928   3.320  10.614  0.0606 -0.2515  0.2821
 7961SOL    HW135345   0.977   3.402  10.617 -0.9148  0.4064 -2.3651
 7961SOL    HW235346   0.995   3.262  10.577 -2.1088 -1.9648 -0.9344
 7962SOL     OW35347   3.245   0.017   6.411 -0.4760 -0.3380  0.2424
 7962SOL    HW135348   3.216   0.064   6.333  2.5510 -0.6019 -1.0568
 7962SOL    HW235349   3.231   4.646   6.401  1.6859 -0.8506  1.9358
 7963SOL     OW35350   3.422   1.097   2.246 -0.0643 -0.2911 -0.5297
 7963SOL    HW135351   3.498   1.045   2.221  1.0679  1.0124  0.2110
 7963SOL    HW235352   3.368   1.028   2.285 -0.7155  0.4587 -0.0987
 7964SOL     OW35353   2.924   4.636   8.581  0.4236 -0.1098  0.9736
 7964SOL    HW135354   2.880   4.569   8.632 -1.0169 -0.3307 -0.5691
 7964SOL    HW235355   3.001   4.590   8.547  0.7372  0.6528  0.6498
 7965SOL     OW35356   4.118   2.036   7.878 -0.3674 -0.0501 -0.1741
 7965SOL    HW135357   4.148   2.072   7.962 -1.6588  1.3944 -0.3394
 7965SOL    HW235358   4.182   2.066   7.813 -1.7960  1.7052 -0.7585
 7966SOL     OW35359   3.391   0.524   2.280 -0.1194  0.0637  0.3778
 7966SOL    HW135360   3.403   0.489   2.192  0.0161  1.6250 -0.2170
 7966SOL    HW235361   3.329   0.460   2.315 -2.8753  1.7482 -1.4543
 7967SOL     OW35362   3.800   1.427   5.377  0.3367 -0.3504 -0.2438
 7967SOL    HW135363   3.870   1.442   5.440 -1.6587 -1.0100  2.1224
 7967SOL    HW235364   3.773   1.518   5.364  1.9669  0.0986 -0.5380
 7968SOL     OW35365   2.611   2.915  17.264 -0.4783 -0.0796 -0.2877
 7968SOL    HW135366   2.695   2.878  17.240  0.1319  2.8794 -2.7420
 7968SOL    HW235367   2.643   3.005  17.269  0.8510 -0.5199 -1.0078
 7969SOL     OW35368   1.201   1.073   9.227 -0.1767 -0.0758  0.0381
 7969SOL    HW135369   1.276   1.133   9.228  0.6984 -1.1457 -2.1351
 7969SOL    HW235370   1.247   0.989   9.234  0.4621  0.0816 -2.1439
 7970SOL     OW35371   3.684   1.152   8.078  0.3451  0.5461 -0.3167
 7970SOL    HW135372   3.632   1.143   8.158  0.5840 -0.1909 -0.2478
 7970SOL    HW235373   3.756   1.210   8.104 -0.6132  1.9440 -0.7847
 7971SOL     OW35374   0.539   2.148   4.685 -0.0475 -0.0415 -0.4438
 7971SOL    HW135375   0.521   2.195   4.604  0.5346 -1.7942 -1.5740
 7971SOL    HW235376   0.622   2.109   4.659 -0.3101 -0.7910 -0.1385
 7972SOL     OW35377   2.880   2.720  15.050  0.6347  0.5047  0.5077
 7972SOL    HW135378   2.930   2.659  15.104 -1.6509 -2.3106 -0.5684
 7972SOL    HW235379   2.915   2.809  15.050  0.7538  0.4551 -0.0457
 7973SOL     OW35380   2.767   0.852   4.921  0.2855  0.5909  0.1988
 7973SOL    HW135381   2.831   0.822   4.986 -1.4563 -0.4686  1.4092
 7973SOL    HW235382   2.757   0.777   4.863  0.7317  2.4510 -2.2855
 7974SOL     OW35383   2.708   0.543  13.904 -0.2695 -0.2165  0.3945
 7974SOL    HW135384   2.673   0.630  13.889 -2.3398 -1.1932 -0.5269
 7974SOL    HW235385   2.660   0.489  13.840  1.1785 -1.3917  0.2977
 7975SOL     OW35386   0.992   2.984  10.978  0.2840 -0.0439 -0.3093
 7975SOL    HW135387   1.073   2.934  10.990  0.3640 -0.0586 -0.9286
 7975SOL    HW235388   1.020   3.074  10.995  0.2973 -0.0289 -0.4099
 7976SOL     OW35389   3.477   2.227   1.092 -0.0447  0.3674  0.1705
 7976SOL    HW135390   3.384   2.202   1.096  0.4242 -1.2687  0.4938
 7976SOL    HW235391   3.482   2.244   1.186 -2.4436 -1.9315  0.7301
 7977SOL     OW35392   1.452   0.942  10.142  0.4450 -0.4135 -0.3217
 7977SOL    HW135393   1.492   1.012  10.192  1.2755 -0.0601 -1.4804
 7977SOL    HW235394   1.401   0.901  10.211  0.2778  0.2013 -0.0863
 7978SOL     OW35395   2.458   2.714   7.142 -0.1952 -0.1027 -0.2709
 7978SOL    HW135396   2.363   2.717   7.150 -0.1440  1.4580 -0.2273
 7978SOL    HW235397   2.480   2.781   7.077 -1.2598  1.2185  0.7288
 7979SOL     OW35398   3.711   3.327   5.578 -0.3391  0.3577 -0.0686
 7979SOL    HW135399   3.722   3.260   5.510 -0.8040  0.1785  0.0402
 7979SOL    HW235400   3.788   3.381   5.555  0.6222 -2.2642 -3.0438
 7980SOL     OW35401   3.183   4.114   2.431  0.0411 -0.2378  0.1073
 7980SOL    HW135402   3.134   4.071   2.362 -0.1907 -0.0463  0.1515
 7980SOL    HW235403   3.257   4.055   2.423  0.0686 -0.2140  0.1892
 7981SOL     OW35404   4.690   1.374   8.354  0.4423 -0.4747 -1.0637
 7981SOL    HW135405   4.638   1.416   8.286  1.0210  4.8070  1.7673
 7981SOL    HW235406   4.635   1.300   8.379  0.0520 -0.1952 -1.0960
 7982SOL     OW35407   0.823   1.344   3.294 -0.6368  0.1244 -0.6954
 7982SOL    HW135408   0.734   1.372   3.312  0.1950  1.3423  1.5568
 7982SOL    HW235409   0.872   1.426   3.283  4.1396 -2.7792 -1.3469
 7983SOL     OW35410   3.116   0.454   0.418 -0.3643 -0.4598 -0.6285
 7983SOL    HW135411   3.168   0.428   0.341  1.9109  0.8207  0.4774
 7983SOL    HW235412   3.070   0.536   0.403 -0.9199 -0.7265 -0.3892
 7984SOL     OW35413   2.529   0.229  16.571  0.2061  0.3807 -0.3604
 7984SOL    HW135414   2.435   0.239  16.584  0.1573 -0.0093 -0.4231
 7984SOL    HW235415   2.551   0.312  16.528  1.1150  0.0145 -0.6057
 7985SOL     OW35416   2.565   0.597   8.827  0.4135  0.0293  0.6780
 7985SOL    HW135417   2.595   0.679   8.786 -1.7732  0.7146  0.4189
 7985SOL    HW235418   2.569   0.622   8.919 -2.8162 -0.3183  0.8896
 7986SOL     OW35419   2.054   2.715   4.299 -0.4192 -0.1519  0.6431
 7986SOL    HW135420   2.077   2.797   4.253  3.0089 -1.4634  0.0379
 7986SOL    HW235421   2.107   2.652   4.250 -0.9139 -0.1263  0.0642
 7987SOL     OW35422   2.057   3.509   1.513  0.4792  0.8365 -0.1910
 7987SOL    HW135423   2.000   3.432   1.525 -1.9222  2.9164  1.8181
 7987SOL    HW235424   2.022   3.566   1.582 -2.2493 -1.4083  0.2919
 7988SOL     OW35425   4.182   1.404   3.226  0.3130  0.3117  0.3693
 7988SOL    HW135426   4.276   1.414   3.209  0.6067 -4.1470 -0.8348
 7988SOL    HW235427   4.186   1.322   3.275 -0.6940  0.9069  1.4416
 7989SOL     OW35428   3.234   4.024  17.149 -0.2559 -0.1104 -0.4945
 7989SOL    HW135429   3.273   3.981  17.073 -2.9205  1.1138 -2.4870
 7989SOL    HW235430   3.311   4.078  17.170 -0.5917  0.0008  0.4761
 7990SOL     OW35431   2.541   0.914   6.706  0.2631 -0.3027 -0.5429
 7990SOL    HW135432   2.558   0.843   6.644 -1.5872 -2.1274  1.0278
 7990SOL    HW235433   2.621   0.900   6.757  0.2960  0.4844 -0.3702
 7991SOL     OW35434   4.523   1.900   2.030 -0.1820  0.1903  0.5288
 7991SOL    HW135435   4.530   1.909   1.935  2.1191  2.5254  0.9401
 7991SOL    HW235436   4.610   1.904   2.069 -0.8434  1.0956  1.8939
 7992SOL     OW35437   2.615   0.004   7.409  0.2029  0.1409 -0.1263
 7992SOL    HW135438   2.582   0.028   7.496  0.4180  0.1693 -0.0520
 7992SOL    HW235439   2.709   4.720   7.426  0.1844 -0.4578 -0.3036
 7993SOL     OW35440   4.592   0.025   3.120  0.5064  0.2603  0.2945
 7993SOL    HW135441   4.497   0.030   3.124  0.5334 -0.5402  2.3548
 7993SOL    HW235442   4.607   0.080   3.043 -0.8710 -0.7623 -0.6931
 7994SOL     OW35443   1.918   0.534   5.695 -0.0769 -0.1893  0.2400
 7994SOL    HW135444   1.916   0.460   5.755  0.8547  0.0425  0.5707
 7994SOL    HW235445   2.010   0.561   5.703 -0.2670  0.2428  0.9249
 7995SOL     OW35446   0.185   0.078  15.033  0.0635  0.0574  0.0682
 7995SOL    HW135447   0.094   0.072  15.004 -0.1879  2.1653  0.4216
 7995SOL    HW235448   0.196   0.167  15.065 -0.0036 -0.2246  0.8703
 7996SOL     OW35449   0.112   1.957   7.738 -0.0231  0.1510 -0.1486
 7996SOL    HW135450   0.158   1.876   7.759 -1.2043 -0.7490 -0.9707
 7996SOL    HW235451   0.133   1.964   7.645 -3.0847 -0.0797 -0.8718
 7997SOL     OW35452   0.284   2.407  10.286 -0.1834  0.2071 -0.1987
 7997SOL    HW135453   0.331   2.380  10.207 -0.7632 -0.5246 -0.2862
 7997SOL    HW235454   0.201   2.434  10.248 -0.7038  0.3984  1.0700
 7998SOL     OW35455   4.441   1.923   8.306 -0.2345 -0.3358 -0.0792
 7998SOL    HW135456   4.380   1.859   8.343 -0.4045  0.6558  1.3604
 7998SOL    HW235457   4.481   1.880   8.231  1.7666  2.7168 -0.7523
 7999SOL     OW35458   0.424   2.326   0.393 -0.7347  0.2165  0.0658
 7999SOL    HW135459   0.460   2.383   0.325 -2.1503  1.2080  0.1489
 7999SOL    HW235460   0.408   2.386   0.467  0.6953  0.6279  0.0347
 8000SOL     OW35461   3.464   0.495   1.695  0.3115  0.3648  0.3590
 8000SOL    HW135462   3.485   0.588   1.703 -2.8572  0.9402  1.9020
 8000SOL    HW235463   3.553   0.460   1.692  0.2452  0.1177  1.2077
 8001SOL     OW35464   2.938   2.731   1.004 -0.6699 -0.1380  0.5361
 8001SOL    HW135465   3.005   2.743   1.071  0.1253  0.7129 -0.4253
 8001SOL    HW235466   2.943   2.818   0.964 -1.7057 -0.7210 -0.8602
 8002SOL     OW35467   4.483   1.359   4.790  0.7674  0.0423 -0.0716
 8002SOL    HW135468   4.481   1.454   4.805  0.5281 -0.1489  1.1297
 8002SOL    HW235469   4.563   1.338   4.839  0.5298 -0.2045  0.2054
 8003SOL     OW35470   3.075   1.829   7.180  0.5081  0.4119 -0.3366
 8003SOL    HW135471   3.085   1.858   7.271  0.9309 -0.4032 -0.1165
 8003SOL    HW235472   2.987   1.793   7.165  0.8999 -0.3828 -0.7431
 8004SOL     OW35473   0.015   4.039   4.685 -0.5685  0.3109  0.5472
 8004SOL    HW135474   0.026   3.947   4.709  0.4347  0.6477  1.4225
 8004SOL    HW235475   4.710   4.071   4.771 -2.8486  0.7969 -0.4010
 8005SOL     OW35476   3.839   3.216   8.342 -0.3255  0.3468  0.6115
 8005SOL    HW135477   3.801   3.262   8.267  1.7385 -0.8655 -1.1749
 8005SOL    HW235478   3.847   3.292   8.399 -0.4679  0.5771  0.3199
 8006SOL     OW35479   4.126   2.557   9.748  0.3470  0.1589  0.2419
 8006SOL    HW135480   4.111   2.637   9.798 -2.8780 -1.7159  2.2844
 8006SOL    HW235481   4.079   2.497   9.807 -0.1634  1.7673  1.4599
 8007SOL     OW35482   1.025   0.264   8.000 -1.0172  0.4804 -0.4730
 8007SOL    HW135483   1.033   0.355   7.971 -1.3749  0.2761 -1.2045
 8007SOL    HW235484   1.114   0.233   7.979 -0.9921 -0.7186  1.3270
 8008SOL     OW35485   1.753   4.450   6.777 -0.2933 -0.0764 -0.1115
 8008SOL    HW135486   1.767   4.357   6.794 -0.4644 -0.1525 -0.3966
 8008SOL    HW235487   1.843   4.483   6.781  0.7012 -2.8448 -0.1312
 8009SOL     OW35488   0.817   2.994   4.952  0.1558  0.1343  0.1050
 8009SOL    HW135489   0.866   2.985   4.870 -2.5234 -2.5047 -1.2239
 8009SOL    HW235490   0.729   3.010   4.919  0.9396  0.5347 -1.8024
 8010SOL     OW35491   3.237   3.779   5.546 -1.0637  0.1020 -0.1961
 8010SOL    HW135492   3.198   3.719   5.609  1.1686  0.2428  1.3064
 8010SOL    HW235493   3.194   3.768   5.461  0.8014  1.1874 -1.2714
 8011SOL     OW35494   3.401   2.050   3.797 -0.2234  0.5672  0.1254
 8011SOL    HW135495   3.484   2.015   3.766 -0.6476  0.0812 -0.4415
 8011SOL    HW235496   3.421   2.075   3.888  0.4064  1.7967 -0.3490
 8012SOL     OW35497   4.027   1.186  12.257 -0.4135 -0.2432 -0.2848
 8012SOL    HW135498   3.933   1.172  12.251 -0.6826  0.2914  2.6505
 8012SOL    HW235499   4.052   1.163  12.168 -0.5116 -1.1520 -0.0780
 8013SOL     OW35500   4.238   4.277  13.336 -0.0858 -0.1400 -0.2654
 8013SOL    HW135501   4.143   4.276  13.319 -0.2489  0.4623  0.6230
 8013SOL    HW235502   4.262   4.197  13.383  1.9352  0.0269 -1.0201
 8014SOL     OW35503   1.193   2.148   3.447  0.5177 -0.0852 -0.2701
 8014SOL    HW135504   1.128   2.213   3.419  1.9059  1.7352  0.6890
 8014SOL    HW235505   1.258   2.199   3.496  0.3614  2.4317 -2.6693
 8015SOL     OW35506   3.173   1.108  15.655  0.3482 -0.3354  0.3678
 8015SOL    HW135507   3.246   1.167  15.639 -0.5922  0.9564  0.7751
 8015SOL    HW235508   3.200   1.032  15.605 -0.8865  1.2201 -2.6567
 8016SOL     OW35509   0.575   0.984   2.346  0.0388  0.6721 -0.0217
 8016SOL    HW135510   0.525   0.960   2.269  0.1946 -2.0225  0.6904
 8016SOL    HW235511   0.523   1.032   2.410 -1.0339 -1.9735  1.1187
 8017SOL     OW35512   4.118   0.643   6.171  0.1165 -0.0100  0.1404
 8017SOL    HW135513   4.120   0.602   6.085 -2.2697  0.2659 -0.0542
 8017SOL    HW235514   4.208   0.674   6.167  0.5178 -1.1005  0.6829
 8018SOL     OW35515   4.336   4.607  17.475  0.8153  0.4887 -0.5351
 8018SOL    HW135516   4.393   4.683  17.465  0.6430  0.6021 -0.6459
 8018SOL    HW235517   4.255   4.643  17.510  0.6207  0.3517 -0.8503
 8019SOL     OW35518   4.619   4.380   6.118 -0.0185 -0.0320 -0.6500
 8019SOL    HW135519   4.577   4.457   6.080 -0.5703 -0.4224 -0.8228
 8019SOL    HW235520   4.551   4.341   6.173  0.6493 -0.8383 -0.3928
 8020SOL     OW35521   3.948   0.531   1.028 -0.0544 -0.2851  0.4610
 8020SOL    HW135522   3.885   0.584   0.980 -1.7468 -1.4469  1.4180
 8020SOL    HW235523   3.971   0.471   0.957  1.0311  2.4175 -1.4845
 8021SOL     OW35524   1.929   4.211   7.304 -0.0699  0.4236  0.1246
 8021SOL    HW135525   1.865   4.268   7.261  0.0111  0.7551  0.4445
 8021SOL    HW235526   1.991   4.279   7.329 -0.4214  0.9331 -0.3800
 8022SOL     OW35527   3.562   0.090   7.929 -0.0402 -0.3081 -0.5382
 8022SOL    HW135528   3.573   0.185   7.934  1.8268 -0.5937  0.8268
 8022SOL    HW235529   3.627   0.069   7.862 -1.2102 -0.5308 -1.6055
 8023SOL     OW35530   4.560   0.493  10.568 -0.3901 -0.4208 -0.6528
 8023SOL    HW135531   4.614   0.434  10.619 -0.8929 -0.6321 -0.3694
 8023SOL    HW235532   4.568   0.577  10.614  2.3612 -1.7466  1.2459
 8024SOL     OW35533   1.386   0.149  17.636 -0.3437 -0.1434  0.3926
 8024SOL    HW135534   1.319   0.201  17.591 -0.3063 -1.1397 -0.8250
 8024SOL    HW235535   1.457   0.211  17.624  0.0613 -1.0716 -1.9655
 8025SOL     OW35536   3.050   2.446   5.805  0.2170 -0.1959  0.0189
 8025SOL    HW135537   2.996   2.367   5.808  1.7728 -1.3002 -0.7125
 8025SOL    HW235538   3.033   2.469   5.713 -0.1102  1.5052  0.5189
 8026SOL     OW35539   4.643   1.375   4.531  0.6510  0.0995  0.3683
 8026SOL    HW135540   4.709   1.322   4.575  0.8652  0.6261  0.6801
 8026SOL    HW235541   4.678   1.375   4.442  0.9665  0.7392  0.4931
 8027SOL     OW35542   4.459   2.344   7.890  0.3958 -0.0356 -0.9200
 8027SOL    HW135543   4.410   2.408   7.942  1.0364 -1.6993  1.6949
 8027SOL    HW235544   4.543   2.391   7.890  0.3716  0.0301 -2.9536
 8028SOL     OW35545   0.202   3.649  11.577 -0.0939 -0.7268 -0.3077
 8028SOL    HW135546   0.121   3.688  11.610 -0.2664 -1.0262 -0.3764
 8028SOL    HW235547   0.238   3.723  11.529 -0.7965  0.2783  0.7136
 8029SOL     OW35548   0.312   1.569   4.220 -0.8213  0.5093  0.0388
 8029SOL    HW135549   0.269   1.605   4.142 -2.8157 -1.8152  0.0842
 8029SOL    HW235550   0.394   1.620   4.213 -0.0376 -0.7293  0.2928
 8030SOL     OW35551   3.032   0.621   7.162  0.7684 -0.3402 -0.1265
 8030SOL    HW135552   2.962   0.572   7.204  0.7418 -0.7871 -0.6865
 8030SOL    HW235553   3.026   0.701   7.213  0.0885  1.1940 -2.6383
 8031SOL     OW35554   2.819   1.300   3.610  0.1286 -0.1997 -0.8159
 8031SOL    HW135555   2.767   1.378   3.626  0.7780 -0.2979  1.8038
 8031SOL    HW235556   2.781   1.234   3.669 -2.5434  1.6521 -0.4545
 8032SOL     OW35557   2.561   1.442  12.283  0.3023  0.1902  0.4881
 8032SOL    HW135558   2.489   1.480  12.232  2.7865  0.8088 -2.5733
 8032SOL    HW235559   2.611   1.523  12.281  1.2965 -0.4432 -0.8577
 8033SOL     OW35560   4.208   0.996   1.329 -0.2518  0.4116  0.6181
 8033SOL    HW135561   4.131   1.003   1.272 -1.2313 -0.6200  1.8379
 8033SOL    HW235562   4.186   0.910   1.365  3.6088  0.2218  2.4520
 8034SOL     OW35563   3.168   0.768   7.832 -0.1673 -0.0914  0.7380
 8034SOL    HW135564   3.109   0.829   7.878 -0.5226 -2.1258  2.9879
 8034SOL    HW235565   3.202   0.838   7.777  0.6474 -2.5511 -1.8614
 8035SOL     OW35566   2.203   0.321   4.835 -0.0452 -0.1157  0.6384
 8035SOL    HW135567   2.235   0.369   4.911  0.6418  1.4803 -0.6478
 8035SOL    HW235568   2.206   0.231   4.866 -0.5058 -0.7384 -1.1050
 8036SOL     OW35569   3.839   4.322   0.663  0.2035  0.0340  0.2485
 8036SOL    HW135570   3.763   4.372   0.632  1.0083  0.3836 -1.1104
 8036SOL    HW235571   3.796   4.290   0.743  2.2641  1.2424  1.8471
 8037SOL     OW35572   1.704   0.712   7.040 -0.2547  0.2437 -0.0713
 8037SOL    HW135573   1.720   0.646   6.971 -3.3815 -0.1976 -0.4004
 8037SOL    HW235574   1.677   0.789   6.990  2.1421  0.6659 -0.7224
 8038SOL     OW35575   1.415   2.803   5.149  0.1777 -0.9741 -0.3324
 8038SOL    HW135576   1.327   2.823   5.118 -0.0854 -0.8674  0.4835
 8038SOL    HW235577   1.471   2.791   5.072  1.4736  0.3555  0.3796
 8039SOL     OW35578   3.458   4.435   4.856 -0.1129  0.0494 -0.1833
 8039SOL    HW135579   3.401   4.439   4.779 -0.8267  2.0238  0.4433
 8039SOL    HW235580   3.545   4.422   4.818  0.9484  0.9491  1.9340
 8040SOL     OW35581   0.516   4.231   5.045 -0.5426  0.0056 -0.1969
 8040SOL    HW135582   0.429   4.262   5.021  0.3605  0.2972 -3.0482
 8040SOL    HW235583   0.561   4.200   4.966 -0.4000 -0.2551 -0.0156
 8041SOL     OW35584   3.874   4.651  17.195 -0.0682  0.0883 -0.2287
 8041SOL    HW135585   3.840   4.666  17.107  1.5971  1.8979 -0.5677
 8041SOL    HW235586   3.824   4.718  17.241 -2.4349 -1.0886 -1.1120
 8042SOL     OW35587   0.864   2.828   1.226  0.4767  0.4987 -0.1237
 8042SOL    HW135588   0.777   2.832   1.266  0.3724  0.5101 -0.3521
 8042SOL    HW235589   0.919   2.877   1.288 -0.8236  0.9503  0.6682
 8043SOL     OW35590   3.499   0.956   9.218  0.0799  0.0287 -0.1678
 8043SOL    HW135591   3.428   0.894   9.232  0.8935 -0.3375  2.5110
 8043SOL    HW235592   3.541   0.962   9.304 -0.9686  1.8836  0.2189
 8044SOL     OW35593   1.560   4.436   9.321 -0.7372 -0.0643  0.1193
 8044SOL    HW135594   1.576   4.351   9.280  1.9129 -0.6371  2.3605
 8044SOL    HW235595   1.577   4.415   9.413 -2.6803  0.9575  0.7265
 8045SOL     OW35596   2.517   1.121   5.923  1.1160 -0.2171  0.5944
 8045SOL    HW135597   2.422   1.122   5.920  1.0606 -0.1118  2.7807
 8045SOL    HW235598   2.533   1.087   5.834 -0.7979 -0.6111  0.4090
 8046SOL     OW35599   2.538   0.470   7.419  0.1587 -0.4628 -0.4612
 8046SOL    HW135600   2.516   0.561   7.436  2.4261  0.0923 -0.4409
 8046SOL    HW235601   2.595   0.449   7.493 -0.2221  2.7216  0.7232
 8047SOL     OW35602   4.050   2.794  17.426  0.2267  0.3574 -1.3472
 8047SOL    HW135603   4.095   2.877  17.441 -2.6698  1.6373  0.2305
 8047SOL    HW235604   4.073   2.738  17.500 -1.6930  2.0593  0.5358
 8048SOL     OW35605   3.698   2.571  11.990 -0.1413  0.0251 -0.3564
 8048SOL    HW135606   3.786   2.565  12.027 -0.3901 -2.0055 -0.0743
 8048SOL    HW235607   3.662   2.483  11.981 -0.1845 -0.0698  0.6857
 8049SOL     OW35608   4.512   3.939   5.263 -0.4996  0.2801  0.3083
 8049SOL    HW135609   4.568   3.888   5.320  0.8848 -1.1012 -2.2613
 8049SOL    HW235610   4.536   3.898   5.180 -0.5405 -0.3623  0.6172
 8050SOL     OW35611   1.637   3.399  13.801 -0.3321  0.5216 -0.5823
 8050SOL    HW135612   1.663   3.315  13.764 -2.8286 -0.6105  0.2464
 8050SOL    HW235613   1.712   3.454  13.781 -0.2536  0.4538 -0.4739
 8051SOL     OW35614   2.860   3.922   8.526  0.0315 -0.2949  0.4601
 8051SOL    HW135615   2.770   3.948   8.544  0.3640  1.1320  0.0618
 8051SOL    HW235616   2.862   3.838   8.571 -2.5355 -1.7543 -2.1639
 8052SOL     OW35617   4.019   0.136   6.063 -0.2160 -0.4819  0.8129
 8052SOL    HW135618   3.928   0.111   6.046 -0.1783  0.2483 -0.4425
 8052SOL    HW235619   4.019   0.156   6.157  0.6524 -1.0091  0.9185
 8053SOL     OW35620   0.212   1.610   5.907  0.1536  0.8037  0.2471
 8053SOL    HW135621   0.281   1.573   5.853 -0.9874 -0.4503 -0.3737
 8053SOL    HW235622   0.137   1.550   5.900  3.0478 -2.6027 -1.4263
 8054SOL     OW35623   4.296   4.392   2.501  0.2585 -0.0389  0.0319
 8054SOL    HW135624   4.369   4.355   2.551  0.8260  0.2991 -0.5506
 8054SOL    HW235625   4.344   4.424   2.425 -1.0025  1.0826 -0.2752
 8055SOL     OW35626   0.011   4.368   2.444 -0.0478  0.5694  0.1198
 8055SOL    HW135627   4.720   4.463   2.451 -1.8891  0.2799  0.2058
 8055SOL    HW235628   4.651   4.345   2.485 -0.8149  0.6710 -1.3803
 8056SOL     OW35629   4.315   0.055  11.123  0.2381  0.1450  0.9051
 8056SOL    HW135630   4.400   0.070  11.082 -1.0001  1.8600 -1.0864
 8056SOL    HW235631   4.256   0.073  11.049  0.7067 -1.2376  0.1893
 8057SOL     OW35632   0.209   4.230   2.567  0.1991 -0.1390 -0.2410
 8057SOL    HW135633   0.119   4.258   2.551  0.4562 -1.3692 -3.8367
 8057SOL    HW235634   0.256   4.313   2.574  0.3374 -0.3316  1.1961
 8058SOL     OW35635   3.516   3.882   3.539 -0.2000  0.1639 -0.1173
 8058SOL    HW135636   3.579   3.856   3.606 -2.1811 -1.1576  1.2072
 8058SOL    HW235637   3.475   3.955   3.585  1.2445  0.5794  0.5156
 8059SOL     OW35638   4.181   2.540  11.351  0.0064 -0.3854 -0.1614
 8059SOL    HW135639   4.239   2.603  11.308 -0.8085  1.1566  1.0196
 8059SOL    HW235640   4.208   2.550  11.442  2.5120 -1.5328 -0.7864
 8060SOL     OW35641   1.224   0.507   6.440  0.0283 -0.2232  0.0579
 8060SOL    HW135642   1.145   0.458   6.418  1.2240 -1.0851 -2.3754
 8060SOL    HW235643   1.294   0.441   6.437 -1.2486 -1.5220 -1.1139
 8061SOL     OW35644   3.166   2.774   1.187 -0.0433  0.2812 -0.3036
 8061SOL    HW135645   3.113   2.737   1.258 -0.2551 -1.7730 -1.5517
 8061SOL    HW235646   3.229   2.831   1.231  0.3490 -0.3945  0.0084
 8062SOL     OW35647   3.358   2.509   7.528  0.1647 -0.2911  0.1456
 8062SOL    HW135648   3.326   2.598   7.512 -0.1489 -0.2796  0.8348
 8062SOL    HW235649   3.274   2.470   7.553  1.2997 -0.5597  3.5623
 8063SOL     OW35650   3.531   1.086   7.861  0.1507 -0.0755 -0.0605
 8063SOL    HW135651   3.553   1.171   7.824 -0.1622 -0.1626 -0.4530
 8063SOL    HW235652   3.587   1.090   7.938  0.4607 -0.4964 -0.2617
 8064SOL     OW35653   3.987   1.702   8.737  0.0026  0.4966 -0.3385
 8064SOL    HW135654   4.067   1.740   8.774  0.4227 -1.6438  0.9971
 8064SOL    HW235655   3.923   1.755   8.785 -1.0499 -1.5677  0.5927
 8065SOL     OW35656   1.737   2.594  11.927  0.1242 -0.1307  0.1405
 8065SOL    HW135657   1.824   2.553  11.930 -0.1073 -0.6239  0.0157
 8065SOL    HW235658   1.740   2.672  11.982  0.7213 -0.5162  0.6628
 8066SOL     OW35659   2.925   3.361  11.205 -0.1948 -0.0433 -0.1626
 8066SOL    HW135660   2.957   3.450  11.223  0.6293 -0.2002 -0.8858
 8066SOL    HW235661   3.003   3.309  11.220  1.1319  2.4224  1.6060
 8067SOL     OW35662   0.997   3.620  10.222  0.3362 -0.0683 -0.4210
 8067SOL    HW135663   0.990   3.532  10.184 -1.7139 -1.1816  2.5370
 8067SOL    HW235664   0.976   3.607  10.314 -1.1706  0.9665 -0.6207
 8068SOL     OW35665   0.038   2.046   7.976  0.3137  0.4082  0.4419
 8068SOL    HW135666   4.697   2.099   7.930 -0.2598 -0.8231 -0.1658
 8068SOL    HW235667   0.089   2.024   7.898 -1.5160 -0.6275 -0.4685
 8069SOL     OW35668   4.697   1.915   4.473  0.5199 -0.5658  0.9370
 8069SOL    HW135669   4.667   1.880   4.389  1.0107 -4.4114  2.3994
 8069SOL    HW235670   4.661   1.852   4.535 -0.8382  1.0393  1.7971
 8070SOL     OW35671   2.903   2.826  17.079  0.0255 -0.3117 -0.5051
 8070SOL    HW135672   2.914   2.742  17.035  2.3850  0.5186 -1.4851
 8070SOL    HW235673   2.841   2.874  17.023 -0.9052 -1.8275 -0.7614
 8071SOL     OW35674   2.772   4.229  14.348 -0.0649 -0.0332 -0.2460
 8071SOL    HW135675   2.742   4.313  14.312  0.5533  1.4617  2.7346
 8071SOL    HW235676   2.783   4.177  14.269  1.8361 -2.1940  1.4229
 8072SOL     OW35677   1.401   1.704   5.410 -0.1126  0.6489  0.2291
 8072SOL    HW135678   1.354   1.695   5.327 -1.7493  1.0604  1.1217
 8072SOL    HW235679   1.422   1.613   5.429 -2.7949 -0.2109 -0.9244
 8073SOL     OW35680   1.635   1.833   9.060 -0.4236 -0.6119 -0.4568
 8073SOL    HW135681   1.728   1.815   9.048  0.5338  2.2428  2.4011
 8073SOL    HW235682   1.624   1.845   9.155 -0.3649 -0.9395 -0.4109
 8074SOL     OW35683   2.422   1.960   7.826 -0.2186  0.2030 -0.1546
 8074SOL    HW135684   2.356   1.955   7.757  0.5929 -2.4785 -0.7377
 8074SOL    HW235685   2.491   2.004   7.778  2.4418 -1.0640  2.4793
 8075SOL     OW35686   4.562   3.932  16.689 -0.2890 -0.0601 -0.1102
 8075SOL    HW135687   4.471   3.947  16.717 -0.3153 -1.8632  0.7926
 8075SOL    HW235688   4.608   3.896  16.765 -0.3339 -2.3932 -1.1655
 8076SOL     OW35689   4.702   4.679   4.956  0.6612 -0.5086 -0.6504
 8076SOL    HW135690   4.718   0.034   5.008 -0.3908 -0.0686 -0.9905
 8076SOL    HW235691   0.017   4.692   4.870 -0.5625 -1.1777 -1.3028
 8077SOL     OW35692   2.315   3.569   3.928 -0.2665  0.4714  0.0624
 8077SOL    HW135693   2.254   3.500   3.901 -1.9851  1.3961  1.5829
 8077SOL    HW235694   2.399   3.523   3.936 -0.2965  0.3443 -0.3890
 8078SOL     OW35695   3.632   1.244  13.093  0.0619 -0.1803 -0.2376
 8078SOL    HW135696   3.627   1.231  13.187  1.5315  0.4478 -0.0569
 8078SOL    HW235697   3.567   1.181  13.061  2.3646 -2.5793 -0.2409
 8079SOL     OW35698   4.328   3.794   5.053 -0.1285  0.0598 -0.0615
 8079SOL    HW135699   4.420   3.773   5.073 -0.1385  0.7674  0.7127
 8079SOL    HW235700   4.309   3.733   4.982  0.2268  0.5061 -0.5429
 8080SOL     OW35701   2.034   1.086   9.934  0.4853  0.1362 -0.6993
 8080SOL    HW135702   2.126   1.115   9.933  0.4732  0.2651  0.8083
 8080SOL    HW235703   2.035   1.022   9.863  2.3666 -0.9721  0.3200
 8081SOL     OW35704   4.043   1.404   7.806  0.0158 -0.3612  0.2202
 8081SOL    HW135705   4.053   1.406   7.901  1.4027  1.3453  0.0309
 8081SOL    HW235706   4.131   1.431   7.778 -0.2095 -0.4290 -0.5413
 8082SOL     OW35707   0.123   3.791  12.504  0.5214 -0.3458  0.1533
 8082SOL    HW135708   0.133   3.702  12.470  0.2402 -0.4531  0.3451
 8082SOL    HW235709   0.174   3.848  12.447  0.0176  0.6072  0.6645
 8083SOL     OW35710   2.671   4.135   8.245  0.4086  0.8229 -0.3667
 8083SOL    HW135711   2.689   4.226   8.222 -0.5963  1.2894  0.6619
 8083SOL    HW235712   2.761   4.110   8.266 -0.3039 -0.8871  0.5888
 8084SOL     OW35713   4.157   0.279   6.900  0.6818 -0.8612 -0.1823
 8084SOL    HW135714   4.221   0.338   6.859 -2.8505  2.0572 -1.4558
 8084SOL    HW235715   4.130   0.218   6.832 -1.3889 -0.3506  0.1706
 8085SOL     OW35716   1.095   4.262  11.492 -0.3209  0.3698  0.1405
 8085SOL    HW135717   1.171   4.256  11.550 -0.6984 -1.9767  0.3928
 8085SOL    HW235718   1.060   4.351  11.495 -0.4534  0.3130  0.2462
 8086SOL     OW35719   4.020   1.803   5.166 -0.0322  0.1319  0.4186
 8086SOL    HW135720   3.955   1.764   5.107 -1.5509 -0.2599  2.3551
 8086SOL    HW235721   3.984   1.783   5.252  0.7732 -1.8426  0.2964
 8087SOL     OW35722   1.336   0.570   7.400 -0.1359  0.1068 -0.0312
 8087SOL    HW135723   1.404   0.546   7.338  1.8759  1.5789  1.5629
 8087SOL    HW235724   1.268   0.503   7.390  1.4967 -1.6646  0.8018
 8088SOL     OW35725   1.911   2.989   2.269  0.3085 -0.2468 -0.2868
 8088SOL    HW135726   1.911   2.899   2.301  0.1063 -0.2492 -0.2918
 8088SOL    HW235727   1.981   3.027   2.321 -2.2366  0.2757  2.7245
 8089SOL     OW35728   3.628   0.552   1.972  0.2975 -0.1638  0.1668
 8089SOL    HW135729   3.698   0.552   1.906  0.9021  1.8207  0.8018
 8089SOL    HW235730   3.675   0.587   2.048  0.3787 -1.3040  0.6389
 8090SOL     OW35731   3.149   2.426   8.763  0.6877  0.0028 -0.2494
 8090SOL    HW135732   3.141   2.403   8.855 -1.2855  1.1136 -0.1329
 8090SOL    HW235733   3.091   2.360   8.724 -1.8493  0.9727  1.9018
 8091SOL     OW35734   4.239   2.934   3.661 -0.6901 -0.4226  0.2664
 8091SOL    HW135735   4.326   2.934   3.701 -0.9158  0.5095  0.7767
 8091SOL    HW235736   4.181   2.929   3.736 -0.8554  1.8030  0.2998
 8092SOL     OW35737   2.329   2.740   1.157  0.6059 -0.1915  0.1058
 8092SOL    HW135738   2.273   2.787   1.096  1.1651  1.3842  0.8257
 8092SOL    HW235739   2.272   2.684   1.211 -0.0021  0.9480  0.6392
 8093SOL     OW35740   1.493   4.626  17.679 -0.3258 -0.3951  0.4814
 8093SOL    HW135741   1.577   4.657   0.015  0.9683 -0.3382 -2.8737
 8093SOL    HW235742   1.453   4.714  17.682 -2.4402 -1.2075 -3.2531
 8094SOL     OW35743   1.026   1.936  17.299 -0.1427 -0.1166  0.0307
 8094SOL    HW135744   0.964   1.970  17.235  0.8654 -0.2177 -1.0029
 8094SOL    HW235745   1.023   1.843  17.278  1.8851  0.0026 -0.8753
 8095SOL     OW35746   1.177   4.503  14.375  0.0553  0.2341  0.5510
 8095SOL    HW135747   1.109   4.512  14.442  0.1172 -1.0025  0.7919
 8095SOL    HW235748   1.244   4.458  14.427  1.8318  1.6039 -0.5825
 8096SOL     OW35749   4.281   0.149   7.268  0.0128 -0.6909 -0.1835
 8096SOL    HW135750   4.304   0.097   7.191  0.2135 -2.8280  1.3177
 8096SOL    HW235751   4.186   0.144   7.277 -0.1103  0.4275 -0.8799
 8097SOL     OW35752   0.387   3.054   3.432 -0.1412 -0.1709 -0.4511
 8097SOL    HW135753   0.464   3.074   3.378  0.1480  0.3631  0.1533
 8097SOL    HW235754   0.339   3.136   3.441 -0.3859 -0.3178 -0.4337
 8098SOL     OW35755   4.424   0.161  17.448 -0.2240 -0.3225  0.1488
 8098SOL    HW135756   4.418   0.256  17.456  0.4785 -0.2576 -0.1540
 8098SOL    HW235757   4.383   0.161  17.361  0.6046  1.4418 -0.2524
 8099SOL     OW35758   1.270   1.098   0.436  0.4465 -0.5033 -0.0201
 8099SOL    HW135759   1.220   1.132   0.510  1.1104 -0.2976  0.3412
 8099SOL    HW235760   1.219   1.128   0.362  2.8766 -1.3614 -2.0362
 8100SOL     OW35761   3.748   3.732   7.531 -0.4273  0.2806  0.2426
 8100SOL    HW135762   3.787   3.789   7.464  1.9833 -0.2803  1.1945
 8100SOL    HW235763   3.778   3.766   7.615 -1.0589  2.4847 -0.4152
 8101SOL     OW35764   1.811   3.308   8.626 -0.2006  0.4143  0.1254
 8101SOL    HW135765   1.811   3.248   8.551 -2.2342  0.9896 -0.3346
 8101SOL    HW235766   1.731   3.273   8.666 -0.1016  2.2542  1.9516
 8102SOL     OW35767   2.194   3.249   9.618  0.0204 -0.3229 -0.2153
 8102SOL    HW135768   2.213   3.241   9.525  0.4916  0.2631 -0.1760
 8102SOL    HW235769   2.250   3.325   9.634 -1.3636  1.0320 -1.7576
 8103SOL     OW35770   2.802   0.683  15.845 -0.3827  0.6507  0.0847
 8103SOL    HW135771   2.866   0.695  15.774  1.6646  0.4283  1.8785
 8103SOL    HW235772   2.735   0.636  15.796 -0.9160  1.1924  0.3052
 8104SOL     OW35773   0.595   1.276   8.340 -0.0959 -0.3970  0.8559
 8104SOL    HW135774   0.594   1.314   8.252 -0.3401  0.1233  1.0824
 8104SOL    HW235775   0.687   1.276   8.370  0.1882 -0.4931 -0.0294
 8105SOL     OW35776   0.657   4.237   1.746 -0.6205 -0.6332  0.3977
 8105SOL    HW135777   0.673   4.190   1.828 -1.1866  1.9517  2.0188
 8105SOL    HW235778   0.743   4.223   1.706  0.5964  2.3149  1.9313
 8106SOL     OW35779   4.185   1.240   5.085 -0.0347 -0.0533  0.1982
 8106SOL    HW135780   4.277   1.234   5.060  0.3982  0.5495  1.6184
 8106SOL    HW235781   4.164   1.333   5.079 -0.2943 -0.2098 -1.1550
 8107SOL     OW35782   3.010   0.001   3.621 -0.9374 -0.1847 -0.4983
 8107SOL    HW135783   2.940   4.684   3.672  1.2483 -0.7011  2.0751
 8107SOL    HW235784   2.957   0.056   3.563 -0.1591  0.0816 -0.9705
 8108SOL     OW35785   0.043   4.230   1.940  0.2639  0.0404  0.4290
 8108SOL    HW135786   0.133   4.259   1.927  0.7507 -1.3156  0.8224
 8108SOL    HW235787   0.036   4.256   2.032 -1.4643 -1.6078  0.7598
 8109SOL     OW35788   1.786   2.768  16.394 -0.0115  0.9946 -0.0745
 8109SOL    HW135789   1.825   2.837  16.340 -2.5665  0.5215 -2.5283
 8109SOL    HW235790   1.755   2.830  16.461  0.1076  0.1207  0.7967
 8110SOL     OW35791   3.888   2.421   3.997 -0.3724  0.4520 -0.1676
 8110SOL    HW135792   3.983   2.406   3.998 -0.2572  1.1020 -1.1340
 8110SOL    HW235793   3.865   2.409   3.905 -1.7675 -0.1610  0.2665
 8111SOL     OW35794   3.135   2.968   5.140 -0.4649 -0.1791  0.6180
 8111SOL    HW135795   3.212   3.000   5.093 -1.9183  0.6952 -1.1276
 8111SOL    HW235796   3.115   3.042   5.197 -0.1956  0.3821 -0.0162
 8112SOL     OW35797   3.637   2.644   2.233 -0.3075 -0.3464  0.0769
 8112SOL    HW135798   3.668   2.588   2.304 -0.1534 -0.3450  0.0092
 8112SOL    HW235799   3.608   2.724   2.276 -0.2713  1.3752 -3.0808
 8113SOL     OW35800   3.408   4.180   2.219 -0.0870  0.7273  0.4221
 8113SOL    HW135801   3.458   4.192   2.299  0.1460 -0.9628  0.5190
 8113SOL    HW235802   3.480   4.187   2.157 -1.4201  0.4205 -1.1723
 8114SOL     OW35803   3.317   1.074   3.741 -0.0226  0.2590  0.1954
 8114SOL    HW135804   3.229   1.108   3.722 -0.0193  0.7442  1.0490
 8114SOL    HW235805   3.326   0.996   3.687  1.3965  0.2983  0.3875
 8115SOL     OW35806   0.115   1.344   6.666  0.3387  0.2384  0.2505
 8115SOL    HW135807   0.122   1.252   6.689 -2.5318  0.0660  0.4945
 8115SOL    HW235808   0.177   1.388   6.724  0.4142 -0.9665  1.0696
 8116SOL     OW35809   3.117   4.327   8.281  0.6527  0.7165 -0.3414
 8116SOL    HW135810   3.209   4.304   8.269  0.6976 -0.7007  2.7606
 8116SOL    HW235811   3.121   4.380   8.360  0.8336 -0.9753  0.7637
 8117SOL     OW35812   1.055   1.387   8.046  0.1780  0.2052  0.1374
 8117SOL    HW135813   0.981   1.441   8.075  2.2646  1.5683  3.0124
 8117SOL    HW235814   1.032   1.301   8.082  0.4636  0.4495  0.9175
 8118SOL     OW35815   0.284   1.548   7.083  0.1590  0.0881  0.7315
 8118SOL    HW135816   0.247   1.633   7.107  0.1318  0.6559 -1.3227
 8118SOL    HW235817   0.231   1.504   7.150  0.7402 -1.3553  0.2628
 8119SOL     OW35818   0.283   3.625   2.175  0.6519  0.3560  0.0860
 8119SOL    HW135819   0.374   3.652   2.184  0.6448  0.3762  0.0981
 8119SOL    HW235820   0.245   3.705   2.138 -0.3680 -1.6857 -3.2703
 8120SOL     OW35821   3.501   1.557   3.607  0.5088 -0.0243  0.1915
 8120SOL    HW135822   3.428   1.608   3.573 -0.4588 -1.8689 -0.5050
 8120SOL    HW235823   3.455   1.491   3.660 -1.9006  0.9384 -0.7287
 8121SOL     OW35824   1.429   4.154   3.793 -0.3651  0.1961 -0.3264
 8121SOL    HW135825   1.431   4.065   3.758  1.3334 -0.4147  1.3245
 8121SOL    HW235826   1.336   4.166   3.814 -0.1516 -0.2022  0.9005
 8122SOL     OW35827   3.325   3.504   7.640 -0.1749 -0.1555  0.0434
 8122SOL    HW135828   3.389   3.572   7.620  1.4583 -1.3777  1.1524
 8122SOL    HW235829   3.244   3.554   7.629  0.1415  0.8182  2.0054
 8123SOL     OW35830   0.421   0.649   2.341  0.2868  0.1303  0.1101
 8123SOL    HW135831   0.457   0.615   2.260 -1.5654  0.8335 -1.0033
 8123SOL    HW235832   0.404   0.738   2.312 -1.8631 -0.4350 -0.3905
 8124SOL     OW35833   1.374   4.289   6.295  0.6322 -0.0033 -0.2881
 8124SOL    HW135834   1.337   4.255   6.376  2.1176  3.5640  1.8825
 8124SOL    HW235835   1.302   4.349   6.274 -0.6762 -1.6049 -0.4294
 8125SOL     OW35836   1.765   3.484   5.028 -0.2266 -0.2833 -0.9619
 8125SOL    HW135837   1.860   3.474   5.035 -0.2560 -1.8360 -3.0393
 8125SOL    HW235838   1.731   3.414   5.084  1.6567 -0.6315 -0.2682
 8126SOL     OW35839   4.328   2.798   3.120  0.3280 -0.4249  0.3451
 8126SOL    HW135840   4.363   2.717   3.156  1.1047  1.5879  4.0903
 8126SOL    HW235841   4.241   2.772   3.088 -0.3144 -1.0237  2.6143
 8127SOL     OW35842   0.617   3.608   7.435 -0.1210  0.0790 -0.3737
 8127SOL    HW135843   0.692   3.598   7.493  0.6947 -0.0973 -1.4671
 8127SOL    HW235844   0.562   3.658   7.495  0.1583 -0.0351 -0.0247
 8128SOL     OW35845   1.409   0.211  17.234  0.1962  0.2011 -0.2279
 8128SOL    HW135846   1.369   0.262  17.163  0.0701 -0.3593 -0.5600
 8128SOL    HW235847   1.370   0.262  17.305 -0.7790 -0.5086 -0.2350
 8129SOL     OW35848   4.161   4.512  11.410 -0.1767 -0.0917 -0.0280
 8129SOL    HW135849   4.115   4.569  11.471 -2.0282 -0.6068 -0.9501
 8129SOL    HW235850   4.251   4.540  11.428 -0.5083 -0.3027  1.9350
 8130SOL     OW35851   2.124   0.419  14.259  0.1523 -0.1064 -1.1099
 8130SOL    HW135852   2.141   0.373  14.177 -1.5664  0.4800 -1.7872
 8130SOL    HW235853   2.052   0.362  14.285  2.2181 -1.9526  0.6082
 8131SOL     OW35854   3.079   3.249   8.454  0.2077  0.6905 -0.2937
 8131SOL    HW135855   3.053   3.341   8.448  0.0087  0.6529 -0.0078
 8131SOL    HW235856   3.173   3.255   8.438  0.5645 -0.4930  1.3279
 8132SOL     OW35857   0.522   3.377   3.209 -0.2859  0.4645 -0.7473
 8132SOL    HW135858   0.606   3.417   3.231 -0.1270 -0.3592  0.1539
 8132SOL    HW235859   0.460   3.448   3.224  0.1582  0.0459  3.1130
 8133SOL     OW35860   3.927   4.353   4.827 -0.7402 -0.0250 -0.2055
 8133SOL    HW135861   3.948   4.263   4.802  2.4901  0.4808  0.6072
 8133SOL    HW235862   3.994   4.406   4.784 -1.2805  1.3806  0.7043
 8134SOL     OW35863   2.485   1.737   8.000 -0.0142  0.1814 -0.1018
 8134SOL    HW135864   2.472   1.823   7.960  0.4491  1.1081  1.7192
 8134SOL    HW235865   2.506   1.763   8.089 -0.9709  0.4324  0.0460
 8135SOL     OW35866   3.975   1.321   2.421  0.0476  0.4481 -0.3615
 8135SOL    HW135867   3.894   1.371   2.409 -0.0499  0.0850 -1.1942
 8135SOL    HW235868   4.039   1.389   2.444 -0.4894  0.5105  0.9783
 8136SOL     OW35869   2.212   0.945   4.850 -0.9205  0.5880 -0.6114
 8136SOL    HW135870   2.289   0.935   4.794 -0.8676  2.5049 -0.8527
 8136SOL    HW235871   2.134   0.942   4.794 -2.4844 -0.6301  1.6348
 8137SOL     OW35872   1.182   1.874   3.385 -0.3670 -0.5236  0.1968
 8137SOL    HW135873   1.192   1.970   3.381 -1.4192 -0.4270 -0.2623
 8137SOL    HW235874   1.259   1.856   3.331  0.2872 -1.0066  1.3146
 8138SOL     OW35875   1.785   4.180   6.140 -0.0461  0.1741 -0.2020
 8138SOL    HW135876   1.728   4.195   6.215  0.5856  1.6088  0.0059
 8138SOL    HW235877   1.718   4.146   6.082 -1.4960  0.9376  1.0250
 8139SOL     OW35878   4.061   3.538   4.353 -0.0329 -0.2871  0.8054
 8139SOL    HW135879   4.138   3.566   4.304  0.5335 -0.4454  1.6036
 8139SOL    HW235880   4.037   3.621   4.394 -1.7705 -1.0859  1.4044
 8140SOL     OW35881   4.273   1.743  15.365 -0.1162 -0.1303 -0.0146
 8140SOL    HW135882   4.210   1.672  15.375  1.0512 -1.1454  0.0971
 8140SOL    HW235883   4.223   1.791  15.299  0.1879 -0.9676 -0.8547
 8141SOL     OW35884   2.490   1.855   5.870  0.3917  0.7050  0.5377
 8141SOL    HW135885   2.485   1.947   5.897  0.0764 -0.4148  4.3494
 8141SOL    HW235886   2.571   1.833   5.916  0.5142  1.0843  0.5085
 8142SOL     OW35887   0.483   1.441   1.780 -0.0625 -0.4076 -0.1016
 8142SOL    HW135888   0.486   1.415   1.872  1.5472  1.5421  0.3964
 8142SOL    HW235889   0.551   1.384   1.745  0.2317 -0.0571 -0.1003
 8143SOL     OW35890   2.133   1.272   9.390  0.1384 -0.5768 -0.4277
 8143SOL    HW135891   2.162   1.300   9.476 -0.0911 -1.9090  0.0766
 8143SOL    HW235892   2.077   1.199   9.415  1.7531 -1.4909  0.4878
 8144SOL     OW35893   3.963   4.204  13.239 -0.7812 -0.0113 -0.3313
 8144SOL    HW135894   3.875   4.236  13.260 -1.1640  0.1617 -2.1977
 8144SOL    HW235895   3.937   4.113  13.223 -0.8351 -0.3011  1.4190
 8145SOL     OW35896   2.461   3.352   1.192  0.1651  0.3971 -0.0392
 8145SOL    HW135897   2.419   3.438   1.185  1.3777  1.0757  0.9519
 8145SOL    HW235898   2.438   3.326   1.282  1.6966 -2.2455 -0.4200
 8146SOL     OW35899   3.242   3.432   2.629 -0.0452 -0.7724 -0.4658
 8146SOL    HW135900   3.268   3.373   2.699  2.4019 -0.6921 -1.3073
 8146SOL    HW235901   3.147   3.426   2.642  0.0624  1.0652  1.2449
 8147SOL     OW35902   4.315   3.227   1.933  0.2773  0.0652 -0.1788
 8147SOL    HW135903   4.308   3.231   1.838 -1.7200  2.6990  0.0926
 8147SOL    HW235904   4.384   3.163   1.954  1.3679  1.4644  0.4728
 8148SOL     OW35905   2.740   2.219   5.357  0.1927  0.0196  0.1970
 8148SOL    HW135906   2.672   2.196   5.294  1.6630 -0.3499 -1.2481
 8148SOL    HW235907   2.769   2.305   5.329 -2.2439  1.4629  2.1379
 8149SOL     OW35908   1.007   3.637   2.783  0.3367  0.2238  0.8913
 8149SOL    HW135909   0.930   3.690   2.799  1.0652  1.0118  1.8021
 8149SOL    HW235910   1.012   3.597   2.870 -0.0679  1.0919  1.3088
 8150SOL     OW35911   0.663   0.010   3.811 -0.0404  0.3320 -0.1228
 8150SOL    HW135912   0.739   0.068   3.802 -0.9696  1.4677 -0.6878
 8150SOL    HW235913   0.668   4.711   3.904  0.2245 -0.6034 -0.3753
 8151SOL     OW35914   0.806   4.100   2.934 -0.2225  0.0632 -0.2693
 8151SOL    HW135915   0.742   4.100   3.005  1.2310 -0.8961  1.0502
 8151SOL    HW235916   0.812   4.195   2.924  1.6460  0.1329  1.4521
 8152SOL     OW35917   2.300   2.233   5.297  0.3163 -0.1476 -0.0709
 8152SOL    HW135918   2.382   2.222   5.249  0.7742  0.3057  0.6164
 8152SOL    HW235919   2.248   2.252   5.219  0.8030  0.3300 -0.2787
 8153SOL     OW35920   0.604   3.636   8.584 -0.0433 -0.0704 -0.0644
 8153SOL    HW135921   0.626   3.679   8.667 -1.7226  0.6087  0.0180
 8153SOL    HW235922   0.589   3.715   8.532  2.0627  1.3997  1.5264
 8154SOL     OW35923   1.084   0.461   3.305 -1.2492  0.0797 -0.1499
 8154SOL    HW135924   1.027   0.385   3.315 -0.5100 -0.5159 -0.4564
 8154SOL    HW235925   1.168   0.415   3.310 -0.4131  1.7866  1.6222
 8155SOL     OW35926   3.715   1.268   3.735  0.0355  0.4925 -0.0153
 8155SOL    HW135927   3.639   1.320   3.763 -0.3257 -1.0498  1.9219
 8155SOL    HW235928   3.771   1.327   3.685 -0.6662 -0.3802 -1.8255
 8156SOL     OW35929   3.244   4.034   9.713 -0.0342 -0.0840 -0.3862
 8156SOL    HW135930   3.179   4.060   9.779  1.2933 -0.2710  1.0004
 8156SOL    HW235931   3.199   4.060   9.633  1.4041  0.6206 -0.9478
 8157SOL     OW35932   2.463   3.172   6.512 -0.2064  0.2053  0.4297
 8157SOL    HW135933   2.480   3.096   6.456  1.6262  0.1935  0.9872
 8157SOL    HW235934   2.529   3.234   6.481  0.3299  0.4742  2.1077
 8158SOL     OW35935   4.099   2.930   3.897  0.6065 -0.7453  0.3094
 8158SOL    HW135936   4.034   2.989   3.935 -0.2978 -1.0128 -0.8009
 8158SOL    HW235937   4.158   2.922   3.972  0.1368  0.7421  0.8342
 8159SOL     OW35938   0.952   0.898   4.210 -0.1136 -0.0592  0.2939
 8159SOL    HW135939   0.955   0.972   4.150 -0.6199 -1.2429 -1.2026
 8159SOL    HW235940   0.939   0.949   4.289  1.7617  1.1981 -0.2064
 8160SOL     OW35941   4.288   1.664  15.035  0.4979 -0.5348 -0.1475
 8160SOL    HW135942   4.265   1.613  15.112  1.9119  1.1522  1.3761
 8160SOL    HW235943   4.380   1.680  15.050  0.7481 -1.7550 -0.3425
 8161SOL     OW35944   0.028   1.941   6.882 -0.2016  0.3238 -0.2693
 8161SOL    HW135945   4.669   1.951   6.835 -0.1205  0.0739 -0.4652
 8161SOL    HW235946   0.069   1.879   6.823  1.9486  0.5387  1.0028
 8162SOL     OW35947   2.728   3.504   3.845  0.1840  0.3134 -0.6482
 8162SOL    HW135948   2.789   3.523   3.917  0.0721  1.6778 -0.9139
 8162SOL    HW235949   2.789   3.509   3.772  2.0731 -0.1199  0.8871
 8163SOL     OW35950   0.017   3.384  14.650 -0.4834  0.6148 -0.2680
 8163SOL    HW135951   0.074   3.387  14.573 -0.4803 -1.4383 -0.3313
 8163SOL    HW235952   4.707   3.473  14.660  2.2266  1.7482 -1.1315
 8164SOL     OW35953   4.506   2.938   6.006  0.1912 -0.1762  0.2230
 8164SOL    HW135954   4.543   2.984   5.931  1.8306  1.3674  1.9742
 8164SOL    HW235955   4.473   2.862   5.958  0.7110  0.3498 -0.9591
 8165SOL     OW35956   1.133   3.059  11.364  0.1455  0.3160 -0.1651
 8165SOL    HW135957   1.101   3.097  11.282  0.4089 -0.6703 -0.7263
 8165SOL    HW235958   1.107   2.967  11.351 -0.3378  0.1608  1.9664
 8166SOL     OW35959   2.310   0.383   7.660  0.0448  0.1256  0.0681
 8166SOL    HW135960   2.335   0.291   7.657 -1.6881 -0.3721  0.8613
 8166SOL    HW235961   2.316   0.404   7.566  1.0131 -1.0783 -0.1426
 8167SOL     OW35962   4.448   0.855   3.661 -0.1110  0.4777 -0.4391
 8167SOL    HW135963   4.539   0.842   3.688  0.5111 -1.2048 -3.3771
 8167SOL    HW235964   4.430   0.765   3.635  1.0550  0.3677 -0.8976
 8168SOL     OW35965   1.180   4.108   5.636 -0.0932  0.0638  0.5866
 8168SOL    HW135966   1.198   4.052   5.711  0.2553 -0.5356  0.0593
 8168SOL    HW235967   1.207   4.194   5.668  0.6834  0.1475 -0.2856
 8169SOL     OW35968   2.549   0.755   6.092  0.0747 -0.3049  0.1053
 8169SOL    HW135969   2.502   0.690   6.144 -1.1532 -0.3538 -1.0574
 8169SOL    HW235970   2.488   0.826   6.110 -0.3478  0.3073 -3.6850
 8170SOL     OW35971   3.855   0.183   8.785  0.2920 -0.0203  0.2030
 8170SOL    HW135972   3.774   0.234   8.779  1.3531  1.6146 -0.5507
 8170SOL    HW235973   3.873   0.165   8.692  2.4776  0.6781  0.4844
 8171SOL     OW35974   4.496   0.542   3.370 -0.8766 -0.1728 -0.4720
 8171SOL    HW135975   4.551   0.484   3.317  0.2702 -1.0297  1.6479
 8171SOL    HW235976   4.564   0.576   3.428 -1.4044  1.5950 -0.8923
 8172SOL     OW35977   1.633   0.515   3.493 -0.3809 -0.0846  0.0280
 8172SOL    HW135978   1.588   0.597   3.472 -1.8984 -0.5784  1.3236
 8172SOL    HW235979   1.696   0.515   3.421 -1.3318  0.7306 -0.8087
 8173SOL     OW35980   0.742   3.352   3.723 -0.1855 -0.1023  0.2540
 8173SOL    HW135981   0.685   3.284   3.760  0.8480 -1.0118  0.1640
 8173SOL    HW235982   0.690   3.432   3.735  0.7234  0.2378  1.8720
 8174SOL     OW35983   4.414   0.732   7.618 -0.8346 -0.9864  0.6023
 8174SOL    HW135984   4.492   0.682   7.642 -0.0587  0.4772  1.0795
 8174SOL    HW235985   4.405   0.704   7.527  1.9852  0.6378 -0.1820
 8175SOL     OW35986   2.220   1.924  13.385  0.0462 -0.6637 -0.2796
 8175SOL    HW135987   2.203   2.018  13.383  2.3257 -0.3125 -2.5603
 8175SOL    HW235988   2.247   1.915  13.294 -0.5563  0.4074 -0.5577
 8176SOL     OW35989   2.210   0.724   9.054  0.5042 -0.4406 -0.1350
 8176SOL    HW135990   2.266   0.734   9.131 -0.5452  0.4807  0.5096
 8176SOL    HW235991   2.229   0.633   9.031  0.3622 -0.1245 -1.4873
 8177SOL     OW35992   4.425   0.829   5.568  0.7905  0.1481 -0.5749
 8177SOL    HW135993   4.404   0.922   5.556 -2.3917 -0.4933  0.0137
 8177SOL    HW235994   4.433   0.812   5.474 -0.6870 -1.8368 -0.3244
 8178SOL     OW35995   0.874   3.381   7.443  0.4112  0.1259  0.6099
 8178SOL    HW135996   0.783   3.356   7.459  0.2215  2.0753  2.7190
 8178SOL    HW235997   0.905   3.398   7.532  1.5802 -0.8995  0.3901
 8179SOL     OW35998   3.634   2.631  12.970  0.4054 -0.4948  0.7367
 8179SOL    HW135999   3.686   2.709  12.955 -2.0558  0.8375 -0.8625
 8179SOL    HW236000   3.628   2.593  12.881  0.4781 -1.0746  0.9765
 8180SOL     OW36001   0.225   3.985  13.718  0.2392  0.5125  0.1871
 8180SOL    HW136002   0.243   4.067  13.763 -1.2280  1.1153 -0.3161
 8180SOL    HW236003   0.295   3.989  13.653 -0.1482  2.2645 -0.1166
 8181SOL     OW36004   3.979   2.749  10.112 -0.4211  0.1243 -0.1476
 8181SOL    HW136005   3.890   2.764  10.144  0.2256 -0.2635  1.8600
 8181SOL    HW236006   4.023   2.793  10.185  1.8967  0.7238 -1.9397
 8182SOL     OW36007   3.948   1.891  10.184 -0.0652  0.1675  0.1296
 8182SOL    HW136008   3.924   1.976  10.223  0.8934  0.5836 -0.1842
 8182SOL    HW236009   3.865   1.862  10.148  0.4123 -0.1293 -0.7190
 8183SOL     OW36010   3.870   1.682   1.256 -0.0826  0.3539 -0.5652
 8183SOL    HW136011   3.787   1.707   1.216  1.4059  0.4302 -3.6317
 8183SOL    HW236012   3.940   1.702   1.193  0.1709 -0.3897 -0.5167
 8184SOL     OW36013   0.233   3.356   2.349 -0.0453  0.1114  0.1293
 8184SOL    HW136014   0.302   3.355   2.283  1.4263  1.1216  1.6493
 8184SOL    HW236015   0.178   3.432   2.329  1.8125  1.1997 -0.9090
 8185SOL     OW36016   3.212   1.751  14.748 -0.3290  0.0261 -0.1268
 8185SOL    HW136017   3.284   1.704  14.707  0.8327  1.2913  0.4789
 8185SOL    HW236018   3.158   1.767  14.670 -0.1613 -0.0774 -0.2619
 8186SOL     OW36019   4.035   3.612   7.006 -0.3708 -0.5052 -0.5761
 8186SOL    HW136020   4.022   3.537   6.947  1.7709 -2.5623  1.5872
 8186SOL    HW236021   3.947   3.638   7.033  0.2339 -1.0706  1.9390
 8187SOL     OW36022   3.470   2.988  12.218  0.1848  0.2945  0.0354
 8187SOL    HW136023   3.480   2.904  12.173  2.9285  1.0685 -0.8115
 8187SOL    HW236024   3.454   2.961  12.309  1.5685 -0.1534  0.1535
 8188SOL     OW36025   1.620   3.608   6.576  0.0612 -0.2695  0.0929
 8188SOL    HW136026   1.679   3.672   6.535  1.4966  0.0611  2.6795
 8188SOL    HW236027   1.688   3.551   6.612  1.0882  0.5653 -0.5111
 8189SOL     OW36028   2.306   3.703  10.290  0.4462  0.1154 -0.4959
 8189SOL    HW136029   2.265   3.692  10.376 -1.3983  2.7643 -1.0227
 8189SOL    HW236030   2.385   3.750  10.314 -0.1865  0.6651  0.5207
 8190SOL     OW36031   2.423   3.896   7.596  0.3002 -0.1691  0.5239
 8190SOL    HW136032   2.333   3.870   7.613  0.5108 -2.3563 -1.6207
 8190SOL    HW236033   2.464   3.810   7.586  0.9659 -0.0867  2.6383
 8191SOL     OW36034   3.503   2.636   1.589  0.4369 -0.0241 -0.2682
 8191SOL    HW136035   3.441   2.590   1.644 -0.6835  0.1146 -1.4134
 8191SOL    HW236036   3.504   2.722   1.630  0.5663  0.4337 -1.2156
 8192SOL     OW36037   1.965   1.767  17.072  0.1575  0.0489 -0.1398
 8192SOL    HW136038   1.926   1.708  17.007 -1.5964 -0.5533  1.4573
 8192SOL    HW236039   1.929   1.854  17.055 -0.7578 -0.2739  0.1393
 8193SOL     OW36040   2.278   2.462   7.512 -0.2862  0.0532  0.3512
 8193SOL    HW136041   2.193   2.481   7.552 -0.7096 -0.6266 -0.2365
 8193SOL    HW236042   2.320   2.417   7.585  1.1522  1.1183  0.1782
 8194SOL     OW36043   4.265   2.362   4.357  0.0627 -0.1816  0.4282
 8194SOL    HW136044   4.234   2.327   4.274 -1.3964 -0.9940  1.3058
 8194SOL    HW236045   4.287   2.278   4.398  2.0961 -0.2452 -0.8059
 8195SOL     OW36046   1.085   2.312   5.005  0.2400  0.0071  0.4448
 8195SOL    HW136047   1.149   2.256   5.050  2.0575  0.1291 -1.9336
 8195SOL    HW236048   1.029   2.338   5.077  0.5778  2.2335 -0.1033
 8196SOL     OW36049   1.648   0.886   1.470 -0.1515  0.6902  0.5158
 8196SOL    HW136050   1.686   0.799   1.461  1.7538  1.7120 -1.3597
 8196SOL    HW236051   1.592   0.859   1.543 -0.0548 -1.9310 -0.3995
 8197SOL     OW36052   4.022   4.470   0.434 -0.0007  0.0769 -0.1591
 8197SOL    HW136053   4.008   4.565   0.433  1.1273  0.2203 -3.2597
 8197SOL    HW236054   3.940   4.428   0.410 -0.5333  0.6377  0.6878
 8198SOL     OW36055   3.576   1.612   2.027 -0.3381 -0.3738 -0.1539
 8198SOL    HW136056   3.537   1.616   2.114  2.5782  1.1233  1.0733
 8198SOL    HW236057   3.593   1.518   2.029 -0.9622 -0.4794  0.1265
 8199SOL     OW36058   0.664   0.023   5.756  0.0904 -0.1466  0.5298
 8199SOL    HW136059   0.626   4.669   5.797  1.5671 -1.7354 -1.1287
 8199SOL    HW236060   0.660   0.010   5.662 -2.1441  0.0234  0.5862
 8200SOL     OW36061   3.179   2.405   3.009  0.0078 -0.3113  0.2134
 8200SOL    HW136062   3.164   2.455   2.929 -0.3366 -2.3314 -0.9822
 8200SOL    HW236063   3.127   2.458   3.069 -0.1138  1.5814 -1.5738
 8201SOL     OW36064   2.531   3.855   8.972  0.4003  0.4137 -0.2688
 8201SOL    HW136065   2.503   3.818   8.888 -0.7165  0.2602  0.1744
 8201SOL    HW236066   2.567   3.775   9.011 -0.1445 -0.0567 -0.7263
 8202SOL     OW36067   0.753   3.401   2.987  0.8483  0.4957  0.3048
 8202SOL    HW136068   0.783   3.331   3.045  2.5960  0.4299 -0.7044
 8202SOL    HW236069   0.756   3.367   2.898 -1.6541  1.1781 -0.0578
 8203SOL     OW36070   3.313   1.122   8.014 -0.3072  0.4267 -0.2808
 8203SOL    HW136071   3.359   1.191   8.061  0.8874 -0.2638 -0.4424
 8203SOL    HW236072   3.386   1.096   7.958 -1.6632 -0.9300 -1.4274
 8204SOL     OW36073   1.074   1.893  14.836  0.0204  0.0260 -0.3521
 8204SOL    HW136074   1.133   1.893  14.761 -1.5443 -0.2102 -1.5673
 8204SOL    HW236075   1.127   1.927  14.908  1.2668 -3.2968  0.3001
 8205SOL     OW36076   1.853   1.873  13.167  0.0752 -0.0849  0.0171
 8205SOL    HW136077   1.833   1.780  13.160  1.5303 -0.4407  0.6351
 8205SOL    HW236078   1.898   1.886  13.084  1.7302 -2.0009  0.6314
 8206SOL     OW36079   4.267   3.486   6.253  0.5416  0.5553 -0.2396
 8206SOL    HW136080   4.221   3.402   6.257  1.4221  0.1538  1.4875
 8206SOL    HW236081   4.337   3.466   6.190 -2.0994 -1.7666 -2.4148
 8207SOL     OW36082   2.057   4.529   8.635 -0.4353 -0.2412 -0.1919
 8207SOL    HW136083   1.986   4.590   8.611  0.6211  0.7325 -0.8710
 8207SOL    HW236084   2.132   4.564   8.586  0.3262  1.2847  2.1010
 8208SOL     OW36085   2.855   0.001   4.015 -0.0955  0.5696 -0.0859
 8208SOL    HW136086   2.842   4.713   4.109  0.6545 -0.1687 -0.0750
 8208SOL    HW236087   2.833   0.094   4.016  0.3077  0.6413  2.0467
 8209SOL     OW36088   2.819   0.471   2.989  0.4015 -0.0629  0.3608
 8209SOL    HW136089   2.747   0.467   2.926 -0.4104  0.5506  1.2401
 8209SOL    HW236090   2.895   0.444   2.938  0.1350 -0.7241  0.3147
 8210SOL     OW36091   0.445   2.462   1.813 -0.1037 -0.4136  0.3069
 8210SOL    HW136092   0.488   2.401   1.753 -0.6707 -1.7157  1.2150
 8210SOL    HW236093   0.402   2.524   1.754  0.5109 -0.5683 -0.2965
 8211SOL     OW36094   3.866   0.437   2.894 -0.1714 -0.1932  0.0343
 8211SOL    HW136095   3.932   0.505   2.879 -0.3605 -0.3756 -1.6093
 8211SOL    HW236096   3.865   0.438   2.990 -1.7845 -0.4173  0.0264
 8212SOL     OW36097   1.459   2.546   1.751 -0.1272  0.4312 -0.2824
 8212SOL    HW136098   1.489   2.621   1.699 -1.3947  0.5214 -0.8726
 8212SOL    HW236099   1.430   2.602   1.824  0.3495 -1.9353  1.7152
 8213SOL     OW36100   3.090   1.250   9.476  0.0197  1.1777 -0.4244
 8213SOL    HW136101   3.038   1.234   9.555 -1.4596  3.4414 -0.9143
 8213SOL    HW236102   3.149   1.317   9.509  1.2806 -1.5687  2.8554
 8214SOL     OW36103   2.022   4.712   4.939 -0.1375  0.0656  0.0312
 8214SOL    HW136104   1.943   0.040   4.919 -0.7461 -0.5186  0.9144
 8214SOL    HW236105   1.977   4.644   4.989  1.0384 -0.6994  0.0562
 8215SOL     OW36106   4.184   2.955   6.031  0.3980 -0.2193  0.0079
 8215SOL    HW136107   4.263   3.004   6.011 -1.3053  2.2194 -0.7928
 8215SOL    HW236108   4.228   2.900   6.096  0.5719  1.4532  1.3019
 8216SOL     OW36109   1.456   3.101   6.828 -0.3450 -0.5091  0.3186
 8216SOL    HW136110   1.398   3.159   6.780 -1.3636  0.8288  3.1879
 8216SOL    HW236111   1.538   3.150   6.831  0.0918 -1.0729 -3.1192
 8217SOL     OW36112   2.495   1.305   0.781  0.4635  0.5501  0.3305
 8217SOL    HW136113   2.561   1.250   0.738  0.4368 -0.8228  2.0607
 8217SOL    HW236114   2.541   1.334   0.860 -0.7780  0.2970  1.1362
 8218SOL     OW36115   4.217   1.274   1.350  0.3796  0.0229  0.4769
 8218SOL    HW136116   4.194   1.299   1.261  1.4477  2.0285  0.7581
 8218SOL    HW236117   4.193   1.182   1.359 -2.5582  0.6177 -1.1349
 8219SOL     OW36118   4.047   0.551   4.837 -0.2021 -0.6178  0.6187
 8219SOL    HW136119   3.984   0.621   4.854  0.4095 -0.6416  2.9717
 8219SOL    HW236120   4.029   0.536   4.744 -1.6479  1.6233  0.5474
 8220SOL     OW36121   3.104   2.597   3.591 -0.0203 -0.1372  0.7548
 8220SOL    HW136122   3.087   2.642   3.674 -0.4231 -1.7306  1.5511
 8220SOL    HW236123   3.077   2.665   3.530 -1.0362  0.3384  1.7262
 8221SOL     OW36124   1.830   3.564   2.999 -0.2847  0.8156 -0.9482
 8221SOL    HW136125   1.736   3.559   3.014  0.0948  0.1199  1.2058
 8221SOL    HW236126   1.866   3.524   3.078  0.0984  0.7776 -1.1436
 8222SOL     OW36127   0.810   3.046   7.792  0.1828  0.2516 -0.1799
 8222SOL    HW136128   0.779   2.968   7.838  0.7359 -0.2980 -0.7323
 8222SOL    HW236129   0.903   3.024   7.782  0.3276  0.3173  1.0374
 8223SOL     OW36130   2.476   4.085   7.368 -0.5294 -0.6551  0.3975
 8223SOL    HW136131   2.492   4.074   7.461 -0.3364 -2.6883  0.1327
 8223SOL    HW236132   2.431   4.002   7.348  1.8101 -1.3124 -2.0647
 8224SOL     OW36133   1.056   0.273  15.857 -0.7493 -0.3029 -0.2421
 8224SOL    HW136134   1.035   0.243  15.768  1.0987  0.7476 -1.0337
 8224SOL    HW236135   1.135   0.320  15.831 -1.9144  2.5778  1.4246
 8225SOL     OW36136   3.072   1.603   5.331  0.2032 -0.1938  0.5044
 8225SOL    HW136137   3.026   1.578   5.251  0.0221 -0.0220  0.5562
 8225SOL    HW236138   3.093   1.695   5.313 -1.6184  0.4083  1.4662
 8226SOL     OW36139   0.336   2.037  12.312 -0.6183  0.4020 -0.1343
 8226SOL    HW136140   0.405   2.043  12.378 -1.4837 -0.4556  0.8645
 8226SOL    HW236141   0.334   1.943  12.295 -2.0841  0.1668  1.2480
 8227SOL     OW36142   2.826   1.171   0.673  0.4957  1.0271 -0.5753
 8227SOL    HW136143   2.758   1.219   0.626 -0.4373  0.2137 -0.0422
 8227SOL    HW236144   2.908   1.220   0.662  0.1938  1.3959 -1.1569
 8228SOL     OW36145   0.918   0.194   4.372 -0.0378 -0.4155 -0.4315
 8228SOL    HW136146   0.870   0.217   4.292  0.0604  1.6982  0.1012
 8228SOL    HW236147   0.900   0.100   4.375 -1.1043 -0.2445 -1.3615
 8229SOL     OW36148   2.801   3.143  13.097  0.1354  0.4828 -0.4184
 8229SOL    HW136149   2.725   3.134  13.040  0.3207  0.3755 -0.6456
 8229SOL    HW236150   2.874   3.125  13.038  1.2515  1.0604  0.7782
 8230SOL     OW36151   3.434   3.478   3.255  0.0659  0.0150 -0.4174
 8230SOL    HW136152   3.377   3.555   3.261  0.3721  0.2258 -0.2234
 8230SOL    HW236153   3.497   3.504   3.322 -2.8798 -0.0050  2.3491
 8231SOL     OW36154   1.699   3.982   2.823 -0.0218  0.1298 -0.0121
 8231SOL    HW136155   1.777   3.933   2.850 -0.4338  0.1037  1.1121
 8231SOL    HW236156   1.679   4.034   2.901  0.8484 -1.0432  0.9950
 8232SOL     OW36157   2.170   3.754  12.633 -0.0087 -0.2645 -0.6169
 8232SOL    HW136158   2.143   3.665  12.655 -0.2236 -0.1978 -0.6114
 8232SOL    HW236159   2.252   3.762  12.681  1.1591  2.3973 -3.0815
 8233SOL     OW36160   3.448   0.663   4.939 -0.3127  0.2986 -0.2136
 8233SOL    HW136161   3.471   0.603   5.010  1.2621 -0.4999 -1.4046
 8233SOL    HW236162   3.473   0.740   4.991  1.1810 -1.1680  1.2157
 8234SOL     OW36163   0.945   3.461   4.259 -0.0625 -0.8556  0.2848
 8234SOL    HW136164   1.034   3.438   4.234 -0.1083  0.4208 -1.0513
 8234SOL    HW236165   0.893   3.422   4.188  0.2944  0.2294 -0.5783
 8235SOL     OW36166   0.598   0.823   0.830 -0.0578 -0.2018  0.3157
 8235SOL    HW136167   0.597   0.783   0.917  2.4325  1.9800  1.3324
 8235SOL    HW236168   0.687   0.805   0.802 -0.0002  0.2581  0.2069
 8236SOL     OW36169   3.428   3.046   4.251 -0.2243  0.2743 -0.0874
 8236SOL    HW136170   3.385   3.109   4.309  2.1779  0.5091  1.4498
 8236SOL    HW236171   3.419   2.968   4.305  3.1677 -0.5899 -0.7597
 8237SOL     OW36172   1.331   1.748   4.028 -0.4072  0.7707  0.0874
 8237SOL    HW136173   1.321   1.673   4.086  2.2487  1.6903  1.7202
 8237SOL    HW236174   1.252   1.743   3.974  0.9449  0.3418 -1.8737
 8238SOL     OW36175   4.254   0.944  10.694  0.2229  0.1602 -0.2855
 8238SOL    HW136176   4.222   0.863  10.655  0.1513 -0.5324  1.1955
 8238SOL    HW236177   4.201   0.938  10.774 -0.9136  0.8207 -0.9817
 8239SOL     OW36178   0.016   2.423   0.495  0.9202 -0.1680 -0.6734
 8239SOL    HW136179   0.069   2.362   0.547 -0.2314  0.0870  0.7745
 8239SOL    HW236180   0.038   2.492   0.557 -0.4754 -2.2421  2.1294
 8240SOL     OW36181   0.121   4.399   3.757  0.3567  0.2090 -0.0831
 8240SOL    HW136182   0.151   4.309   3.768  0.8892  0.3869 -0.0632
 8240SOL    HW236183   0.204   4.430   3.720  1.2147  1.2720  2.7566
 8241SOL     OW36184   2.481   4.000   3.487  0.6114  0.3885 -0.0782
 8241SOL    HW136185   2.386   4.004   3.500  0.5040  2.5259 -1.5288
 8241SOL    HW236186   2.496   4.095   3.491  1.6836  0.2084  0.1763
 8242SOL     OW36187   1.623   3.905   0.093  0.0921 -0.3650 -0.3981
 8242SOL    HW136188   1.651   3.966   0.024  0.7026  0.0308  0.2047
 8242SOL    HW236189   1.628   3.961   0.170 -2.2244 -2.8196  1.5466
 8243SOL     OW36190   1.294   0.237   3.276  0.4637 -0.2443 -0.0864
 8243SOL    HW136191   1.289   0.142   3.274  3.2814 -0.3566 -0.8487
 8243SOL    HW236192   1.354   0.238   3.350  0.6396 -0.0967 -0.2290
 8244SOL     OW36193   1.575   3.233   7.502 -0.5796  0.0645  0.1066
 8244SOL    HW136194   1.572   3.314   7.452 -0.9218 -0.9637 -1.5323
 8244SOL    HW236195   1.499   3.182   7.472 -0.2115 -0.6391  0.3503
 8245SOL     OW36196   0.062   1.055   3.323 -0.2806 -0.1630  0.1206
 8245SOL    HW136197   0.106   1.132   3.285 -0.4294 -1.2625 -2.2960
 8245SOL    HW236198   4.722   1.055   3.252  1.1321 -0.3481 -1.1741
 8246SOL     OW36199   4.641   3.144   9.099 -0.2293 -0.4803 -0.1404
 8246SOL    HW136200   4.715   3.188   9.143 -0.2838 -0.7253  0.1966
 8246SOL    HW236201   4.602   3.102   9.176 -0.1890  0.9287  0.6444
 8247SOL     OW36202   1.753   2.526   1.401 -0.3819 -0.1963  0.6050
 8247SOL    HW136203   1.701   2.452   1.372 -0.9659  0.5385 -0.1982
 8247SOL    HW236204   1.687   2.571   1.455 -1.6308 -1.2225 -0.0743
 8248SOL     OW36205   1.322   4.662   1.519 -0.5729  0.7511  0.2118
 8248SOL    HW136206   1.251   0.002   1.521 -2.6985 -1.6255  1.1525
 8248SOL    HW236207   1.299   4.605   1.592 -1.7763  0.4478 -0.4080
 8249SOL     OW36208   3.301   0.212   3.318  0.0159  0.4858 -0.4001
 8249SOL    HW136209   3.331   0.259   3.396 -0.6283  1.4594 -0.7358
 8249SOL    HW236210   3.295   0.119   3.338 -0.8998  0.3565 -1.3085
 8250SOL     OW36211   4.400   4.000   4.844 -0.0657  0.1468  0.2842
 8250SOL    HW136212   4.382   3.958   4.928  0.4221 -1.5352 -0.4529
 8250SOL    HW236213   4.475   4.056   4.866 -1.1152  2.1970 -1.3110
 8251SOL     OW36214   2.461   4.429  13.123  0.1627  0.2006 -0.5874
 8251SOL    HW136215   2.464   4.524  13.111  0.5967  0.4992  1.8091
 8251SOL    HW236216   2.547   4.404  13.087  0.1820 -1.7102  0.7665
 8252SOL     OW36217   2.072   2.830   8.548  0.1039  0.4552 -0.1962
 8252SOL    HW136218   1.995   2.829   8.491 -1.5229 -2.7742  2.0968
 8252SOL    HW236219   2.021   2.844   8.627 -1.6625  0.6758 -1.3588
 8253SOL     OW36220   4.622   2.999   9.327  0.2352 -0.2286  0.2642
 8253SOL    HW136221   4.565   2.929   9.359 -0.1929  0.2881  0.6228
 8253SOL    HW236222   4.603   3.051   9.405 -1.1450 -1.4312  0.7212
 8254SOL     OW36223   1.285   2.125   8.489 -0.4401  0.1753  0.0357
 8254SOL    HW136224   1.204   2.112   8.440  0.0588 -0.3220 -0.6640
 8254SOL    HW236225   1.258   2.188   8.555 -1.9173 -0.6523  0.2096
 8255SOL     OW36226   4.412   1.048  10.895 -0.6304 -0.0185  0.6293
 8255SOL    HW136227   4.347   1.068  10.828  1.8217  0.6408 -1.5679
 8255SOL    HW236228   4.404   0.953  10.899 -1.4949  0.0785  1.4884
 8256SOL     OW36229   0.046   4.562   3.185  0.5332 -0.0679  0.4691
 8256SOL    HW136230   0.105   4.609   3.244  0.7000 -0.6156  0.7370
 8256SOL    HW236231   4.704   4.628   3.162  0.4610 -0.3662 -0.2004
 8257SOL     OW36232   3.793   0.113  15.023  0.3455 -0.3571  0.2536
 8257SOL    HW136233   3.796   0.140  14.932  0.0102 -0.5653  0.1779
 8257SOL    HW236234   3.830   0.025  15.027  0.6497 -0.2986 -1.4653
 8258SOL     OW36235   2.235   2.617   8.297 -0.7079  0.1743 -0.2196
 8258SOL    HW136236   2.167   2.600   8.361  0.5546  2.0281  1.6135
 8258SOL    HW236237   2.226   2.544   8.235  0.0824 -0.2688  0.1911
 8259SOL     OW36238   2.422   3.580   9.036  0.2659 -0.0463  0.1852
 8259SOL    HW136239   2.428   3.588   9.132  0.1489  1.2949  0.0799
 8259SOL    HW236240   2.423   3.485   9.022 -1.8047 -0.0833  0.2821
 8260SOL     OW36241   2.351   3.106   7.952 -0.5375 -0.6673  0.5007
 8260SOL    HW136242   2.393   3.188   7.925 -1.7719  0.4651  2.0482
 8260SOL    HW236243   2.345   3.103   8.047 -1.3489 -0.7054  0.4507
 8261SOL     OW36244   1.113   1.159   0.645 -0.0603  0.1053  0.2183
 8261SOL    HW136245   1.114   1.242   0.692  1.0689 -0.4155  1.1029
 8261SOL    HW236246   1.058   1.117   0.711 -2.5275  1.9609 -0.6290
 8262SOL     OW36247   1.539   2.158  16.596  0.4950  0.2638  0.4287
 8262SOL    HW136248   1.557   2.151  16.502 -1.0136 -0.2846  0.2001
 8262SOL    HW236249   1.444   2.154  16.595  0.4412  1.4476 -0.0411
 8263SOL     OW36250   1.929   0.622  14.156  0.3192 -0.6669  0.1274
 8263SOL    HW136251   1.959   0.590  14.071  1.2735 -0.1663  0.2782
 8263SOL    HW236252   1.992   0.573  14.208  0.7254  1.1380  1.3536
 8264SOL     OW36253   1.668   4.351   1.679  0.1145  0.1136  0.6963
 8264SOL    HW136254   1.628   4.266   1.696  0.6934 -1.0186 -3.5986
 8264SOL    HW236255   1.708   4.368   1.764 -0.5996  0.3345  0.9908
 8265SOL     OW36256   2.902   2.043   3.939  0.5571 -0.0351 -0.3228
 8265SOL    HW136257   2.869   2.053   4.028  0.5304  1.4111 -0.4988
 8265SOL    HW236258   2.940   2.130   3.937 -1.2030  0.7025 -1.5101
 8266SOL     OW36259   4.572   4.484   0.678 -0.4997 -0.7148 -0.6212
 8266SOL    HW136260   4.486   4.475   0.638 -0.5583 -1.5346 -0.3087
 8266SOL    HW236261   4.573   4.396   0.716 -0.4541  0.1015  1.2778
 8267SOL     OW36262   2.657   1.182  12.246 -0.3704 -0.7299 -0.4061
 8267SOL    HW136263   2.569   1.145  12.254 -1.4508  2.4675  2.3605
 8267SOL    HW236264   2.635   1.268  12.282  1.3287  0.1724 -1.4944
 8268SOL     OW36265   3.598   0.043  13.695  0.3959 -0.2554 -0.4998
 8268SOL    HW136266   3.579   4.713  13.772  1.0967  0.1706 -0.0399
 8268SOL    HW236267   3.513   0.087  13.692 -0.5077 -1.8799  0.6746
 8269SOL     OW36268   3.547   2.529   1.979 -0.1557  0.3272  0.6611
 8269SOL    HW136269   3.456   2.513   2.006  0.2097 -0.0330  1.6761
 8269SOL    HW236270   3.592   2.567   2.055 -1.2593 -1.2003  2.0859
 8270SOL     OW36271   1.428   3.273   8.400  0.5642 -0.5979  0.3056
 8270SOL    HW136272   1.438   3.293   8.307 -1.3561 -0.4552  0.1248
 8270SOL    HW236273   1.334   3.252   8.396  0.4672 -0.2923  1.0726
 8271SOL     OW36274   0.195   2.105   8.516 -0.1606  0.1276  0.0048
 8271SOL    HW136275   0.156   2.155   8.444 -2.4400 -0.5845  0.7461
 8271SOL    HW236276   0.205   2.016   8.481 -2.7583 -0.7870  1.5810
 8272SOL     OW36277   1.690   2.168   3.397  0.1144 -0.2495  0.1502
 8272SOL    HW136278   1.769   2.218   3.417 -0.2023 -0.4692  1.9184
 8272SOL    HW236279   1.640   2.200   3.472 -0.9180  1.1664 -1.1406
 8273SOL     OW36280   3.088   0.740   3.582 -0.8162 -0.7754  0.2053
 8273SOL    HW136281   3.066   0.655   3.622 -1.4801  0.0687  1.6250
 8273SOL    HW236282   3.016   0.745   3.519 -1.6504 -0.1121  1.2203
 8274SOL     OW36283   1.784   0.680   1.895 -0.0468  0.4703 -0.0042
 8274SOL    HW136284   1.864   0.686   1.844  0.0636  0.3206  0.1489
 8274SOL    HW236285   1.779   0.772   1.922  0.4033  0.0752  1.4532
 8275SOL     OW36286   3.556   2.129  16.450 -0.6282 -0.5325  0.1468
 8275SOL    HW136287   3.473   2.081  16.450 -0.0625 -1.5096 -1.5653
 8275SOL    HW236288   3.531   2.220  16.464  0.3668 -0.7897  3.5427
 8276SOL     OW36289   0.918   1.332  13.785 -0.6339 -0.2914  0.4750
 8276SOL    HW136290   0.864   1.332  13.864 -0.8885  0.4876  0.2997
 8276SOL    HW236291   0.899   1.422  13.761  0.0373 -0.2666  0.0127
 8277SOL     OW36292   0.328   4.497   2.498 -0.1779 -0.4869 -0.4018
 8277SOL    HW136293   0.299   4.550   2.425 -1.3965 -2.3811 -1.2974
 8277SOL    HW236294   0.289   4.550   2.567 -0.2310 -0.5102 -0.4141
 8278SOL     OW36295   2.547   4.305   4.207  0.1127 -0.1149  0.0405
 8278SOL    HW136296   2.595   4.233   4.167  1.9429  0.9628  0.2784
 8278SOL    HW236297   2.460   4.270   4.229 -0.6008  0.9191 -1.0751
 8279SOL     OW36298   1.732   2.221   2.954 -0.0602  0.5736  0.4081
 8279SOL    HW136299   1.807   2.168   2.978 -1.4916 -1.3177  0.7109
 8279SOL    HW236300   1.680   2.225   3.035  1.3849 -2.1144  1.4355
 8280SOL     OW36301   3.495   0.703   2.461  0.1619 -0.4378  0.4892
 8280SOL    HW136302   3.455   0.630   2.414 -0.7534  0.6749 -0.4822
 8280SOL    HW236303   3.542   0.668   2.536 -0.8871 -1.6242  0.5797
 8281SOL     OW36304   0.739   0.890   6.406 -0.1675  0.1664 -0.6241
 8281SOL    HW136305   0.828   0.888   6.442 -0.5336 -0.6550  0.2271
 8281SOL    HW236306   0.684   0.867   6.481  1.0735 -3.7705 -0.8910
 8282SOL     OW36307   0.095   1.354  13.940  0.5744 -0.2299 -0.3760
 8282SOL    HW136308   0.090   1.439  13.983  1.4183 -0.4270  0.1123
 8282SOL    HW236309   0.176   1.375  13.894 -0.9839  1.2920 -2.4506
 8283SOL     OW36310   1.915   3.150   8.870 -0.2827  0.4380  0.2749
 8283SOL    HW136311   1.951   3.165   8.957  0.9523 -1.2098  0.0638
 8283SOL    HW236312   1.918   3.241   8.842  1.1620 -0.6680 -3.2086
 8284SOL     OW36313   3.750   3.798   2.850  0.0547 -0.2910 -0.0263
 8284SOL    HW136314   3.814   3.748   2.902  0.7868  0.6384 -0.0407
 8284SOL    HW236315   3.796   3.802   2.766 -0.5657  0.7944 -0.3058
 8285SOL     OW36316   0.667   3.506   9.547 -0.2170 -0.3119 -0.2676
 8285SOL    HW136317   0.722   3.529   9.622 -0.6158  1.9485 -0.6703
 8285SOL    HW236318   0.665   3.410   9.554 -0.0582 -0.0698  2.8412
 8286SOL     OW36319   3.784   1.379   9.835 -0.5913 -0.0430  0.3923
 8286SOL    HW136320   3.843   1.421   9.897 -0.1657  0.8275 -0.6017
 8286SOL    HW236321   3.808   1.289   9.857  2.5623  0.7044  0.0116
 8287SOL     OW36322   4.520   2.137   6.007 -0.2184  0.6348  0.5884
 8287SOL    HW136323   4.518   2.228   6.035 -2.9680  1.0217 -0.8258
 8287SOL    HW236324   4.501   2.089   6.088 -1.8779  0.6537  0.2052
 8288SOL     OW36325   0.935   3.335   3.201 -0.9751 -0.2489  0.2529
 8288SOL    HW136326   0.916   3.255   3.250  2.3263 -2.3881 -1.8905
 8288SOL    HW236327   0.884   3.399   3.250  2.6086  3.1178 -0.3913
 8289SOL     OW36328   4.066   2.680   2.654  0.5100 -0.5506  0.1548
 8289SOL    HW136329   4.022   2.753   2.696  0.4360 -1.2908  1.3733
 8289SOL    HW236330   4.152   2.718   2.636 -0.7744  2.2332  0.0176
 8290SOL     OW36331   4.608   0.671   7.266 -0.2041  0.0260 -0.3961
 8290SOL    HW136332   4.529   0.689   7.317 -0.8806  0.0094 -1.4524
 8290SOL    HW236333   4.646   0.758   7.251  2.7988 -1.4564 -1.3395
 8291SOL     OW36334   0.683   3.688  13.224  0.1358 -0.2510  0.3881
 8291SOL    HW136335   0.709   3.779  13.210  2.9730 -0.8432  1.7919
 8291SOL    HW236336   0.630   3.693  13.303  1.7619 -1.9236  1.5788
 8292SOL     OW36337   4.596   4.082   9.927 -0.1638 -0.0762 -0.2347
 8292SOL    HW136338   4.631   3.995   9.906 -3.9369 -1.2182 -1.6758
 8292SOL    HW236339   4.504   4.065   9.945 -0.0997  0.1621  0.3182
 8293SOL     OW36340   2.365   4.639  16.192  0.1330  0.0060  0.8560
 8293SOL    HW136341   2.318   4.610  16.270 -1.2414  0.7938  0.3174
 8293SOL    HW236342   2.453   4.653  16.226  1.4243 -3.0462 -1.2092
 8294SOL     OW36343   1.361   3.361  12.909 -0.0286  0.3293  0.1810
 8294SOL    HW136344   1.343   3.309  12.830 -0.4935 -0.0027  0.5119
 8294SOL    HW236345   1.408   3.431  12.863 -0.1458 -0.3580 -1.0053
 8295SOL     OW36346   3.694   2.747   8.462 -0.6067 -0.1715 -0.1542
 8295SOL    HW136347   3.674   2.840   8.468  0.2745 -0.0090  0.3078
 8295SOL    HW236348   3.685   2.713   8.552 -0.7560  2.1168  0.6842
 8296SOL     OW36349   1.195   4.590   8.146 -0.2702  0.0165 -0.0615
 8296SOL    HW136350   1.206   4.524   8.077  2.5652  0.7121 -0.2693
 8296SOL    HW236351   1.250   4.549   8.213 -0.6128 -0.4310 -0.0482
 8297SOL     OW36352   1.091   2.493  16.624  0.1324  0.3605 -0.1313
 8297SOL    HW136353   1.122   2.568  16.675 -1.2299  0.4415  0.5682
 8297SOL    HW236354   1.065   2.544  16.547 -1.5702 -1.0494 -0.4815
 8298SOL     OW36355   1.888   2.699   1.777  0.2680 -0.8091 -0.1840
 8298SOL    HW136356   1.939   2.688   1.697  1.9922 -0.3535  0.8517
 8298SOL    HW236357   1.812   2.754   1.757  0.1785 -1.6005 -2.0099
 8299SOL     OW36358   2.131   3.599   0.792 -0.1825 -0.0381 -0.0035
 8299SOL    HW136359   2.069   3.557   0.852 -2.2515  3.8486  0.5926
 8299SOL    HW236360   2.191   3.648   0.848  0.6288 -0.4586 -0.5060
 8300SOL     OW36361   1.531   3.465   7.380 -0.1981  0.5793 -0.0867
 8300SOL    HW136362   1.442   3.500   7.371 -0.3602 -0.1048 -1.1697
 8300SOL    HW236363   1.563   3.484   7.291 -0.6347 -1.4098 -0.6572
 8301SOL     OW36364   4.491   2.496   7.483 -0.2931  0.7835  0.4424
 8301SOL    HW136365   4.559   2.431   7.498 -1.7478 -0.7212  0.5043
 8301SOL    HW236366   4.505   2.564   7.549  2.8376  1.4408 -0.9240
 8302SOL     OW36367   1.399   2.890   1.717 -0.3137  0.3326 -0.2889
 8302SOL    HW136368   1.427   2.863   1.804  0.5564  1.9003 -0.0905
 8302SOL    HW236369   1.305   2.900   1.730 -0.3207 -0.5784  0.3565
 8303SOL     OW36370   2.870   4.317   8.424 -0.0028 -0.4036 -0.8180
 8303SOL    HW136371   2.933   4.288   8.358 -1.3760  0.1110 -2.3575
 8303SOL    HW236372   2.924   4.378   8.474 -0.0564  0.2656 -1.5901
 8304SOL     OW36373   1.351   0.607   0.425 -0.1912  0.2229 -0.5319
 8304SOL    HW136374   1.308   0.559   0.354  0.8743 -2.4698  0.6495
 8304SOL    HW236375   1.301   0.590   0.505 -0.8503  2.6497 -0.4172
 8305SOL     OW36376   2.228   4.550   1.340 -0.1061 -0.4246  0.0864
 8305SOL    HW136377   2.217   4.470   1.288 -1.2566  1.7041 -2.8787
 8305SOL    HW236378   2.154   4.544   1.401 -1.5636 -2.1003 -1.8154
 8306SOL     OW36379   1.114   0.665  16.074  0.5911 -0.1297  0.4400
 8306SOL    HW136380   1.027   0.628  16.088  0.8010 -0.8981 -0.2828
 8306SOL    HW236381   1.099   0.756  16.098  1.8272  0.4953 -1.1263
 8307SOL     OW36382   3.781   2.861   4.421 -0.7139  0.0216  0.0258
 8307SOL    HW136383   3.742   2.947   4.408  1.3863  1.1058  0.9289
 8307SOL    HW236384   3.837   2.854   4.344 -0.7467  2.7897 -0.2513
 8308SOL     OW36385   0.349   1.149  15.258  0.2668 -0.0274  0.0959
 8308SOL    HW136386   0.280   1.206  15.291 -0.0960 -1.8202  2.4277
 8308SOL    HW236387   0.313   1.137  15.170  1.3912  0.1978 -0.3904
 8309SOL     OW36388   2.822   0.373   7.576  0.4612  0.6438  0.1651
 8309SOL    HW136389   2.844   0.288   7.613 -1.8979 -0.2068 -0.4015
 8309SOL    HW236390   2.815   0.418   7.661  1.7421 -2.3871  1.8470
 8310SOL     OW36391   4.580   2.462   2.984 -0.6770 -0.2130 -0.7299
 8310SOL    HW136392   4.601   2.425   2.898 -2.5465 -0.2770 -1.1780
 8310SOL    HW236393   4.501   2.508   2.953 -0.7948  0.4306  0.5469
 8311SOL     OW36394   4.613   4.689   7.575  0.2621 -0.8492  0.6191
 8311SOL    HW136395   4.666   0.004   7.645  0.4018  0.2109 -0.0762
 8311SOL    HW236396   4.682   4.674   7.511  0.7720  2.6188  0.3437
 8312SOL     OW36397   4.539   0.126  15.201  0.5432 -0.1523 -0.0150
 8312SOL    HW136398   4.459   0.175  15.181 -0.1592 -1.4235 -0.2722
 8312SOL    HW236399   4.576   0.100  15.117 -3.4371 -0.4309 -1.6694
 8313SOL     OW36400   1.956   4.295   8.734 -0.2741  0.6030  0.2396
 8313SOL    HW136401   2.010   4.372   8.715 -1.8849  1.4294 -0.9802
 8313SOL    HW236402   2.019   4.226   8.710 -0.6298  1.0856 -2.0950
 8314SOL     OW36403   1.032   2.783   8.301 -0.4657 -0.2389  0.2102
 8314SOL    HW136404   0.982   2.703   8.285  0.4463 -0.7874  0.1053
 8314SOL    HW236405   1.104   2.767   8.240 -1.3631  0.5645 -1.0733
 8315SOL     OW36406   1.879   3.380  10.026  0.4357 -0.3506  0.1003
 8315SOL    HW136407   1.974   3.367  10.021  0.9287  3.9539 -2.0034
 8315SOL    HW236408   1.852   3.362  10.115 -0.6827 -1.8296 -0.5408
 8316SOL     OW36409   1.759   3.645   2.018  0.8964 -0.2471 -0.1337
 8316SOL    HW136410   1.747   3.721   2.075  1.0918  0.7609 -1.4511
 8316SOL    HW236411   1.686   3.590   2.048 -0.2670  0.4982 -1.6124
 8317SOL     OW36412   2.290   3.837   2.501  0.4398  0.6576  0.5716
 8317SOL    HW136413   2.221   3.894   2.469 -2.3795 -2.2216  1.5496
 8317SOL    HW236414   2.369   3.881   2.468  0.0391  0.7586 -0.2380
 8318SOL     OW36415   4.199   2.498   6.633  0.2603  0.7514 -0.3017
 8318SOL    HW136416   4.279   2.550   6.639  0.9430 -0.1967 -1.3880
 8318SOL    HW236417   4.186   2.483   6.727  1.2227  0.0145 -0.2898
 8319SOL     OW36418   4.312   1.748  17.523 -0.2094 -0.0985 -0.0167
 8319SOL    HW136419   4.246   1.818  17.524 -1.5727 -1.3740 -0.8919
 8319SOL    HW236420   4.356   1.767  17.440  0.9117 -0.5592  0.4787
 8320SOL     OW36421   3.049   2.860   4.805  0.3040  0.1167  0.1323
 8320SOL    HW136422   3.008   2.802   4.869 -0.4265 -2.1638 -2.4260
 8320SOL    HW236423   3.050   2.952   4.833 -1.1129 -0.0084  0.5500
 8321SOL     OW36424   3.664   3.504   5.997 -0.5599 -0.1298  0.3438
 8321SOL    HW136425   3.713   3.547   6.067  1.9773  0.0319 -1.5141
 8321SOL    HW236426   3.734   3.455   5.953 -1.1453 -1.2629  0.6577
 8322SOL     OW36427   2.349   1.720   8.519  0.7683 -0.2687 -0.0330
 8322SOL    HW136428   2.263   1.695   8.484  0.6559  0.2179 -0.0976
 8322SOL    HW236429   2.321   1.804   8.556  2.1400 -0.0491  0.4979
 8323SOL     OW36430   3.247   1.909  12.874  0.2523 -0.5375 -0.0065
 8323SOL    HW136431   3.337   1.895  12.905  0.3343  0.9217  0.4283
 8323SOL    HW236432   3.265   1.942  12.786  0.0130  0.0138  0.1497
 8324SOL     OW36433   2.120   2.226  17.314  0.9973  0.3330 -0.1332
 8324SOL    HW136434   2.200   2.263  17.349  2.2798 -1.9665 -0.6286
 8324SOL    HW236435   2.150   2.219  17.223 -0.3212 -1.0337 -0.4743
 8325SOL     OW36436   4.369   2.260   9.212 -0.2890  0.1888 -0.6611
 8325SOL    HW136437   4.365   2.221   9.125 -0.2841  0.2178 -0.6745
 8325SOL    HW236438   4.297   2.216   9.257 -0.4258  2.0936  0.9732
 8326SOL     OW36439   4.232   3.997   7.721 -0.1543 -0.1032 -0.2669
 8326SOL    HW136440   4.223   4.018   7.814  1.2843 -3.1882  0.5583
 8326SOL    HW236441   4.227   3.901   7.722 -2.6493 -0.0064 -2.8463
 8327SOL     OW36442   0.520   3.737  15.110 -0.0059 -0.0097  0.7261
 8327SOL    HW136443   0.477   3.814  15.071 -0.2566 -0.5581 -0.0651
 8327SOL    HW236444   0.611   3.766  15.120 -0.1792  0.8609 -0.1759
 8328SOL     OW36445   2.925   1.022  12.137 -0.3023  0.7455  0.3247
 8328SOL    HW136446   2.889   1.111  12.138  0.1905  0.9481 -0.0164
 8328SOL    HW236447   2.846   0.970  12.118 -1.4637  2.6775 -0.1756
 8329SOL     OW36448   3.720   1.304   2.673  0.2240  0.0602 -0.0636
 8329SOL    HW136449   3.802   1.330   2.631  0.4143 -2.9243 -1.5552
 8329SOL    HW236450   3.725   1.209   2.678 -0.3321 -0.1095 -2.8934
 8330SOL     OW36451   2.827   3.205  16.313 -0.5663 -0.0401  0.4226
 8330SOL    HW136452   2.778   3.250  16.381  1.1637  0.4827  1.3350
 8330SOL    HW236453   2.917   3.227  16.338  0.2891 -3.5030  0.3570
 8331SOL     OW36454   0.446   1.349   5.518 -0.4342 -0.2858 -0.1213
 8331SOL    HW136455   0.540   1.353   5.533 -0.4933 -0.2895  0.2390
 8331SOL    HW236456   0.429   1.399   5.438  0.2786  0.4369  0.1795
 8332SOL     OW36457   3.649   3.589   4.926 -0.1895  0.0189 -0.7506
 8332SOL    HW136458   3.640   3.668   4.979  1.9046 -0.1168 -0.1693
 8332SOL    HW236459   3.705   3.536   4.983  0.7176 -1.8452 -3.3721
 8333SOL     OW36460   3.084   4.493   3.322  0.2499 -0.4773 -0.3369
 8333SOL    HW136461   3.013   4.552   3.297 -0.2346  0.1271  2.4608
 8333SOL    HW236462   3.054   4.422   3.265 -2.6755  0.8611 -0.4604
 8334SOL     OW36463   1.245   2.477  15.018  0.1025 -0.0075  0.6633
 8334SOL    HW136464   1.172   2.538  15.006  0.5617  0.3794 -0.1260
 8334SOL    HW236465   1.311   2.542  15.042  0.6567  0.3212 -1.8166
 8335SOL     OW36466   2.482   1.566   2.598  0.1273 -0.0758  0.8518
 8335SOL    HW136467   2.550   1.605   2.653  1.5074 -1.1885 -0.0698
 8335SOL    HW236468   2.504   1.474   2.590  0.7922  0.1730 -0.1042
 8336SOL     OW36469   2.184   1.705   2.403 -0.2824 -0.5131 -0.2548
 8336SOL    HW136470   2.253   1.723   2.339 -0.7814 -0.8851 -0.8954
 8336SOL    HW236471   2.217   1.744   2.484  3.5995 -1.7585 -1.2269
 8337SOL     OW36472   0.837   4.542   7.686 -0.3031  0.5552  0.2956
 8337SOL    HW136473   0.791   4.537   7.602 -0.8814  1.2424  0.5780
 8337SOL    HW236474   0.765   4.537   7.749 -1.6113 -2.2168 -1.4062
 8338SOL     OW36475   4.162   4.017   4.374 -0.6092 -0.7597 -0.7642
 8338SOL    HW136476   4.156   3.993   4.466  2.2417  0.6630 -0.1969
 8338SOL    HW236477   4.134   4.108   4.379 -0.8087 -0.9627  1.7510
 8339SOL     OW36478   1.594   1.674  15.895 -0.8606  0.8726  0.3251
 8339SOL    HW136479   1.553   1.736  15.834  1.1437  0.2498 -1.6441
 8339SOL    HW236480   1.682   1.666  15.860 -0.8025  1.0344  0.4338
 8340SOL     OW36481   0.212   4.509  16.477  0.2675 -0.8629  0.8962
 8340SOL    HW136482   0.175   4.486  16.391  1.7377 -0.7038  0.2132
 8340SOL    HW236483   0.301   4.536  16.454 -0.1224 -1.2988 -1.1735
 8341SOL     OW36484   3.633   2.246  13.440  0.3454  0.0429 -0.3890
 8341SOL    HW136485   3.569   2.272  13.506 -1.1851 -1.1360 -1.4368
 8341SOL    HW236486   3.715   2.279  13.478 -0.1320 -0.4654  1.0901
 8342SOL     OW36487   1.629   2.171  14.734  0.1111  0.8233 -0.1530
 8342SOL    HW136488   1.642   2.259  14.769  3.1931  0.0622  0.6072
 8342SOL    HW236489   1.715   2.139  14.762 -0.2188  0.8260  0.8614
 8343SOL     OW36490   0.471   1.722   8.984 -0.0870 -0.1689  0.6345
 8343SOL    HW136491   0.538   1.684   8.927  0.8713  1.7385  0.4915
 8343SOL    HW236492   0.397   1.712   8.924 -0.1297  0.6494  0.5512
 8344SOL     OW36493   2.395   0.953   6.444 -0.2117  0.7752  0.3168
 8344SOL    HW136494   2.428   0.868   6.474  1.4405  2.0802  2.1894
 8344SOL    HW236495   2.303   0.954   6.473 -0.5434  0.1262 -0.7296
 8345SOL     OW36496   4.701   0.665   6.959 -0.3845 -0.8900  0.0799
 8345SOL    HW136497   0.020   0.699   7.037 -1.9894 -0.7539  0.8905
 8345SOL    HW236498   0.021   0.586   6.928  1.2128 -0.0572  0.2205
 8346SOL     OW36499   0.203   1.234   9.904  0.2454 -0.0308  0.2109
 8346SOL    HW136500   0.187   1.161   9.845  1.7784 -0.3582  0.1823
 8346SOL    HW236501   0.162   1.312   9.866  0.2046  0.5324  1.4064
 8347SOL     OW36502   3.600   3.894   6.021 -0.1908 -0.3094  0.1320
 8347SOL    HW136503   3.666   3.942   5.971  0.1108 -1.6558 -0.7471
 8347SOL    HW236504   3.586   3.815   5.969 -0.7692 -0.6558  0.8277
 8348SOL     OW36505   3.580   4.278  15.116  0.2797 -0.0374  0.3542
 8348SOL    HW136506   3.643   4.212  15.146  0.3722 -1.4349 -2.9642
 8348SOL    HW236507   3.636   4.322  15.053  0.0898  2.1182  1.6789
 8349SOL     OW36508   3.419   1.552   9.458 -0.4461 -0.2371  0.5251
 8349SOL    HW136509   3.331   1.573   9.489 -1.4299 -2.8864 -0.4047
 8349SOL    HW236510   3.477   1.531   9.531  0.9448 -1.2504 -0.8428
 8350SOL     OW36511   0.295   4.618   1.373  0.0442 -0.1192 -0.7782
 8350SOL    HW136512   0.378   4.620   1.420  1.1966  2.1950 -2.9403
 8350SOL    HW236513   0.311   4.585   1.285 -1.0633 -1.6308 -0.4328
 8351SOL     OW36514   2.101   1.162  17.276  0.2957  0.0868  0.2828
 8351SOL    HW136515   2.073   1.155  17.367  1.1872  0.2299  0.5673
 8351SOL    HW236516   2.123   1.070  17.259 -0.3920 -0.3166  1.6198
 8352SOL     OW36517   3.051   2.744  15.672  0.2207 -0.0108  0.1933
 8352SOL    HW136518   3.080   2.833  15.688 -0.9589 -0.2360  3.5679
 8352SOL    HW236519   2.986   2.755  15.602  0.6595  0.5368 -0.1241
 8353SOL     OW36520   3.970   3.979   9.229  0.1382 -0.0965 -0.1938
 8353SOL    HW136521   3.920   3.898   9.238 -1.2192  0.9282  1.3767
 8353SOL    HW236522   3.970   4.016   9.317  1.2388  0.3451 -0.3793
 8354SOL     OW36523   4.317   4.126   0.951  0.7124 -0.0121 -0.3629
 8354SOL    HW136524   4.408   4.155   0.943  1.9337 -4.0165 -0.5570
 8354SOL    HW236525   4.271   4.204   0.983  0.5094 -1.2423  2.3326
 8355SOL     OW36526   2.980   1.832   3.794 -0.0638  0.3145 -0.5680
 8355SOL    HW136527   2.960   1.901   3.857  1.8758 -1.9946  2.5816
 8355SOL    HW236528   3.075   1.820   3.806 -0.4441 -0.8995  1.1362
 8356SOL     OW36529   0.275   3.325   3.439 -0.1074  0.0061  0.5663
 8356SOL    HW136530   0.330   3.400   3.462  2.4005 -1.4464 -0.6442
 8356SOL    HW236531   0.232   3.360   3.361  1.1368  2.4177  0.9524
 8357SOL     OW36532   4.225   3.160  11.933  0.1410 -0.4952 -0.3879
 8357SOL    HW136533   4.237   3.155  12.028 -0.5154 -0.5483 -0.3080
 8357SOL    HW236534   4.149   3.217  11.927 -1.0160 -1.9577  0.3828
 8358SOL     OW36535   0.820   1.753  14.834 -0.0642  0.1843 -0.0247
 8358SOL    HW136536   0.901   1.798  14.855 -0.9511  2.1219 -0.7490
 8358SOL    HW236537   0.854   1.676  14.787  0.1723 -0.3085  0.9579
 8359SOL     OW36538   4.079   1.485   0.532  0.9009  0.5376  0.0204
 8359SOL    HW136539   4.154   1.543   0.519  1.7956 -0.4544  0.7934
 8359SOL    HW236540   4.015   1.552   0.557 -0.1582 -0.3702 -0.2452
 8360SOL     OW36541   4.034   3.363   8.099  0.4930  0.4323  0.2074
 8360SOL    HW136542   3.939   3.371   8.107  0.2588 -0.6673 -1.4616
 8360SOL    HW236543   4.059   3.378   8.190 -1.6888 -1.0302  1.0279
 8361SOL     OW36544   1.421   2.209   8.253 -0.2202 -0.2999  0.0810
 8361SOL    HW136545   1.360   2.279   8.233 -0.3822 -0.3973  0.2363
 8361SOL    HW236546   1.380   2.171   8.331 -0.4609 -1.9267 -0.8514
 8362SOL     OW36547   3.147   0.354  16.776 -0.7501 -0.3792  0.0504
 8362SOL    HW136548   3.229   0.352  16.726  0.0988  0.8999  1.3768
 8362SOL    HW236549   3.144   0.448  16.793  0.4170  0.0105 -1.9190
 8363SOL     OW36550   3.656   1.399  15.690  0.0474  0.0932  0.3938
 8363SOL    HW136551   3.603   1.429  15.616 -1.0060 -0.0912  1.0649
 8363SOL    HW236552   3.747   1.402  15.661 -0.2438  0.8434 -0.4331
 8364SOL     OW36553   1.754   2.937   7.067  0.4022  0.1926 -0.3344
 8364SOL    HW136554   1.796   2.889   7.138  0.1148 -0.5488 -0.6586
 8364SOL    HW236555   1.729   3.010   7.123  0.9187 -1.4882  2.0655
 8365SOL     OW36556   2.946   0.175   2.376 -0.0087 -0.3566 -0.5466
 8365SOL    HW136557   2.876   0.241   2.381 -0.7853 -1.1497 -0.9287
 8365SOL    HW236558   2.975   0.194   2.465  1.9600 -1.3573 -1.0006
 8366SOL     OW36559   2.564   1.872  16.665 -0.2927 -0.3843 -0.1694
 8366SOL    HW136560   2.492   1.931  16.644  0.9305  1.1755  0.0464
 8366SOL    HW236561   2.617   1.870  16.586  1.5673 -2.4796  1.1252
 8367SOL     OW36562   3.885   0.245   8.097  0.5372  0.1903 -0.7132
 8367SOL    HW136563   3.898   0.282   8.010  2.7687  1.7081  0.2757
 8367SOL    HW236564   3.959   0.184   8.104 -0.1086 -0.3539  1.3756
 8368SOL     OW36565   1.398   3.382  14.465  0.1133 -0.3073 -0.5087
 8368SOL    HW136566   1.369   3.374  14.374 -0.5390  2.6951 -0.5518
 8368SOL    HW236567   1.317   3.422  14.497  0.0876 -0.4615 -0.3820
 8369SOL     OW36568   1.136   2.611   7.468 -0.3339 -0.1180 -0.3939
 8369SOL    HW136569   1.184   2.530   7.486 -0.3837  0.1117  0.7912
 8369SOL    HW236570   1.045   2.583   7.461 -1.1799  2.3654  0.5335
 8370SOL     OW36571   4.707   2.787   0.440  0.0919  0.4020  0.0068
 8370SOL    HW136572   4.713   2.821   0.529 -0.7024  0.7918 -0.0923
 8370SOL    HW236573   4.716   2.868   0.389 -2.4236 -0.2277 -1.4054
 8371SOL     OW36574   2.519   1.726   4.893  0.0097  0.4016 -0.5277
 8371SOL    HW136575   2.508   1.809   4.941  0.8709  0.2434 -0.0628
 8371SOL    HW236576   2.430   1.698   4.873  0.0610  0.1411 -0.3913
 8372SOL     OW36577   2.085   0.071   1.442  0.6158  0.2505 -0.0967
 8372SOL    HW136578   2.084   0.009   1.515 -0.2522 -0.5519 -0.7817
 8372SOL    HW236579   2.175   0.059   1.414  0.8256 -0.3907  0.8456
 8373SOL     OW36580   2.862   3.671  14.288  0.1925 -0.5281 -0.2367
 8373SOL    HW136581   2.856   3.755  14.333  1.7939 -0.9813  0.8589
 8373SOL    HW236582   2.791   3.681  14.226 -1.0485 -2.0302  0.9578
 8374SOL     OW36583   0.892   3.045   9.455  0.1562 -0.3066  0.0479
 8374SOL    HW136584   0.844   2.968   9.424 -0.4639  0.0084  0.2343
 8374SOL    HW236585   0.979   3.011   9.433 -0.2745 -0.3856 -1.5727
 8375SOL     OW36586   0.359   0.764   4.018  0.4881  0.5328 -0.4983
 8375SOL    HW136587   0.342   0.670   4.025  0.5883  0.6032  0.6200
 8375SOL    HW236588   0.348   0.781   3.924 -1.3907 -2.0568 -0.7409
 8376SOL     OW36589   4.050   0.396  13.593  0.1864 -0.3025  0.0591
 8376SOL    HW136590   4.068   0.463  13.659  1.7840 -0.7967  0.1355
 8376SOL    HW236591   4.000   0.442  13.525  0.0293  1.7515  1.5671
 8377SOL     OW36592   2.731   4.019   0.216  0.0145 -0.5683 -0.1015
 8377SOL    HW136593   2.779   3.946   0.256  1.8502  0.4209 -0.5275
 8377SOL    HW236594   2.650   4.022   0.267  0.3882 -4.1515  0.7119
 8378SOL     OW36595   1.127   2.623  10.651 -0.3127 -0.3531  0.4989
 8378SOL    HW136596   1.096   2.708  10.683 -0.1711 -0.4156  0.7975
 8378SOL    HW236597   1.175   2.653  10.574 -0.5605 -1.5003 -0.1017
 8379SOL     OW36598   0.102   3.321   8.593  0.1588 -0.0579  0.3606
 8379SOL    HW136599   0.135   3.236   8.622  0.6427  0.2849  0.8330
 8379SOL    HW236600   0.074   3.356   8.678  0.0245  0.9453 -0.0932
 8380SOL     OW36601   0.647   0.335  15.800  0.5362  0.1806  0.4962
 8380SOL    HW136602   0.706   0.277  15.752  0.2767 -0.7897  1.3580
 8380SOL    HW236603   0.579   0.344  15.733  1.3240 -0.1907 -0.3587
 8381SOL     OW36604   1.342   3.863  15.249 -0.5312 -0.2186  0.1107
 8381SOL    HW136605   1.253   3.836  15.224  0.1298 -0.3810 -2.1250
 8381SOL    HW236606   1.339   3.957  15.263 -0.9743 -0.6438  2.8695
 8382SOL     OW36607   1.705   0.211  10.705  0.1068 -0.0343 -0.3658
 8382SOL    HW136608   1.692   0.305  10.689 -4.1248 -0.5390  0.0888
 8382SOL    HW236609   1.722   0.202  10.798  2.7645  0.3607 -0.8006
 8383SOL     OW36610   2.518   1.990  10.188  0.8448  0.0269  0.1835
 8383SOL    HW136611   2.557   1.903  10.180  2.4846  0.4629  3.7064
 8383SOL    HW236612   2.510   1.996  10.283  1.0530 -1.0515  0.2787
 8384SOL     OW36613   2.968   1.524   0.275  0.2523  0.0175  0.4168
 8384SOL    HW136614   2.924   1.604   0.247 -1.7738 -1.0805  0.5324
 8384SOL    HW236615   2.996   1.566   0.357 -2.7189 -0.4659  1.6693
 8385SOL     OW36616   1.596   1.709  16.177  0.1143 -0.3375  0.6291
 8385SOL    HW136617   1.607   1.685  16.085  1.6381  1.8513  0.2423
 8385SOL    HW236618   1.502   1.696  16.186 -0.4065  2.1273 -1.2067
 8386SOL     OW36619   4.285   1.055   3.224 -0.8590 -0.2339  0.4793
 8386SOL    HW136620   4.299   1.085   3.314  0.9319 -1.7327  0.7078
 8386SOL    HW236621   4.295   0.961   3.235  0.5265  0.0684  1.8359
 8387SOL     OW36622   4.372   3.632  16.363  0.5114  0.4809  0.0224
 8387SOL    HW136623   4.338   3.662  16.448 -0.6851  2.1102 -1.0295
 8387SOL    HW236624   4.411   3.714  16.335  0.7219  0.0576 -0.9191
 8388SOL     OW36625   2.726   3.676  16.598  0.1735  0.1284  0.6889
 8388SOL    HW136626   2.640   3.714  16.580  0.7759  0.2846 -1.8509
 8388SOL    HW236627   2.714   3.625  16.678 -1.2707 -0.9389 -0.1995
 8389SOL     OW36628   3.302   2.441  16.657 -0.1458  0.2814 -0.1654
 8389SOL    HW136629   3.332   2.445  16.748  1.6673  0.6043 -0.7825
 8389SOL    HW236630   3.208   2.430  16.671 -0.0047  0.2245  0.7871
 8390SOL     OW36631   2.973   2.475   0.930  0.2280  0.1055 -0.0631
 8390SOL    HW136632   2.888   2.454   0.968 -0.4962 -1.0151 -2.2942
 8390SOL    HW236633   2.998   2.557   0.972 -0.5879  0.6271 -0.5819
 8391SOL     OW36634   2.049   2.951   3.048  0.3372 -0.0205  0.1770
 8391SOL    HW136635   2.133   2.948   3.094  0.7905 -0.8704 -0.7018
 8391SOL    HW236636   2.038   3.046   3.042  2.3147  0.2418  0.7278
 8392SOL     OW36637   2.561   0.596   8.465 -0.0364 -0.1731 -0.0079
 8392SOL    HW136638   2.470   0.588   8.494  0.0379 -0.5772  0.1124
 8392SOL    HW236639   2.575   0.688   8.489  3.2757 -0.1301 -2.0613
 8393SOL     OW36640   2.604   1.577   3.229  0.3647 -0.2471  0.1911
 8393SOL    HW136641   2.689   1.613   3.253 -0.6344  0.9709  1.9326
 8393SOL    HW236642   2.552   1.650   3.262  0.4997  0.2504 -0.7115
 8394SOL     OW36643   1.410   4.222   2.038 -0.1721  0.4448  0.3987
 8394SOL    HW136644   1.425   4.212   2.132  0.8879 -1.6482  0.0094
 8394SOL    HW236645   1.325   4.181   2.027 -0.0527  0.1653  0.5322
 8395SOL     OW36646   0.441   3.691   5.010 -0.4148  0.8322 -0.7246
 8395SOL    HW136647   0.490   3.743   5.073  1.0206 -1.7932  0.3095
 8395SOL    HW236648   0.451   3.745   4.931 -2.1641 -0.4388 -1.8339
 8396SOL     OW36649   0.475   0.308   3.362 -0.2932 -0.2934 -0.3999
 8396SOL    HW136650   0.475   0.355   3.278 -0.2618  0.3678 -0.0354
 8396SOL    HW236651   0.407   0.347   3.417 -0.8762  2.4771 -3.0524
 8397SOL     OW36652   1.714   4.025   7.071 -0.5797 -0.4180  0.2518
 8397SOL    HW136653   1.768   3.968   7.126  1.3598 -0.0871 -1.3237
 8397SOL    HW236654   1.629   3.990   7.099 -1.6171  1.6164 -0.3807
 8398SOL     OW36655   0.118   2.839   2.585 -0.4032 -0.7080 -0.1864
 8398SOL    HW136656   0.174   2.895   2.531  0.5706  0.9052  2.5297
 8398SOL    HW236657   0.110   2.897   2.661  0.5196  1.6939 -1.9295
 8399SOL     OW36658   1.670   0.526  15.640 -0.2655 -0.0949  0.5002
 8399SOL    HW136659   1.650   0.600  15.583  0.7475 -1.3241 -1.4381
 8399SOL    HW236660   1.582   0.491  15.655 -0.0003 -0.6398  0.7570
 8400SOL     OW36661   3.680   1.928   1.176 -0.8270 -0.1177 -0.0288
 8400SOL    HW136662   3.587   1.922   1.154 -1.5462 -0.2367  3.1212
 8400SOL    HW236663   3.728   1.953   1.097  1.6224  0.3612  1.6034
 8401SOL     OW36664   2.796   1.541  15.014 -0.8083  0.1591 -0.0661
 8401SOL    HW136665   2.798   1.449  14.988 -1.4609 -0.4728  2.0778
 8401SOL    HW236666   2.877   1.568  14.971 -0.1184 -2.4636 -0.3723
 8402SOL     OW36667   3.256   4.238   3.171 -0.9048  0.1766  0.0230
 8402SOL    HW136668   3.301   4.321   3.156 -1.8794  0.5987 -0.5280
 8402SOL    HW236669   3.298   4.182   3.106  0.6110  0.1899  0.9850
 8403SOL     OW36670   1.730   0.931  16.558  0.0863 -0.2476  0.2658
 8403SOL    HW136671   1.789   0.857  16.571  1.5445  0.6812 -0.9777
 8403SOL    HW236672   1.735   0.930  16.462  2.1255  1.8148  0.3430
 8404SOL     OW36673   0.111   1.085  16.869  0.4003 -0.1100 -0.2047
 8404SOL    HW136674   0.032   1.050  16.910  1.1167 -0.1554  1.1457
 8404SOL    HW236675   0.090   1.107  16.779  3.1374  1.0961 -0.5157
 8405SOL     OW36676   3.886   1.405  11.928 -0.6828 -0.1122 -0.0965
 8405SOL    HW136677   3.842   1.484  11.959  1.2960  0.1400  2.0946
 8405SOL    HW236678   3.979   1.428  11.937 -1.0811  0.5236  2.4996
 8406SOL     OW36679   3.177   4.459   3.572 -0.1342  0.2763  0.3469
 8406SOL    HW136680   3.174   4.468   3.477  0.9645 -2.3052  0.0671
 8406SOL    HW236681   3.116   4.525   3.607 -0.6588 -0.3462  0.6004
 8407SOL     OW36682   0.783   0.180   6.378 -0.0719 -0.7700  0.7599
 8407SOL    HW136683   0.726   0.223   6.441 -0.5337 -0.4382  0.1136
 8407SOL    HW236684   0.774   0.085   6.385 -1.7503 -0.5132  2.1092
 8408SOL     OW36685   2.956   1.789   6.584 -0.0451 -0.6084 -0.7643
 8408SOL    HW136686   2.920   1.876   6.600  0.8531 -0.9215  2.9106
 8408SOL    HW236687   2.985   1.766   6.672 -0.7055 -1.4584 -0.7702
 8409SOL     OW36688   0.440   3.183  11.138  0.0643 -0.0623 -0.4597
 8409SOL    HW136689   0.495   3.228  11.202 -1.6022 -1.4067  1.8744
 8409SOL    HW236690   0.413   3.111  11.194 -0.5450  1.8358  1.6889
 8410SOL     OW36691   1.704   3.151  14.387 -0.1798 -0.5008  0.0888
 8410SOL    HW136692   1.763   3.104  14.447  0.5255  1.4141  0.8841
 8410SOL    HW236693   1.693   3.228  14.443 -1.2278 -0.6356  0.0712
 8411SOL     OW36694   0.787   1.890   2.713 -0.0181 -0.5673  0.0558
 8411SOL    HW136695   0.691   1.894   2.707 -0.0001 -2.0789 -1.1221
 8411SOL    HW236696   0.811   1.882   2.621  2.0203  4.9619  0.1608
 8412SOL     OW36697   2.989   3.222  12.452  0.4509 -0.0044  0.3165
 8412SOL    HW136698   3.070   3.225  12.502  2.1552 -0.1693 -2.4356
 8412SOL    HW236699   2.998   3.299  12.396 -1.9189  1.3428  1.7579
 8413SOL     OW36700   1.545   1.785  11.934 -0.5170 -0.0449  0.6209
 8413SOL    HW136701   1.544   1.700  11.977 -2.0005  0.1937  1.0850
 8413SOL    HW236702   1.455   1.805  11.908 -0.6064 -0.8553  0.3297
 8414SOL     OW36703   3.275   1.095   7.085  0.6039 -0.5562 -0.0419
 8414SOL    HW136704   3.352   1.095   7.029 -0.5005 -1.2216 -1.5451
 8414SOL    HW236705   3.317   1.137   7.160  0.2759  0.5533 -0.4724
 8415SOL     OW36706   1.881   2.735  14.451  0.0695  0.3880  0.7177
 8415SOL    HW136707   1.806   2.753  14.395 -0.5866  1.5361  1.9609
 8415SOL    HW236708   1.926   2.819  14.443  0.6554  0.1478  1.5316
 8416SOL     OW36709   4.224   0.484   1.775 -0.1126 -0.5326 -0.1359
 8416SOL    HW136710   4.233   0.445   1.688 -0.8216  0.5302 -0.6876
 8416SOL    HW236711   4.301   0.540   1.789 -0.3722  0.1539 -1.5174
 8417SOL     OW36712   2.024   0.830   4.671 -1.3114  0.6120 -0.0291
 8417SOL    HW136713   1.943   0.784   4.648  0.3660 -2.0354 -0.6324
 8417SOL    HW236714   2.067   0.848   4.587 -0.6400 -0.1137  0.1654
 8418SOL     OW36715   2.802   2.440   9.368  0.1863  0.2489 -0.0613
 8418SOL    HW136716   2.723   2.429   9.315  0.2475  1.2905 -0.3672
 8418SOL    HW236717   2.777   2.487   9.448  0.5987  0.5357 -0.1012
 8419SOL     OW36718   0.636   2.463   2.188  1.0887 -0.4901 -0.0208
 8419SOL    HW136719   0.628   2.554   2.160 -0.6181 -0.8577 -0.6883
 8419SOL    HW236720   0.592   2.427   2.111  0.6392 -1.2504  0.5911
 8420SOL     OW36721   2.656   3.230   2.280  0.3197 -0.4884  0.3017
 8420SOL    HW136722   2.695   3.317   2.275  1.7447 -1.0216  2.3355
 8420SOL    HW236723   2.639   3.202   2.190 -0.6802 -0.1628  0.3844
 8421SOL     OW36724   2.034   0.750   9.292  0.7458 -0.2368  0.3741
 8421SOL    HW136725   1.971   0.678   9.298 -3.8157  3.5329 -1.6628
 8421SOL    HW236726   2.085   0.732   9.213 -0.0045 -0.6820 -0.0052
 8422SOL     OW36727   0.758   2.871  11.052  0.0616  0.2609 -0.6577
 8422SOL    HW136728   0.792   2.861  11.141 -0.4102 -1.9495 -0.7195
 8422SOL    HW236729   0.831   2.910  11.006  0.7192  1.5337  1.4412
 8423SOL     OW36730   0.165   1.961   7.488  0.4460 -0.4052 -0.6838
 8423SOL    HW136731   0.201   1.980   7.401  2.4739 -0.8794  0.0511
 8423SOL    HW236732   0.245   1.920   7.521  0.6824  0.5504 -0.0886
 8424SOL     OW36733   1.882   1.444  16.980  0.2371  0.7406 -0.0815
 8424SOL    HW136734   1.978   1.438  16.979  0.2184  0.0227  1.4897
 8424SOL    HW236735   1.855   1.375  17.041  2.6285 -1.4522 -1.4570
 8425SOL     OW36736   3.617   0.370   7.871  0.0389 -0.5224 -0.4294
 8425SOL    HW136737   3.563   0.385   7.793 -0.3453  0.9070  0.1235
 8425SOL    HW236738   3.591   0.446   7.923 -1.5461  0.1170 -2.1464
 8426SOL     OW36739   4.639   2.279   9.302 -0.0601 -0.1513 -0.4356
 8426SOL    HW136740   4.543   2.281   9.299 -0.0658  0.0633 -0.0712
 8426SOL    HW236741   4.667   2.276   9.210 -1.8284 -0.1907 -0.9817
 8427SOL     OW36742   0.757   3.960   7.987 -0.6751 -0.3964 -0.0749
 8427SOL    HW136743   0.672   3.967   7.943  0.1210  2.7178 -1.1862
 8427SOL    HW236744   0.741   3.884   8.042  1.9389 -0.8268  0.0840
 8428SOL     OW36745   4.702   4.496   8.268  0.4130 -0.3353  0.1573
 8428SOL    HW136746   4.687   4.483   8.361 -2.5310  2.0120  0.0179
 8428SOL    HW236747   4.636   4.445   8.220  1.1234  0.1303 -1.3362
 8429SOL     OW36748   4.100   1.756  10.361 -0.6351  0.1869 -0.2120
 8429SOL    HW136749   4.169   1.822  10.358 -1.1285  0.8009  1.9487
 8429SOL    HW236750   4.034   1.796  10.303 -2.7241 -1.6822  0.8747
 8430SOL     OW36751   1.082   2.414   3.941 -0.1623  0.6698  0.3296
 8430SOL    HW136752   1.135   2.479   3.896  0.4160 -0.5758 -0.8015
 8430SOL    HW236753   1.076   2.347   3.873 -1.6892  1.5352 -0.3909
 8431SOL     OW36754   3.411   3.369  16.004 -0.1006  0.0410 -0.2594
 8431SOL    HW136755   3.331   3.420  16.016 -0.1008  0.2058 -0.9700
 8431SOL    HW236756   3.372   3.285  16.027 -1.0230  1.7034  4.2575
 8432SOL     OW36757   3.677   3.941  15.353 -0.4348  0.0839  0.6828
 8432SOL    HW136758   3.739   3.935  15.426  0.2411  0.4727  0.1363
 8432SOL    HW236759   3.626   4.020  15.369 -0.8080 -0.1159  0.4800
 8433SOL     OW36760   2.936   0.568   6.912  0.0326 -0.5380  0.0516
 8433SOL    HW136761   2.972   0.591   6.998 -0.4208  0.5792 -0.0505
 8433SOL    HW236762   2.992   0.624   6.857  1.2362 -2.0541 -0.2550
 8434SOL     OW36763   1.636   3.002   6.536  0.7458  0.1433  0.2349
 8434SOL    HW136764   1.622   2.973   6.626 -0.7428  1.5524  0.4450
 8434SOL    HW236765   1.681   3.086   6.531  2.2930 -0.5612  1.9851
 8435SOL     OW36766   1.544   3.381  10.042  0.1649  0.1321  0.1038
 8435SOL    HW136767   1.586   3.462  10.072 -0.4208  0.5978 -0.3347
 8435SOL    HW236768   1.598   3.364   9.965  2.0528 -1.4361  1.7666
 8436SOL     OW36769   1.665   1.548  16.838  0.0368  0.7861 -0.1860
 8436SOL    HW136770   1.696   1.616  16.778 -2.4911  2.1131  0.0202
 8436SOL    HW236771   1.752   1.538  16.879 -0.0401  3.4813  0.6200
 8437SOL     OW36772   0.214   2.780  10.167  0.1705  0.2700 -0.0141
 8437SOL    HW136773   0.184   2.868  10.144 -1.3147 -0.1766  0.2010
 8437SOL    HW236774   0.277   2.772  10.097 -2.3031  1.3520 -2.3582
 8438SOL     OW36775   3.045   3.162   5.300 -0.4007  0.1253  0.0306
 8438SOL    HW136776   3.119   3.212   5.336 -0.0615 -0.5535  0.2767
 8438SOL    HW236777   3.005   3.220   5.236  0.0697  0.1302 -0.2622
 8439SOL     OW36778   1.584   2.219   4.954  0.0084  0.2156 -0.4770
 8439SOL    HW136779   1.660   2.194   5.008  0.6027 -3.0578 -2.7898
 8439SOL    HW236780   1.616   2.220   4.864 -1.4849 -0.7484 -1.0206
 8440SOL     OW36781   1.980   2.382   5.407  0.0640  0.1568  0.3880
 8440SOL    HW136782   2.012   2.314   5.348 -1.7920 -2.3713  2.3065
 8440SOL    HW236783   2.033   2.368   5.485  0.5313  0.5426  0.1474
 8441SOL     OW36784   4.481   3.227   7.047  0.4697  0.2926  0.1063
 8441SOL    HW136785   4.471   3.275   6.964 -2.6307 -1.1795 -0.3586
 8441SOL    HW236786   4.526   3.147   7.022 -0.6512  0.1073 -1.3799
 8442SOL     OW36787   2.206   0.296   7.105  0.0115 -0.3433 -0.2115
 8442SOL    HW136788   2.245   0.233   7.044 -0.3106  0.6272 -1.4178
 8442SOL    HW236789   2.283   0.321   7.156  0.7271  0.2824 -1.5683
 8443SOL     OW36790   3.076   3.124   3.311 -0.5375 -0.1043  0.1109
 8443SOL    HW136791   3.032   3.117   3.227 -1.4475 -1.7438  0.7178
 8443SOL    HW236792   3.158   3.164   3.281 -0.4606 -0.6467 -0.3999
 8444SOL     OW36793   0.286   1.939   3.286 -0.4130 -0.5692  0.0538
 8444SOL    HW136794   0.209   1.888   3.312  0.7124 -1.4149  1.6940
 8444SOL    HW236795   0.289   1.930   3.191  1.7920 -0.5748  0.1288
 8445SOL     OW36796   2.868   1.700   7.348  0.2927  0.1372  0.0341
 8445SOL    HW136797   2.816   1.631   7.391 -0.5028  1.1396  0.6832
 8445SOL    HW236798   2.950   1.656   7.328 -0.0571 -0.4292 -0.1547
 8446SOL     OW36799   0.599   3.742   4.534  0.2346 -0.2683  0.6917
 8446SOL    HW136800   0.653   3.695   4.472  0.8693  0.1039  0.9592
 8446SOL    HW236801   0.613   3.685   4.609 -0.2791 -1.5435 -0.1960
 8447SOL     OW36802   3.952   2.391   5.814 -0.0648 -0.2408 -0.0906
 8447SOL    HW136803   3.930   2.350   5.731  1.3728 -2.0460  0.4018
 8447SOL    HW236804   3.970   2.311   5.865  1.1306 -0.4325 -0.8089
 8448SOL     OW36805   4.045   2.960   1.955 -0.1922  0.5190 -0.4565
 8448SOL    HW136806   4.065   2.935   1.865  0.8456 -1.1724  0.2419
 8448SOL    HW236807   4.135   2.940   1.983  0.0791  0.4987 -1.3557
 8449SOL     OW36808   0.605   2.754   0.027  0.2202 -0.0874  0.1062
 8449SOL    HW136809   0.558   2.801  17.655  1.7517  2.1603  0.6176
 8449SOL    HW236810   0.672   2.818   0.050 -0.9594  1.4175 -0.6394
 8450SOL     OW36811   2.337   3.004   9.132 -0.5912 -0.1309 -0.2634
 8450SOL    HW136812   2.266   3.003   9.196  1.7551 -0.2109  2.3569
 8450SOL    HW236813   2.362   2.912   9.144 -0.1651  0.0591  0.2721
 8451SOL     OW36814   1.259   1.238   7.352 -0.3402  0.1832 -0.3437
 8451SOL    HW136815   1.237   1.319   7.306  1.0020  1.4469  1.2283
 8451SOL    HW236816   1.290   1.276   7.434  1.7793  1.0843 -1.5470
 8452SOL     OW36817   0.360   0.703   7.654 -0.4129 -0.4539 -0.0365
 8452SOL    HW136818   0.413   0.662   7.722  0.3081 -0.6604 -0.7303
 8452SOL    HW236819   0.278   0.716   7.702 -0.7744  2.9741 -1.6197
 8453SOL     OW36820   2.158   0.078   8.081  0.8644  0.4398  0.5006
 8453SOL    HW136821   2.165   0.031   7.998 -1.1105  0.9735  0.0552
 8453SOL    HW236822   2.253   0.089   8.092  0.8388  1.2883 -0.1915
 8454SOL     OW36823   4.192   0.056   5.725  0.0346  0.5010  0.0190
 8454SOL    HW136824   4.127   0.098   5.669  0.2300  0.1741 -0.4493
 8454SOL    HW236825   4.281   0.076   5.698  0.2295  1.1596  1.1104
 8455SOL     OW36826   3.895   0.591   8.998  0.4642  0.5591 -0.0984
 8455SOL    HW136827   3.977   0.610   9.043  1.7879 -0.3144 -2.1538
 8455SOL    HW236828   3.918   0.505   8.964 -0.6145  0.9077 -1.7200
 8456SOL     OW36829   1.511   3.022   4.618 -0.1728  0.3714 -0.3133
 8456SOL    HW136830   1.475   3.100   4.662  2.2500  0.3771  1.6519
 8456SOL    HW236831   1.602   3.050   4.605 -0.2986 -0.0284 -2.0422
 8457SOL     OW36832   3.695   1.070  15.572  0.0969 -0.3948 -0.3851
 8457SOL    HW136833   3.617   1.110  15.611  1.0142  1.7243 -0.7253
 8457SOL    HW236834   3.670   0.981  15.598  0.2374 -0.3556 -0.1175
 8458SOL     OW36835   1.167   3.451   1.359 -0.5544 -0.4078  0.3300
 8458SOL    HW136836   1.174   3.359   1.387 -0.2666 -0.0537  1.4379
 8458SOL    HW236837   1.192   3.446   1.267 -2.3061  0.6078 -0.1952
 8459SOL     OW36838   2.796   4.270   5.436  0.4630  0.3691  0.1188
 8459SOL    HW136839   2.704   4.260   5.460  0.6262 -0.1762  0.5251
 8459SOL    HW236840   2.822   4.315   5.516 -1.7401 -1.3647  1.7944
 8460SOL     OW36841   1.395   1.568   2.475 -0.1474  0.0650  0.6916
 8460SOL    HW136842   1.350   1.488   2.448  0.6508 -0.0940 -0.1832
 8460SOL    HW236843   1.349   1.632   2.421 -2.9418 -0.3486  2.5877
 8461SOL     OW36844   2.589   1.920   0.367  0.9868  0.1274 -0.2600
 8461SOL    HW136845   2.585   1.857   0.439 -1.3816  0.0531 -0.4714
 8461SOL    HW236846   2.509   1.900   0.320  1.3481  1.2173 -1.3193
 8462SOL     OW36847   2.138   0.545   5.121 -0.2299  0.6670 -0.1325
 8462SOL    HW136848   2.138   0.626   5.172 -0.6465  0.2073  0.5974
 8462SOL    HW236849   2.102   0.576   5.037 -0.2455  1.9071  0.3328
 8463SOL     OW36850   0.583   4.026   8.881 -0.3356 -0.2774  0.0871
 8463SOL    HW136851   0.501   4.027   8.834  1.2705 -1.3599 -2.7092
 8463SOL    HW236852   0.605   3.933   8.880 -1.3546 -0.5080 -0.1143
 8464SOL     OW36853   4.214   3.885   7.415  0.3827 -0.8310  0.2070
 8464SOL    HW136854   4.264   3.888   7.334  0.2900 -0.1438  0.1737
 8464SOL    HW236855   4.237   3.970   7.454 -0.1713  0.4858 -2.3423
 8465SOL     OW36856   0.887   3.526   6.349 -0.1765 -0.1713  0.3450
 8465SOL    HW136857   0.953   3.594   6.335  1.9341 -1.7077  2.9402
 8465SOL    HW236858   0.813   3.557   6.297  2.2427  1.5641 -2.0868
 8466SOL     OW36859   3.092   0.565  12.928 -0.8150  0.4973 -0.4549
 8466SOL    HW136860   3.112   0.535  12.839  1.0241  0.2969  0.0223
 8466SOL    HW236861   2.998   0.553  12.938 -0.7848 -0.1527 -0.9379
 8467SOL     OW36862   1.502   2.080   5.683 -0.0586  0.4197 -0.8361
 8467SOL    HW136863   1.541   2.159   5.646 -1.4428  2.1333  1.3934
 8467SOL    HW236864   1.521   2.007   5.625  2.9384 -0.1508  0.8584
 8468SOL     OW36865   0.135   0.936   9.120 -0.0848 -0.5577  0.5061
 8468SOL    HW136866   0.050   0.930   9.165 -0.8744 -2.9585 -1.3152
 8468SOL    HW236867   0.173   0.848   9.126 -1.6442 -1.2995 -0.5358
 8469SOL     OW36868   2.119   1.910   5.215  0.2205  0.2583 -0.6584
 8469SOL    HW136869   2.085   1.992   5.253 -1.2307 -0.2219 -0.9262
 8469SOL    HW236870   2.045   1.887   5.160  2.0463  0.5517 -3.2171
 8470SOL     OW36871   2.156   3.685   8.443 -0.2890  0.0858 -0.0533
 8470SOL    HW136872   2.115   3.607   8.480  0.9384 -1.1351 -1.2276
 8470SOL    HW236873   2.092   3.713   8.377 -1.5854  1.3098  1.7525
 8471SOL     OW36874   4.502   3.333   6.779  0.0770  0.1322 -0.7638
 8471SOL    HW136875   4.567   3.402   6.777  0.4650 -0.2476 -1.1868
 8471SOL    HW236876   4.536   3.272   6.714  2.8496 -0.9884  1.7610
 8472SOL     OW36877   0.230   3.582   5.342  0.6156 -0.0401  0.0831
 8472SOL    HW136878   0.256   3.513   5.403 -0.7704  0.7735  1.5965
 8472SOL    HW236879   0.275   3.657   5.379  1.8574 -1.7854  2.0932
 8473SOL     OW36880   2.899   0.315   4.330  0.1068 -0.0335 -0.1142
 8473SOL    HW136881   2.935   0.278   4.249 -1.0395  1.0168 -1.1111
 8473SOL    HW236882   2.890   0.407   4.305  1.2600 -0.2054 -1.1496
 8474SOL     OW36883   3.922   0.388   5.334  0.0826  0.2045 -0.1885
 8474SOL    HW136884   3.914   0.425   5.246 -1.3496  2.6583  0.9660
 8474SOL    HW236885   3.840   0.413   5.377  1.1660  1.3955  1.1913
 8475SOL     OW36886   3.362   3.029   9.214 -0.0790  0.4816 -0.0790
 8475SOL    HW136887   3.374   3.124   9.221 -0.6965  0.4691  1.2015
 8475SOL    HW236888   3.357   3.014   9.120 -1.3548  1.2552 -0.1396
 8476SOL     OW36889   0.580   2.409  14.381 -0.0101 -0.2707 -0.2418
 8476SOL    HW136890   0.611   2.472  14.316 -0.9091  0.0991 -0.3057
 8476SOL    HW236891   0.537   2.463  14.447  0.3805 -1.1820  0.7600
 8477SOL     OW36892   1.426   2.980   5.953 -0.1697 -0.4356 -0.2971
 8477SOL    HW136893   1.448   3.003   6.044 -2.9245  2.2693 -0.3242
 8477SOL    HW236894   1.458   2.890   5.951  0.3624 -0.2315 -0.9329
 8478SOL     OW36895   0.986   0.621   0.440  0.6126 -0.4165 -0.1059
 8478SOL    HW136896   1.058   0.559   0.426 -0.3110 -2.0513  2.4008
 8478SOL    HW236897   1.034   0.695   0.476  0.3611 -2.4543  4.4807
 8479SOL     OW36898   2.550   2.538   5.838 -0.1317 -0.0099 -0.2653
 8479SOL    HW136899   2.558   2.446   5.862  1.4704  0.2439  0.1649
 8479SOL    HW236900   2.616   2.583   5.890  0.1581 -0.5489 -0.1744
 8480SOL     OW36901   3.490   2.924  14.729  0.0958  0.3851  0.2984
 8480SOL    HW136902   3.439   3.003  14.710  0.5468  0.6975  0.3685
 8480SOL    HW236903   3.410   2.873  14.740  0.2790  1.1002  4.7544
 8481SOL     OW36904   3.679   4.191   7.116 -0.2360  0.1517 -0.3116
 8481SOL    HW136905   3.741   4.125   7.146 -0.4310  0.1076 -0.0059
 8481SOL    HW236906   3.598   4.147   7.141  0.7117 -0.5582  1.5486
 8482SOL     OW36907   3.477   3.774   5.822  0.4359 -0.4259 -0.1394
 8482SOL    HW136908   3.543   3.820   5.769 -0.1011  2.5614  1.7814
 8482SOL    HW236909   3.397   3.826   5.816  0.9795  0.2693 -1.4007
 8483SOL     OW36910   4.630   3.642  12.691 -0.0303 -0.5119  0.2162
 8483SOL    HW136911   4.548   3.608  12.658 -1.6624  0.1458  3.5715
 8483SOL    HW236912   4.617   3.629  12.785 -2.4113 -0.0995 -0.0671
 8484SOL     OW36913   4.087   1.824   1.663  0.1896  0.3626  0.1194
 8484SOL    HW136914   4.078   1.771   1.584  0.1908 -1.7935  1.5385
 8484SOL    HW236915   4.006   1.875   1.656 -0.7750 -1.0772  0.7547
 8485SOL     OW36916   0.671   1.761   5.880 -0.4336 -0.3035  0.3165
 8485SOL    HW136917   0.765   1.747   5.892 -0.4979  0.3692  1.6763
 8485SOL    HW236918   0.655   1.739   5.789 -0.3105 -3.2333  0.9930
 8486SOL     OW36919   1.881   1.719   2.607 -0.1811  0.3136  0.3211
 8486SOL    HW136920   1.952   1.783   2.611  2.2745 -2.3807 -0.2392
 8486SOL    HW236921   1.835   1.738   2.689  0.2005  0.5164  0.4928
 8487SOL     OW36922   2.622   1.614  10.980 -0.3166  0.0319  0.1388
 8487SOL    HW136923   2.548   1.671  10.961 -0.6263  0.1186  1.6180
 8487SOL    HW236924   2.580   1.529  10.968 -0.8427  0.1489  1.1005
 8488SOL     OW36925   2.511   3.580   4.939 -0.3236  0.1702  0.3150
 8488SOL    HW136926   2.556   3.652   4.897  1.6428 -1.2705 -0.0347
 8488SOL    HW236927   2.419   3.603   4.926 -0.2782 -0.1712 -0.5479
 8489SOL     OW36928   1.205   0.553   2.617  0.0907  0.3889 -0.2891
 8489SOL    HW136929   1.129   0.497   2.631  0.2284  0.6516  1.5566
 8489SOL    HW236930   1.244   0.523   2.535  1.2293  0.8662  0.0699
 8490SOL     OW36931   3.564   2.109   8.796  0.1513 -0.3699 -0.7784
 8490SOL    HW136932   3.518   2.041   8.847  1.7462 -0.4617  0.5296
 8490SOL    HW236933   3.487   2.148   8.754 -0.3320 -0.1935  0.2572
 8491SOL     OW36934   3.640   1.391  11.741 -0.0796 -0.0281  0.4212
 8491SOL    HW136935   3.693   1.412  11.818 -3.1959  1.7028  2.1173
 8491SOL    HW236936   3.555   1.395  11.786 -1.5659  0.2343 -2.3633
 8492SOL     OW36937   4.452   1.973   3.259 -0.3790 -0.1657  0.1816
 8492SOL    HW136938   4.412   2.053   3.223  0.0833  0.3279  0.7781
 8492SOL    HW236939   4.488   1.939   3.177 -2.4950  1.0951 -1.2905
 8493SOL     OW36940   4.480   1.604   6.661  0.1621  0.2650 -0.1431
 8493SOL    HW136941   4.432   1.573   6.738  0.3412 -0.6092 -0.3898
 8493SOL    HW236942   4.410   1.616   6.598 -0.7995 -3.4455  0.2305
 8494SOL     OW36943   2.149   0.047   3.918 -0.1363 -0.0396  0.4476
 8494SOL    HW136944   2.147   0.088   3.831 -1.5350 -1.9568 -0.4312
 8494SOL    HW236945   2.105   0.114   3.969 -0.1528  0.0397  0.3300
 8495SOL     OW36946   3.041   0.025   8.804 -0.1163  0.1816  0.1992
 8495SOL    HW136947   3.013   0.001   8.716 -0.9793  0.2647  0.4423
 8495SOL    HW236948   3.093   0.102   8.783 -1.4270  0.8554 -0.6095
 8496SOL     OW36949   1.284   0.670   1.911 -0.1223 -0.3594 -0.0198
 8496SOL    HW136950   1.200   0.626   1.922 -0.8820  1.2360  0.6736
 8496SOL    HW236951   1.321   0.621   1.838  1.4987  0.3962  0.2988
 8497SOL     OW36952   3.792   2.006  11.023  0.0954 -0.2871  0.1457
 8497SOL    HW136953   3.721   2.044  10.971 -1.4275 -2.4108  0.6646
 8497SOL    HW236954   3.767   1.916  11.043  0.7008 -1.2002 -3.2922
 8498SOL     OW36955   4.580   4.423   5.015  0.7216  0.2940  0.9343
 8498SOL    HW136956   4.607   4.501   4.968 -0.7372  0.4778  0.3923
 8498SOL    HW236957   4.495   4.448   5.052 -0.9463 -2.8029 -0.8855
 8499SOL     OW36958   2.644   3.070   4.951 -0.0387  0.1729  0.2456
 8499SOL    HW136959   2.634   3.151   4.901  0.2956 -0.1896 -0.4063
 8499SOL    HW236960   2.722   3.033   4.910  1.2848  4.0813 -0.7805
 8500SOL     OW36961   3.921   4.453   9.930  0.3941 -0.1125  0.2696
 8500SOL    HW136962   3.980   4.378   9.920 -0.8643 -1.0584 -0.0566
 8500SOL    HW236963   3.834   4.414   9.926  0.8300 -0.9497 -1.0262
 8501SOL     OW36964   0.020   0.329   9.441 -0.1237  0.6563 -0.4189
 8501SOL    HW136965   0.074   0.295   9.370 -0.5137 -2.7214  0.9025
 8501SOL    HW236966   4.674   0.265   9.458  0.6924 -0.1627 -0.1130
 8502SOL     OW36967   1.928   2.256  15.051  0.3066  0.0394 -0.1076
 8502SOL    HW136968   1.919   2.351  15.048  1.0449  0.1031 -0.2531
 8502SOL    HW236969   2.021   2.250  15.030  0.4974  0.4374  0.5905
 8503SOL     OW36970   2.566   4.271   9.075  0.5955  0.1736  0.2606
 8503SOL    HW136971   2.513   4.202   9.115 -0.5367  0.6063 -0.4964
 8503SOL    HW236972   2.605   4.218   9.005  1.2565  1.4372 -0.3241
 8504SOL     OW36973   2.569   0.466   8.216 -0.6171 -0.0475  0.4174
 8504SOL    HW136974   2.564   0.506   8.303  0.2208 -0.3042  0.5777
 8504SOL    HW236975   2.550   0.376   8.245  0.3613  0.3743  2.3609
 8505SOL     OW36976   2.276   3.238   5.513 -0.0818 -0.1548 -0.3000
 8505SOL    HW136977   2.281   3.295   5.589 -0.8062  1.3530 -1.3710
 8505SOL    HW236978   2.368   3.211   5.509  0.3133  1.2168 -0.8260
 8506SOL     OW36979   3.340   1.239   6.026 -0.1149  0.2433  0.4949
 8506SOL    HW136980   3.418   1.263   6.077  1.5010 -0.5532 -1.6349
 8506SOL    HW236981   3.270   1.252   6.090  1.9587  1.6325  2.4930
 8507SOL     OW36982   0.392   2.089   4.907 -0.4536  0.0345  0.1940
 8507SOL    HW136983   0.331   2.159   4.883 -1.1452 -0.8448 -0.5927
 8507SOL    HW236984   0.436   2.090   4.822 -1.2829 -0.1719 -0.2438
 8508SOL     OW36985   1.446   3.965   2.536  0.3561  0.2017  0.4689
 8508SOL    HW136986   1.452   4.009   2.451 -0.9213  0.8368  0.7133
 8508SOL    HW236987   1.399   4.031   2.587 -0.4822 -1.0574  1.2921
 8509SOL     OW36988   2.156   4.582  16.401  0.4961 -0.4178 -0.1945
 8509SOL    HW136989   2.088   4.646  16.422  0.0451 -0.6942 -0.8188
 8509SOL    HW236990   2.106   4.519  16.348 -0.4900  0.3047 -0.1165
 8510SOL     OW36991   2.586   0.662   8.021 -0.6624 -0.1310 -0.1179
 8510SOL    HW136992   2.630   0.590   7.978 -2.1319 -0.7975 -0.4954
 8510SOL    HW236993   2.559   0.620   8.103 -1.8388  0.5648 -0.1507
 8511SOL     OW36994   4.676   3.560   6.927  0.5980 -0.5017 -0.3303
 8511SOL    HW136995   0.003   3.603   6.996 -1.3114  0.8700  0.2203
 8511SOL    HW236996   4.583   3.568   6.950  0.4835  0.6930 -1.2095
 8512SOL     OW36997   2.321   0.721   9.908  0.3367 -0.8076  0.2690
 8512SOL    HW136998   2.332   0.640   9.957  2.5440  0.3854  1.7475
 8512SOL    HW236999   2.226   0.731   9.920  0.2827 -0.3793 -0.5046
 8513SOL     OW37000   3.872   0.162  12.917 -0.0916  0.1171 -0.7357
 8513SOL    HW137001   3.902   0.132  12.831 -0.3005 -1.1007 -0.3794
 8513SOL    HW237002   3.848   0.079  12.958  0.1522 -0.3611 -1.5587
 8514SOL     OW37003   0.119   2.589   8.639 -0.3952 -0.2419  0.1834
 8514SOL    HW137004   0.104   2.498   8.663 -0.6665 -0.3802 -0.5010
 8514SOL    HW237005   0.164   2.627   8.715 -2.2359  3.9557 -0.8050
 8515SOL     OW37006   1.797   3.903   8.530  0.0662 -0.6577 -0.0920
 8515SOL    HW137007   1.782   3.984   8.580 -0.4973  0.2735 -1.7648
 8515SOL    HW237008   1.848   3.849   8.590 -0.0701 -0.6496  0.0321
 8516SOL     OW37009   0.235   1.110  15.008 -0.2897 -0.2546  0.2286
 8516SOL    HW137010   0.247   1.020  14.978  0.6066  0.4311 -1.5086
 8516SOL    HW237011   0.209   1.148  14.924 -0.8046 -2.3254 -0.5633
 8517SOL     OW37012   1.576   0.992   0.597  0.0636  0.1710 -0.2573
 8517SOL    HW137013   1.574   1.032   0.511  2.9039  1.3977  0.2588
 8517SOL    HW237014   1.662   1.011   0.634 -0.2509 -2.7837  2.0373
 8518SOL     OW37015   0.236   0.544   4.707  0.1176  0.0915  0.4950
 8518SOL    HW137016   0.208   0.459   4.674  0.6121 -0.3398  1.1915
 8518SOL    HW237017   0.305   0.564   4.643  0.6065 -1.8969  0.4091
 8519SOL     OW37018   3.515   3.400   9.721  0.3930 -0.5542  0.3542
 8519SOL    HW137019   3.482   3.371   9.806 -0.2185 -1.9588 -0.3557
 8519SOL    HW237020   3.597   3.350   9.723  0.9152  0.1606 -2.5562
 8520SOL     OW37021   1.418   3.229   0.505  0.3638 -0.1959 -0.5395
 8520SOL    HW137022   1.484   3.250   0.571 -0.1243  2.7080 -0.9531
 8520SOL    HW237023   1.388   3.319   0.489 -0.3472 -0.1547  1.0108
 8521SOL     OW37024   3.180   3.305  12.629  0.1647 -0.1891 -0.0502
 8521SOL    HW137025   3.136   3.326  12.711 -1.7455  0.0672 -1.1267
 8521SOL    HW237026   3.263   3.269  12.659 -1.5873 -3.1891  1.1641
 8522SOL     OW37027   0.502   3.161  16.683 -1.0170 -0.4024  0.3754
 8522SOL    HW137028   0.512   3.129  16.773 -0.8279 -0.6529  0.2650
 8522SOL    HW237029   0.584   3.136  16.641 -2.0499 -2.2736 -0.4768
 8523SOL     OW37030   2.076   0.221  17.249  0.0663 -0.3327 -0.0954
 8523SOL    HW137031   2.028   0.303  17.236  1.1643  0.1347 -1.1503
 8523SOL    HW237032   2.162   0.259  17.231  1.1417 -1.0775  3.4306
 8524SOL     OW37033   4.188   1.310   2.808 -0.1615  0.1904  0.8593
 8524SOL    HW137034   4.119   1.341   2.749  1.0696  0.1741 -0.5842
 8524SOL    HW237035   4.253   1.376   2.786 -0.8919 -0.5088 -3.4849
 8525SOL     OW37036   1.683   4.485   7.565 -0.9198 -0.1196  0.7395
 8525SOL    HW137037   1.744   4.411   7.563  0.6739  1.2845 -1.3063
 8525SOL    HW237038   1.597   4.443   7.574 -1.3120  0.3497 -0.8602
 8526SOL     OW37039   2.307   1.716   3.532 -0.8278 -0.1496  0.3754
 8526SOL    HW137040   2.294   1.624   3.558 -3.0131  0.3166  0.9680
 8526SOL    HW237041   2.271   1.766   3.605  1.3586  0.0492  1.2970
 8527SOL     OW37042   3.218   3.923   3.275 -0.0746 -0.4081 -0.3148
 8527SOL    HW137043   3.261   3.963   3.200  0.2859  2.5269  1.4434
 8527SOL    HW237044   3.136   3.897   3.232 -0.8056 -1.8328  1.9055
 8528SOL     OW37045   0.920   3.590  13.803  0.3917 -0.6185  0.3098
 8528SOL    HW137046   0.971   3.596  13.722 -2.6231  1.0334 -1.5001
 8528SOL    HW237047   0.909   3.683  13.822 -0.6310 -0.5499 -0.5915
 8529SOL     OW37048   2.824   4.646   4.756  0.1845  0.0829  0.8614
 8529SOL    HW137049   2.745   4.607   4.719 -0.3732  0.5751  1.5655
 8529SOL    HW237050   2.860   4.687   4.677 -2.0752 -0.6943 -0.5827
 8530SOL     OW37051   0.953   2.942   6.690  0.9329 -0.7140  0.4716
 8530SOL    HW137052   1.004   2.884   6.634  2.5914  1.7325 -0.5811
 8530SOL    HW237053   1.009   2.972   6.761  0.8409 -1.3260  0.7987
 8531SOL     OW37054   1.856   1.135   2.921 -0.0051 -0.4600  0.1078
 8531SOL    HW137055   1.916   1.061   2.911  0.0486 -0.5291  0.9398
 8531SOL    HW237056   1.888   1.186   2.847 -0.8261  1.2946  0.9692
 8532SOL     OW37057   2.628   0.717   1.842 -0.5919  0.2654 -0.2937
 8532SOL    HW137058   2.552   0.766   1.809 -0.0651  0.2549 -1.5155
 8532SOL    HW237059   2.581   0.636   1.859 -0.8625  0.3973 -0.4044
 8533SOL     OW37060   1.577   4.660   2.079 -0.2324  0.2326 -0.0376
 8533SOL    HW137061   1.528   0.018   2.078  0.9296  0.9291 -0.5077
 8533SOL    HW237062   1.657   4.692   2.037  0.1661 -1.9774 -0.9887
 8534SOL     OW37063   3.667   2.523  14.103  0.3494  0.5612  0.4409
 8534SOL    HW137064   3.585   2.478  14.124  1.0134 -0.8040  0.1242
 8534SOL    HW237065   3.641   2.590  14.040  2.7813  1.6326  0.5776
 8535SOL     OW37066   0.281   2.674  11.580 -0.2645  0.4603 -0.0852
 8535SOL    HW137067   0.358   2.727  11.597  1.3620 -1.0140 -2.8616
 8535SOL    HW237068   0.210   2.716  11.628  0.2641 -1.7015  2.5567
 8536SOL     OW37069   4.423   1.826   6.292  0.2983 -0.7984  0.3290
 8536SOL    HW137070   4.474   1.907   6.297 -1.7808  0.3072  4.2206
 8536SOL    HW237071   4.487   1.772   6.245  0.1797  0.5584 -1.3673
 8537SOL     OW37072   0.572   0.544  13.137 -0.8367  0.1420  0.1136
 8537SOL    HW137073   0.514   0.567  13.209 -2.5436 -0.5221 -1.0553
 8537SOL    HW237074   0.517   0.521  13.062  1.0826  1.1219 -1.6203
 8538SOL     OW37075   4.685   0.769   6.359  0.3964  0.0544 -0.5376
 8538SOL    HW137076   4.599   0.791   6.393  1.2758  0.8792  1.1282
 8538SOL    HW237077   4.669   0.676   6.375 -0.7007  0.3910  0.2753
 8539SOL     OW37078   3.074   3.746   3.575  0.5065 -0.2048  0.2540
 8539SOL    HW137079   3.128   3.787   3.508  1.6438 -2.3777 -0.1478
 8539SOL    HW237080   3.096   3.653   3.567  0.1682 -0.1678 -1.0212
 8540SOL     OW37081   4.556   1.116   5.269  0.4529  0.1940 -0.2264
 8540SOL    HW137082   4.639   1.135   5.312 -0.3052  0.2115  1.2342
 8540SOL    HW237083   4.505   1.197   5.262 -0.8401 -0.8857 -3.1390
 8541SOL     OW37084   2.152   2.960   6.379  0.2486 -0.2862 -0.2030
 8541SOL    HW137085   2.081   2.956   6.443  0.7042  1.1891  0.3899
 8541SOL    HW237086   2.212   2.897   6.421 -1.9775 -1.9057  0.5546
 8542SOL     OW37087   0.376   3.008  10.805 -0.3312  0.0948  0.6780
 8542SOL    HW137088   0.308   2.948  10.837 -2.5997  2.6407  0.6257
 8542SOL    HW237089   0.372   3.065  10.881  0.6949 -0.4546  1.1447
 8543SOL     OW37090   4.049   0.609  13.766 -0.1871 -0.3205 -0.2275
 8543SOL    HW137091   3.966   0.652  13.747 -0.0166 -0.0618 -0.3752
 8543SOL    HW237092   4.049   0.629  13.860  1.0615  4.2372 -1.2241
 8544SOL     OW37093   3.737   3.613  17.126  0.6836 -0.1998  0.5519
 8544SOL    HW137094   3.648   3.641  17.105  1.3737  1.4749 -0.1211
 8544SOL    HW237095   3.782   3.627  17.043 -0.0808 -1.7573 -0.1392
 8545SOL     OW37096   3.620   1.514   4.053 -0.4296 -0.2942 -1.0094
 8545SOL    HW137097   3.581   1.596   4.021 -1.4145  0.6865  2.7865
 8545SOL    HW237098   3.708   1.544   4.031 -0.6044  1.7113  1.0677
 8546SOL     OW37099   4.563   3.916  12.266  0.4747  0.2095  0.2696
 8546SOL    HW137100   4.555   3.824  12.291  0.7579 -0.0993 -0.7755
 8546SOL    HW237101   4.480   3.948  12.301  0.8794  0.3312  1.1084
 8547SOL     OW37102   0.566   0.386   8.534  0.4096  0.2284  0.4788
 8547SOL    HW137103   0.539   0.362   8.445  1.4338 -0.3838  0.3300
 8547SOL    HW237104   0.649   0.424   8.508  0.6624 -0.8464 -0.3232
 8548SOL     OW37105   0.970   0.495   7.364  0.7053  0.2352  0.0145
 8548SOL    HW137106   0.972   0.460   7.275  2.4778 -0.1776  0.2171
 8548SOL    HW237107   1.051   0.451   7.391  1.4513  2.1248  0.9312
 8549SOL     OW37108   2.469   1.422   3.024  0.0872 -0.4268  0.8173
 8549SOL    HW137109   2.465   1.485   3.096  0.1358  0.4064  0.0927
 8549SOL    HW237110   2.562   1.432   3.004  0.5540 -1.1760  2.6344
 8550SOL     OW37111   0.136   2.811  15.132 -0.5899 -0.2978  0.2643
 8550SOL    HW137112   0.212   2.863  15.107 -0.8568  0.4825  1.1129
 8550SOL    HW237113   0.138   2.747  15.061 -3.3627 -0.8401  0.6753
 8551SOL     OW37114   1.063   1.268   3.689 -0.1435  0.6311  0.6158
 8551SOL    HW137115   1.004   1.205   3.649 -1.3561  1.6776  0.7510
 8551SOL    HW237116   1.007   1.344   3.706  0.9275  1.1775  1.7422
 8552SOL     OW37117   0.312   4.567   6.378  0.0333  0.4161  0.0568
 8552SOL    HW137118   0.243   4.579   6.313  1.2553 -0.0368 -1.3408
 8552SOL    HW237119   0.265   4.587   6.459 -0.5955  0.5527 -0.3410
 8553SOL     OW37120   0.689   4.054  10.698 -0.4214  0.4275  0.5472
 8553SOL    HW137121   0.763   4.107  10.726 -1.7018  2.3503  0.3040
 8553SOL    HW237122   0.635   4.075  10.775  0.0237  1.2750  0.6323
 8554SOL     OW37123   1.293   3.152   4.030 -0.5037 -0.1232 -0.0158
 8554SOL    HW137124   1.383   3.183   4.041 -0.6103 -0.1206  0.8301
 8554SOL    HW237125   1.250   3.218   4.085  0.2984 -0.1603  0.6554
 8555SOL     OW37126   2.371   2.272   9.804 -0.3916 -0.3368 -0.2104
 8555SOL    HW137127   2.356   2.268   9.898 -0.0408 -0.0379 -0.1421
 8555SOL    HW237128   2.316   2.348   9.784 -0.8721 -0.6213  0.0387
 8556SOL     OW37129   2.378   0.224  13.823  0.2769 -0.2437  0.5349
 8556SOL    HW137130   2.293   0.195  13.791  1.1140 -1.4471 -0.6246
 8556SOL    HW237131   2.419   0.140  13.844  2.0922  0.7002  0.7971
 8557SOL     OW37132   3.899   4.019   8.781 -0.4224  0.8229  0.9734
 8557SOL    HW137133   3.836   3.960   8.823  0.9776 -1.4456 -0.1408
 8557SOL    HW237134   3.928   4.066   8.860 -1.4366  0.7702  1.3727
 8558SOL     OW37135   4.106   3.817   4.010 -0.7015 -0.1254  0.0727
 8558SOL    HW137136   4.061   3.732   4.002 -0.2262 -0.3291 -0.4231
 8558SOL    HW237137   4.031   3.868   4.041 -0.8648 -0.4251  0.1797
 8559SOL     OW37138   3.125   3.763  10.082 -0.2260  0.6765 -0.5440
 8559SOL    HW137139   3.077   3.778  10.001 -1.1274 -1.1944 -0.3738
 8559SOL    HW237140   3.115   3.836  10.143 -0.6711  0.2553 -0.1117
 8560SOL     OW37141   1.511   3.738  13.863 -0.4037 -0.3342 -0.2051
 8560SOL    HW137142   1.506   3.779  13.949 -1.0274 -1.8102  0.4469
 8560SOL    HW237143   1.581   3.788  13.820 -3.3241  3.3585 -0.7062
 8561SOL     OW37144   2.393   1.092   9.369  0.0896  0.2674 -1.0472
 8561SOL    HW137145   2.352   1.024   9.423  1.3184  0.2195 -0.1721
 8561SOL    HW237146   2.334   1.167   9.368  0.8514  0.8643 -2.1473
 8562SOL     OW37147   2.142   3.934   8.952  0.4337  0.0868 -0.0902
 8562SOL    HW137148   2.153   4.008   8.893  0.4867 -0.6761 -1.0468
 8562SOL    HW237149   2.170   3.863   8.894 -2.0041 -0.9337 -0.0360
 8563SOL     OW37150   0.802   0.662   4.257 -0.1604  0.2585 -0.6242
 8563SOL    HW137151   0.841   0.745   4.230  0.9086  0.4820  1.6225
 8563SOL    HW237152   0.762   0.694   4.338 -0.0505 -1.6752  0.1977
 8564SOL     OW37153   1.566   2.125   7.361 -0.1165 -0.3524 -0.5230
 8564SOL    HW137154   1.624   2.173   7.421 -0.6873 -0.3229  0.0007
 8564SOL    HW237155   1.493   2.186   7.354 -0.6048 -0.7184  1.4795
 8565SOL     OW37156   0.767   0.635   8.201 -0.0672  0.1371  0.5516
 8565SOL    HW137157   0.751   0.541   8.187  2.8909 -0.1341 -0.9818
 8565SOL    HW237158   0.756   0.636   8.297  0.3865 -3.6768  0.6337
 8566SOL     OW37159   0.445   3.934   6.107  0.1986  0.3735  0.1915
 8566SOL    HW137160   0.397   4.009   6.143 -0.3829 -0.3196  0.8795
 8566SOL    HW237161   0.410   3.864   6.162  0.8902  0.2571  0.4738
 8567SOL     OW37162   4.373   0.625   2.877 -0.4909 -0.1132 -0.2084
 8567SOL    HW137163   4.309   0.690   2.904 -0.6592 -0.6338  0.6537
 8567SOL    HW237164   4.452   0.657   2.921 -1.0443  0.8654  0.0650
 8568SOL     OW37165   3.743   4.293   2.490  0.4884  0.1785 -0.4179
 8568SOL    HW137166   3.666   4.236   2.498 -0.7112  1.8042 -0.4612
 8568SOL    HW237167   3.764   4.285   2.397  0.8794 -3.4428 -0.0195
 8569SOL     OW37168   2.793   2.260  12.239 -0.3134  0.9870  0.6931
 8569SOL    HW137169   2.845   2.332  12.275  0.5499  0.5817  0.2699
 8569SOL    HW237170   2.815   2.266  12.146  1.5187 -1.0045  0.9932
 8570SOL     OW37171   3.112   1.283   3.667 -0.2797  0.6154  0.0652
 8570SOL    HW137172   3.033   1.284   3.613 -1.4342  1.1656  1.7600
 8570SOL    HW237173   3.101   1.356   3.727 -0.4014  0.2384  0.5010
 8571SOL     OW37174   1.310   0.899  15.112 -0.0405  0.1883  0.4026
 8571SOL    HW137175   1.359   0.958  15.055 -0.3219 -1.7341 -1.8227
 8571SOL    HW237176   1.221   0.902  15.078 -0.0700  1.9318  0.6150
 8572SOL     OW37177   0.931   2.924   3.309 -0.5107 -0.1815  0.4087
 8572SOL    HW137178   0.924   2.831   3.329 -1.1895 -0.0080  0.9884
 8572SOL    HW237179   0.949   2.916   3.215 -0.6358 -0.1178  0.3791
 8573SOL     OW37180   1.649   1.304   3.969 -0.9318 -0.1864 -0.5227
 8573SOL    HW137181   1.621   1.274   3.882 -0.4566  0.0189 -0.7441
 8573SOL    HW237182   1.575   1.275   4.023 -0.3535  3.2350  2.0604
 8574SOL     OW37183   1.628   0.802   2.688 -0.0173 -0.0021  0.4831
 8574SOL    HW137184   1.577   0.722   2.677  0.5196 -0.0591 -1.5506
 8574SOL    HW237185   1.718   0.770   2.701  0.4237  1.8037  1.9594
 8575SOL     OW37186   2.107   3.876   5.773  0.1011 -0.1091 -0.2888
 8575SOL    HW137187   2.202   3.861   5.766  0.4866  2.0409  0.1391
 8575SOL    HW237188   2.085   3.877   5.680 -1.3636  1.1388  0.0621
 8576SOL     OW37189   2.234   1.045   0.061  0.5233 -0.0076 -0.0226
 8576SOL    HW137190   2.267   1.129   0.028  2.3794 -0.4700  0.6617
 8576SOL    HW237191   2.185   1.016  17.681 -0.8951  0.2252  0.8062
 8577SOL     OW37192   2.523   4.020  17.415 -0.0324 -0.1475  0.3734
 8577SOL    HW137193   2.575   3.970  17.352 -2.1880 -0.6733 -1.0021
 8577SOL    HW237194   2.551   3.970  17.491  2.6807 -1.3602 -1.4206
 8578SOL     OW37195   4.676   0.465   1.433 -0.0534  0.2368 -0.2404
 8578SOL    HW137196   4.601   0.437   1.380 -1.6755  3.4941  0.3261
 8578SOL    HW237197   4.688   0.554   1.400 -2.0627  1.0817  1.3196
 8579SOL     OW37198   1.068   1.819   6.823 -0.1198  0.7229 -0.3985
 8579SOL    HW137199   0.984   1.862   6.810 -0.6201 -0.2036 -0.1933
 8579SOL    HW237200   1.076   1.821   6.918 -2.1415  0.5091 -0.2248
 8580SOL     OW37201   2.785   3.865   5.332 -0.3178  0.2950  0.0172
 8580SOL    HW137202   2.802   3.776   5.300  2.5377  0.8639 -0.0347
 8580SOL    HW237203   2.769   3.919   5.255 -0.1721 -3.0727 -2.4227
 8581SOL     OW37204   0.380   4.360   4.749 -0.2857 -0.0108  0.2747
 8581SOL    HW137205   0.373   4.391   4.839  0.7161  0.8550  0.0544
 8581SOL    HW237206   0.434   4.430   4.712 -0.9182  0.6162  0.5292
 8582SOL     OW37207   0.052   0.907   2.282  0.1820 -0.1959 -0.9372
 8582SOL    HW137208   0.033   0.912   2.376 -2.4395 -0.2088 -1.4834
 8582SOL    HW237209   0.001   0.976   2.241 -1.1472  2.0301  4.4001
 8583SOL     OW37210   4.300   1.853   6.761 -0.0860 -0.1725 -0.1374
 8583SOL    HW137211   4.321   1.890   6.847 -2.3063  1.1473 -0.1553
 8583SOL    HW237212   4.212   1.816   6.773 -0.8713  1.3441 -1.2712
 8584SOL     OW37213   4.456   0.286   2.666  0.2272  0.2857  0.2538
 8584SOL    HW137214   4.376   0.331   2.641 -0.7595 -0.9087  1.3106
 8584SOL    HW237215   4.470   0.233   2.587 -0.1096  0.4099  0.1103
 8585SOL     OW37216   1.841   0.453   0.735  0.6500 -0.2229 -0.3223
 8585SOL    HW137217   1.755   0.433   0.770  0.7081  0.9960  0.5204
 8585SOL    HW237218   1.808   0.506   0.662 -3.5866  0.0638  1.8384
 8586SOL     OW37219   1.805   4.686   7.850  0.0993  0.2997  0.2634
 8586SOL    HW137220   1.796   4.660   7.942 -0.1544  0.1757  0.2038
 8586SOL    HW237221   1.820   4.603   7.804 -3.1045 -1.7822  2.8619
 8587SOL     OW37222   2.587   0.300   4.358 -0.3029  0.1357  0.1910
 8587SOL    HW137223   2.670   0.279   4.402 -0.7185 -2.2197 -0.1662
 8587SOL    HW237224   2.515   0.259   4.405  0.9851 -2.1314  0.1714
 8588SOL     OW37225   0.918   4.447  16.503  0.0954 -0.7047  0.3561
 8588SOL    HW137226   0.996   4.444  16.558  0.5375  2.1639 -0.1345
 8588SOL    HW237227   0.936   4.535  16.471 -2.3850 -0.5360 -0.5934
 8589SOL     OW37228   2.930   2.883   9.147  0.1745  0.0217 -0.3579
 8589SOL    HW137229   2.966   2.795   9.139  0.2040  0.0710 -0.7846
 8589SOL    HW237230   2.992   2.918   9.211 -0.2224 -0.2019  0.1420
 8590SOL     OW37231   4.346   2.813   5.427  0.0713 -0.3628 -0.0747
 8590SOL    HW137232   4.438   2.786   5.419  0.2810  0.4841 -0.5647
 8590SOL    HW237233   4.310   2.756   5.495  0.9219  1.0898  1.6035
 8591SOL     OW37234   2.872   3.689   8.659  0.4510 -0.2316 -0.2379
 8591SOL    HW137235   2.948   3.679   8.717  0.7959 -0.0230 -0.6472
 8591SOL    HW237236   2.803   3.657   8.717 -0.8072 -0.4222 -1.8286
 8592SOL     OW37237   2.574   4.497   6.018 -0.2930 -0.2484  0.2031
 8592SOL    HW137238   2.577   4.526   5.926  0.9953  0.9566  0.6095
 8592SOL    HW237239   2.656   4.448   6.012 -0.6065 -0.8324  0.7480
 8593SOL     OW37240   0.288   1.996  10.377 -0.6682 -0.5747 -0.8214
 8593SOL    HW137241   0.324   2.066  10.431 -2.4176 -0.3042 -0.0096
 8593SOL    HW237242   0.335   1.924  10.418  0.3401  0.6673  0.2288
 8594SOL     OW37243   2.751   1.606   1.622  0.5188  0.6457 -0.2825
 8594SOL    HW137244   2.812   1.604   1.548  0.4206  2.1537 -0.3942
 8594SOL    HW237245   2.699   1.526   1.611  1.3284 -0.0024  0.6129
 8595SOL     OW37246   1.512   0.899   6.426  0.5592  0.0003  0.1604
 8595SOL    HW137247   1.561   0.833   6.376  1.1000  0.2898  0.3127
 8595SOL    HW237248   1.446   0.841   6.463  0.5582 -0.6421 -0.8508
 8596SOL     OW37249   4.129   4.201   2.702  0.5115 -0.3553 -0.3204
 8596SOL    HW137250   4.072   4.277   2.712  0.3686 -0.9678  3.8507
 8596SOL    HW237251   4.202   4.233   2.755 -0.3227  2.5875 -0.9630
 8597SOL     OW37252   4.724   1.445   5.937 -0.3817 -0.1047  0.2533
 8597SOL    HW137253   0.018   1.352   5.925  4.4496  1.1027 -1.8316
 8597SOL    HW237254   4.684   1.443   6.024 -0.1732 -0.4171  0.3397
 8598SOL     OW37255   4.608   2.063   4.166 -0.2694 -0.5348 -0.4809
 8598SOL    HW137256   4.650   1.981   4.143 -2.1144 -1.7228  0.3551
 8598SOL    HW237257   4.551   2.077   4.091  0.1972 -0.7814 -0.8816
 8599SOL     OW37258   0.274   3.818   3.383  0.2852  0.2072  0.1790
 8599SOL    HW137259   0.221   3.766   3.442  2.1296 -3.0499 -1.0566
 8599SOL    HW237260   0.246   3.908   3.402  2.7993  0.8624  0.8143
 8600SOL     OW37261   2.549   1.749   2.378 -0.5043 -0.8837  0.1975
 8600SOL    HW137262   2.507   1.678   2.428  1.3584 -1.5589  0.7914
 8600SOL    HW237263   2.588   1.697   2.307  1.4815 -1.5606  1.7953
 8601SOL     OW37264   1.595   1.322   4.386 -0.1069  0.0341  0.1768
 8601SOL    HW137265   1.685   1.323   4.353 -0.4318  0.7258 -0.6779
 8601SOL    HW237266   1.586   1.397   4.445 -0.5528 -0.1832  0.3821
 8602SOL     OW37267   3.522   0.018   5.208  0.6160  0.3847  0.5627
 8602SOL    HW137268   3.478   4.684   5.147  2.0125  1.1920 -1.2014
 8602SOL    HW237269   3.459   0.020   5.280  0.0815  1.6511  0.0514
 8603SOL     OW37270   3.195   1.972   4.512  0.1023 -1.0463 -0.1101
 8603SOL    HW137271   3.174   2.017   4.594 -0.2892  0.1791 -0.8872
 8603SOL    HW237272   3.258   1.907   4.543  0.4528 -0.8130 -0.3442
 8604SOL     OW37273   0.888   2.727   7.587  0.1231 -0.6237  0.4915
 8604SOL    HW137274   0.837   2.773   7.520 -0.9140  0.4735  2.0201
 8604SOL    HW237275   0.879   2.634   7.567 -0.3220 -0.3839 -0.4224
 8605SOL     OW37276   3.912   1.892   7.138  0.3323  0.8783 -0.5842
 8605SOL    HW137277   3.973   1.821   7.159 -0.0037  0.7881  0.0867
 8605SOL    HW237278   3.872   1.903   7.224 -1.0633 -4.2760 -0.6015
 8606SOL     OW37279   3.952   1.479  10.043  0.1160 -0.1836 -0.1095
 8606SOL    HW137280   3.976   1.572  10.043 -2.0453  0.3765 -0.3191
 8606SOL    HW237281   4.014   1.452  10.111 -0.3365  2.4070  1.3336
 8607SOL     OW37282   4.184   4.418  10.522  1.1715  0.2302  0.7044
 8607SOL    HW137283   4.120   4.396  10.455  2.6905  0.4423 -0.8163
 8607SOL    HW237284   4.129   4.472  10.578  0.4292 -0.1516  0.3324
 8608SOL     OW37285   3.257   3.911   8.948 -0.1328 -0.0816  0.2012
 8608SOL    HW137286   3.330   3.946   8.998  1.9739 -1.9492 -1.6040
 8608SOL    HW237287   3.216   3.993   8.919 -1.3607 -0.5914  0.4994
 8609SOL     OW37288   0.361   1.106  14.213  0.4218  0.0683 -0.0771
 8609SOL    HW137289   0.280   1.134  14.171 -0.0976 -1.4482 -0.0752
 8609SOL    HW237290   0.433   1.133  14.155  1.4911  3.0893  2.6245
 8610SOL     OW37291   4.219   2.557   8.023 -0.2327 -0.1064  0.4708
 8610SOL    HW137292   4.185   2.645   8.043  2.8268  1.0674  0.5285
 8610SOL    HW237293   4.263   2.542   8.106 -0.5726 -0.1990  0.6338
 8611SOL     OW37294   1.823   2.879   4.217  0.5002 -0.0001  0.2918
 8611SOL    HW137295   1.840   2.787   4.196  0.5364 -0.6630  3.2305
 8611SOL    HW237296   1.864   2.924   4.143 -1.0269 -0.4077 -0.7979
 8612SOL     OW37297   2.775   4.355   9.222 -0.4397  0.2233  0.1821
 8612SOL    HW137298   2.683   4.373   9.238 -0.7484 -0.2139 -1.1106
 8612SOL    HW237299   2.794   4.388   9.134 -3.1078  0.1821 -0.3954
 8613SOL     OW37300   3.484   4.136  11.750  0.3119 -0.8907 -0.3001
 8613SOL    HW137301   3.478   4.106  11.841 -0.9352 -1.0536 -0.4313
 8613SOL    HW237302   3.467   4.060  11.694 -2.6657 -0.3893 -0.0785
 8614SOL     OW37303   3.668   0.426  14.506 -0.1083 -0.0611  0.4887
 8614SOL    HW137304   3.732   0.386  14.565 -0.2458 -0.7566  0.1630
 8614SOL    HW237305   3.720   0.467  14.436  0.2546 -2.3267 -0.5731
 8615SOL     OW37306   4.343   3.874   4.117 -0.4117 -0.1876 -0.3779
 8615SOL    HW137307   4.323   3.942   4.181  0.7706 -1.0879  0.9469
 8615SOL    HW237308   4.261   3.875   4.067 -0.5052 -1.4954 -0.2411
 8616SOL     OW37309   1.870   2.667   0.002 -0.1268  0.2600  0.3311
 8616SOL    HW137310   1.965   2.661  17.686 -0.1391  1.2686 -0.2742
 8616SOL    HW237311   1.856   2.761   0.017  0.1098  0.7809 -2.8741
 8617SOL     OW37312   4.619   2.180   4.549  0.0533  0.7295 -0.2279
 8617SOL    HW137313   4.549   2.149   4.491  0.0177 -0.9531  0.7208
 8617SOL    HW237314   4.672   2.100   4.552  1.7341  1.8111 -1.4063
 8618SOL     OW37315   1.726   3.705   1.224  0.4068  0.1640 -0.2342
 8618SOL    HW137316   1.642   3.682   1.182 -0.3824  0.7977  1.0014
 8618SOL    HW237317   1.786   3.682   1.153  0.9726  3.3237 -0.7521
 8619SOL     OW37318   0.677   3.821  11.451  0.0481 -0.6367 -0.2815
 8619SOL    HW137319   0.652   3.729  11.439 -2.1980 -0.0830  0.1834
 8619SOL    HW237320   0.637   3.827  11.538 -1.9433  0.9429 -1.3073
 8620SOL     OW37321   2.942   3.048   8.902 -0.1586 -0.3730 -0.1064
 8620SOL    HW137322   2.935   3.017   8.992  1.4218 -0.3194  0.0287
 8620SOL    HW237323   3.025   3.009   8.874 -0.5952  1.4324 -3.9424
 8621SOL     OW37324   1.499   3.624  11.555  0.3087  0.1160  0.0605
 8621SOL    HW137325   1.584   3.618  11.600  0.1518 -1.3308  0.1435
 8621SOL    HW237326   1.439   3.669  11.615 -1.1978 -0.8469 -0.7333
 8622SOL     OW37327   3.518   4.696   6.242 -0.5458  0.2776  0.0604
 8622SOL    HW137328   3.496   4.686   6.149 -1.7763 -0.5012  0.4344
 8622SOL    HW237329   3.434   4.702   6.288 -0.2074 -0.2901  0.7499
 8623SOL     OW37330   2.288   0.997   3.052  0.5470 -0.0119 -0.4386
 8623SOL    HW137331   2.382   1.015   3.054  0.2742  1.8529 -4.1997
 8623SOL    HW237332   2.252   1.080   3.083  0.4439 -0.3996  0.4931
 8624SOL     OW37333   2.238   2.239   4.066  0.4449  0.3394 -0.0509
 8624SOL    HW137334   2.205   2.150   4.067 -3.6515  1.9104  2.3765
 8624SOL    HW237335   2.204   2.277   3.985 -1.7073 -2.5468 -0.4981
 8625SOL     OW37336   1.737   0.302  10.314 -0.0641  0.2271 -0.9204
 8625SOL    HW137337   1.644   0.291  10.296 -0.0147 -1.0049 -0.4446
 8625SOL    HW237338   1.753   0.396  10.317 -1.8432  0.3731  3.5452
 8626SOL     OW37339   1.733   1.322   3.077 -0.2710 -0.0795 -0.5748
 8626SOL    HW137340   1.705   1.401   3.031 -0.1776  0.4541  0.2831
 8626SOL    HW237341   1.772   1.266   3.010 -0.9320 -1.2036 -0.0185
 8627SOL     OW37342   3.283   1.607  16.321 -0.2785  0.0359 -0.2326
 8627SOL    HW137343   3.269   1.582  16.412  2.2184  1.0876  0.4486
 8627SOL    HW237344   3.203   1.582  16.276 -0.3977 -0.4003  0.2219
 8628SOL     OW37345   2.134   2.931  16.461 -0.1986 -0.4184  0.3086
 8628SOL    HW137346   2.216   2.923  16.413 -0.4735  2.9774 -0.7453
 8628SOL    HW237347   2.079   2.950  16.385 -0.7145  0.6574  0.9511
 8629SOL     OW37348   1.578   0.779   8.130  0.9732 -0.1644  0.2077
 8629SOL    HW137349   1.566   0.770   8.036 -0.2360 -0.5299  0.3942
 8629SOL    HW237350   1.641   0.710   8.152 -1.7785 -2.2040  1.6504
 8630SOL     OW37351   0.862   3.780   2.357 -0.4515  0.1400  0.1395
 8630SOL    HW137352   0.853   3.694   2.316 -1.4071  0.8064 -1.0455
 8630SOL    HW237353   0.793   3.780   2.423  0.6174 -2.2704  1.2706
 8631SOL     OW37354   3.860   1.535   3.921  0.0812  0.2298  0.4150
 8631SOL    HW137355   3.912   1.467   3.876  0.5079  0.4551  0.5651
 8631SOL    HW237356   3.935   1.558   3.976  1.7194 -0.7118 -1.3989
 8632SOL     OW37357   0.354   3.992  10.809 -0.3540 -0.1638  0.7828
 8632SOL    HW137358   0.260   3.983  10.792 -0.8157  0.0735  3.2061
 8632SOL    HW237359   0.376   3.966  10.720  1.2050 -0.8039  1.3498
 8633SOL     OW37360   3.722   2.506  17.515  0.3761  0.3119  0.2187
 8633SOL    HW137361   3.788   2.447  17.478  0.7022 -1.0131  2.8960
 8633SOL    HW237362   3.728   2.494  17.610 -0.2772  0.7004  0.3102
 8634SOL     OW37363   2.140   1.447   2.892 -0.0587 -0.3947 -0.2323
 8634SOL    HW137364   2.153   1.537   2.921 -1.5339 -0.1072 -0.4800
 8634SOL    HW237365   2.165   1.397   2.970 -0.3982  0.9482  0.7335
 8635SOL     OW37366   2.683   4.424   6.940  0.1938  0.2160  0.1392
 8635SOL    HW137367   2.697   4.487   7.011  1.3192  1.6065 -1.3104
 8635SOL    HW237368   2.722   4.341   6.969  0.1615  1.1466  2.8375
 8636SOL     OW37369   1.390   2.702   7.659  0.1592 -0.1165 -0.2793
 8636SOL    HW137370   1.406   2.662   7.574  2.4152  1.5085 -0.6171
 8636SOL    HW237371   1.330   2.772   7.638  1.2033  0.7178 -0.4925
 8637SOL     OW37372   1.366   3.224   5.213  0.4549 -0.4453 -0.8649
 8637SOL    HW137373   1.411   3.260   5.289 -1.5366 -0.9454  0.5506
 8637SOL    HW237374   1.328   3.144   5.248 -1.3874  0.2429 -1.2810
 8638SOL     OW37375   1.232   2.468   4.494  0.3476 -0.3232 -0.2620
 8638SOL    HW137376   1.319   2.510   4.494 -0.1929  0.8108  0.3221
 8638SOL    HW237377   1.266   2.388   4.533  1.1546 -1.0075 -2.3933
 8639SOL     OW37378   2.495   4.656  12.119  0.1179 -0.4277  0.0212
 8639SOL    HW137379   2.490   0.008  12.177  3.2053 -1.0121  1.0550
 8639SOL    HW237380   2.581   4.619  12.141  0.1253 -1.2717 -1.4231
 8640SOL     OW37381   1.653   3.166  10.443  0.0288  0.2543  0.5370
 8640SOL    HW137382   1.614   3.081  10.464 -0.9216  0.0306 -2.0858
 8640SOL    HW237383   1.737   3.155  10.487 -0.7391 -2.5479  1.2649
 8641SOL     OW37384   3.243   1.002   9.447 -0.1461  0.2934 -0.3795
 8641SOL    HW137385   3.220   0.950   9.523 -2.0921 -1.0190 -1.8600
 8641SOL    HW237386   3.159   1.038   9.418  1.0255  1.4681 -2.3196
 8642SOL     OW37387   1.543   0.953   6.985  0.5706 -1.0182 -0.2189
 8642SOL    HW137388   1.505   0.978   7.069 -0.4036 -1.0409 -0.6543
 8642SOL    HW237389   1.554   1.038   6.942  0.2406 -0.6915  0.3463
 8643SOL     OW37390   4.705   4.339   8.543 -0.2746 -0.2904  0.1765
 8643SOL    HW137391   4.696   4.245   8.557  2.0137 -0.4217  0.8726
 8643SOL    HW237392   4.616   4.369   8.562 -0.8284 -0.8104 -1.5448
 8644SOL     OW37393   2.620   1.404   9.545 -0.4503  0.1582 -0.1000
 8644SOL    HW137394   2.627   1.310   9.560  2.3893  0.6395  1.6664
 8644SOL    HW237395   2.597   1.432   9.634  0.8492  2.8502 -0.6004
 8645SOL     OW37396   1.809   3.720   7.207  0.1104  0.0360 -0.0774
 8645SOL    HW137397   1.878   3.654   7.210 -2.2226 -2.3431  1.5239
 8645SOL    HW237398   1.808   3.759   7.295  1.3781 -2.2091  0.9145
 8646SOL     OW37399   2.945   0.532   9.601 -0.2533  0.5930  0.1141
 8646SOL    HW137400   2.990   0.551   9.519 -1.8831  0.2046 -0.8707
 8646SOL    HW237401   3.018   0.489   9.646 -1.7468  0.2934  2.2709
 8647SOL     OW37402   3.428   2.108   7.617 -0.0306  0.7239  0.3809
 8647SOL    HW137403   3.353   2.079   7.669 -0.4373  1.0091 -0.0543
 8647SOL    HW237404   3.384   2.134   7.536  2.4573 -0.7658 -1.4418
 8648SOL     OW37405   1.352   1.685   8.206 -0.9141  0.5359 -0.7371
 8648SOL    HW137406   1.299   1.757   8.171 -0.5258  1.4209  0.5126
 8648SOL    HW237407   1.337   1.708   8.298 -1.5862  0.7650 -0.8990
 8649SOL     OW37408   3.800   2.495   5.402  0.3667  0.0075 -0.2482
 8649SOL    HW137409   3.885   2.518   5.364  0.9047 -1.5100  0.0391
 8649SOL    HW237410   3.750   2.572   5.373  0.5475 -0.4328 -1.7616
 8650SOL     OW37411   3.353   2.506   1.359 -0.3845 -0.2490  0.1213
 8650SOL    HW137412   3.266   2.545   1.371 -0.5695 -0.1985 -1.3625
 8650SOL    HW237413   3.417   2.544   1.419 -0.5440  0.0365  0.1135
 8651SOL     OW37414   1.985   2.574   7.235  0.5757  0.0638 -0.1840
 8651SOL    HW137415   1.961   2.667   7.232  0.9590  0.1500 -0.5599
 8651SOL    HW237416   2.080   2.584   7.241  0.8491 -1.4777 -1.9154
 8652SOL     OW37417   3.543   3.676   1.881  0.2297 -0.2311  0.2042
 8652SOL    HW137418   3.467   3.722   1.844 -0.0795 -0.3226  0.7286
 8652SOL    HW237419   3.507   3.594   1.915 -0.4929  1.3434  3.2263
 8653SOL     OW37420   0.982   4.677   2.560  0.5024  0.1561 -0.3108
 8653SOL    HW137421   0.957   0.030   2.507 -1.6208 -0.7096 -0.5493
 8653SOL    HW237422   0.958   4.608   2.499  2.6867  0.8171 -1.9341
 8654SOL     OW37423   0.048   0.229   6.337  0.0119 -0.8405 -0.3120
 8654SOL    HW137424   0.084   0.163   6.396 -2.0303 -0.8210  0.9462
 8654SOL    HW237425   4.685   0.190   6.323  0.9691 -2.6534 -1.1725
 8655SOL     OW37426   0.006   0.981   2.577 -0.5050 -0.3751 -0.2681
 8655SOL    HW137427   4.684   1.045   2.523  1.7191  0.3381 -1.2805
 8655SOL    HW237428   0.093   1.019   2.588 -0.1173 -1.0029 -1.2138
 8656SOL     OW37429   4.053   1.039   6.414 -0.5250  0.0704  0.4514
 8656SOL    HW137430   3.988   0.969   6.414  0.0343 -0.4505  1.4713
 8656SOL    HW237431   4.007   1.114   6.376  1.9602  1.0213 -0.6665
 8657SOL     OW37432   3.700   4.404   4.623  0.5092 -0.2513  0.0252
 8657SOL    HW137433   3.690   4.478   4.682 -1.3185 -0.1272 -0.4293
 8657SOL    HW237434   3.781   4.426   4.578  0.7142  0.5585  0.8133
 8658SOL     OW37435   4.695   0.648   3.516 -0.2245  0.4541 -0.2954
 8658SOL    HW137436   0.059   0.624   3.486  0.2905  0.2920  1.3526
 8658SOL    HW237437   4.704   0.635   3.610  0.4759  2.3653 -0.0989
 8659SOL     OW37438   2.516   2.082   6.574 -0.3813 -0.0315  0.3690
 8659SOL    HW137439   2.468   2.095   6.656  0.0155  1.2807  0.3902
 8659SOL    HW237440   2.476   2.159   6.535  2.7962  0.4876 -1.8718
 8660SOL     OW37441   2.239   1.381   4.656 -0.1587 -0.4520  0.1366
 8660SOL    HW137442   2.247   1.471   4.688  0.9154  0.4615 -2.6865
 8660SOL    HW237443   2.197   1.333   4.727 -0.7422 -0.9474 -0.5411
 8661SOL     OW37444   4.506   4.416   6.850 -0.0437  0.7179  0.2933
 8661SOL    HW137445   4.455   4.489   6.885 -1.7606 -0.3318 -0.0173
 8661SOL    HW237446   4.485   4.345   6.911  0.7435 -0.3906 -0.7241
 8662SOL     OW37447   3.657   4.221  11.506 -0.2431 -0.5295 -0.2757
 8662SOL    HW137448   3.686   4.132  11.527 -0.2426 -0.5959 -0.5597
 8662SOL    HW237449   3.581   4.210  11.448 -1.1257 -1.6266  1.0823
 8663SOL     OW37450   0.437   0.414   6.871 -0.1556 -0.5331  0.8941
 8663SOL    HW137451   0.500   0.347   6.846  0.8416  0.6161  0.2744
 8663SOL    HW237452   0.485   0.486   6.828 -1.4258 -0.1251  0.1712
 8664SOL     OW37453   1.594   1.923   1.337  0.4017 -0.0333 -0.5913
 8664SOL    HW137454   1.521   1.973   1.301  0.9930  0.1144 -1.5586
 8664SOL    HW237455   1.629   1.891   1.254  1.3376  1.4392 -0.7597
 8665SOL     OW37456   1.864   1.142   7.637 -0.2174 -0.0199 -0.2407
 8665SOL    HW137457   1.842   1.055   7.670 -1.4383  1.1848  2.1104
 8665SOL    HW237458   1.952   1.135   7.600  0.3269  1.0443  0.8670
 8666SOL     OW37459   1.850   1.118   2.446  0.6661  0.3572 -0.2644
 8666SOL    HW137460   1.862   1.172   2.524  0.2759  1.7349 -1.1640
 8666SOL    HW237461   1.760   1.087   2.452 -0.5424  4.3634  2.2185
 8667SOL     OW37462   2.688   0.773   2.956  0.7281 -0.0190 -0.1432
 8667SOL    HW137463   2.674   0.732   2.870  3.3618  1.6311 -1.3539
 8667SOL    HW237464   2.704   0.862   2.925 -0.1477  0.7652  1.7005
 8668SOL     OW37465   2.513   0.118   1.124  0.0199 -0.3576  0.3590
 8668SOL    HW137466   2.557   0.103   1.040  1.0833 -0.2148  0.8886
 8668SOL    HW237467   2.468   0.197   1.095  0.0803 -0.2094  0.6657
 8669SOL     OW37468   4.394   3.431  11.313  0.1654 -0.5254  0.0273
 8669SOL    HW137469   4.452   3.404  11.384 -1.0230 -1.0535  0.7913
 8669SOL    HW237470   4.442   3.509  11.287 -0.6058  0.1805  0.7325
 8670SOL     OW37471   4.354   1.818   3.690  0.4833  0.3204 -0.3053
 8670SOL    HW137472   4.431   1.875   3.696  0.5145  0.1059  1.2651
 8670SOL    HW237473   4.351   1.785   3.600 -1.0482  0.4307 -0.3019
 8671SOL     OW37474   0.863   3.327   8.966  0.2188 -0.4865 -0.5407
 8671SOL    HW137475   0.777   3.300   8.996  0.3157  0.1449  0.3400
 8671SOL    HW237476   0.919   3.284   9.031 -0.9007 -1.2192 -0.0737
 8672SOL     OW37477   4.324   2.514   3.138 -0.3550 -0.0115 -0.0884
 8672SOL    HW137478   4.318   2.422   3.165  0.6386  0.3064  1.1803
 8672SOL    HW237479   4.339   2.505   3.044 -0.1744  2.5632 -0.3002
 8673SOL     OW37480   3.577   4.257   3.547 -0.2127 -0.1356 -0.4325
 8673SOL    HW137481   3.509   4.219   3.491 -0.1285 -0.3634 -0.3813
 8673SOL    HW237482   3.571   4.188   3.612  0.5231 -1.7928 -2.1104
 8674SOL     OW37483   1.208   1.952   0.656  0.5868  0.2154  0.0510
 8674SOL    HW137484   1.215   2.031   0.710 -2.4590 -0.7036  1.8001
 8674SOL    HW237485   1.271   1.894   0.700 -1.1442 -2.8578 -1.5277
 8675SOL     OW37486   3.529   3.185   3.862  0.1615  0.3553  0.0975
 8675SOL    HW137487   3.542   3.193   3.768  0.1724  2.2116  0.2400
 8675SOL    HW237488   3.478   3.265   3.881 -1.6332 -0.9097  0.6350
 8676SOL     OW37489   1.903   4.421   5.406  0.2070 -0.0873 -0.5215
 8676SOL    HW137490   1.928   4.332   5.429 -0.2246  0.1346  0.8580
 8676SOL    HW237491   1.979   4.445   5.353 -0.2976  0.2129 -1.1079
 8677SOL     OW37492   3.963   2.466   2.511  0.7876 -0.4100  0.2133
 8677SOL    HW137493   3.995   2.546   2.553 -1.5597 -0.0329  1.2614
 8677SOL    HW237494   4.038   2.462   2.451  0.0694 -2.2065 -0.5510
 8678SOL     OW37495   2.015   4.538   6.089  0.3204  0.1824  0.5244
 8678SOL    HW137496   1.937   4.547   6.144  0.1588 -0.7432  0.4404
 8678SOL    HW237497   2.052   4.455   6.119 -0.6454  0.3847  2.3096
 8679SOL     OW37498   4.379   4.277   6.202 -0.4663 -0.0115  0.2078
 8679SOL    HW137499   4.312   4.232   6.150 -1.7679 -0.9184  2.6518
 8679SOL    HW237500   4.415   4.213   6.264  0.3996  0.5306  0.2573
 8680SOL     OW37501   4.496   1.021  16.111 -0.3589 -0.3920 -0.1365
 8680SOL    HW137502   4.480   0.966  16.034 -1.6512 -1.5582  0.9875
 8680SOL    HW237503   4.421   1.079  16.100  0.9941  1.5685  0.9138
 8681SOL     OW37504   2.552   0.234   8.352  0.4669 -0.3525 -0.4875
 8681SOL    HW137505   2.595   0.197   8.429  1.0057  1.2252 -0.0272
 8681SOL    HW237506   2.474   0.265   8.398  0.1861 -0.9560 -0.5664
 8682SOL     OW37507   3.128   3.836   8.425 -0.0315  0.4629 -0.4283
 8682SOL    HW137508   3.035   3.853   8.411 -0.0611  1.4163  0.9289
 8682SOL    HW237509   3.159   3.799   8.343 -0.6070 -0.5674 -0.1906
 8683SOL     OW37510   4.705   1.705   8.625 -0.0375  0.1634 -0.4280
 8683SOL    HW137511   4.644   1.633   8.607  3.4238 -2.8794 -0.1568
 8683SOL    HW237512   0.067   1.664   8.612  0.6689  0.6820  2.5399
 8684SOL     OW37513   1.499   0.594   7.626 -0.1943 -0.4038  0.0186
 8684SOL    HW137514   1.564   0.626   7.563  0.3864  0.8225  1.2284
 8684SOL    HW237515   1.422   0.573   7.574  0.2236  3.6046 -2.2080
 8685SOL     OW37516   0.143   1.139   4.153  0.0473 -0.0014  0.9877
 8685SOL    HW137517   0.096   1.180   4.226  0.4177  0.6928  0.8410
 8685SOL    HW237518   0.140   1.045   4.170 -0.2449  0.1799  1.9417
 8686SOL     OW37519   3.921   1.677   6.662  0.2888 -0.0064 -0.1735
 8686SOL    HW137520   3.873   1.643   6.586 -0.0627  0.2959 -0.0874
 8686SOL    HW237521   3.855   1.719   6.717  0.5328  0.5727 -0.3283
 8687SOL     OW37522   2.736   4.168  13.835  0.0705 -0.4277 -0.1038
 8687SOL    HW137523   2.677   4.175  13.760 -2.0700  1.5534  1.7647
 8687SOL    HW237524   2.822   4.183  13.797  0.1261 -0.5754 -0.0380
 8688SOL     OW37525   2.086   1.361   1.908  0.9130 -0.1461  0.4490
 8688SOL    HW137526   2.117   1.374   1.819 -0.0810 -3.1056 -0.3210
 8688SOL    HW237527   2.136   1.432   1.948 -1.0659 -0.8968  4.2704
 8689SOL     OW37528   0.344   0.896   2.210  0.0306 -0.0719 -0.2129
 8689SOL    HW137529   0.254   0.896   2.242 -0.5935  0.8028 -1.9248
 8689SOL    HW237530   0.326   0.930   2.122  0.3737  0.3937 -0.1017
 8690SOL     OW37531   0.532   1.250  14.006 -0.0552  0.3568 -0.0081
 8690SOL    HW137532   0.450   1.295  13.986 -0.6352  0.6075  2.9241
 8690SOL    HW237533   0.597   1.319  14.019 -1.3957  1.4455  0.8687
 8691SOL     OW37534   2.169   0.376   2.879 -0.1043 -0.2049 -0.7353
 8691SOL    HW137535   2.116   0.329   2.944  0.4266  0.0058 -0.1557
 8691SOL    HW237536   2.254   0.390   2.919 -1.0659  1.2323  0.8082
 8692SOL     OW37537   3.054   0.139  14.258 -0.0210 -0.4123 -0.1296
 8692SOL    HW137538   3.117   0.144  14.330 -0.1968  0.0228 -0.0107
 8692SOL    HW237539   2.967   0.128  14.296 -0.5610 -1.4334 -1.6658
 8693SOL     OW37540   1.964   1.082   9.000  0.0575 -0.1108 -0.2549
 8693SOL    HW137541   1.957   1.174   9.026 -2.1279  0.0037 -1.2594
 8693SOL    HW237542   2.045   1.075   8.949 -0.0858  1.3676 -0.7012
 8694SOL     OW37543   4.263   1.967  12.038 -0.3809 -0.1177 -0.0218
 8694SOL    HW137544   4.263   1.919  11.955 -0.3323 -3.1014  1.7146
 8694SOL    HW237545   4.343   1.927  12.071  0.5489 -0.7817 -3.0216
 8695SOL     OW37546   2.459   3.060   9.549 -0.4731  0.1533  0.0052
 8695SOL    HW137547   2.411   3.107   9.481 -1.0481  0.9625  0.9812
 8695SOL    HW237548   2.413   3.076   9.631  0.4349 -0.7531  0.6921
 8696SOL     OW37549   1.755   3.832  17.499  0.2635 -0.0975 -0.1287
 8696SOL    HW137550   1.807   3.778  17.440  1.7356  1.4288 -0.2403
 8696SOL    HW237551   1.680   3.772  17.501 -1.4818  2.0788  0.0227
 8697SOL     OW37552   2.301   2.256  14.705  0.5142 -0.0145 -1.0439
 8697SOL    HW137553   2.205   2.251  14.707  0.5892 -0.8293  0.6271
 8697SOL    HW237554   2.317   2.170  14.668 -1.5466 -0.9376  0.1987
 8698SOL     OW37555   0.645   2.884   1.367 -0.0724  0.3197  0.0956
 8698SOL    HW137556   0.618   2.825   1.437 -1.0631  0.5606 -0.0784
 8698SOL    HW237557   0.559   2.913   1.337 -0.1572 -1.1008 -1.0142
 8699SOL     OW37558   3.930   4.003   3.630  0.9274  0.7011 -0.4026
 8699SOL    HW137559   3.926   4.020   3.537  0.4904  2.8518  0.0204
 8699SOL    HW237560   4.020   3.970   3.625  0.7969  0.3168 -0.2613
 8700SOL     OW37561   2.455   1.373  10.049 -0.5056 -0.6766 -0.0181
 8700SOL    HW137562   2.440   1.464  10.073 -3.0226 -0.7760 -1.1763
 8700SOL    HW237563   2.487   1.387   9.960  1.0414 -1.0909  0.4763
 8701SOL     OW37564   3.709   0.845  12.713 -0.2873  0.4379  0.3764
 8701SOL    HW137565   3.694   0.754  12.687 -1.2060 -0.0238  2.5231
 8701SOL    HW237566   3.640   0.847  12.779  0.1565  0.2474  0.8380
 8702SOL     OW37567   4.090   3.820  16.924 -0.4177 -0.4675 -0.5897
 8702SOL    HW137568   4.020   3.858  16.977 -0.7457  2.5458 -3.2069
 8702SOL    HW237569   4.042   3.741  16.898 -2.7847  0.7136  0.1787
 8703SOL     OW37570   2.551   2.481  13.007  0.3406  0.2501 -0.4398
 8703SOL    HW137571   2.459   2.507  13.008 -0.0110 -1.0357  0.0476
 8703SOL    HW237572   2.597   2.555  13.047 -0.2582  2.0980 -3.1722
 8704SOL     OW37573   1.756   4.578   5.650  0.2312 -0.1413  0.3337
 8704SOL    HW137574   1.821   4.547   5.587 -2.3525 -1.7377 -1.5193
 8704SOL    HW237575   1.776   4.512   5.716 -0.4776 -2.6992 -2.0082
 8705SOL     OW37576   3.645   1.611  11.548  0.3397 -0.0387  0.2059
 8705SOL    HW137577   3.679   1.563  11.624  1.1095 -0.0090 -0.1215
 8705SOL    HW237578   3.628   1.695  11.589 -0.0533  0.8235 -1.7624
 8706SOL     OW37579   4.504   3.891   7.935 -0.2144 -0.0775 -0.2451
 8706SOL    HW137580   4.419   3.865   7.969 -0.0325 -0.8689 -0.3969
 8706SOL    HW237581   4.526   3.955   8.002  1.0880 -0.3405 -0.4086
 8707SOL     OW37582   0.231   3.871   7.969  0.0621  0.3100 -0.2899
 8707SOL    HW137583   0.240   3.778   7.945 -0.3189  0.4289 -0.8884
 8707SOL    HW237584   0.201   3.857   8.059 -1.8369 -0.7087 -1.0823
 8708SOL     OW37585   1.208   3.335  13.148  0.0059  0.0676  0.2233
 8708SOL    HW137586   1.242   3.360  13.062 -0.0321  1.2071  0.5451
 8708SOL    HW237587   1.227   3.241  13.149 -1.9219 -0.3438 -2.6139
 8709SOL     OW37588   4.107   3.450   4.639 -0.3628  0.3536  0.0820
 8709SOL    HW137589   4.014   3.429   4.628 -0.0452 -0.0226 -1.9252
 8709SOL    HW237590   4.123   3.397   4.718 -3.0834 -0.5659  0.0242
 8710SOL     OW37591   0.911   0.165   3.823  0.2016 -0.5130 -0.4089
 8710SOL    HW137592   0.973   0.140   3.891 -1.1867  1.5965  1.6503
 8710SOL    HW237593   0.892   0.257   3.842 -2.2934 -1.3424  1.1161
 8711SOL     OW37594   3.791   1.116   4.134  0.2299 -0.6273  0.3992
 8711SOL    HW137595   3.741   1.130   4.215  0.2610 -0.5925  0.4126
 8711SOL    HW237596   3.721   1.126   4.070  1.3050 -3.0097 -1.1558
 8712SOL     OW37597   1.573   0.105   7.973  0.1877  0.1933 -0.4349
 8712SOL    HW137598   1.649   0.081   7.920  1.8627 -0.7236  2.3458
 8712SOL    HW237599   1.609   0.187   8.006 -0.8318 -0.4122  2.2219
 8713SOL     OW37600   1.457   0.196   2.142  0.1423 -0.8661  0.5548
 8713SOL    HW137601   1.517   0.231   2.208  0.5601 -2.2057  0.8924
 8713SOL    HW237602   1.388   0.168   2.202  0.3787 -0.5534  0.9743
 8714SOL     OW37603   3.751   1.564  15.905 -0.4215  0.0986  0.0447
 8714SOL    HW137604   3.693   1.521  15.842 -3.3073 -0.1104  2.8696
 8714SOL    HW237605   3.794   1.483  15.932 -1.1222  0.0370  0.9738
 8715SOL     OW37606   4.669   1.490   6.854 -0.2656 -0.5670  0.2082
 8715SOL    HW137607   0.014   1.453   6.798  0.0998  0.5308 -0.0642
 8715SOL    HW237608   4.640   1.559   6.795 -0.4280 -0.5953  0.2552
 8716SOL     OW37609   4.511   1.555   8.261 -0.3580  0.5414  0.1582
 8716SOL    HW137610   4.529   1.623   8.195 -0.1474  0.0489 -0.2964
 8716SOL    HW237611   4.518   1.601   8.345  0.2760  0.8942 -0.0829
 8717SOL     OW37612   0.392   3.370   6.935 -0.3493 -0.4657  0.4316
 8717SOL    HW137613   0.373   3.288   6.980  0.0741 -0.3648  0.7895
 8717SOL    HW237614   0.365   3.340   6.848  2.1683 -1.9020  0.1274
 8718SOL     OW37615   1.227   0.937   4.716 -0.4683  0.1105  0.4729
 8718SOL    HW137616   1.146   0.886   4.708 -0.0181 -0.7421  1.3601
 8718SOL    HW237617   1.281   0.879   4.662 -0.6156  0.3586  0.0606
 8719SOL     OW37618   3.596   3.165  14.502  0.2296  0.0439 -0.6578
 8719SOL    HW137619   3.513   3.172  14.548  0.8624  2.9300 -0.0047
 8719SOL    HW237620   3.643   3.241  14.534 -0.0151 -0.3634  0.6654
 8720SOL     OW37621   4.055   3.712   4.848 -0.2953  0.3058 -0.0210
 8720SOL    HW137622   4.014   3.696   4.933 -1.0442 -2.5195 -0.8956
 8720SOL    HW237623   3.979   3.698   4.790 -3.5469  0.0985  4.3154
 8721SOL     OW37624   3.144   1.527   2.967  0.0635 -0.0295 -0.1814
 8721SOL    HW137625   3.215   1.512   2.905 -0.3854  0.8849 -0.9235
 8721SOL    HW237626   3.138   1.621   2.950  1.3541  0.4170  1.8195
 8722SOL     OW37627   0.353   1.562  13.266 -0.3361 -0.0650  0.1851
 8722SOL    HW137628   0.356   1.614  13.185  0.8047  0.8197  0.7949
 8722SOL    HW237629   0.260   1.572  13.283 -0.2859 -1.8075  1.4689
 8723SOL     OW37630   4.041   0.383   8.885 -0.5505  0.6031 -0.3639
 8723SOL    HW137631   4.010   0.304   8.841 -0.3106 -0.4169  1.3008
 8723SOL    HW237632   4.135   0.366   8.895 -0.4079  0.9525 -1.0975
 8724SOL     OW37633   4.165   4.449   1.449 -0.2496  0.0712  0.1511
 8724SOL    HW137634   4.171   4.535   1.409  1.4466 -0.4122 -0.6586
 8724SOL    HW237635   4.222   4.398   1.391  0.1238 -0.1805  0.7389
 8725SOL     OW37636   0.056   3.780   3.552  0.1822  0.5788 -0.0272
 8725SOL    HW137637   0.007   3.759   3.631  3.0551 -2.3307  0.9763
 8725SOL    HW237638   0.040   3.704   3.497 -1.2914  1.3225 -0.6318
 8726SOL     OW37639   4.432   0.378   7.220 -0.0194 -0.4263 -0.3410
 8726SOL    HW137640   4.428   0.438   7.295  2.0991  1.4097 -1.7000
 8726SOL    HW237641   4.389   0.303   7.261  1.0532  0.0433  1.6885
 8727SOL     OW37642   3.532   0.182   7.258  0.2674 -0.4540 -0.0104
 8727SOL    HW137643   3.467   0.166   7.189  0.0309  0.5192 -0.0040
 8727SOL    HW237644   3.568   0.093   7.260 -0.7919 -0.8660  0.7505
 8728SOL     OW37645   1.691   3.544   3.859 -0.9225 -0.2823  0.4599
 8728SOL    HW137646   1.719   3.453   3.850  0.9027  0.1843  1.4882
 8728SOL    HW237647   1.629   3.559   3.788 -0.0472 -0.1979 -0.2783
 8729SOL     OW37648   2.181   1.095  11.591 -0.2514  0.1428  0.3854
 8729SOL    HW137649   2.187   1.136  11.677  1.1841 -0.0747  0.3777
 8729SOL    HW237650   2.090   1.063  11.590 -0.0023 -0.4795 -1.9544
 8730SOL     OW37651   4.391   2.539   9.224  0.1364  0.2528 -0.5437
 8730SOL    HW137652   4.481   2.563   9.249 -0.4756  0.7461  1.1412
 8730SOL    HW237653   4.382   2.444   9.236  1.3338  0.3846  1.4233
 8731SOL     OW37654   2.993   3.004  14.822  0.5621  0.2078  0.5520
 8731SOL    HW137655   2.988   2.958  14.738 -0.4465 -1.2574  1.4190
 8731SOL    HW237656   3.077   3.045  14.803  0.6537 -0.7611 -1.0858
 8732SOL     OW37657   0.724   1.893   4.119 -0.4278  0.0692  0.2434
 8732SOL    HW137658   0.775   1.921   4.043  0.1764 -1.2962  0.1450
 8732SOL    HW237659   0.720   1.979   4.160  1.7412  0.1462  0.3195
 8733SOL     OW37660   1.235   2.886   2.667 -0.4950 -0.5149  0.3182
 8733SOL    HW137661   1.201   2.810   2.618 -2.8552 -0.5000  1.9677
 8733SOL    HW237662   1.254   2.953   2.601  0.1171  0.2145  1.2518
 8734SOL     OW37663   3.517   2.436   6.599  0.4037  0.0069 -0.6404
 8734SOL    HW137664   3.525   2.529   6.620 -1.5351 -0.1142  0.6900
 8734SOL    HW237665   3.500   2.391   6.682  1.0746  0.8593 -0.0375
 8735SOL     OW37666   0.807   4.420  11.462  0.6024 -0.0896  0.1659
 8735SOL    HW137667   0.817   4.334  11.421  0.9437 -0.2569  0.6040
 8735SOL    HW237668   0.758   4.478  11.404 -0.9667 -0.3927  1.1814
 8736SOL     OW37669   1.760   4.439   7.219 -0.2311 -0.2481 -0.2765
 8736SOL    HW137670   1.716   4.374   7.275  0.1322  1.3564  1.8740
 8736SOL    HW237671   1.681   4.470   7.175 -0.1744  0.0179 -0.1868
 8737SOL     OW37672   4.255   2.309   3.395 -0.3334  0.4476 -0.9549
 8737SOL    HW137673   4.345   2.341   3.400 -0.6648  0.6206  3.6265
 8737SOL    HW237674   4.209   2.377   3.444  0.0752 -0.7501  1.0821
 8738SOL     OW37675   2.308   2.503   0.803  0.5177  0.0993 -0.6274
 8738SOL    HW137676   2.254   2.543   0.734  0.7544  0.1166 -0.8015
 8738SOL    HW237677   2.389   2.548   0.779  1.7893 -1.1147  1.4151
 8739SOL     OW37678   0.778   0.818   2.316  0.4393  0.5363 -0.0928
 8739SOL    HW137679   0.841   0.863   2.372  0.8627  0.4001 -0.4541
 8739SOL    HW237680   0.705   0.880   2.324 -0.5432 -0.4829 -1.0859
 8740SOL     OW37681   2.636   2.345   0.960 -0.7431 -0.4834  0.0903
 8740SOL    HW137682   2.555   2.307   0.994 -1.0956 -0.0298 -0.2432
 8740SOL    HW237683   2.633   2.438   0.983 -1.7687 -0.6847  0.7591
 8741SOL     OW37684   4.141   0.233   2.968  0.2504  0.1880  0.4531
 8741SOL    HW137685   4.202   0.303   2.992 -0.0803  0.4651  0.4851
 8741SOL    HW237686   4.192   0.156   2.992 -1.5718 -1.5848 -1.4366
 8742SOL     OW37687   2.831   3.599  16.175 -0.2303  0.2828 -0.5787
 8742SOL    HW137688   2.847   3.656  16.250  1.8592  0.7767 -1.4195
 8742SOL    HW237689   2.793   3.656  16.108  0.2590  1.5603  0.2345
 8743SOL     OW37690   0.101   4.168   7.135  0.4194 -0.0919 -0.2215
 8743SOL    HW137691   0.196   4.159   7.138  0.4898  0.6088 -0.1653
 8743SOL    HW237692   0.080   4.103   7.069 -0.8828 -0.6401  0.7259
 8744SOL     OW37693   4.344   1.239   4.024  0.2578  0.1634  0.0449
 8744SOL    HW137694   4.346   1.154   3.980  0.3140 -0.4970  1.3138
 8744SOL    HW237695   4.248   1.249   4.029  0.3233  0.2805  1.0939
 8745SOL     OW37696   2.384   4.499  11.931 -1.1270 -0.0425 -0.4344
 8745SOL    HW137697   2.451   4.532  11.872  1.0010 -0.3441  1.8474
 8745SOL    HW237698   2.400   4.551  12.010  0.4167 -0.1647 -0.6853
 8746SOL     OW37699   4.662   1.733  11.824 -0.2362 -0.2514 -0.2070
 8746SOL    HW137700   4.609   1.756  11.748  0.9021  0.3732 -0.8070
 8746SOL    HW237701   0.017   1.779  11.796 -0.3590  1.2993  1.9208
 8747SOL     OW37702   1.044   3.783  15.207 -1.1338  0.8840  0.3946
 8747SOL    HW137703   0.950   3.786  15.193 -0.7937  0.4342 -1.9690
 8747SOL    HW237704   1.050   3.708  15.267 -0.3630 -1.2565 -2.3425
 8748SOL     OW37705   1.943   2.776   2.779  0.0974  0.2181 -0.6389
 8748SOL    HW137706   1.937   2.869   2.758  2.0174  0.8112  1.4676
 8748SOL    HW237707   1.865   2.768   2.834 -0.0550  0.0575 -0.8808
 8749SOL     OW37708   1.308   0.023   5.169 -0.3232  0.4779 -0.1266
 8749SOL    HW137709   1.381   0.060   5.220 -1.3747 -0.0311  1.7573
 8749SOL    HW237710   1.317   4.653   5.182 -2.2987  0.2274 -0.6328
 8750SOL     OW37711   1.888   0.739  12.221  0.6756 -0.5546 -0.4312
 8750SOL    HW137712   1.926   0.823  12.196  0.3404 -0.9701 -2.3216
 8750SOL    HW237713   1.965   0.688  12.246 -0.1193 -0.7754  1.5519
 8751SOL     OW37714   3.471   3.552   2.940  0.3101  0.2389 -0.6159
 8751SOL    HW137715   3.465   3.507   3.024  1.9401  0.0942 -0.5781
 8751SOL    HW237716   3.484   3.487   2.871 -1.7603  0.3424 -1.1047
 8752SOL     OW37717   0.125   0.404   0.234  0.7894  0.1264 -0.1573
 8752SOL    HW137718   0.197   0.347   0.260 -0.1601 -1.0892 -0.2062
 8752SOL    HW237719   0.063   0.343   0.195 -0.4744  0.2241  1.7279
 8753SOL     OW37720   4.438   1.000   6.765  0.4822  0.4389  0.0090
 8753SOL    HW137721   4.477   1.081   6.798  1.4589  0.0386 -0.1647
 8753SOL    HW237722   4.367   1.027   6.707  1.7739 -1.3733 -2.4389
 8754SOL     OW37723   1.054   4.706   1.811  0.4324 -0.8481 -0.7878
 8754SOL    HW137724   1.015   4.627   1.775  0.3753 -0.7439 -0.9554
 8754SOL    HW237725   1.055   0.042   1.735  1.1902 -0.4847 -0.4989
 8755SOL     OW37726   2.357   1.439  15.894  0.0614 -0.5428 -0.1260
 8755SOL    HW137727   2.273   1.394  15.899 -0.0331 -0.2733  0.7641
 8755SOL    HW237728   2.395   1.384  15.962 -0.0693  0.5705  0.8649
 8756SOL     OW37729   4.117   3.743   6.739  0.5648  0.8436  0.2379
 8756SOL    HW137730   4.070   3.692   6.674  0.0349  1.2452  0.3091
 8756SOL    HW237731   4.154   3.675   6.795  1.0963  1.4807  0.6735
 8757SOL     OW37732   0.738   2.989   2.934 -0.0997  0.1826  0.1127
 8757SOL    HW137733   0.693   3.048   2.994 -0.4924 -0.5012  0.4940
 8757SOL    HW237734   0.828   2.988   2.968 -0.1498 -2.5181  0.1914
 8758SOL     OW37735   0.335   4.485   3.621  0.1358  0.1665 -0.4299
 8758SOL    HW137736   0.372   4.574   3.617 -0.6243  0.6236  2.8666
 8758SOL    HW237737   0.406   4.441   3.574  1.3944  2.8336 -1.0168
 8759SOL     OW37738   0.255   4.377   5.719 -0.5682 -0.6881 -0.2671
 8759SOL    HW137739   0.256   4.423   5.803  0.5236  0.2944 -0.8128
 8759SOL    HW237740   0.330   4.320   5.739 -0.5026 -0.7172 -0.6015
 8760SOL     OW37741   2.561   3.159   5.494  0.5515 -0.1732  0.4384
 8760SOL    HW137742   2.625   3.117   5.552  2.1970  2.2204  0.3446
 8760SOL    HW237743   2.616   3.230   5.460  1.4761 -0.9195  0.3749
 8761SOL     OW37744   4.302   2.436  17.271  0.1498 -0.1122 -0.2865
 8761SOL    HW137745   4.252   2.515  17.287  0.2773 -0.0801 -0.0399
 8761SOL    HW237746   4.366   2.470  17.208  1.1423  1.5073  1.6214
 8762SOL     OW37747   0.430   2.859   2.734  0.1252  0.3020 -0.4633
 8762SOL    HW137748   0.432   2.842   2.640  1.0195  0.4267 -0.4634
 8762SOL    HW237749   0.417   2.954   2.738  1.7067  0.4208  2.3254
 8763SOL     OW37750   0.203   4.701   1.718 -0.0998  0.5794  0.1959
 8763SOL    HW137751   0.186   4.629   1.657 -1.4435  1.3880 -0.3798
 8763SOL    HW237752   0.250   0.047   1.673 -1.0806  0.4763 -0.9863
 8764SOL     OW37753   2.154   3.407   2.540 -0.3207  0.0961  0.0585
 8764SOL    HW137754   2.185   3.395   2.630 -0.5393  0.5606  0.1983
 8764SOL    HW237755   2.229   3.456   2.507  0.8976 -2.3132 -0.7571
 8765SOL     OW37756   3.774   2.076   4.077  0.5264 -0.0402  0.2003
 8765SOL    HW137757   3.846   2.084   4.140  0.3673  0.6536  0.2867
 8765SOL    HW237758   3.788   1.983   4.060  1.1020  0.1760 -0.5266
 8766SOL     OW37759   3.011   2.502  11.721  0.0543 -0.2267 -0.0151
 8766SOL    HW137760   2.974   2.548  11.795 -0.0469 -0.7875  0.2874
 8766SOL    HW237761   2.964   2.548  11.651  0.7478  0.8491  0.2282
 8767SOL     OW37762   1.328   3.855   6.302 -0.1098 -0.5679  0.3820
 8767SOL    HW137763   1.408   3.858   6.354  0.2666 -0.6306 -0.1822
 8767SOL    HW237764   1.352   3.917   6.232 -2.8587  0.4895  0.3701
 8768SOL     OW37765   1.128   1.145   5.509 -0.1118  0.3083 -0.7209
 8768SOL    HW137766   1.089   1.141   5.597  2.0598 -0.0572  0.2143
 8768SOL    HW237767   1.096   1.059   5.482  0.9137 -0.2719 -0.0833
 8769SOL     OW37768   4.420   1.682  12.774  0.4256 -0.0961 -0.0888
 8769SOL    HW137769   4.365   1.618  12.818  0.7701  0.3946  1.0672
 8769SOL    HW237770   4.490   1.694  12.839 -0.7236  0.0954  1.1069
 8770SOL     OW37771   4.494   3.922   1.583 -0.0742  0.5965 -0.0731
 8770SOL    HW137772   4.569   3.941   1.640  1.4644  0.2502 -1.9855
 8770SOL    HW237773   4.429   3.987   1.610  0.9655  0.2714  3.3313
 8771SOL     OW37774   2.366   1.607  11.538  0.1694 -0.1730 -0.4118
 8771SOL    HW137775   2.278   1.573  11.554  0.3189 -1.1390 -1.7094
 8771SOL    HW237776   2.419   1.543  11.585 -0.7559 -0.4891  0.2067
 8772SOL     OW37777   3.050   1.875   5.351  0.4738 -0.8231  0.3785
 8772SOL    HW137778   3.006   1.897   5.269  0.9044  1.1828  0.6726
 8772SOL    HW237779   2.983   1.896   5.415  1.3545  0.8848  0.7359
 8773SOL     OW37780   2.254   3.444   2.829 -0.3561 -0.4063  0.0076
 8773SOL    HW137781   2.313   3.370   2.839 -0.5347 -0.6418 -0.6605
 8773SOL    HW237782   2.312   3.518   2.848 -2.4038  1.3754 -0.5200
 8774SOL     OW37783   1.803   1.259   1.629  0.1154  0.5403 -0.1265
 8774SOL    HW137784   1.896   1.278   1.616 -0.1239  0.6092 -1.6774
 8774SOL    HW237785   1.762   1.326   1.575 -0.7394  0.2706  0.1905
 8775SOL     OW37786   1.316   3.029  10.018 -0.0041  0.0914  0.3093
 8775SOL    HW137787   1.400   3.052  10.058  0.1352  1.2352 -0.6444
 8775SOL    HW237788   1.338   3.021   9.925 -2.0928  2.5678 -0.3929
 8776SOL     OW37789   4.083   1.344  15.593  0.2207  0.1753  0.7465
 8776SOL    HW137790   4.018   1.281  15.564  0.8883  0.3210 -1.0365
 8776SOL    HW237791   4.075   1.326  15.687 -0.0615  0.7076  0.8237
 8777SOL     OW37792   2.177   2.481  16.939 -0.3810 -0.2452  0.0780
 8777SOL    HW137793   2.139   2.491  16.851  1.9924  0.4944 -0.8733
 8777SOL    HW237794   2.272   2.469  16.933 -0.2896  0.2561  0.4967
 8778SOL     OW37795   0.796   1.920   1.413  0.4665  0.1685  0.1823
 8778SOL    HW137796   0.750   1.949   1.335 -1.6116  0.8034  1.6519
 8778SOL    HW237797   0.882   1.961   1.405 -0.4181  1.7525 -1.2811
 8779SOL     OW37798   3.096   0.279   5.205 -0.4790  0.3828 -0.2349
 8779SOL    HW137799   3.135   0.367   5.201 -1.8320  1.1300  3.0592
 8779SOL    HW237800   3.156   0.225   5.153 -0.8642 -1.3728  1.1565
 8780SOL     OW37801   2.969   2.469   9.695  0.4797 -0.3338  0.0105
 8780SOL    HW137802   3.003   2.549   9.735  0.1971 -1.1521  1.9049
 8780SOL    HW237803   2.897   2.498   9.638 -1.2790  1.1711  2.9787
 8781SOL     OW37804   1.483   2.816   6.776  0.4417  0.1059  0.1484
 8781SOL    HW137805   1.395   2.784   6.794  0.2483  1.0549  0.9340
 8781SOL    HW237806   1.467   2.909   6.796  2.1930  0.4341  0.0015
 8782SOL     OW37807   3.451   2.655   9.595 -0.0848 -0.2370  0.0210
 8782SOL    HW137808   3.484   2.614   9.675 -0.1521 -0.0613  0.1415
 8782SOL    HW237809   3.390   2.718   9.634  0.1148  1.8730 -3.1177
 8783SOL     OW37810   3.152   0.757   6.469  0.0550 -0.0820  0.0081
 8783SOL    HW137811   3.095   0.762   6.393  1.9796 -2.1799 -1.5606
 8783SOL    HW237812   3.184   0.667   6.459 -1.1874 -0.3827 -1.2573
 8784SOL     OW37813   1.634   3.997   5.952  0.0551  0.0314  0.2001
 8784SOL    HW137814   1.567   3.971   5.888 -0.1854 -0.9963  0.8608
 8784SOL    HW237815   1.657   3.912   5.991  0.9860  0.2029  0.0050
 8785SOL     OW37816   0.942   1.858  16.326 -0.2204 -0.1212 -0.0659
 8785SOL    HW137817   0.974   1.778  16.367  0.1178  0.0119 -0.0712
 8785SOL    HW237818   0.854   1.835  16.295  0.0689  0.0001 -0.9658
 8786SOL     OW37819   2.418   2.002   9.742  0.0168  0.1178 -0.0063
 8786SOL    HW137820   2.512   1.993   9.761  0.0644 -0.0252 -0.3085
 8786SOL    HW237821   2.402   2.070   9.807 -1.3370 -0.6431  0.4371
 8787SOL     OW37822   1.685   0.649  13.548 -0.0482 -0.2517 -0.9586
 8787SOL    HW137823   1.705   0.631  13.639 -2.1603 -1.9229 -0.8090
 8787SOL    HW237824   1.615   0.584  13.533 -2.7845  2.3777  0.4750
 8788SOL     OW37825   2.726   0.826  14.520 -0.1703  0.3543  0.5378
 8788SOL    HW137826   2.813   0.844  14.556  1.4205 -1.0512 -2.5449
 8788SOL    HW237827   2.682   0.794  14.598 -0.2122 -1.5866 -0.2717
 8789SOL     OW37828   1.297   1.551  14.734 -0.3931 -0.4970 -0.1484
 8789SOL    HW137829   1.294   1.566  14.640  0.0597  0.4376 -0.0144
 8789SOL    HW237830   1.211   1.514  14.757 -0.0048 -0.9197  0.6304
 8790SOL     OW37831   0.302   3.971  10.093 -0.0921  0.4900  0.2501
 8790SOL    HW137832   0.377   4.016  10.133 -0.3803  1.7657 -0.6759
 8790SOL    HW237833   0.348   3.895  10.056 -0.9365  0.2497 -0.3104
 8791SOL     OW37834   1.772   3.147  17.526  0.3081 -0.2257  0.4889
 8791SOL    HW137835   1.730   3.069  17.488  0.8880 -1.0937  1.6361
 8791SOL    HW237836   1.827   3.181  17.455 -0.3616 -1.6267 -0.7070
 8792SOL     OW37837   0.711   0.199   2.238 -0.2759  1.1224 -0.2622
 8792SOL    HW137838   0.659   0.260   2.290 -2.9043  0.1427 -1.7679
 8792SOL    HW237839   0.697   0.221   2.146  1.4594  0.0181 -0.7914
 8793SOL     OW37840   2.617   0.750   3.197  0.0225 -0.0448 -0.5328
 8793SOL    HW137841   2.674   0.826   3.212  1.0767 -0.6088 -1.8191
 8793SOL    HW237842   2.620   0.746   3.102 -1.7744 -1.0438 -0.5594
 8794SOL     OW37843   3.754   3.420   4.273  0.2894 -0.0565 -0.1738
 8794SOL    HW137844   3.739   3.513   4.256 -1.7640 -0.4785 -0.6401
 8794SOL    HW237845   3.828   3.396   4.217  0.4726 -0.9646  0.4546
 8795SOL     OW37846   3.339   1.793   2.212 -0.2174  0.2603 -0.1632
 8795SOL    HW137847   3.379   1.713   2.245 -0.0080  1.2813  2.0543
 8795SOL    HW237848   3.314   1.761   2.125  2.5392 -0.7742 -0.5921
 8796SOL     OW37849   3.277   4.401   7.178 -0.0639 -0.0765  0.3474
 8796SOL    HW137850   3.303   4.333   7.240  1.9258  1.1656  0.8645
 8796SOL    HW237851   3.194   4.365   7.146 -0.3471  0.1259  0.8509
 8797SOL     OW37852   1.552   1.346   8.336  0.4235 -0.5496  0.4489
 8797SOL    HW137853   1.624   1.335   8.274 -1.2320 -2.1393 -1.1733
 8797SOL    HW237854   1.483   1.382   8.280 -0.7062 -0.9070  1.6413
 8798SOL     OW37855   3.669   0.561  10.966  0.0315  0.4983  0.0342
 8798SOL    HW137856   3.665   0.473  11.005  0.8908  0.8625  0.9288
 8798SOL    HW237857   3.592   0.604  11.004  0.0345  1.2337 -0.7943
 8799SOL     OW37858   4.164   0.569   5.917  0.3816 -0.0153 -0.1954
 8799SOL    HW137859   4.107   0.494   5.899 -0.4230  0.5394  0.0245
 8799SOL    HW237860   4.246   0.523   5.933  1.2657  1.2892 -1.0281
 8800SOL     OW37861   2.832   0.027  15.398 -0.1111 -0.1176  0.0672
 8800SOL    HW137862   2.840   0.070  15.484 -0.7015 -1.8826  0.9902
 8800SOL    HW237863   2.903   0.074  15.353 -0.8622 -0.1586 -1.1365
 8801SOL     OW37864   0.972   4.673  15.888 -0.3975 -0.0766 -0.6045
 8801SOL    HW137865   0.919   0.021  15.853  1.7611  1.3075 -1.0452
 8801SOL    HW237866   1.006   4.639  15.804 -0.5306 -1.2673 -0.1796
 8802SOL     OW37867   4.291   1.819   5.157  0.0446  0.9052  0.5730
 8802SOL    HW137868   4.315   1.838   5.247  0.6468  2.5801  0.0770
 8802SOL    HW237869   4.196   1.805   5.157  0.1769 -0.0580 -1.6341
 8803SOL     OW37870   3.815   1.231   5.165  0.3744 -0.1679  0.8360
 8803SOL    HW137871   3.721   1.230   5.149  0.5731 -1.2557 -0.2263
 8803SOL    HW237872   3.826   1.280   5.247 -1.4259 -0.8518  1.4996
 8804SOL     OW37873   3.493   0.829   9.702  0.5359 -0.3149 -0.5150
 8804SOL    HW137874   3.573   0.779   9.686  1.1157  0.7558 -0.9279
 8804SOL    HW237875   3.512   0.922   9.700  1.1589 -0.4169  0.7072
 8805SOL     OW37876   3.550   2.333   5.130 -0.4730  0.9068 -0.3049
 8805SOL    HW137877   3.574   2.319   5.221 -1.9132  0.8970  0.0636
 8805SOL    HW237878   3.550   2.245   5.093  1.5329 -0.3462  2.6906
 8806SOL     OW37879   0.454   3.596   7.110 -0.2070 -0.5318 -0.7898
 8806SOL    HW137880   0.389   3.662   7.088 -0.9972 -1.8715 -2.5342
 8806SOL    HW237881   0.441   3.532   7.040 -1.5038 -1.6494  0.4664
 8807SOL     OW37882   1.641   0.398  12.641 -1.0063 -0.1048  0.2281
 8807SOL    HW137883   1.691   0.467  12.598  1.0567 -0.4416  2.1091
 8807SOL    HW237884   1.633   0.333  12.571 -3.2347 -0.6046  0.9262
 8808SOL     OW37885   1.165   1.889  13.761 -0.3455 -0.5678  0.4360
 8808SOL    HW137886   1.156   1.914  13.669 -0.0652 -0.6419  0.3898
 8808SOL    HW237887   1.247   1.924  13.794  0.5729 -1.1441 -1.2703
 8809SOL     OW37888   0.320   2.086   9.349  0.9468  0.0302 -0.0116
 8809SOL    HW137889   0.280   2.138   9.280  0.2539 -2.2408 -1.3197
 8809SOL    HW237890   0.270   2.117   9.424  0.4840 -0.8614  0.0414
 8810SOL     OW37891   3.880   3.492   2.020  0.1873 -0.6260  0.3129
 8810SOL    HW137892   3.898   3.584   2.001  0.9649 -1.0278 -0.8815
 8810SOL    HW237893   3.958   3.456   1.978  0.0138 -1.0095  0.3180
 8811SOL     OW37894   1.383   1.259   2.166 -0.1804  0.3801  0.0122
 8811SOL    HW137895   1.339   1.295   2.243 -0.1708  0.0604  0.1686
 8811SOL    HW237896   1.468   1.291   2.195 -0.4883  0.6097  0.6657
 8812SOL     OW37897   1.589   0.057   9.301  0.4879 -0.5147 -0.0579
 8812SOL    HW137898   1.520   4.718   9.276  0.0833 -0.8180  1.7925
 8812SOL    HW237899   1.628   0.026   9.382 -0.7326  0.6063  0.9602
 8813SOL     OW37900   3.516   1.770  15.730 -0.0864 -1.1033 -0.3750
 8813SOL    HW137901   3.591   1.748  15.674 -0.3959 -1.2647 -0.7263
 8813SOL    HW237902   3.504   1.862  15.705 -1.5033 -0.6931  1.8200
 8814SOL     OW37903   0.892   1.315   4.008 -0.0027 -0.2883  0.0670
 8814SOL    HW137904   0.943   1.237   4.028 -0.4070 -1.1856 -2.4648
 8814SOL    HW237905   0.959   1.383   4.018 -0.5039  0.3549 -0.8835
 8815SOL     OW37906   2.076   3.430   4.959  0.0118 -0.0185  0.4409
 8815SOL    HW137907   2.086   3.363   5.026 -2.7922 -0.4669  0.4257
 8815SOL    HW237908   2.087   3.379   4.879 -0.8617  0.6442 -0.1114
 8816SOL     OW37909   1.080   3.012   0.094  0.0959 -0.4941  0.6887
 8816SOL    HW137910   1.164   2.971   0.113  2.2191  1.9742 -3.4609
 8816SOL    HW237911   1.106   3.100   0.067 -0.6299 -0.4355  0.1937
 8817SOL     OW37912   3.290   1.795   8.841 -0.2851  0.1900  0.3142
 8817SOL    HW137913   3.359   1.799   8.907 -0.7816  0.2619  0.8259
 8817SOL    HW237914   3.251   1.883   8.835 -0.5076  0.1564  1.3442
 8818SOL     OW37915   2.657   1.104   8.322  0.5788 -0.2246 -0.7662
 8818SOL    HW137916   2.662   1.101   8.226  2.6534  2.7316 -0.7602
 8818SOL    HW237917   2.634   1.197   8.328  4.1990  0.7881 -2.5378
 8819SOL     OW37918   3.550   1.104  11.708  0.1603  0.2091  0.3085
 8819SOL    HW137919   3.571   1.176  11.767  2.1685 -0.8950  0.9633
 8819SOL    HW237920   3.544   1.029  11.767  0.0035  0.3007  0.4107
 8820SOL     OW37921   0.774   4.393   2.916 -0.1088 -0.5182 -0.0655
 8820SOL    HW137922   0.846   4.444   2.879 -1.1699  1.9811  1.2870
 8820SOL    HW237923   0.702   4.451   2.891 -1.1679 -1.9144 -0.2270
 8821SOL     OW37924   2.862   1.931   8.042 -0.4986  0.0591  0.2358
 8821SOL    HW137925   2.831   1.887   8.121 -1.5467  0.3867  0.0155
 8821SOL    HW237926   2.862   2.020   8.076  0.6032  0.6576 -1.3293
 8822SOL     OW37927   3.907   3.914  13.199 -0.1606  0.7042  0.3577
 8822SOL    HW137928   3.838   3.908  13.133  0.3179 -1.0643  0.0247
 8822SOL    HW237929   3.940   3.825  13.206 -0.9686  0.3819  0.0710
 8823SOL     OW37930   2.167   4.118   7.191 -0.1389 -0.3651  0.4522
 8823SOL    HW137931   2.096   4.175   7.219  0.7893  0.3282  1.4063
 8823SOL    HW237932   2.232   4.178   7.155  0.4485 -0.4372  1.3782
 8824SOL     OW37933   3.925   0.840   9.145 -0.1772 -0.2561 -0.1418
 8824SOL    HW137934   3.890   0.752   9.131  1.0864 -0.8236  0.3333
 8824SOL    HW237935   3.952   0.837   9.236  2.0245 -1.3623 -0.8401
 8825SOL     OW37936   4.328   1.864   4.276  0.5755  0.0546 -0.4263
 8825SOL    HW137937   4.251   1.814   4.303  0.9516  0.1658  0.8264
 8825SOL    HW237938   4.382   1.798   4.233  1.1374 -0.1715  0.6398
 8826SOL     OW37939   0.001   1.830  17.620 -0.1134 -0.2858 -0.4735
 8826SOL    HW137940   4.678   1.814   0.005 -0.4802 -0.0057 -0.6274
 8826SOL    HW237941   0.085   1.798  17.653  0.6379 -0.9495 -3.0722
 8827SOL     OW37942   4.467   2.210   2.829  0.3359 -0.1036  0.0221
 8827SOL    HW137943   4.528   2.265   2.780 -0.4358 -0.8321 -1.7780
 8827SOL    HW237944   4.472   2.119   2.800  0.5275  0.0339 -0.3754
 8828SOL     OW37945   3.172   1.586   9.589  0.0298 -0.1637 -0.7306
 8828SOL    HW137946   3.088   1.584   9.544 -1.8563 -0.7538  2.8128
 8828SOL    HW237947   3.188   1.497   9.622  1.4935  0.3317 -0.0789
 8829SOL     OW37948   2.412   3.786  10.666 -0.4708  0.4218  0.7494
 8829SOL    HW137949   2.393   3.863  10.613  1.0800 -1.4891 -2.5759
 8829SOL    HW237950   2.412   3.822  10.755 -1.2434  2.6796 -0.1848
 8830SOL     OW37951   1.607   2.037   6.784  0.2360 -0.5847  0.0859
 8830SOL    HW137952   1.573   1.958   6.743  0.8978 -0.0608 -1.4699
 8830SOL    HW237953   1.546   2.095   6.738 -0.8312  0.0066  2.2185
 8831SOL     OW37954   4.612   4.158   4.921  0.0060 -0.4940  0.7257
 8831SOL    HW137955   4.588   4.242   4.961  0.5832  1.3756 -2.7422
 8831SOL    HW237956   4.678   4.129   4.984  1.1480  2.9337  1.1347
 8832SOL     OW37957   4.075   3.241   5.730 -0.0271 -0.5523 -0.5989
 8832SOL    HW137958   4.140   3.310   5.746  0.9132 -1.6636  0.4794
 8832SOL    HW237959   4.044   3.223   5.819  2.0424  3.0158  0.8100
 8833SOL     OW37960   3.797   1.279  15.425  0.3829  0.4210 -0.0346
 8833SOL    HW137961   3.751   1.201  15.456  1.1870 -0.9163 -2.2261
 8833SOL    HW237962   3.725   1.342  15.428  1.4140  1.6915 -1.2939
 8834SOL     OW37963   3.391   4.589   9.861  0.2208  0.1288  0.5480
 8834SOL    HW137964   3.447   4.516   9.888  0.5525  0.5057  0.8719
 8834SOL    HW237965   3.343   4.613   9.941  0.1318  1.0497  0.2192
 8835SOL     OW37966   4.367   1.709  10.118 -0.2248  0.3881  0.1288
 8835SOL    HW137967   4.416   1.638  10.160 -1.8006 -1.0539 -0.4728
 8835SOL    HW237968   4.414   1.782  10.159 -2.9607  2.1442  0.1617
 8836SOL     OW37969   3.181   2.669   6.321  0.0408 -0.1459 -0.2888
 8836SOL    HW137970   3.239   2.603   6.285 -0.4350 -0.4572 -0.4808
 8836SOL    HW237971   3.111   2.617   6.360  0.4254 -1.3054 -1.1472
 8837SOL     OW37972   2.385   4.153  16.617  0.3457 -0.7453 -0.1164
 8837SOL    HW137973   2.480   4.142  16.625  0.2156  0.0429  2.3915
 8837SOL    HW237974   2.363   4.181  16.706  1.1539 -0.9915  0.1599
 8838SOL     OW37975   4.152   0.403   4.418 -0.5132 -0.2427 -0.0357
 8838SOL    HW137976   4.170   0.490   4.453 -1.4270 -0.1659  0.2353
 8838SOL    HW237977   4.143   0.420   4.324 -0.6917  1.0098  0.2086
 8839SOL     OW37978   0.263   4.363   0.346  0.5021  0.0604  0.3175
 8839SOL    HW137979   0.279   4.270   0.334  1.4593  0.2768 -0.1134
 8839SOL    HW237980   0.317   4.394   0.273  0.8066 -2.2025 -0.4016
 8840SOL     OW37981   3.636   4.250   9.639  0.3121 -0.0175 -0.1988
 8840SOL    HW137982   3.680   4.222   9.558  0.2157  0.9126 -0.5736
 8840SOL    HW237983   3.698   4.314   9.674  1.3426 -0.4239 -1.2377
 8841SOL     OW37984   2.835   1.820   9.457 -0.1817 -0.1299  0.4304
 8841SOL    HW137985   2.883   1.870   9.523 -0.9196  1.3671 -0.1852
 8841SOL    HW237986   2.875   1.865   9.383 -1.8131 -2.2230 -1.7379
 8842SOL     OW37987   1.764   3.112  13.978 -0.2459 -1.0005  0.8484
 8842SOL    HW137988   1.846   3.136  13.935 -0.4516  0.0883  1.0721
 8842SOL    HW237989   1.718   3.103  13.895 -1.9768  0.4699  1.6727
 8843SOL     OW37990   1.428   1.365   7.583 -0.0539 -0.2723 -0.1037
 8843SOL    HW137991   1.425   1.449   7.629  0.9297 -0.1910 -0.1799
 8843SOL    HW237992   1.504   1.323   7.625 -1.9149 -2.0905  1.4511
 8844SOL     OW37993   4.369   2.210  14.353  0.0714  0.0139  0.5950
 8844SOL    HW137994   4.369   2.119  14.324 -1.5995 -0.3835  1.7837
 8844SOL    HW237995   4.443   2.210  14.413  0.8175  1.8984 -0.3466
 8845SOL     OW37996   4.276   3.667   2.888  0.7130 -0.3238 -0.1988
 8845SOL    HW137997   4.239   3.736   2.833  0.5161  0.6114  1.1231
 8845SOL    HW237998   4.285   3.592   2.829 -0.4945  0.7590 -1.7610
 8846SOL     OW37999   2.430   1.577  13.711  0.3285 -0.5971 -0.2391
 8846SOL    HW138000   2.424   1.585  13.806 -1.5905  0.3299 -0.4422
 8846SOL    HW238001   2.382   1.654  13.680 -1.4217 -2.0539 -1.1996
 8847SOL     OW38002   0.346   0.838   1.390 -0.3203  0.6035  0.3872
 8847SOL    HW138003   0.439   0.830   1.370 -0.2983 -1.1236  1.1834
 8847SOL    HW238004   0.325   0.745   1.379 -2.1374  0.8571  1.6929
 8848SOL     OW38005   0.602   3.980  15.012  0.2961  0.2776  0.0077
 8848SOL    HW138006   0.691   3.984  15.047 -0.5544  1.0915  2.1079
 8848SOL    HW238007   0.607   3.933  14.929  4.0461  1.5750 -0.5033
 8849SOL     OW38008   4.490   4.283   2.666 -0.3095  0.1959  0.1839
 8849SOL    HW138009   4.473   4.303   2.758  2.9661 -1.8704  1.2181
 8849SOL    HW238010   4.499   4.188   2.674 -0.3963 -0.0706 -2.8908
 8850SOL     OW38011   2.976   1.195   5.136 -0.1870 -0.4454 -0.0166
 8850SOL    HW138012   2.985   1.258   5.207 -1.3135  0.7140 -0.8771
 8850SOL    HW238013   2.933   1.115   5.167 -1.9610  0.5275  0.0582
 8851SOL     OW38014   1.883   1.382   4.416 -0.3583  0.4631  0.4119
 8851SOL    HW138015   1.899   1.408   4.506 -0.2266  3.1409 -0.3756
 8851SOL    HW238016   1.968   1.348   4.389 -0.7391 -1.5691  1.8085
 8852SOL     OW38017   4.436   4.459  14.089 -0.9614 -0.3736  0.5235
 8852SOL    HW138018   4.385   4.383  14.060 -0.9518  0.1665 -0.9058
 8852SOL    HW238019   4.492   4.467  14.012  0.5902 -0.3279  1.6566
 8853SOL     OW38020   4.278   1.667   6.454 -0.1346 -0.1012 -0.4416
 8853SOL    HW138021   4.329   1.732   6.405  0.7737  0.4182  1.1806
 8853SOL    HW238022   4.203   1.717   6.484  0.4778  1.6026 -1.7579
 8854SOL     OW38023   3.352   0.088   5.402  0.7556 -0.1643 -0.0293
 8854SOL    HW138024   3.358   0.060   5.493 -2.2676 -0.2901  0.1579
 8854SOL    HW238025   3.261   0.063   5.381 -0.2821  4.1625 -0.6461
 8855SOL     OW38026   0.357   0.219  17.248  0.5700 -0.9733 -0.3368
 8855SOL    HW138027   0.377   0.297  17.196  0.3740 -0.0556  0.9382
 8855SOL    HW238028   0.279   0.241  17.300  0.3833  2.3096 -2.0195
 8856SOL     OW38029   0.952   3.643   8.525  0.7285  0.6911  0.4171
 8856SOL    HW138030   0.912   3.614   8.607 -1.7007  2.3874 -0.1571
 8856SOL    HW238031   0.946   3.559   8.478 -1.9751  0.8186  0.5213
 8857SOL     OW38032   1.817   2.647   6.152  0.1644  0.1296  0.2422
 8857SOL    HW138033   1.898   2.642   6.101  0.5289  0.0086  0.8322
 8857SOL    HW238034   1.778   2.727   6.117  0.0634  0.3732  0.9155
 8858SOL     OW38035   1.224   2.083  17.612  0.0226 -0.1667  0.1810
 8858SOL    HW138036   1.217   2.178  17.621  2.5058 -0.1869  2.2155
 8858SOL    HW238037   1.132   2.059  17.600  0.3220 -0.7859 -0.8493
 8859SOL     OW38038   2.625   2.270   4.528 -0.5626  0.5096 -0.2213
 8859SOL    HW138039   2.605   2.334   4.597  2.6416  1.6865 -0.3600
 8859SOL    HW238040   2.631   2.332   4.455  0.2033  0.6084 -0.0717
 8860SOL     OW38041   4.675   1.552   1.312 -0.6764  0.6054 -0.3563
 8860SOL    HW138042   4.602   1.606   1.344 -0.3095  0.3901  0.8504
 8860SOL    HW238043   0.027   1.610   1.307  0.8364 -1.2477  0.8182
 8861SOL     OW38044   4.076   0.128   4.877  0.4072 -0.5400 -0.0066
 8861SOL    HW138045   4.149   0.099   4.823  1.0864  1.7254 -0.3336
 8861SOL    HW238046   4.122   0.138   4.960  1.1901  0.0081 -0.5043
 8862SOL     OW38047   0.828   0.888  10.199 -0.7561  0.1096 -0.7194
 8862SOL    HW138048   0.803   0.797  10.216 -0.8232  0.3762  0.5582
 8862SOL    HW238049   0.756   0.939  10.235 -1.6624 -1.1880 -0.6949
 8863SOL     OW38050   3.746   1.652   3.631 -0.0428  0.4680 -0.1803
 8863SOL    HW138051   3.740   1.681   3.722 -2.4678 -2.8852  0.7040
 8863SOL    HW238052   3.659   1.614   3.625  0.1044 -0.1211  1.4030
 8864SOL     OW38053   1.165   1.064   0.125 -0.3166 -0.1590 -0.1264
 8864SOL    HW138054   1.259   1.080   0.115 -0.2868 -1.9229 -2.6469
 8864SOL    HW238055   1.135   1.150   0.155  1.2369  1.0266 -1.9925
 8865SOL     OW38056   2.780   4.420  10.070  0.2491 -0.3186 -0.3161
 8865SOL    HW138057   2.711   4.448  10.131  0.9700  1.4887 -0.3299
 8865SOL    HW238058   2.853   4.453  10.122  1.6973 -2.5947 -0.9346
 8866SOL     OW38059   1.580   1.414   2.626  0.0856 -0.2933 -0.3971
 8866SOL    HW138060   1.581   1.322   2.602 -3.9617 -0.2317 -0.7233
 8866SOL    HW238061   1.508   1.443   2.570 -0.2187  1.2212  0.7720
 8867SOL     OW38062   1.372   1.918   4.861  0.0945  0.2842  0.0450
 8867SOL    HW138063   1.377   1.824   4.878 -0.0954  0.3811  0.6713
 8867SOL    HW238064   1.301   1.924   4.798 -1.0799 -0.6409  1.2788
 8868SOL     OW38065   1.673   0.129   2.477  0.0401  0.1833  0.5619
 8868SOL    HW138066   1.703   0.182   2.551  1.0155  1.5217 -0.7809
 8868SOL    HW238067   1.639   0.047   2.512  0.8564  0.8888  2.9984
 8869SOL     OW38068   4.697   0.918   7.494 -0.0463 -0.0256 -0.1067
 8869SOL    HW138069   0.018   0.941   7.413 -1.1399 -0.7270 -0.9224
 8869SOL    HW238070   0.040   0.882   7.553 -1.7654 -0.9742  1.2892
 8870SOL     OW38071   4.349   1.162   8.842 -0.0062 -0.1289 -0.1146
 8870SOL    HW138072   4.417   1.166   8.910  0.0969 -2.2357 -0.0862
 8870SOL    HW238073   4.271   1.187   8.892  0.0497  1.2824 -0.7442
 8871SOL     OW38074   2.234   3.836   5.191  0.1645  0.3685  0.1508
 8871SOL    HW138075   2.221   3.926   5.162 -0.9708 -0.6055 -2.3891
 8871SOL    HW238076   2.325   3.840   5.222 -0.1360  0.4360  1.0240
 8872SOL     OW38077   0.663   2.476   7.829  0.5873  0.0173 -0.2014
 8872SOL    HW138078   0.722   2.438   7.765 -1.3183 -0.4352 -1.6902
 8872SOL    HW238079   0.706   2.449   7.910  1.5078  0.9852 -0.3795
 8873SOL     OW38080   1.850   1.582   6.152 -0.0124 -0.1429 -0.0051
 8873SOL    HW138081   1.847   1.612   6.243  1.2087 -1.3473  0.4291
 8873SOL    HW238082   1.768   1.533   6.143  0.8530 -1.3774 -0.9751
 8874SOL     OW38083   2.037   0.306   6.667 -0.0873  0.1418 -0.0061
 8874SOL    HW138084   2.011   0.374   6.729  2.0609 -0.3462  1.4292
 8874SOL    HW238085   2.132   0.314   6.665 -0.2814  2.1598 -0.2851
 8875SOL     OW38086   3.582   0.536   8.091  0.1678 -0.1500  0.3119
 8875SOL    HW138087   3.554   0.627   8.093  1.3872  0.2320  0.4576
 8875SOL    HW238088   3.560   0.508   8.180  1.3277 -0.9605  0.3467
 8876SOL     OW38089   1.294   2.968   6.451 -0.4013 -0.1769 -0.1526
 8876SOL    HW138090   1.264   2.932   6.534  0.0104 -0.3100 -0.0576
 8876SOL    HW238091   1.342   2.892   6.416 -1.4198 -0.8842  0.0008
 8877SOL     OW38092   0.016   1.642  16.669 -0.1043  0.2445 -0.5389
 8877SOL    HW138093   0.048   1.636  16.759  1.8277  0.2977 -1.2161
 8877SOL    HW238094   4.649   1.610  16.673 -0.1572  0.3011 -1.3903
 8878SOL     OW38095   0.856   2.674   5.633  0.1893  0.1293  0.1349
 8878SOL    HW138096   0.881   2.730   5.560  3.0026 -0.6212  0.5179
 8878SOL    HW238097   0.917   2.702   5.701  0.2831  0.8563 -0.2571
 8879SOL     OW38098   0.486   2.019   3.976  0.1841 -0.4380  0.1364
 8879SOL    HW138099   0.544   1.950   4.007  0.3916  0.0284  0.7767
 8879SOL    HW238100   0.457   1.985   3.891  1.9450 -1.1786 -0.1601
 8880SOL     OW38101   4.062   1.261   4.097  0.5710 -0.4252 -0.5077
 8880SOL    HW138102   3.972   1.236   4.118  1.6635 -2.8345  1.3704
 8880SOL    HW238103   4.085   1.316   4.172 -0.0576 -1.3624  0.3744
 8881SOL     OW38104   1.007   0.951   9.979  0.1241 -0.7760 -0.1811
 8881SOL    HW138105   1.004   0.871   9.926  1.1604 -1.3308  0.5860
 8881SOL    HW238106   0.970   0.928  10.064  0.2049 -0.3660 -0.0365
 8882SOL     OW38107   0.666   3.191   5.960 -0.4403  0.0779  0.0250
 8882SOL    HW138108   0.697   3.277   5.988  0.4684 -0.0299 -0.6189
 8882SOL    HW238109   0.749   3.144   5.952 -0.6229 -0.1095 -0.7309
 8883SOL     OW38110   0.959   2.003  10.985 -0.4518 -0.0120 -0.7491
 8883SOL    HW138111   0.971   2.096  10.967 -1.6043  0.5212  1.2129
 8883SOL    HW238112   1.013   1.965  10.916  0.5893 -0.0652  0.0972
 8884SOL     OW38113   4.495   1.629  15.468 -0.2713  0.2479 -0.2113
 8884SOL    HW138114   4.470   1.629  15.561  2.7341  0.8870  0.5698
 8884SOL    HW238115   4.417   1.671  15.431 -0.0925  0.0924 -0.7596
 8885SOL     OW38116   2.379   0.972   6.168  0.3701 -0.2851 -0.2669
 8885SOL    HW138117   2.374   1.060   6.133 -1.4175  0.1261  1.0208
 8885SOL    HW238118   2.386   0.989   6.262 -0.2005 -4.1925  0.5177
 8886SOL     OW38119   1.786   4.054  13.002 -0.1885  0.6180 -0.8511
 8886SOL    HW138120   1.852   4.078  13.067  0.8388 -1.4318 -1.1398
 8886SOL    HW238121   1.834   4.002  12.938 -2.2020 -1.6180 -0.5244
 8887SOL     OW38122   1.008   3.913   3.810  0.8669  0.2190 -0.1677
 8887SOL    HW138123   0.983   3.842   3.869 -1.6824 -0.0112 -1.5591
 8887SOL    HW238124   1.032   3.875   3.726  0.8577  0.2101 -0.1663
 8888SOL     OW38125   4.425   2.256  16.024 -0.1379  0.8504 -0.0351
 8888SOL    HW138126   4.398   2.346  16.040  1.8273  1.5376 -0.6265
 8888SOL    HW238127   4.338   2.216  16.028 -0.5674  1.7367 -0.4366
 8889SOL     OW38128   2.851   1.540   6.525  0.6748 -0.0174 -0.1344
 8889SOL    HW138129   2.808   1.532   6.610  1.0224 -1.8913 -0.1428
 8889SOL    HW238130   2.867   1.635   6.517  0.3371  0.0739  0.2812
 8890SOL     OW38131   3.755   3.587   9.412  0.2719  0.0465 -0.1288
 8890SOL    HW138132   3.850   3.588   9.402  0.0637 -0.9194 -2.2638
 8890SOL    HW238133   3.727   3.505   9.371  1.5101 -0.9969  1.1127
 8891SOL     OW38134   1.993   1.391   6.396 -0.3713 -0.0717 -0.2002
 8891SOL    HW138135   2.069   1.376   6.452 -1.2030 -1.7421  0.5050
 8891SOL    HW238136   1.995   1.486   6.397 -0.7773 -0.0631  0.2716
 8892SOL     OW38137   0.737   0.622   9.399 -0.6578 -0.2877 -0.1101
 8892SOL    HW138138   0.761   0.561   9.329  1.4481  0.6043 -0.1755
 8892SOL    HW238139   0.809   0.604   9.460 -0.9111 -1.5116 -0.1584
 8893SOL     OW38140   2.643   2.531   0.452 -0.2922 -0.0092 -0.9674
 8893SOL    HW138141   2.615   2.471   0.383  2.2215  0.4979 -2.4270
 8893SOL    HW238142   2.658   2.468   0.523 -0.3671  1.6770  0.5545
 8894SOL     OW38143   0.825   0.684   4.918  0.3397 -0.0151 -0.2247
 8894SOL    HW138144   0.738   0.696   4.881  0.0204 -0.1433  0.4734
 8894SOL    HW238145   0.827   0.771   4.959 -0.3543 -0.0343 -0.1363
 8895SOL     OW38146   2.330   0.322  17.273 -0.4361 -0.2690  0.2493
 8895SOL    HW138147   2.354   0.333  17.365 -0.5960  0.3503  0.2191
 8895SOL    HW238148   2.403   0.368  17.232  0.8242 -1.8580  0.7253
 8896SOL     OW38149   3.663   3.746   9.918  0.7871  0.3176  0.3845
 8896SOL    HW138150   3.659   3.654   9.943  1.0035 -0.8849 -4.0193
 8896SOL    HW238151   3.570   3.769   9.926  0.6611  0.3684 -1.2800
 8897SOL     OW38152   1.581   2.668  11.411  0.3432 -0.1954 -0.3742
 8897SOL    HW138153   1.665   2.651  11.453  0.9583  0.1905 -1.4548
 8897SOL    HW238154   1.527   2.716  11.475 -0.6352 -3.2287  1.1287
 8898SOL     OW38155   0.956   2.659   3.353  0.4584  0.6949  0.3885
 8898SOL    HW138156   0.942   2.600   3.279 -1.4461  0.3553  1.0099
 8898SOL    HW238157   0.933   2.606   3.430 -0.5308  0.5196 -0.0245
 8899SOL     OW38158   1.940   4.467   7.741 -0.0747 -0.3190  0.0045
 8899SOL    HW138159   1.890   4.388   7.721  0.8397 -0.5803 -1.1990
 8899SOL    HW238160   2.022   4.429   7.773  0.7636  1.8100  0.4367
 8900SOL     OW38161   3.771   2.404   9.305  0.1427 -0.0639 -0.2872
 8900SOL    HW138162   3.735   2.354   9.378 -0.2394  0.5596 -0.0445
 8900SOL    HW238163   3.706   2.391   9.236  0.3319  0.5970 -0.5906
 8901SOL     OW38164   4.248   1.882  15.589  0.0137 -0.0122  0.5883
 8901SOL    HW138165   4.206   1.797  15.601 -1.7021  0.6033 -1.1315
 8901SOL    HW238166   4.270   1.878  15.496 -0.8343 -0.9738  0.4392
 8902SOL     OW38167   1.558   0.589   4.432  0.0429 -0.1348 -0.1609
 8902SOL    HW138168   1.464   0.583   4.414  0.2680 -0.3721 -1.2381
 8902SOL    HW238169   1.578   0.496   4.425 -0.4729 -0.0801 -2.5395
 8903SOL     OW38170   3.402   0.490  11.764 -0.3483  0.1384 -0.0873
 8903SOL    HW138171   3.331   0.516  11.704 -1.3915 -0.2560  0.9706
 8903SOL    HW238172   3.384   0.396  11.771  1.7795 -0.0282  2.8291
 8904SOL     OW38173   3.668   3.598  12.228 -0.4523  0.4607 -0.0683
 8904SOL    HW138174   3.662   3.510  12.191 -0.1705  0.2360  0.4212
 8904SOL    HW238175   3.602   3.589  12.297 -0.3475 -0.6087 -0.1164
 8905SOL     OW38176   4.674   2.054  11.762 -0.6713 -0.0140 -0.2774
 8905SOL    HW138177   4.679   2.115  11.689 -0.2351  0.9421  0.5454
 8905SOL    HW238178   0.011   1.987  11.731  2.1644  2.6031 -0.4975
 8906SOL     OW38179   4.359   3.761   8.139  0.0494  0.1396 -0.4453
 8906SOL    HW138180   4.317   3.848   8.142 -1.0933 -0.4222 -0.2907
 8906SOL    HW238181   4.349   3.747   8.234 -0.4063 -3.0399 -0.9873
 8907SOL     OW38182   2.546   3.127  13.249  0.0037 -0.2285  0.5615
 8907SOL    HW138183   2.463   3.109  13.204  0.7779 -1.2092 -0.4877
 8907SOL    HW238184   2.580   3.209  13.212  0.8186 -1.3336 -1.1807
 8908SOL     OW38185   2.330   2.942   3.112  0.1064 -0.1904 -0.1900
 8908SOL    HW138186   2.382   2.913   3.037 -0.8021  0.4039 -1.0493
 8908SOL    HW238187   2.375   3.024   3.133  0.0277 -0.2561  0.2298
 8909SOL     OW38188   1.691   1.638   6.430  0.2004  0.2315  0.4131
 8909SOL    HW138189   1.674   1.730   6.451  1.5876  0.5465  0.1399
 8909SOL    HW238190   1.786   1.636   6.439  0.4731  1.3556 -2.5087
 8910SOL     OW38191   4.201   4.723   0.669  0.9424  0.5917  0.6695
 8910SOL    HW138192   4.231   4.678   0.590  1.4509  3.0056 -0.5021
 8910SOL    HW238193   4.170   4.659   0.734  1.1952 -1.8539 -1.6145
 8911SOL     OW38194   0.430   1.235   2.882  0.2001  0.8160  0.0885
 8911SOL    HW138195   0.383   1.308   2.923 -1.1127 -0.6643  1.2400
 8911SOL    HW238196   0.490   1.287   2.829 -0.2479 -0.8394 -2.0636
 8912SOL     OW38197   4.096   0.248   1.080  0.4857  0.1837 -0.4724
 8912SOL    HW138198   4.111   0.157   1.107 -0.4613  1.1457  3.3188
 8912SOL    HW238199   4.007   0.245   1.043  0.4306 -0.0350 -0.3241
 8913SOL     OW38200   1.184   4.453   2.239  0.3243 -0.5504  0.0675
 8913SOL    HW138201   1.197   4.392   2.312 -1.0545  0.3236  1.0333
 8913SOL    HW238202   1.250   4.519   2.261 -1.3927  1.0248  0.4561
 8914SOL     OW38203   2.439   1.848   7.418 -0.2640  0.0939 -0.0340
 8914SOL    HW138204   2.524   1.881   7.388 -1.3453  0.0382 -3.1383
 8914SOL    HW238205   2.426   1.900   7.498  1.0681 -3.5065  2.5044
 8915SOL     OW38206   2.880   3.403   3.600  0.1254 -0.6620 -0.1977
 8915SOL    HW138207   2.929   3.424   3.521  0.7762 -0.0641  0.3648
 8915SOL    HW238208   2.940   3.394   3.675  0.6787  3.1255 -0.1789
 8916SOL     OW38209   3.583   1.447  16.145 -0.6422  0.3709  0.4648
 8916SOL    HW138210   3.513   1.476  16.086 -1.3369  0.0314  1.1342
 8916SOL    HW238211   3.562   1.479  16.232  0.7966  2.3732  0.0643
 8917SOL     OW38212   4.128   4.463   9.729  0.4893  0.2287  0.8171
 8917SOL    HW138213   4.170   4.544   9.699  0.7766  0.1493  1.0006
 8917SOL    HW238214   4.062   4.497   9.789  0.5010  3.3917 -0.9898
 8918SOL     OW38215   0.194   4.647   7.986  0.3560 -0.2664 -0.1351
 8918SOL    HW138216   0.218   4.555   7.977  2.7007  0.1663  1.5759
 8918SOL    HW238217   0.222   4.661   8.076 -0.9526 -2.5763  0.6036
 8919SOL     OW38218   4.205   2.413   8.529 -0.0350 -0.3692 -0.4020
 8919SOL    HW138219   4.151   2.445   8.602  2.3048  0.7193  0.8568
 8919SOL    HW238220   4.160   2.443   8.450 -0.9009  0.0968  0.2557
 8920SOL     OW38221   1.565   4.019   6.474  0.1746 -0.0938 -0.2554
 8920SOL    HW138222   1.583   3.974   6.391  2.1886  2.5181 -1.2527
 8920SOL    HW238223   1.590   4.111   6.461 -0.6470  0.2277  0.5248
 8921SOL     OW38224   1.428   3.319   7.056  0.2511 -0.5142 -0.2000
 8921SOL    HW138225   1.358   3.364   7.010  0.8434  1.1977  0.5899
 8921SOL    HW238226   1.495   3.387   7.063 -0.4196  0.2086 -0.8154
 8922SOL     OW38227   3.052   2.211   8.573 -0.0908  0.0801  0.0757
 8922SOL    HW138228   3.032   2.123   8.538 -0.4551  1.2129 -2.5900
 8922SOL    HW238229   3.063   2.256   8.489  1.7336  0.8107  0.7112
 8923SOL     OW38230   4.367   3.891   3.497 -0.0388  0.3029  0.5135
 8923SOL    HW138231   4.394   3.941   3.573  0.1843  0.6073  0.2352
 8923SOL    HW238232   4.332   3.811   3.536 -1.7247  0.2421 -1.1075
 8924SOL     OW38233   1.227   2.342   8.637  0.2249  0.0971 -0.1782
 8924SOL    HW138234   1.251   2.329   8.729 -0.2418 -0.9263 -0.2033
 8924SOL    HW238235   1.288   2.411   8.612 -0.2959  0.7012  0.2518
 8925SOL     OW38236   4.360   2.737   2.273  0.1420 -0.0970 -0.0975
 8925SOL    HW138237   4.317   2.767   2.353 -1.2305 -0.5846 -0.6531
 8925SOL    HW238238   4.453   2.739   2.293  0.3478  0.9650 -1.1574
 8926SOL     OW38239   1.334   1.929  16.510 -0.6432  0.2255  0.2979
 8926SOL    HW138240   1.265   1.993  16.496 -1.0880 -0.3530 -0.1567
 8926SOL    HW238241   1.298   1.842  16.491 -0.6353  0.7974 -2.2540
 8927SOL     OW38242   0.516   2.877  15.519  0.3492  0.1884 -0.6231
 8927SOL    HW138243   0.529   2.926  15.438  1.6798  3.0584  1.3231
 8927SOL    HW238244   0.447   2.929  15.561 -1.5263 -2.7778 -0.0192
 8928SOL     OW38245   0.665   4.137   9.117  0.2912 -0.2305 -0.1145
 8928SOL    HW138246   0.724   4.064   9.137 -0.4082 -0.6560  0.4245
 8928SOL    HW238247   0.637   4.122   9.027 -0.0648 -1.6717  0.2305
 8929SOL     OW38248   4.010   1.485   7.490  0.4315 -0.0852  0.5666
 8929SOL    HW138249   3.958   1.415   7.449 -0.2471  0.6596  0.1552
 8929SOL    HW238250   4.013   1.458   7.581  0.1854  3.4608  1.6254
 8930SOL     OW38251   0.008   3.371   5.405  0.4349 -0.1449  0.1904
 8930SOL    HW138252   0.026   3.335   5.318  2.0110  1.8783 -0.3169
 8930SOL    HW238253   0.101   3.385   5.425  0.2919  0.5305  0.3847
 8931SOL     OW38254   0.101   0.675   0.152 -0.2361  0.2440  0.0291
 8931SOL    HW138255   0.191   0.665   0.120 -1.1789 -1.3103 -2.0485
 8931SOL    HW238256   0.086   0.586   0.182 -0.3363  0.3200  0.2063
 8932SOL     OW38257   3.299   1.869   3.066  0.1063  0.0148  0.2124
 8932SOL    HW138258   3.329   1.896   2.979 -0.9231 -1.0689 -0.4644
 8932SOL    HW238259   3.203   1.870   3.070  0.1085  2.0255  0.0452
 8933SOL     OW38260   0.412   1.522   5.322  0.1327  0.3725 -0.0147
 8933SOL    HW138261   0.365   1.606   5.323 -0.3060  0.1166  0.8490
 8933SOL    HW238262   0.481   1.540   5.258  1.5606  2.0262  1.9979
 8934SOL     OW38263   3.397   2.898   6.186  0.0017  0.9191  0.5396
 8934SOL    HW138264   3.451   2.893   6.265 -1.5863 -0.6224  1.5258
 8934SOL    HW238265   3.460   2.941   6.128 -0.5700  2.5098  1.1100
 8935SOL     OW38266   1.323   1.493  14.201  0.0152 -0.5511 -0.0388
 8935SOL    HW138267   1.281   1.407  14.201  0.2263 -0.6668 -2.3242
 8935SOL    HW238268   1.384   1.493  14.127 -0.0539  2.3034 -0.1035
 8936SOL     OW38269   4.265   3.918  15.692  0.1484 -0.1519  0.0679
 8936SOL    HW138270   4.245   3.914  15.786  0.4215 -1.6369  0.0676
 8936SOL    HW238271   4.298   3.831  15.673  0.1309 -0.7545  2.7606
 8937SOL     OW38272   3.657   1.359   7.309 -0.2282 -0.0490 -0.3561
 8937SOL    HW138273   3.708   1.435   7.281 -0.4378  1.2861  2.9045
 8937SOL    HW238274   3.726   1.303   7.344 -0.6105 -1.1311 -1.3120
 8938SOL     OW38275   0.774   3.953   1.785 -0.2656  0.2808  0.0318
 8938SOL    HW138276   0.752   4.012   1.857 -0.3320  0.2257  0.0563
 8938SOL    HW238277   0.819   3.885   1.835 -0.5316  0.4266  0.4680
 8939SOL     OW38278   4.677   2.713   9.941 -0.3113  0.2856 -0.1571
 8939SOL    HW138279   4.670   2.714   9.846 -0.3745  1.8700 -0.1398
 8939SOL    HW238280   4.589   2.751   9.945 -0.6358 -0.7564  2.4256
 8940SOL     OW38281   3.545   0.485  13.183 -0.3094 -0.3515  0.4190
 8940SOL    HW138282   3.455   0.452  13.189 -0.4661  0.0095  0.0113
 8940SOL    HW238283   3.549   0.512  13.092 -0.9847  2.3275  1.2047
 8941SOL     OW38284   0.406   2.887  12.433 -0.3196  0.3135 -0.0744
 8941SOL    HW138285   0.439   2.849  12.351  0.3890 -2.1641  1.3793
 8941SOL    HW238286   0.440   2.976  12.435 -1.2677  0.7474 -2.9087
 8942SOL     OW38287   0.488   0.709   7.932  0.1553  0.4325  0.1799
 8942SOL    HW138288   0.406   0.729   7.978 -0.6375 -1.5115 -0.3733
 8942SOL    HW238289   0.500   0.618   7.958  3.5713  0.5010 -1.2373
 8943SOL     OW38290   2.159   4.230   6.888  0.2017  0.1847 -0.1149
 8943SOL    HW138291   2.123   4.226   6.799  1.9937 -2.4745 -0.6981
 8943SOL    HW238292   2.096   4.278   6.943  0.1766  0.2521 -0.2028
 8944SOL     OW38293   4.075   4.259   4.328 -0.7259 -0.2968 -0.0548
 8944SOL    HW138294   4.134   4.329   4.300 -0.5315 -0.0793  0.9079
 8944SOL    HW238295   4.009   4.318   4.364 -1.7274  0.0126 -2.4373
 8945SOL     OW38296   3.407   1.182  14.714 -0.2685 -0.1023  0.3963
 8945SOL    HW138297   3.430   1.095  14.747  2.5786  0.5493  0.1894
 8945SOL    HW238298   3.442   1.161  14.628 -0.2156  1.2405  0.0907
 8946SOL     OW38299   1.356   4.013   7.606  0.0461  0.4512  0.4763
 8946SOL    HW138300   1.375   3.921   7.624 -1.6648 -0.1389 -0.7999
 8946SOL    HW238301   1.281   3.997   7.549 -0.0397 -0.7314  0.9162
 8947SOL     OW38302   3.272   0.923   2.407  0.0476  0.2545 -0.1815
 8947SOL    HW138303   3.328   0.864   2.457  0.9515 -0.3012 -1.8857
 8947SOL    HW238304   3.185   0.899   2.440  1.4104 -2.3269  1.5487
 8948SOL     OW38305   1.119   3.735   1.104  0.0539 -0.1009  0.4059
 8948SOL    HW138306   1.111   3.654   1.053  1.5542 -1.0516  1.6777
 8948SOL    HW238307   1.130   3.791   1.028 -0.0946  1.5247  1.5818
 8949SOL     OW38308   3.961   1.822   3.207 -0.1303  0.4609  0.0491
 8949SOL    HW138309   4.011   1.778   3.139  0.5743  3.3470 -1.2876
 8949SOL    HW238310   3.896   1.859   3.148 -2.8100 -0.1453  2.6132
 8950SOL     OW38311   3.207   1.379   9.727 -0.1743 -0.2810  0.0956
 8950SOL    HW138312   3.247   1.295   9.748 -1.0234 -1.1732 -1.8457
 8950SOL    HW238313   3.147   1.384   9.802 -0.4859  3.1469 -0.4224
 8951SOL     OW38314   1.139   3.013  12.008  0.1288  0.0071 -0.0282
 8951SOL    HW138315   1.216   3.065  12.031 -1.4343  1.9471  0.7713
 8951SOL    HW238316   1.097   2.992  12.092  1.1192 -2.0418 -0.0178
 8952SOL     OW38317   0.301   2.128   2.303  0.1323  0.3016  0.5513
 8952SOL    HW138318   0.332   2.212   2.269 -0.5797 -0.8617 -2.9379
 8952SOL    HW238319   0.219   2.149   2.348  0.0635 -1.0600  1.0590
 8953SOL     OW38320   0.195   0.181  10.747 -0.0539 -0.8029  0.0825
 8953SOL    HW138321   0.204   0.159  10.840 -0.4331  0.5398  0.4284
 8953SOL    HW238322   0.288   0.188  10.726  0.3329 -2.4673  1.2006
 8954SOL     OW38323   2.069   4.122   7.634  0.3251 -0.1046 -0.0200
 8954SOL    HW138324   2.103   4.119   7.545 -0.1195 -1.2890 -0.1516
 8954SOL    HW238325   2.101   4.041   7.675 -0.2807 -2.4490 -4.2567
 8955SOL     OW38326   4.081   1.341  13.048  0.3339 -0.2524  0.2065
 8955SOL    HW138327   4.142   1.338  13.122  1.1476 -0.9405 -0.4946
 8955SOL    HW238328   4.139   1.375  12.980  1.6086 -1.8960  0.4849
 8956SOL     OW38329   0.855   2.361   2.331 -0.0084  0.4866 -0.2887
 8956SOL    HW138330   0.769   2.388   2.299 -0.6171 -0.7123  0.3174
 8956SOL    HW238331   0.895   2.448   2.328 -0.1470  0.5631  0.1255
 8957SOL     OW38332   1.758   2.601   3.810  0.5044 -0.2172 -0.2311
 8957SOL    HW138333   1.830   2.657   3.840  0.7937 -1.0160  0.5772
 8957SOL    HW238334   1.682   2.633   3.858  1.9715  1.5441  0.8982
 8958SOL     OW38335   2.501   3.866   2.244  0.1792 -0.1617  0.5992
 8958SOL    HW138336   2.464   3.868   2.156  0.3948  0.5827  0.5204
 8958SOL    HW238337   2.586   3.823   2.232  1.2459  2.6129 -1.8080
 8959SOL     OW38338   2.374   1.210   8.438  0.0995 -0.0830 -0.0865
 8959SOL    HW138339   2.326   1.130   8.416 -1.5844  0.1373  2.8099
 8959SOL    HW238340   2.400   1.236   8.349 -2.1794  0.3627 -0.6248
 8960SOL     OW38341   2.951   3.471   2.715  0.2825 -0.1156  0.1903
 8960SOL    HW138342   2.931   3.555   2.674  0.7555 -0.6804 -1.2013
 8960SOL    HW238343   2.885   3.413   2.677  0.9832  0.9872 -2.7620
 8961SOL     OW38344   3.087   0.233  13.003 -0.1801 -0.2978 -0.0500
 8961SOL    HW138345   3.089   0.170  13.075 -1.3527 -1.6154 -1.1515
 8961SOL    HW238346   3.004   0.207  12.962  0.2394  3.2888 -3.2036
 8962SOL     OW38347   0.963   1.458   5.862  0.0476  0.3606 -0.3976
 8962SOL    HW138348   0.963   1.443   5.768  0.7709  3.7582 -0.9385
 8962SOL    HW238349   0.941   1.550   5.877 -0.0566  0.1810  0.5999
 8963SOL     OW38350   2.951   3.102   9.936 -0.0065 -0.4143  0.3595
 8963SOL    HW138351   3.007   3.130   9.864 -0.9811  1.3213  0.2610
 8963SOL    HW238352   2.893   3.177   9.952 -2.1212 -2.0633  0.4577
 8964SOL     OW38353   3.602   3.213  10.728  0.5786  0.1642 -0.0690
 8964SOL    HW138354   3.669   3.145  10.736  0.2554 -0.1599 -0.1259
 8964SOL    HW238355   3.534   3.160  10.686 -0.2153 -2.0272  3.9135
 8965SOL     OW38356   3.796   1.770   7.607 -0.3892  0.0973 -0.3577
 8965SOL    HW138357   3.873   1.823   7.631 -0.6825  0.4226 -0.1281
 8965SOL    HW238358   3.811   1.694   7.663 -1.4840 -1.5314 -2.3078
 8966SOL     OW38359   4.074   4.714   8.047  0.6644 -0.1222  0.0113
 8966SOL    HW138360   4.141   4.696   7.981 -0.2656 -2.8209 -0.1908
 8966SOL    HW238361   4.125   0.035   8.115  0.8540 -0.7956  0.3152
 8967SOL     OW38362   0.895   2.768   3.740 -0.2494 -0.6913  0.2552
 8967SOL    HW138363   0.828   2.833   3.721 -0.1081 -0.0726  1.8848
 8967SOL    HW238364   0.866   2.702   3.676  1.7420 -0.1643 -1.1995
 8968SOL     OW38365   3.776   4.698   1.258 -0.0257 -0.2397  0.0228
 8968SOL    HW138366   3.728   4.644   1.196 -3.3662  3.1063 -0.2934
 8968SOL    HW238367   3.753   4.650   1.338 -1.1231 -0.2427 -0.3023
 8969SOL     OW38368   3.685   0.837   5.698  0.6167 -0.1813  0.4051
 8969SOL    HW138369   3.746   0.895   5.744 -1.2155  1.1783  1.1050
 8969SOL    HW238370   3.602   0.850   5.743 -0.1367  0.5017 -1.1803
 8970SOL     OW38371   1.623   2.838  12.805  0.3235  0.0345 -0.5444
 8970SOL    HW138372   1.606   2.863  12.714 -2.5271  1.2812  0.3214
 8970SOL    HW238373   1.718   2.836  12.814  0.1690  1.3429  1.3799
 8971SOL     OW38374   4.338   0.589  13.727 -0.4189  0.0420 -0.2597
 8971SOL    HW138375   4.331   0.520  13.792  0.2575  0.6138  0.4201
 8971SOL    HW238376   4.246   0.616  13.732  0.2314  1.4562  3.6750
 8972SOL     OW38377   1.555   1.562   3.066 -0.7701  0.2994  0.1449
 8972SOL    HW138378   1.493   1.490   3.072  0.0960 -0.4506  0.0934
 8972SOL    HW238379   1.553   1.589   3.157  1.0745 -0.5510  0.4384
 8973SOL     OW38380   0.380   4.062   6.503  0.3107  0.0055  0.0418
 8973SOL    HW138381   0.416   4.104   6.425 -2.5108  1.3767 -0.5156
 8973SOL    HW238382   0.361   4.146   6.545  0.4692  1.2533 -2.4036
 8974SOL     OW38383   3.454   1.640  14.676 -0.2354  0.2437 -0.2706
 8974SOL    HW138384   3.520   1.678  14.734  0.0553 -0.9177  0.1825
 8974SOL    HW238385   3.499   1.558  14.656 -1.8799 -0.3331 -1.6030
 8975SOL     OW38386   3.159   2.880   8.479 -0.5357  0.0921 -0.5781
 8975SOL    HW138387   3.250   2.868   8.506 -0.8017 -1.0709 -0.2193
 8975SOL    HW238388   3.175   2.887   8.385  0.6378  0.6533 -0.3352
 8976SOL     OW38389   3.610   2.129  17.061 -0.4577  0.5486 -0.0386
 8976SOL    HW138390   3.565   2.111  16.978  1.3368 -1.7707 -0.4926
 8976SOL    HW238391   3.546   2.098  17.124 -2.6218  1.9814 -1.5478
 8977SOL     OW38392   4.414   1.867   8.634  0.4680  0.5361  0.6515
 8977SOL    HW138393   4.378   1.948   8.599  0.0105  1.2558  2.7743
 8977SOL    HW238394   4.366   1.808   8.577 -0.1149  0.6994  0.9719
 8978SOL     OW38395   1.865   1.104  12.173  0.1571  0.4857  0.1391
 8978SOL    HW138396   1.801   1.070  12.112  2.1921 -3.2467  0.1296
 8978SOL    HW238397   1.941   1.046  12.168  0.1280  0.3882  0.7793
 8979SOL     OW38398   4.193   2.184  14.041 -0.1221 -0.5118 -0.4741
 8979SOL    HW138399   4.166   2.258  14.094 -1.7093 -0.1448 -1.8058
 8979SOL    HW238400   4.287   2.202  14.047 -0.2370 -0.3561  0.9037
 8980SOL     OW38401   1.298   3.898   8.756  0.2429 -0.4612  0.0934
 8980SOL    HW138402   1.311   3.984   8.798 -0.1248  0.3013 -1.3523
 8980SOL    HW238403   1.389   3.876   8.739  0.2182  0.5148 -1.3393
 8981SOL     OW38404   0.296   0.297   9.583  0.4742 -0.3656 -0.5017
 8981SOL    HW138405   0.229   0.275   9.518  1.1098  1.1052 -1.6467
 8981SOL    HW238406   0.308   0.219   9.638 -1.6062 -0.2469  0.1091
 8982SOL     OW38407   0.567   0.684   7.263  0.1325 -0.3669  0.1155
 8982SOL    HW138408   0.605   0.621   7.325  1.5257  0.0800 -0.3061
 8982SOL    HW238409   0.480   0.655   7.234  1.2618 -1.8575 -1.7732
 8983SOL     OW38410   4.009   1.536   7.073  0.6950  0.5143 -0.2731
 8983SOL    HW138411   3.917   1.565   7.073  0.4533 -0.2240  0.1281
 8983SOL    HW238412   4.040   1.560   7.161  0.6211 -1.0084  0.1773
 8984SOL     OW38413   4.507   1.190   3.118  0.3146  0.2284 -0.1469
 8984SOL    HW138414   4.538   1.198   3.027 -2.0141 -0.6978 -1.0249
 8984SOL    HW238415   4.448   1.115   3.106 -1.3404  1.2251  1.8576
 8985SOL     OW38416   2.457   2.736   6.147 -0.3025  0.3402 -0.1153
 8985SOL    HW138417   2.511   2.688   6.210 -0.4878 -1.1723 -1.0902
 8985SOL    HW238418   2.518   2.797   6.107 -1.1802  2.4327  1.7670
 8986SOL     OW38419   4.687   4.058   8.565 -0.2561  0.1838 -0.0935
 8986SOL    HW138420   4.628   4.035   8.637 -0.4720  3.3719  0.7466
 8986SOL    HW238421   0.006   3.975   8.547  0.3590  0.1875  1.2940
 8987SOL     OW38422   2.720   3.079   5.711  0.2677  0.2159  0.8147
 8987SOL    HW138423   2.726   3.159   5.764  2.9757  0.8549 -0.5133
 8987SOL    HW238424   2.804   3.080   5.666 -0.1001  1.7194  0.1680
 8988SOL     OW38425   1.314   1.815  13.384  0.3175  0.0114 -0.0814
 8988SOL    HW138426   1.255   1.740  13.379  2.1033 -1.4298  0.7199
 8988SOL    HW238427   1.255   1.878  13.426 -0.5890  0.1769 -1.5671
 8989SOL     OW38428   0.564   1.312   5.036 -0.3595 -0.2505  0.2828
 8989SOL    HW138429   0.532   1.230   5.073 -0.8837 -0.1133  0.1342
 8989SOL    HW238430   0.647   1.287   4.996 -1.1618 -1.2255 -0.7501
 8990SOL     OW38431   0.331   4.184   6.180 -0.0372 -0.2151  1.0662
 8990SOL    HW138432   0.416   4.222   6.200 -0.5151  0.8572  1.0224
 8990SOL    HW238433   0.272   4.259   6.187  0.9761  0.6083  0.7671
 8991SOL     OW38434   3.802   2.406   3.028 -0.4567  0.6026  0.0972
 8991SOL    HW138435   3.762   2.320   3.011  0.9564  0.2514 -1.4609
 8991SOL    HW238436   3.854   2.379   3.105  2.0953  2.9070 -0.8156
 8992SOL     OW38437   3.748   4.025   6.271  0.2319 -0.2324 -0.1782
 8992SOL    HW138438   3.762   3.949   6.328  0.0675 -0.6778 -0.7354
 8992SOL    HW238439   3.660   4.009   6.237 -0.2266  1.1988  0.3150
 8993SOL     OW38440   3.184   0.564   2.659  0.1184 -0.6546 -0.2874
 8993SOL    HW138441   3.178   0.658   2.643 -2.4648 -1.0460 -1.5075
 8993SOL    HW238442   3.251   0.573   2.728  0.1011  0.5076 -0.4294
 8994SOL     OW38443   2.772   2.017   7.557  0.3749  0.0836  0.2438
 8994SOL    HW138444   2.701   2.080   7.570 -0.0680 -0.5756  0.9856
 8994SOL    HW238445   2.767   1.956   7.631 -1.1207 -0.1584 -0.0773
 8995SOL     OW38446   3.348   1.396   1.183  0.8398  0.0062 -0.5115
 8995SOL    HW138447   3.328   1.377   1.092  2.3342 -0.1699 -0.8011
 8995SOL    HW238448   3.419   1.333   1.194  2.2334  1.3488 -1.8997
 8996SOL     OW38449   3.376   3.880  10.981 -0.5858  0.7608  0.0406
 8996SOL    HW138450   3.283   3.866  10.999  0.1659 -1.5338  2.0735
 8996SOL    HW238451   3.379   3.973  10.958  0.7373  1.0673  1.4460
 8997SOL     OW38452   4.125   4.414   5.352 -0.1125 -0.2329 -0.2758
 8997SOL    HW138453   4.040   4.371   5.349  1.0508 -2.3973 -2.5252
 8997SOL    HW238454   4.151   4.388   5.441  1.3408  0.9420 -0.3540
 8998SOL     OW38455   3.374   0.531   9.141 -0.7472 -0.1363 -0.0306
 8998SOL    HW138456   3.328   0.603   9.098  2.1440  1.3474 -0.6116
 8998SOL    HW238457   3.345   0.451   9.097 -2.2264  0.5426 -0.2966
 8999SOL     OW38458   0.055   1.660   0.732  0.1509 -0.6175 -0.2499
 8999SOL    HW138459   0.004   1.593   0.780  1.2930 -1.4895 -0.2616
 8999SOL    HW238460   4.723   1.737   0.724 -0.3096 -0.9121  0.0328
 9000SOL     OW38461   0.495   3.981   7.875 -0.3919  0.1850  0.2940
 9000SOL    HW138462   0.418   3.931   7.902  0.4005 -1.7165 -1.0247
 9000SOL    HW238463   0.504   4.031   7.956  0.4902  0.6138 -0.0721
 9001SOL     OW38464   1.036   3.077  13.754 -0.5796 -0.1978  0.3024
 9001SOL    HW138465   1.126   3.108  13.762 -0.8920  0.5592  0.9144
 9001SOL    HW238466   1.000   3.107  13.837 -2.0720  1.2708 -0.8548
 9002SOL     OW38467   3.484   4.552   2.685 -0.4459  0.1665  0.4374
 9002SOL    HW138468   3.578   4.562   2.676 -0.4460 -0.4529 -0.2008
 9002SOL    HW238469   3.480   4.523   2.776  2.3831  0.3196  0.5964
 9003SOL     OW38470   3.322   3.616   5.049  0.2965  0.1545  1.1261
 9003SOL    HW138471   3.393   3.557   5.073  1.8785  1.1852 -1.1055
 9003SOL    HW238472   3.307   3.576   4.963  0.1405  0.5314  0.9775
 9004SOL     OW38473   4.554   1.916   6.669  0.0101  0.5051  0.2014
 9004SOL    HW138474   4.465   1.907   6.702 -1.1975  1.9012 -2.6281
 9004SOL    HW238475   4.596   1.830   6.669 -0.7293  0.1414  0.5874
 9005SOL     OW38476   4.230   0.763   7.236  0.5237 -0.2846 -0.1900
 9005SOL    HW138477   4.145   0.766   7.193  0.0736 -0.3909  0.6866
 9005SOL    HW238478   4.220   0.840   7.293  1.3767 -2.0715  2.3427
 9006SOL     OW38479   1.587   2.301  15.459 -0.1727 -0.2752  0.4983
 9006SOL    HW138480   1.660   2.276  15.515  2.2189  0.5808 -2.2276
 9006SOL    HW238481   1.633   2.320  15.377 -0.0964  0.2184  0.6543
 9007SOL     OW38482   1.435   4.360  11.590 -0.1714  0.5836 -0.3013
 9007SOL    HW138483   1.489   4.349  11.667 -1.5156 -0.7024  0.4580
 9007SOL    HW238484   1.483   4.435  11.554  0.9446  0.5320  1.1375
 9008SOL     OW38485   0.246   2.452   9.360  0.2918  0.3869  0.5173
 9008SOL    HW138486   0.196   2.375   9.386  0.3735 -0.1707 -0.9249
 9008SOL    HW238487   0.174   2.514   9.365 -1.4335 -1.3116 -3.2162
 9009SOL     OW38488   2.070   0.218   0.940  0.1425  0.5085 -0.0008
 9009SOL    HW138489   2.146   0.160   0.937 -0.3561 -0.0751 -1.1333
 9009SOL    HW238490   2.014   0.164   0.996  0.5640 -1.3425 -1.3747
 9010SOL     OW38491   2.389   1.709   9.761 -0.0699 -0.0436  0.3730
 9010SOL    HW138492   2.406   1.791   9.716 -0.9069 -1.8797 -3.2632
 9010SOL    HW238493   2.407   1.660   9.681  1.6715  4.0227 -1.7217
 9011SOL     OW38494   2.034   4.566   1.589  0.0377  0.2032 -0.4073
 9011SOL    HW138495   1.974   4.590   1.661 -2.1776 -3.0941 -1.1763
 9011SOL    HW238496   1.973   4.547   1.518 -1.8769 -1.3258  1.6360
 9012SOL     OW38497   4.719   3.128   8.104  0.0881  0.2770 -0.2054
 9012SOL    HW138498   4.661   3.057   8.129 -0.5392  0.4555 -1.1698
 9012SOL    HW238499   4.715   3.168   8.191 -0.0925 -3.6842  1.5851
 9013SOL     OW38500   1.038   0.216  15.588 -0.6391  0.3549  0.1680
 9013SOL    HW138501   0.990   0.141  15.552  0.3243 -1.6225  3.0618
 9013SOL    HW238502   1.105   0.212  15.520 -0.7070  2.1929 -0.0127
 9014SOL     OW38503   0.609   2.220   6.660 -0.4049 -0.0673 -0.1157
 9014SOL    HW138504   0.665   2.289   6.696 -0.2022  0.0589 -0.6732
 9014SOL    HW238505   0.585   2.257   6.575 -0.5099 -0.7456 -0.3783
 9015SOL     OW38506   4.411   1.663  16.566  0.0710  0.6542 -0.4446
 9015SOL    HW138507   4.336   1.710  16.529 -0.1777  0.1325 -0.6062
 9015SOL    HW238508   4.443   1.608  16.494  1.3320  0.3768  0.3332
 9016SOL     OW38509   3.760   3.415   8.820  0.1725 -0.2154  0.8790
 9016SOL    HW138510   3.714   3.363   8.886 -1.2902  0.5445  0.4674
 9016SOL    HW238511   3.844   3.406   8.865  0.1340 -1.5459  0.7068
 9017SOL     OW38512   1.254   0.340   8.457 -0.0652  0.4210 -0.3718
 9017SOL    HW138513   1.212   0.409   8.405 -0.2504  0.2961 -0.3867
 9017SOL    HW238514   1.185   0.294   8.503  1.9090 -2.5638 -0.4248
 9018SOL     OW38515   1.524   1.808  16.933 -0.7220  0.1797  0.4606
 9018SOL    HW138516   1.493   1.865  16.862  0.5023  1.3011  0.8232
 9018SOL    HW238517   1.586   1.748  16.891  0.0756  0.9161  0.5942
 9019SOL     OW38518   1.590   2.119  14.441 -0.2343  0.3445  0.1191
 9019SOL    HW138519   1.584   2.110  14.536  1.4130 -1.9766  0.0069
 9019SOL    HW238520   1.663   2.181  14.437 -0.0407  0.2627  2.6107
 9020SOL     OW38521   0.674   3.761   4.143  0.1433  0.0616  0.3287
 9020SOL    HW138522   0.690   3.671   4.114 -0.2048  0.3579 -0.8099
 9020SOL    HW238523   0.590   3.750   4.187  0.0758  2.7536  0.8730
 9021SOL     OW38524   3.918   2.696  14.140 -0.0574 -0.7361  0.1824
 9021SOL    HW138525   3.967   2.614  14.136  1.9531  0.5647 -1.8915
 9021SOL    HW238526   3.962   2.740  14.212 -0.1613 -0.2219 -0.0710
 9022SOL     OW38527   2.475   4.137   8.476 -0.2491 -0.4119 -0.1782
 9022SOL    HW138528   2.520   4.188   8.408 -0.9214  2.2930  1.4289
 9022SOL    HW238529   2.522   4.053   8.476 -1.7016 -1.2262  1.3122
 9023SOL     OW38530   2.077   1.915   2.734 -0.1307 -0.3686 -0.3239
 9023SOL    HW138531   2.158   1.887   2.689 -0.2977  1.7640 -1.9472
 9023SOL    HW238532   2.082   2.007   2.710  0.4994 -0.5830 -1.0112
 9024SOL     OW38533   1.117   0.844  11.335  0.2269  0.4110 -0.2385
 9024SOL    HW138534   1.059   0.848  11.258  1.0838  1.9255 -0.8139
 9024SOL    HW238535   1.099   0.930  11.374  0.6806 -0.8039  2.6196
 9025SOL     OW38536   4.093   3.671   9.138  0.5365 -0.0045  0.1178
 9025SOL    HW138537   4.176   3.713   9.116  0.3985  0.5583  0.6601
 9025SOL    HW238538   4.117   3.609   9.207  0.6314  0.0240  0.1111
 9026SOL     OW38539   2.809   0.591  13.492 -0.3452 -0.6072 -0.7983
 9026SOL    HW138540   2.845   0.648  13.560 -1.5676 -1.4137  0.5283
 9026SOL    HW238541   2.796   0.643  13.413 -1.9171  1.5451  0.8756
 9027SOL     OW38542   4.367   4.390   5.907  0.6522  0.1299  0.1472
 9027SOL    HW138543   4.378   4.426   5.995  1.0497  3.3312 -1.2227
 9027SOL    HW238544   4.366   4.470   5.854  1.2348 -0.6258 -1.0075
 9028SOL     OW38545   0.214   2.064   7.003 -0.2959  0.0238  0.1186
 9028SOL    HW138546   0.139   2.017   6.967 -1.6085 -0.2912  3.2968
 9028SOL    HW238547   0.240   2.125   6.934  0.4401  1.3253  1.5640
 9029SOL     OW38548   1.416   0.516   2.097 -0.0552 -0.6847  0.0835
 9029SOL    HW138549   1.401   0.528   2.190  0.0240  0.2695 -0.0259
 9029SOL    HW238550   1.398   0.600   2.055 -3.0671 -0.8623  1.0847
 9030SOL     OW38551   0.920   4.211   1.674  0.5330 -0.0117  0.2123
 9030SOL    HW138552   0.936   4.121   1.647 -0.4140 -0.0385 -0.2336
 9030SOL    HW238553   1.000   4.249   1.637  0.7408  0.2251  0.8959
 9031SOL     OW38554   1.286   0.302   1.863 -0.3896  0.1422  0.1579
 9031SOL    HW138555   1.265   0.211   1.883  0.0476  0.2263  0.9799
 9031SOL    HW238556   1.211   0.350   1.899 -0.3310  0.2789  0.0957
 9032SOL     OW38557   1.364   1.550  16.000 -0.1376 -0.4767 -0.2373
 9032SOL    HW138558   1.445   1.579  15.960  0.3986  0.4684  1.5265
 9032SOL    HW238559   1.338   1.625  16.054  0.0872 -0.8793  0.4239
 9033SOL     OW38560   2.117   3.787   3.815  0.1333  0.1044 -0.4066
 9033SOL    HW138561   2.182   3.719   3.836  0.1144  0.1999 -0.0267
 9033SOL    HW238562   2.142   3.865   3.864 -1.0212 -1.3508  2.5239
 9034SOL     OW38563   0.940   1.649  17.213 -0.3694 -0.2347  1.0326
 9034SOL    HW138564   0.905   1.567  17.181  0.3166  0.0955 -0.5612
 9034SOL    HW238565   0.920   1.702  17.136 -0.5111 -1.0587  0.5059
 9035SOL     OW38566   3.189   1.528   4.944 -0.5689  0.5234 -0.0243
 9035SOL    HW138567   3.186   1.460   4.877  0.3121 -0.9689  1.4690
 9035SOL    HW238568   3.284   1.534   4.947 -0.7114  1.8760  1.7339
 9036SOL     OW38569   0.736   1.355   8.051  0.2317 -0.0197 -0.5746
 9036SOL    HW138570   0.692   1.304   7.983 -0.9053 -0.6119  0.6014
 9036SOL    HW238571   0.774   1.292   8.112  0.2518 -1.4013 -2.0199
 9037SOL     OW38572   3.932   0.342   1.520 -0.3536  0.1279  0.2236
 9037SOL    HW138573   4.020   0.308   1.538 -0.4086 -0.8727 -1.4430
 9037SOL    HW238574   3.954   0.413   1.459 -1.2626 -0.0714 -0.3272
 9038SOL     OW38575   4.080   2.538   4.483 -0.4752  0.7445 -0.3252
 9038SOL    HW138576   4.099   2.591   4.406  1.6212  0.7443  0.1902
 9038SOL    HW238577   4.133   2.464   4.453  0.7569  2.6679 -2.9397
 9039SOL     OW38578   2.803   4.000   2.208  0.5994  0.4329 -0.4906
 9039SOL    HW138579   2.768   4.073   2.157 -1.2585  1.2607  1.9568
 9039SOL    HW238580   2.769   3.929   2.153  1.7132 -1.2091  0.9536
 9040SOL     OW38581   1.966   3.601   1.018  0.7590 -0.4788 -0.0949
 9040SOL    HW138582   1.983   3.678   0.964 -0.8788 -1.7154 -2.3615
 9040SOL    HW238583   1.916   3.544   0.960 -0.3160 -0.0522  0.3985
 9041SOL     OW38584   1.072   1.661  13.867  0.1445  0.0055  0.2299
 9041SOL    HW138585   1.109   1.742  13.833 -2.1457  0.6900 -0.6038
 9041SOL    HW238586   1.022   1.627  13.793  1.5986  1.1276 -1.2706
 9042SOL     OW38587   2.750   1.519   6.770  0.9263  0.3109  0.2178
 9042SOL    HW138588   2.695   1.597   6.772  0.1278 -0.2340 -0.6152
 9042SOL    HW238589   2.690   1.451   6.801 -2.1666  2.3087 -1.3478
 9043SOL     OW38590   3.939   4.408   1.024 -0.5652  0.2435 -0.1390
 9043SOL    HW138591   3.904   4.324   1.053 -0.4798 -0.1546 -1.1853
 9043SOL    HW238592   4.030   4.391   1.048 -1.1857 -0.6365  1.5887
 9044SOL     OW38593   4.315   2.100   2.033 -0.0244 -0.2095 -0.6460
 9044SOL    HW138594   4.264   2.082   1.954  0.2638 -0.6827 -0.7286
 9044SOL    HW238595   4.391   2.045   2.013  1.6550  0.5389  3.7988
 9045SOL     OW38596   4.110   0.690   2.293 -0.0254  0.0556 -0.6548
 9045SOL    HW138597   4.117   0.768   2.239 -1.1374  0.4771 -0.1988
 9045SOL    HW238598   4.099   0.616   2.233 -2.8087 -0.1342  0.0868
 9046SOL     OW38599   2.308   3.095   5.824 -0.0405 -0.6252  0.2324
 9046SOL    HW138600   2.402   3.075   5.823 -0.3129 -1.7889 -1.9567
 9046SOL    HW238601   2.298   3.116   5.917 -2.9800  2.3164 -0.7930
 9047SOL     OW38602   0.548   3.492   3.843 -0.3311 -0.0649  0.3264
 9047SOL    HW138603   0.501   3.487   3.926 -1.7523 -2.3786 -0.6070
 9047SOL    HW238604   0.492   3.554   3.797  0.5235  0.8809  0.5699
 9048SOL     OW38605   1.100   3.401  13.903 -0.1323 -0.0285 -0.0517
 9048SOL    HW138606   1.057   3.474  13.860 -0.6252  0.5821  1.4859
 9048SOL    HW238607   1.026   3.341  13.916 -1.4573  1.7451  0.5154
 9049SOL     OW38608   0.013   3.920  16.191 -0.1125  0.7087 -0.1173
 9049SOL    HW138609   0.018   3.907  16.096 -0.5968 -0.6565  0.0319
 9049SOL    HW238610   0.035   4.012  16.202  1.2569  0.4952 -0.9575
 9050SOL     OW38611   2.465   0.598   3.403  0.3573 -0.4377  0.0263
 9050SOL    HW138612   2.521   0.633   3.334  0.0516  2.3798  1.2090
 9050SOL    HW238613   2.437   0.679   3.446  0.8492 -0.3921  0.2593
 9051SOL     OW38614   2.713   2.599   3.928 -0.1177  0.2892 -0.3176
 9051SOL    HW138615   2.766   2.678   3.943 -0.2654  0.5231 -1.0260
 9051SOL    HW238616   2.775   2.552   3.872 -0.6385 -2.6856  1.6328
 9052SOL     OW38617   2.201   3.111   3.580  0.2149 -0.2477  0.4831
 9052SOL    HW138618   2.249   3.182   3.539  0.7818 -0.6079  0.5180
 9052SOL    HW238619   2.133   3.089   3.516 -0.0881 -2.4677  1.5545
 9053SOL     OW38620   0.766   1.504   8.362 -0.2809  0.1369  0.0288
 9053SOL    HW138621   0.770   1.543   8.449 -1.6103 -0.0996  0.1885
 9053SOL    HW238622   0.848   1.542   8.329 -1.9033  3.3265 -0.2917
 9054SOL     OW38623   3.742   2.738  11.752  0.1604  0.4498 -0.0153
 9054SOL    HW138624   3.730   2.673  11.822  2.2645 -1.0972 -1.1003
 9054SOL    HW238625   3.775   2.808  11.809 -0.3987 -0.6158  1.6380
 9055SOL     OW38626   1.261   1.578  14.445  0.4377 -0.0217  0.0994
 9055SOL    HW138627   1.185   1.522  14.427 -0.2979  0.9630  0.1176
 9055SOL    HW238628   1.288   1.584  14.353  1.3887  2.1178  0.5305
 9056SOL     OW38629   3.995   3.588   7.928 -0.2273 -0.3578 -0.1031
 9056SOL    HW138630   3.974   3.608   8.019 -0.9929  1.9524 -0.7814
 9056SOL    HW238631   4.061   3.519   7.930 -1.2088 -1.3541 -1.9651
 9057SOL     OW38632   2.546   1.114   0.175 -0.4728 -0.2362 -0.1298
 9057SOL    HW138633   2.575   1.203   0.158 -1.2259  0.5980  3.0008
 9057SOL    HW238634   2.512   1.116   0.265  0.5276 -1.7258  0.2847
 9058SOL     OW38635   0.771   0.145  12.021  0.1384  0.5691 -0.5928
 9058SOL    HW138636   0.742   0.236  12.027  0.3364  0.6281 -0.5177
 9058SOL    HW238637   0.716   0.106  11.954  1.2241  0.6108 -1.5145
 9059SOL     OW38638   1.656   4.337   3.744  0.1343  0.3963  0.2429
 9059SOL    HW138639   1.699   4.268   3.694  0.7902  0.3395  0.8858
 9059SOL    HW238640   1.566   4.305   3.743  0.4930 -0.5762 -0.6189
 9060SOL     OW38641   0.920   0.714   1.000 -0.0153 -0.3699 -0.3880
 9060SOL    HW138642   0.842   0.742   1.049  1.1954 -0.0859  1.4222
 9060SOL    HW238643   0.906   0.746   0.911 -3.6887  0.5219  0.5070
 9061SOL     OW38644   3.535   1.385   2.478  0.1422  0.6012 -0.0253
 9061SOL    HW138645   3.591   1.379   2.555  0.7704  1.7468 -0.3896
 9061SOL    HW238646   3.489   1.301   2.480  1.6683 -0.2225  0.5776
 9062SOL     OW38647   0.212   1.485   2.634  0.5236  0.4246 -0.3364
 9062SOL    HW138648   0.236   1.447   2.550 -1.1256 -0.7413 -0.2620
 9062SOL    HW238649   0.137   1.540   2.614 -2.6526 -3.3426  1.3309
 9063SOL     OW38650   3.548   3.708  11.461  0.3801 -0.2777  0.1746
 9063SOL    HW138651   3.502   3.626  11.444  0.9049 -0.3673 -0.7942
 9063SOL    HW238652   3.639   3.679  11.463  1.1191  1.9619 -1.5155
 9064SOL     OW38653   0.774   3.591   4.402  0.2446  0.7431 -0.3883
 9064SOL    HW138654   0.842   3.559   4.343 -1.0604 -0.7209 -1.1046
 9064SOL    HW238655   0.792   3.537   4.479 -1.5615 -0.4434 -0.8047
 9065SOL     OW38656   4.138   3.256   4.441  0.3985 -0.3665  0.1595
 9065SOL    HW138657   4.178   3.237   4.526 -2.4906 -0.0852  1.5683
 9065SOL    HW238658   4.150   3.351   4.440  1.1555 -0.4672 -0.5397
 9066SOL     OW38659   4.520   1.131   2.492  0.2735 -0.0511 -0.2837
 9066SOL    HW138660   4.572   1.203   2.527 -1.4043 -0.0543  2.2226
 9066SOL    HW238661   4.437   1.174   2.472  0.2586 -0.3472 -0.8682
 9067SOL     OW38662   4.506   3.957   1.907 -0.0208  0.5562  0.7295
 9067SOL    HW138663   4.463   3.896   1.967  1.7788 -2.7945 -1.4040
 9067SOL    HW238664   4.435   4.017   1.880 -0.0623  0.0077 -0.4016
 9068SOL     OW38665   3.063   0.531   9.080 -0.1613  0.4309 -0.2142
 9068SOL    HW138666   3.076   0.469   9.008 -1.4974  0.6247 -0.6278
 9068SOL    HW238667   3.015   0.596   9.027  1.2558  1.5072 -0.1706
 9069SOL     OW38668   4.451   2.727   5.851  0.3152 -0.7186  0.0959
 9069SOL    HW138669   4.380   2.712   5.788  1.2972 -1.1131 -0.9144
 9069SOL    HW238670   4.526   2.715   5.793  1.0404  0.9217  0.6999
 9070SOL     OW38671   0.778   3.773   5.942 -0.2303  0.0759  0.3500
 9070SOL    HW138672   0.870   3.789   5.963 -0.5649  1.4570  0.7797
 9070SOL    HW238673   0.750   3.746   6.030 -0.4415 -3.1758 -0.7167
 9071SOL     OW38674   2.789   0.110   8.827  0.4417 -0.0612 -0.0565
 9071SOL    HW138675   2.798   0.163   8.906 -0.2457  1.3001 -0.8746
 9071SOL    HW238676   2.879   0.079   8.831 -0.0243 -1.4026 -0.1508
 9072SOL     OW38677   3.040   0.775   4.112 -0.3512 -0.1143 -0.6250
 9072SOL    HW138678   3.104   0.845   4.122 -1.6003  1.1812 -1.7581
 9072SOL    HW238679   2.963   0.829   4.130 -1.5653 -1.9632 -0.3146
 9073SOL     OW38680   0.860   3.921  14.603 -0.2628 -0.5584 -0.0847
 9073SOL    HW138681   0.772   3.918  14.641 -0.8617  1.8473 -1.2741
 9073SOL    HW238682   0.846   3.850  14.541  1.1222  0.3741 -1.4771
 9074SOL     OW38683   1.490   1.364  10.838  0.2189 -0.2820 -0.2069
 9074SOL    HW138684   1.506   1.351  10.745  0.0787 -1.0773 -0.1209
 9074SOL    HW238685   1.559   1.426  10.863 -2.0229  2.6034 -1.2153
 9075SOL     OW38686   0.250   1.924  17.234 -0.7158 -0.4530  0.3421
 9075SOL    HW138687   0.212   1.856  17.290 -0.6882  0.2369  1.1815
 9075SOL    HW238688   0.199   1.927  17.153  0.3574 -2.3415 -0.4259
 9076SOL     OW38689   0.428   2.220  14.694  0.0465 -0.1409  0.3684
 9076SOL    HW138690   0.459   2.173  14.616  0.3413 -0.6181  0.7747
 9076SOL    HW238691   0.493   2.181  14.753 -0.7839  2.0404  2.6995
 9077SOL     OW38692   0.814   0.913  12.406 -0.5081  0.1532 -0.2344
 9077SOL    HW138693   0.749   0.844  12.415  1.6119 -1.6928  0.8030
 9077SOL    HW238694   0.864   0.878  12.333 -0.0373 -0.6871  0.4983
 9078SOL     OW38695   3.406   3.799   1.659  0.3240 -0.1185  0.2576
 9078SOL    HW138696   3.472   3.844   1.606  0.8124 -0.5780  0.4703
 9078SOL    HW238697   3.380   3.859   1.729  1.0899  0.8812 -0.3196
 9079SOL     OW38698   2.994   2.195  11.546  0.2123 -0.2421  0.4789
 9079SOL    HW138699   3.038   2.271  11.507 -1.4113 -0.5161 -1.8311
 9079SOL    HW238700   2.904   2.204  11.516  0.6267 -0.9549 -0.9561
 9080SOL     OW38701   1.027   2.853  10.719  0.3007  0.1158  0.1823
 9080SOL    HW138702   0.978   2.875  10.799  2.0628 -0.3822  1.4068
 9080SOL    HW238703   1.060   2.940  10.697  2.5633 -0.8711 -0.3552
 9081SOL     OW38704   1.222   3.345   8.751  0.3862 -0.1976 -0.8373
 9081SOL    HW138705   1.278   3.414   8.715  1.6936 -0.9704 -0.3161
 9081SOL    HW238706   1.166   3.319   8.678 -0.3164 -1.4848  0.1649
 9082SOL     OW38707   3.108   0.450   3.188 -0.3277  0.0250  0.0673
 9082SOL    HW138708   3.157   0.417   3.264  0.8944 -0.2177 -0.8206
 9082SOL    HW238709   3.114   0.376   3.127 -0.1628  0.5980 -0.6003
 9083SOL     OW38710   1.877   2.860   6.471 -0.2841 -0.6577 -0.0050
 9083SOL    HW138711   1.787   2.890   6.471  0.3048  1.0783  2.3057
 9083SOL    HW238712   1.914   2.906   6.546  1.0720 -0.7878 -0.5913
 9084SOL     OW38713   3.161   0.547   5.200  0.1828 -0.2004 -0.2484
 9084SOL    HW138714   3.102   0.612   5.162 -2.4132 -1.9301  0.8296
 9084SOL    HW238715   3.094   0.516   5.261 -0.5774 -1.3035 -1.6312
 9085SOL     OW38716   1.506   3.498   2.097  0.2222 -0.7715 -0.0454
 9085SOL    HW138717   1.413   3.491   2.078  0.3680  0.7584 -1.2934
 9085SOL    HW238718   1.503   3.495   2.193 -1.0580  0.3674 -0.0533
 9086SOL     OW38719   1.472   3.331   4.388  0.1938  0.0330  0.1708
 9086SOL    HW138720   1.558   3.314   4.426 -0.0100  0.4433  0.8144
 9086SOL    HW238721   1.481   3.311   4.295  0.2538  0.5495  0.0668
 9087SOL     OW38722   2.053   1.439  17.591  1.0262 -0.4984  0.5717
 9087SOL    HW138723   2.125   1.502  17.584  0.3025  0.4981  2.1481
 9087SOL    HW238724   1.978   1.489  17.557  1.8912  0.2646 -0.2236
 9088SOL     OW38725   2.377   3.614   1.136 -0.2105  0.5630  0.0618
 9088SOL    HW138726   2.412   3.685   1.189 -1.9007  1.7320 -0.3903
 9088SOL    HW238727   2.390   3.664   1.055 -0.2783  0.1614 -0.1975
 9089SOL     OW38728   1.154   4.387   5.968 -0.0184  0.1746  0.0334
 9089SOL    HW138729   1.132   4.384   6.061  1.3254  0.4118  0.3665
 9089SOL    HW238730   1.067   4.397   5.930 -1.3359 -3.2223  2.1863
 9090SOL     OW38731   3.701   1.138  17.551 -0.2820 -0.7430 -0.3520
 9090SOL    HW138732   3.782   1.113  17.507 -0.2857  1.9496 -1.9076
 9090SOL    HW238733   3.650   1.146  17.470 -2.3620  2.0840  1.2318
 9091SOL     OW38734   0.619   2.253   3.953 -0.1719  0.2632  0.0799
 9091SOL    HW138735   0.710   2.263   3.981 -0.3730 -1.1252  1.2516
 9091SOL    HW238736   0.605   2.164   3.985 -2.4892  0.7924  0.4914
 9092SOL     OW38737   0.505   3.021   1.645 -0.0923 -0.0552  0.4916
 9092SOL    HW138738   0.471   3.108   1.625 -0.1869 -0.4099 -0.8535
 9092SOL    HW238739   0.476   2.976   1.566  0.6090  0.1222  0.1380
 9093SOL     OW38740   0.403   0.505   4.482  0.1776  0.0332 -0.0921
 9093SOL    HW138741   0.433   0.581   4.433 -0.5014 -0.7710 -1.7229
 9093SOL    HW238742   0.344   0.474   4.414  0.1358  0.6737 -0.3497
 9094SOL     OW38743   3.717   2.467   2.595 -0.3072  0.1018 -0.2058
 9094SOL    HW138744   3.801   2.455   2.550  0.0281  3.2231 -0.3920
 9094SOL    HW238745   3.735   2.560   2.605  0.6985 -0.3127  1.7131
 9095SOL     OW38746   1.022   3.030   6.231 -0.5246 -0.7821 -0.4006
 9095SOL    HW138747   0.954   3.096   6.222  0.1545  0.3796  3.0213
 9095SOL    HW238748   1.003   3.002   6.321  0.0484  0.8010  0.2119
 9096SOL     OW38749   4.706   2.955  15.852 -0.0180 -0.5196  0.4807
 9096SOL    HW138750   0.005   3.047  15.867  0.1295 -0.6809  1.2112
 9096SOL    HW238751   0.000   2.948  15.758 -2.5822 -0.8054  0.0123
 9097SOL     OW38752   1.319   3.129   9.726  0.4668 -0.4923  0.4334
 9097SOL    HW138753   1.237   3.151   9.681 -0.0034 -0.3623  1.3407
 9097SOL    HW238754   1.381   3.172   9.669  0.0259 -0.5695 -0.0994
 9098SOL     OW38755   2.512   3.224   8.655  0.9315 -0.0886 -0.3806
 9098SOL    HW138756   2.606   3.211   8.640  0.5821 -0.7938 -1.9901
 9098SOL    HW238757   2.516   3.191   8.744 -2.2319  1.0716  0.1804
 9099SOL     OW38758   3.649   4.347   7.938 -0.2570 -0.3365  0.2766
 9099SOL    HW138759   3.577   4.398   7.975 -0.4652  0.8312 -1.6884
 9099SOL    HW238760   3.639   4.259   7.975 -0.3588  0.1699  1.4353
 9100SOL     OW38761   2.425   0.927  11.164 -0.9845  0.2335  0.0119
 9100SOL    HW138762   2.418   0.943  11.070 -1.9442 -0.6339 -0.0665
 9100SOL    HW238763   2.338   0.958  11.189 -1.1255  1.9046 -2.6254
 9101SOL     OW38764   3.452   3.501   7.239  0.0487 -0.1533 -0.1731
 9101SOL    HW138765   3.476   3.416   7.275  1.8461  0.6911  0.6567
 9101SOL    HW238766   3.363   3.491   7.207 -0.2350 -0.3255  0.6613
 9102SOL     OW38767   0.554   3.856  14.070  0.0216 -0.1404 -0.2460
 9102SOL    HW138768   0.575   3.875  13.979 -0.0416 -2.1584 -0.6595
 9102SOL    HW238769   0.646   3.837  14.091  0.5212  2.2919 -0.1188
 9103SOL     OW38770   0.162   2.538   9.930  0.0404  0.0574 -0.6917
 9103SOL    HW138771   0.087   2.596   9.918 -1.9583 -2.0148  1.6551
 9103SOL    HW238772   0.158   2.519  10.024 -0.0391 -0.3300 -0.7708
 9104SOL     OW38773   3.403   0.739   1.349  0.2966  0.2812  0.0127
 9104SOL    HW138774   3.481   0.752   1.296  0.1204  0.2615 -0.2508
 9104SOL    HW238775   3.401   0.647   1.375  0.7199  0.5060  0.8504
 9105SOL     OW38776   2.250   4.697   7.238  0.2098  0.3746 -0.3010
 9105SOL    HW138777   2.277   4.631   7.174 -0.9825 -0.3221 -0.0847
 9105SOL    HW238778   2.319   0.038   7.219  0.3603  0.6064  1.0502
 9106SOL     OW38779   1.020   4.038   2.826  0.0602  0.3928  0.2875
 9106SOL    HW138780   1.051   3.964   2.879 -1.1597 -0.5649 -0.3466
 9106SOL    HW238781   0.935   4.055   2.868  0.7042  0.4982  1.5560
 9107SOL     OW38782   1.134   1.608  13.369 -0.1040 -0.2633 -0.2193
 9107SOL    HW138783   1.097   1.569  13.289 -2.0625 -0.2202  0.6795
 9107SOL    HW238784   1.171   1.540  13.425  0.8818  0.0699 -0.4600
 9108SOL     OW38785   2.458   3.643   2.870 -0.3785  0.1554  0.5724
 9108SOL    HW138786   2.429   3.732   2.852 -1.7150 -0.1546  1.1613
 9108SOL    HW238787   2.505   3.617   2.791 -0.1381  1.0516  0.4231
 9109SOL     OW38788   2.812   4.721   5.888  0.3428 -0.1377 -0.1513
 9109SOL    HW138789   2.741   0.040   5.936  1.6052  0.6614  0.9844
 9109SOL    HW238790   2.773   4.635   5.869 -1.2038  0.6364 -0.5270
 9110SOL     OW38791   1.885   2.981  16.220 -0.2431  0.2908  0.5573
 9110SOL    HW138792   1.962   2.978  16.163 -1.2266 -0.4574 -0.7162
 9110SOL    HW238793   1.817   2.994  16.154  0.0628  2.2235  0.6311
 9111SOL     OW38794   4.114   2.160   9.305  0.3146 -0.4336 -0.0353
 9111SOL    HW138795   4.118   2.221   9.378  0.3063 -2.1808  1.4502
 9111SOL    HW238796   4.091   2.078   9.351  0.5147 -0.8670 -0.7100
 9112SOL     OW38797   0.352   2.724  13.919 -0.1023 -0.1509  0.1584
 9112SOL    HW138798   0.376   2.671  13.843 -2.3774  0.0763 -0.7090
 9112SOL    HW238799   0.313   2.668  13.986 -1.4063 -0.2931 -0.7037
 9113SOL     OW38800   0.753   2.255   2.806 -0.4005 -0.3031 -0.3241
 9113SOL    HW138801   0.769   2.201   2.728 -0.1887  0.4958 -0.8238
 9113SOL    HW238802   0.799   2.334   2.779 -0.7744 -0.3839 -1.1893
 9114SOL     OW38803   2.760   0.504   2.167 -0.3847  0.1553  0.6298
 9114SOL    HW138804   2.825   0.448   2.124 -0.8860  0.7993 -0.9844
 9114SOL    HW238805   2.781   0.595   2.144  2.3161 -0.8189 -0.7646
 9115SOL     OW38806   2.365   1.101   6.871 -0.2869 -0.2876  0.3106
 9115SOL    HW138807   2.310   1.029   6.899  0.3328 -0.3247  1.4208
 9115SOL    HW238808   2.316   1.130   6.794  1.7563 -1.4699 -1.4297
 9116SOL     OW38809   2.853   2.605   8.555  0.9442 -0.1207 -0.7417
 9116SOL    HW138810   2.846   2.606   8.650  0.8137  1.7820 -0.7721
 9116SOL    HW238811   2.941   2.571   8.542  1.4495 -0.2731  3.3643
 9117SOL     OW38812   3.056   0.903   7.035  0.5692 -1.0777 -0.0395
 9117SOL    HW138813   3.125   0.968   7.044  0.0524 -0.7042  1.1806
 9117SOL    HW238814   3.110   0.824   7.027  1.5032 -0.5174  0.7482
 9118SOL     OW38815   1.960   0.086  15.013 -0.2733  0.0699 -0.1674
 9118SOL    HW138816   1.899   0.032  15.062 -0.6931  0.8364  0.1512
 9118SOL    HW238817   2.039   0.049  15.051 -0.8451 -0.9933 -0.0255
 9119SOL     OW38818   1.312   3.879   2.855  0.7221 -0.1898 -0.4708
 9119SOL    HW138819   1.324   3.947   2.788  2.5938  0.8956  0.9499
 9119SOL    HW238820   1.258   3.821   2.802 -0.0817 -1.1886  1.4598
 9120SOL     OW38821   2.484   2.222   5.534 -0.2966  0.5573 -0.7113
 9120SOL    HW138822   2.522   2.221   5.446  1.9899 -1.9076  0.3123
 9120SOL    HW238823   2.551   2.200   5.599  0.1625  0.1982 -1.3089
 9121SOL     OW38824   0.852   4.418   9.047  0.3387  0.2878 -0.0150
 9121SOL    HW138825   0.782   4.448   9.106 -0.1249  2.1086 -1.4763
 9121SOL    HW238826   0.926   4.451   9.098  1.6247 -0.0167 -1.7072
 9122SOL     OW38827   0.385   4.130   0.269  0.2627  0.0172 -0.3219
 9122SOL    HW138828   0.420   4.077   0.341  0.3853 -1.4607 -1.4801
 9122SOL    HW238829   0.463   4.133   0.213  0.9052 -3.1241  0.4416
 9123SOL     OW38830   2.818   3.888   8.915 -0.3536  0.3545 -0.6184
 9123SOL    HW138831   2.786   3.848   8.834 -0.7675  2.8530 -1.7131
 9123SOL    HW238832   2.734   3.907   8.958 -0.6830 -0.6400 -0.8386
 9124SOL     OW38833   1.283   0.182   2.381 -1.1702  0.0735 -0.4133
 9124SOL    HW138834   1.195   0.187   2.344 -0.2638  0.4993 -2.5332
 9124SOL    HW238835   1.272   0.136   2.464  1.1508 -2.3111 -1.4107
 9125SOL     OW38836   3.072   2.910  13.856  0.0283 -0.0808 -0.3148
 9125SOL    HW138837   3.063   2.878  13.947  1.0911 -1.5899 -0.7234
 9125SOL    HW238838   3.126   2.987  13.873 -0.7959  0.4626 -0.1732
 9126SOL     OW38839   2.709   2.792   4.596  0.0007 -0.4396 -0.0909
 9126SOL    HW138840   2.663   2.871   4.624 -0.4254 -0.5993 -0.3369
 9126SOL    HW238841   2.706   2.738   4.676  2.4304 -0.1980  0.1496
 9127SOL     OW38842   4.658   0.641  13.934  0.1450  1.2938 -0.1286
 9127SOL    HW138843   4.687   0.589  13.860  0.8588  2.6922 -0.8275
 9127SOL    HW238844   4.590   0.586  13.973  0.2854  1.0915 -0.1699
 9128SOL     OW38845   3.225   1.780  16.674  0.7192  0.0017  0.1909
 9128SOL    HW138846   3.178   1.772  16.757  2.1579 -0.1609  0.9730
 9128SOL    HW238847   3.242   1.687  16.660  3.1072  0.8312 -2.4521
 9129SOL     OW38848   1.481   0.697   6.641  0.3379 -0.1092 -0.0517
 9129SOL    HW138849   1.438   0.611   6.632  2.3612 -1.2709  1.5629
 9129SOL    HW238850   1.431   0.742   6.709 -1.1776  0.2410 -1.3927
 9130SOL     OW38851   2.061   4.144   3.816 -0.3836  0.0557 -0.1038
 9130SOL    HW138852   2.010   4.224   3.828 -0.3972 -0.2770  1.9945
 9130SOL    HW238853   1.994   4.091   3.772 -0.6253 -0.0366  0.3750
 9131SOL     OW38854   0.341   4.627   5.545  0.0687  0.0457 -0.1608
 9131SOL    HW138855   0.325   4.639   5.451 -0.0553 -0.8168 -0.2449
 9131SOL    HW238856   0.303   4.540   5.549 -0.5583  0.3347  0.1791
 9132SOL     OW38857   4.309   0.936   8.180 -0.3745 -0.0280  0.1092
 9132SOL    HW138858   4.312   1.025   8.217 -2.9411 -0.2077  0.7521
 9132SOL    HW238859   4.220   0.904   8.195 -0.0061 -0.1484  1.9437
 9133SOL     OW38860   1.237   0.036   4.898  0.2688  0.3048  0.1365
 9133SOL    HW138861   1.233   0.128   4.874 -0.0328  0.4424  0.7190
 9133SOL    HW238862   1.256   0.044   4.991 -0.7141 -0.3421  0.3922
 9134SOL     OW38863   4.480   3.650   1.598 -0.0862  0.1382  0.4664
 9134SOL    HW138864   4.485   3.744   1.580  0.5935 -0.4683 -2.4392
 9134SOL    HW238865   4.548   3.618   1.539 -1.8771 -1.1267 -0.8769
 9135SOL     OW38866   1.290   3.660  10.471 -0.1555 -0.1560 -0.8715
 9135SOL    HW138867   1.376   3.619  10.465 -0.4318 -0.4340 -2.7800
 9135SOL    HW238868   1.302   3.739  10.525  1.2732 -0.7820 -0.2684
 9136SOL     OW38869   2.112   2.274   6.719  0.1460 -0.2172  0.0249
 9136SOL    HW138870   2.061   2.308   6.645 -1.3492  1.2590  1.7014
 9136SOL    HW238871   2.038   2.228   6.759  0.0850 -0.0851  0.0680
 9137SOL     OW38872   3.047   2.250   9.013 -0.2700  0.2345 -0.2967
 9137SOL    HW138873   3.051   2.280   9.104 -0.7581 -3.1920  0.8545
 9137SOL    HW238874   2.954   2.228   9.015 -0.4259  1.0911  1.3827
 9138SOL     OW38875   0.003   3.256   8.342 -0.1202  0.0702  0.4601
 9138SOL    HW138876   4.655   3.316   8.359  0.1276 -0.3242  2.8827
 9138SOL    HW238877   0.053   3.269   8.422 -1.3454  1.0974  1.0402
 9139SOL     OW38878   0.136   1.321  10.792 -0.1488 -0.2187  0.0972
 9139SOL    HW138879   0.157   1.271  10.713 -1.9383 -1.2403  0.2711
 9139SOL    HW238880   0.089   1.258  10.847 -0.5355 -2.0665 -2.3486
 9140SOL     OW38881   3.749   0.622   3.776 -0.2404 -0.3021  0.2927
 9140SOL    HW138882   3.657   0.613   3.802 -0.5508  2.1291  0.0719
 9140SOL    HW238883   3.754   0.600   3.684 -0.5930 -0.8336  0.4049
 9141SOL     OW38884   3.043   3.640   5.707 -0.1359 -0.0225 -0.0154
 9141SOL    HW138885   2.977   3.581   5.670 -0.2739 -0.4377  0.8990
 9141SOL    HW238886   3.107   3.580   5.743  0.1629  0.8962  0.9779
 9142SOL     OW38887   4.669   0.733   3.811  0.4182  0.1966  0.3060
 9142SOL    HW138888   4.695   0.642   3.828 -0.0495  0.5339  2.8318
 9142SOL    HW238889   4.605   0.738   3.882 -0.4878 -0.1360 -0.4939
 9143SOL     OW38890   3.431   1.056  13.079 -0.7825  0.6172 -0.4198
 9143SOL    HW138891   3.348   1.074  13.123  0.3228 -0.1758  2.0171
 9143SOL    HW238892   3.400   0.985  13.022  0.4341 -0.0835 -0.2058
 9144SOL     OW38893   0.514   1.711   4.945 -0.1631 -0.6503 -0.5206
 9144SOL    HW138894   0.421   1.686   4.943 -0.5815  0.9396 -0.9618
 9144SOL    HW238895   0.547   1.674   4.863  1.2863  0.2838 -0.3526
 9145SOL     OW38896   4.214   1.816   7.193  0.1408 -0.1544  0.0672
 9145SOL    HW138897   4.212   1.864   7.276 -2.8573  0.4363 -0.3322
 9145SOL    HW238898   4.305   1.826   7.167  0.0407  0.6287  0.0253
 9146SOL     OW38899   2.861   2.083  10.530 -0.1193 -0.3600  0.2019
 9146SOL    HW138900   2.852   2.176  10.552  0.5916 -0.5045  1.0627
 9146SOL    HW238901   2.789   2.041  10.577  0.3738 -2.0111 -0.5291
 9147SOL     OW38902   0.505   0.055   2.434 -0.5567  0.0651  0.2496
 9147SOL    HW138903   0.490   0.137   2.387  1.1598 -0.1970 -0.7374
 9147SOL    HW238904   0.577   0.009   2.391 -1.1941  0.0319 -0.7675
 9148SOL     OW38905   3.691   0.626   2.671 -0.1749 -0.7337  0.1318
 9148SOL    HW138906   3.710   0.690   2.739  0.1832 -0.7942  0.0903
 9148SOL    HW238907   3.772   0.635   2.619 -0.6459 -0.6549 -0.5944
 9149SOL     OW38908   1.052   2.788   5.786 -0.2350 -0.2922  0.5742
 9149SOL    HW138909   1.092   2.873   5.803  0.8168 -0.3669 -1.6262
 9149SOL    HW238910   1.131   2.735   5.782  0.4935  0.7265  1.4799
 9150SOL     OW38911   4.055   3.929   6.967 -0.1509 -0.5710 -0.0548
 9150SOL    HW138912   4.049   3.845   6.921  3.5266 -0.1464 -1.3237
 9150SOL    HW238913   4.028   3.991   6.899  0.7954  1.9196  1.8025
 9151SOL     OW38914   0.914   4.432   2.446  0.6159 -0.0944 -0.0111
 9151SOL    HW138915   0.837   4.379   2.428  0.0142  0.5304  0.6703
 9151SOL    HW238916   0.987   4.371   2.446  0.1160 -0.6887  0.5079
 9152SOL     OW38917   1.249   4.219   9.988  0.2473  0.4890  0.2601
 9152SOL    HW138918   1.163   4.235  10.028  1.0853  1.6055  1.5929
 9152SOL    HW238919   1.227   4.160   9.916  1.1729 -0.1722  0.5214
 9153SOL     OW38920   0.016   4.613   1.388 -0.1389  0.3414  0.3988
 9153SOL    HW138921   0.102   4.650   1.365  0.8430 -0.9108  2.0174
 9153SOL    HW238922   0.023   4.585   1.479 -3.1760 -1.5154  0.0386
 9154SOL     OW38923   3.951   3.576   4.000 -0.2907 -0.1109  0.6103
 9154SOL    HW138924   3.986   3.491   4.028  2.0448  0.1166 -1.6201
 9154SOL    HW238925   3.863   3.547   3.978 -0.6870  1.7591 -0.2600
 9155SOL     OW38926   0.770   0.219   4.139  0.2443  0.6467  0.5014
 9155SOL    HW138927   0.777   0.283   4.068 -2.1666  1.0950  0.6882
 9155SOL    HW238928   0.805   0.145   4.090 -3.2635  0.1595 -1.2825
 9156SOL     OW38929   3.526   4.004   3.288  0.2175  0.0906 -0.2041
 9156SOL    HW138930   3.448   4.041   3.329 -0.6369  0.3354 -2.0685
 9156SOL    HW238931   3.552   3.948   3.361 -0.8765  1.3692  1.1665
 9157SOL     OW38932   0.550   2.248   9.345 -0.0918  0.0212  0.1136
 9157SOL    HW138933   0.609   2.222   9.415 -1.4385 -0.4960  1.0382
 9157SOL    HW238934   0.487   2.177   9.351  0.5127 -0.7149 -2.1356
 9158SOL     OW38935   0.832   4.349   9.871  0.2491  0.6177 -0.0630
 9158SOL    HW138936   0.795   4.261   9.865  0.3396  0.5807 -0.0740
 9158SOL    HW238937   0.917   4.329   9.833  0.1606 -1.6334  0.9243
 9159SOL     OW38938   2.710   0.746   7.050 -0.0494 -0.8626  0.2164
 9159SOL    HW138939   2.753   0.763   7.133 -0.7197  0.3513  0.3186
 9159SOL    HW238940   2.731   0.653   7.043  1.4137 -0.6254  1.6290
 9160SOL     OW38941   3.523   1.877   8.246  0.3465 -0.4270  0.6401
 9160SOL    HW138942   3.552   1.867   8.156 -0.4651 -2.5242  0.5997
 9160SOL    HW238943   3.428   1.886   8.236  0.5607 -2.5451 -3.3413
 9161SOL     OW38944   4.164   1.741   4.630  0.3297 -0.3914  0.0227
 9161SOL    HW138945   4.140   1.704   4.715 -2.8574  0.6046 -0.4495
 9161SOL    HW238946   4.140   1.830   4.655  0.0685 -0.2801 -0.6392
 9162SOL     OW38947   2.686   0.497   3.217  0.3428  0.3843 -0.2415
 9162SOL    HW138948   2.742   0.494   3.140  0.8563  1.1054  0.0905
 9162SOL    HW238949   2.660   0.590   3.213  3.2739  1.1817 -0.7253
 9163SOL     OW38950   1.938   3.241   4.248  0.4232  0.3843  0.7228
 9163SOL    HW138951   1.910   3.305   4.314 -2.8655  0.8094 -1.1419
 9163SOL    HW238952   1.922   3.287   4.166  0.2809 -0.6862  0.1529
 9164SOL     OW38953   3.933   4.269   6.229 -0.1021  0.6030 -0.8866
 9164SOL    HW138954   3.874   4.304   6.296  1.7726  0.2759  0.9162
 9164SOL    HW238955   3.893   4.181   6.227 -0.3972  0.8005 -3.4170
 9165SOL     OW38956   2.083   1.638  15.506 -0.1796  0.4462  0.0846
 9165SOL    HW138957   2.114   1.549  15.524  1.6945  0.8173 -1.2834
 9165SOL    HW238958   2.108   1.668  15.594 -0.8886  1.5279 -0.0755
 9166SOL     OW38959   3.714   0.329   9.342 -0.1470 -0.2190  0.0558
 9166SOL    HW138960   3.731   0.236   9.332 -1.9037 -0.5626  0.1932
 9166SOL    HW238961   3.660   0.330   9.421  2.1358 -0.2656  1.6162
 9167SOL     OW38962   0.335   0.845   6.813 -0.1088  0.5528 -0.5073
 9167SOL    HW138963   0.387   0.770   6.782  0.7804  0.9797 -0.0682
 9167SOL    HW238964   0.295   0.811   6.893 -0.7465  0.7424 -0.7511
 9168SOL     OW38965   0.552   2.538   3.585 -0.6537  0.5637  0.5344
 9168SOL    HW138966   0.519   2.461   3.631 -0.5350 -0.8260 -1.7250
 9168SOL    HW238967   0.597   2.486   3.518 -2.0069 -0.2112  0.2328
 9169SOL     OW38968   3.975   0.740  14.004  0.0619  0.2234  0.0171
 9169SOL    HW138969   3.936   0.828  14.007 -1.4424 -0.5082  2.7108
 9169SOL    HW238970   3.985   0.715  14.096  1.5161  1.2324  0.1308
 9170SOL     OW38971   1.569   1.157   1.432 -0.1546 -0.5924 -0.3177
 9170SOL    HW138972   1.555   1.199   1.518 -1.2279 -1.2273 -0.1823
 9170SOL    HW238973   1.611   1.075   1.456  0.9250 -0.5373 -2.0254
 9171SOL     OW38974   0.453   1.277   2.362 -0.4886 -0.2747  0.1580
 9171SOL    HW138975   0.509   1.230   2.301  0.6185  1.0460  0.1694
 9171SOL    HW238976   0.508   1.348   2.394 -0.6124 -0.4984  0.8685
 9172SOL     OW38977   1.158   0.305   7.035 -0.1108 -0.6310 -0.2714
 9172SOL    HW138978   1.236   0.250   7.031  0.9430  0.7795  1.1574
 9172SOL    HW238979   1.103   0.261   7.101  1.0953 -1.5518  0.1139
 9173SOL     OW38980   4.318   4.352   4.799 -0.7784  0.2951 -0.1834
 9173SOL    HW138981   4.373   4.312   4.867 -0.6543 -0.2385 -0.6019
 9173SOL    HW238982   4.374   4.427   4.775  0.3423  0.8397  4.0867
 9174SOL     OW38983   0.527   2.972  15.273 -0.8393 -0.4857  0.2055
 9174SOL    HW138984   0.483   2.948  15.192  0.3498  1.6970 -1.0972
 9174SOL    HW238985   0.521   3.067  15.259  0.9606 -0.2063  1.4151
 9175SOL     OW38986   1.622   0.764   7.463 -0.0528 -0.4938 -0.3083
 9175SOL    HW138987   1.581   0.817   7.395 -2.5312 -0.9328  0.8161
 9175SOL    HW238988   1.689   0.823   7.496  1.0595 -0.6148 -2.3556
 9176SOL     OW38989   0.772   3.023  10.499  0.3215 -0.1281  0.6129
 9176SOL    HW138990   0.772   2.971  10.419  1.3505  0.3054  0.3302
 9176SOL    HW238991   0.710   2.978  10.557  0.7222 -1.2052  0.2120
 9177SOL     OW38992   2.177   2.929   3.788  0.5760  0.0165  0.2748
 9177SOL    HW138993   2.176   2.974   3.704  2.0474  0.1908  0.3509
 9177SOL    HW238994   2.223   2.847   3.771 -1.4390 -0.8942 -0.7669
 9178SOL     OW38995   1.173   0.291   4.785 -0.2279 -0.7867 -0.4277
 9178SOL    HW138996   1.095   0.338   4.814  0.2054  0.8687 -1.8898
 9178SOL    HW238997   1.171   0.332   4.698  4.4635  2.1945  0.8601
 9179SOL     OW38998   0.760   2.055   1.165 -0.0144 -0.0101 -0.3909
 9179SOL    HW138999   0.836   2.017   1.120  0.6876 -1.0721  1.6811
 9179SOL    HW239000   0.734   2.105   1.087 -2.0192 -1.7996 -0.8825
 9180SOL     OW39001   3.666   3.258  12.825 -0.0560  0.7259  0.2671
 9180SOL    HW139002   3.700   3.265  12.914  0.2694  1.5590  0.0774
 9180SOL    HW239003   3.742   3.277  12.772 -0.4894  0.6262 -0.3909
 9181SOL     OW39004   0.808   4.661   4.054  0.6836  0.0057  0.1608
 9181SOL    HW139005   0.758   4.585   4.084 -0.0519 -0.1050 -1.3433
 9181SOL    HW239006   0.887   4.619   4.022 -0.0395 -0.5545 -0.8823
 9182SOL     OW39007   2.741   0.596   3.677 -0.2367  0.8959 -0.1473
 9182SOL    HW139008   2.816   0.654   3.692  1.3572 -1.6921  1.8941
 9182SOL    HW239009   2.732   0.553   3.762  1.8408  0.0557 -0.3568
 9183SOL     OW39010   2.669   0.855   8.696 -0.2272 -0.2469  1.1145
 9183SOL    HW139011   2.737   0.918   8.720 -0.6782  1.6127 -2.4195
 9183SOL    HW239012   2.622   0.899   8.625  0.7978 -1.8484 -0.5611
 9184SOL     OW39013   2.510   1.693   0.931 -0.0931 -0.1268  1.0914
 9184SOL    HW139014   2.449   1.633   0.889 -0.3442  1.2170 -0.4805
 9184SOL    HW239015   2.573   1.636   0.975 -1.0498  0.1340  2.8214
 9185SOL     OW39016   3.788   1.564   7.818  0.3971  0.4006  0.6590
 9185SOL    HW139017   3.879   1.537   7.810 -0.1609 -1.0868 -0.5436
 9185SOL    HW239018   3.770   1.562   7.912  1.3620  2.8939  0.9118
 9186SOL     OW39019   1.593   3.124  12.853  0.0923 -0.4764 -0.0229
 9186SOL    HW139020   1.520   3.130  12.792 -0.2225 -0.2083  0.3861
 9186SOL    HW239021   1.622   3.033  12.842 -1.1283 -0.5194 -3.0613
 9187SOL     OW39022   3.006   0.768   1.185 -0.2310  0.0405 -0.2930
 9187SOL    HW139023   2.931   0.828   1.198 -0.4946 -0.7456  1.7626
 9187SOL    HW239024   2.960   0.688   1.161 -0.3469  0.8185 -2.6537
 9188SOL     OW39025   2.604   3.738   7.779 -0.0781 -0.2320 -0.0995
 9188SOL    HW139026   2.653   3.811   7.741 -3.2770  1.6788 -0.6551
 9188SOL    HW239027   2.600   3.669   7.713  0.4179 -0.8793  0.5515
 9189SOL     OW39028   3.454   3.312   6.052  0.5714  0.7480 -0.3070
 9189SOL    HW139029   3.487   3.224   6.038  0.3096  0.1757  2.6880
 9189SOL    HW239030   3.495   3.365   5.983 -0.2995  1.4891 -0.2658
 9190SOL     OW39031   2.349   2.323   6.124 -0.1202 -0.1524  0.0049
 9190SOL    HW139032   2.276   2.265   6.145 -1.3341  1.0012 -1.0475
 9190SOL    HW239033   2.312   2.408   6.146 -0.4048  0.0048 -1.1047
 9191SOL     OW39034   4.125   3.071   2.202  0.1098 -0.3338  0.1551
 9191SOL    HW139035   4.054   3.054   2.141 -0.4806 -0.2079  0.8081
 9191SOL    HW239036   4.158   3.160   2.189  0.2260 -0.5106 -0.7470
 9192SOL     OW39037   1.008   2.213   6.580 -0.3470 -0.1686  0.0649
 9192SOL    HW139038   1.001   2.125   6.544  0.2662  0.3090 -1.2008
 9192SOL    HW239039   0.963   2.190   6.661 -0.3675  0.4959  0.2359
 9193SOL     OW39040   0.903   2.637   4.057 -0.4196 -0.6679 -0.1458
 9193SOL    HW139041   0.955   2.565   4.022 -1.3271 -0.7751 -1.2500
 9193SOL    HW239042   0.829   2.578   4.071  0.3121 -1.8686 -1.3856
 9194SOL     OW39043   1.438   4.327   0.081  0.4456 -0.4630 -0.0691
 9194SOL    HW139044   1.469   4.397   0.022 -0.7766 -0.4506 -0.6872
 9194SOL    HW239045   1.355   4.305   0.039  0.5275 -0.2268 -0.3581
 9195SOL     OW39046   0.699   0.208   0.817  0.4124  0.0903  0.2166
 9195SOL    HW139047   0.614   0.166   0.832  0.9681 -0.5792  1.4431
 9195SOL    HW239048   0.745   0.125   0.804 -0.7891 -0.6972  0.9656
 9196SOL     OW39049   0.727   2.771   6.326 -0.0669 -0.1322  1.0815
 9196SOL    HW139050   0.726   2.827   6.249 -1.2504  0.3711  1.4559
 9196SOL    HW239051   0.744   2.684   6.289  0.7185 -0.1897  1.5815
 9197SOL     OW39052   0.380   4.056   4.428  0.3574 -0.2703  0.0603
 9197SOL    HW139053   0.382   4.133   4.372  0.9769 -0.5071 -0.2505
 9197SOL    HW239054   0.287   4.042   4.445 -0.0117  0.5695 -1.3028
 9198SOL     OW39055   2.210   3.595  10.034  0.3358  0.0965  1.0409
 9198SOL    HW139056   2.257   3.630  10.110 -0.0129 -0.2484  1.4176
 9198SOL    HW239057   2.132   3.649  10.039  0.3348  0.1591  0.3786
 9199SOL     OW39058   3.558   2.055  10.065 -0.8239 -0.5437 -0.0674
 9199SOL    HW139059   3.496   1.986  10.087 -1.1850 -0.7211 -1.6443
 9199SOL    HW239060   3.509   2.135  10.087 -0.8577 -0.4701 -0.4173
 9200SOL     OW39061   0.581   0.803   5.546 -0.6479 -0.0116 -0.0037
 9200SOL    HW139062   0.511   0.769   5.490  0.7325 -0.6656 -1.3445
 9200SOL    HW239063   0.560   0.894   5.523  2.9439  0.3248 -1.9285
 9201SOL     OW39064   0.882   3.800   1.974 -0.1377 -0.2134  0.1261
 9201SOL    HW139065   0.974   3.803   2.000 -0.0825  1.3638 -0.2266
 9201SOL    HW239066   0.856   3.712   2.001 -5.3575  1.1884 -0.2835
 9202SOL     OW39067   0.668   2.456   6.239  0.1146  0.0621  0.2112
 9202SOL    HW139068   0.748   2.407   6.259 -0.7521 -1.2874  0.3788
 9202SOL    HW239069   0.686   2.487   6.150  0.7600 -1.5612 -0.2169
 9203SOL     OW39070   2.994   2.214   3.000  0.2449  0.1931  0.3235
 9203SOL    HW139071   2.999   2.245   3.090  0.1663 -0.6638  0.6273
 9203SOL    HW239072   3.068   2.263   2.965  1.5008 -0.8946  1.4386
 9204SOL     OW39073   4.392   0.571  10.904  0.3296 -0.3859 -0.2246
 9204SOL    HW139074   4.372   0.647  10.958 -2.2125 -1.6688  0.6330
 9204SOL    HW239075   4.346   0.584  10.821 -0.1469 -1.7088 -0.1786
 9205SOL     OW39076   2.939   4.182   5.835  0.3650  0.7903  0.9321
 9205SOL    HW139077   2.870   4.121   5.863  1.3630 -0.7748 -0.0016
 9205SOL    HW239078   2.996   4.114   5.800 -0.8562 -0.9910  2.3898
 9206SOL     OW39079   4.480   3.294   3.864 -0.0552 -0.2851 -0.1011
 9206SOL    HW139080   4.546   3.349   3.906 -0.8478  1.3779 -1.0093
 9206SOL    HW239081   4.531   3.243   3.802  0.2750  1.3232 -1.1471
 9207SOL     OW39082   0.074   2.583   9.525  0.3739  0.1644 -0.2892
 9207SOL    HW139083   0.040   2.652   9.582 -0.2119  0.1563 -0.6371
 9207SOL    HW239084   0.147   2.569   9.586 -0.1410 -0.8306  0.0967
 9208SOL     OW39085   1.873   0.202   3.528  0.1315  0.4766 -0.3117
 9208SOL    HW139086   1.936   0.260   3.486 -0.7302  1.4025 -0.3422
 9208SOL    HW239087   1.909   0.117   3.505 -2.9036 -0.7951 -0.4441
 9209SOL     OW39088   4.119   3.351   2.297 -0.7084 -0.5300  0.2196
 9209SOL    HW139089   4.037   3.396   2.316 -1.1361 -2.0027  1.8924
 9209SOL    HW239090   4.167   3.429   2.269 -0.7574 -0.4745  0.2883
 9210SOL     OW39091   3.573   2.217   3.546  0.5602 -0.0832  0.1912
 9210SOL    HW139092   3.570   2.156   3.472 -2.7078  1.8272 -1.2271
 9210SOL    HW239093   3.560   2.299   3.499  1.7938  0.5194  0.8923
 9211SOL     OW39094   4.116   0.228   1.877 -0.7073 -0.7824 -0.4711
 9211SOL    HW139095   4.093   0.315   1.844 -1.9298  0.1051  2.6463
 9211SOL    HW239096   4.201   0.251   1.917 -0.4332 -3.9766  0.7821
 9212SOL     OW39097   1.568   4.042  14.582 -0.4285 -0.0942 -0.4688
 9212SOL    HW139098   1.484   4.005  14.608  0.2517 -4.0471 -3.7511
 9212SOL    HW239099   1.582   4.118  14.638  0.9946  1.0660 -2.3890
 9213SOL     OW39100   1.006   2.082  12.107  0.2273 -0.4123 -0.1894
 9213SOL    HW139101   0.967   2.142  12.171  1.7498  0.9370 -0.5216
 9213SOL    HW239102   1.041   2.011  12.162  1.4030 -0.4966 -1.0356
 9214SOL     OW39103   1.751   4.040   4.506 -0.4544  0.2865  0.1526
 9214SOL    HW139104   1.769   4.083   4.422 -0.0690  0.6748  0.4297
 9214SOL    HW239105   1.703   4.108   4.554  1.3956  1.0930  0.8630
 9215SOL     OW39106   2.724   2.024   4.678  0.1026 -0.5124  0.0633
 9215SOL    HW139107   2.781   1.996   4.607  0.1243 -1.0453  0.2880
 9215SOL    HW239108   2.689   2.105   4.642 -1.5530 -1.4479 -0.4962
 9216SOL     OW39109   1.419   0.420  10.799 -0.1202  0.0248 -0.1592
 9216SOL    HW139110   1.497   0.436  10.746  1.0624  1.2636  1.9475
 9216SOL    HW239111   1.460   0.420  10.886  1.2721 -0.7861 -0.8009
 9217SOL     OW39112   2.610   3.173   7.498  0.0595 -0.2290  0.0193
 9217SOL    HW139113   2.598   3.090   7.544 -2.7456  0.4352  0.4625
 9217SOL    HW239114   2.523   3.212   7.507  0.9200  0.6789  4.3176
 9218SOL     OW39115   0.069   1.467   8.010 -0.1111 -0.6490  0.0750
 9218SOL    HW139116   0.030   1.551   7.986  0.1820 -0.2815  0.8708
 9218SOL    HW239117   0.123   1.485   8.087  0.2998 -3.9977  0.5629
 9219SOL     OW39118   4.412   2.202  11.801  0.4102 -0.7299  0.0992
 9219SOL    HW139119   4.380   2.142  11.869  0.6700  0.5971  1.4124
 9219SOL    HW239120   4.505   2.177  11.800  0.3262 -1.1199  1.2830
 9220SOL     OW39121   3.646   0.742   1.234 -0.2469 -0.1422 -0.0961
 9220SOL    HW139122   3.722   0.780   1.189  0.3333  1.1891  1.9834
 9220SOL    HW239123   3.643   0.656   1.192  0.5568 -0.7313  1.0394
 9221SOL     OW39124   1.594   4.359  11.804 -0.4610 -0.4475  0.0826
 9221SOL    HW139125   1.682   4.395  11.794  0.5743 -2.5942  1.6283
 9221SOL    HW239126   1.608   4.317  11.889  0.3961  0.4931  0.4006
 9222SOL     OW39127   1.955   1.986   6.323 -0.7769  0.1687  0.2618
 9222SOL    HW139128   1.972   1.932   6.247  1.3804  2.7123 -1.1045
 9222SOL    HW239129   1.882   2.043   6.299 -0.9664  0.5405  1.7069
 9223SOL     OW39130   0.752   2.465   0.367  0.8142  0.1319  0.5379
 9223SOL    HW139131   0.676   2.455   0.310  0.7250  1.7606  0.3763
 9223SOL    HW239132   0.828   2.434   0.318  0.1753 -0.3002 -0.1795
 9224SOL     OW39133   1.818   3.113   8.125 -0.6151 -0.2064  0.0145
 9224SOL    HW139134   1.769   3.104   8.207  0.8309 -0.9902  0.8189
 9224SOL    HW239135   1.906   3.114   8.163 -0.9296 -2.8610  0.8236
 9225SOL     OW39136   1.575   4.263   7.327 -0.6533 -0.6520 -0.4733
 9225SOL    HW139137   1.547   4.312   7.404  2.1619  3.1306 -1.8753
 9225SOL    HW239138   1.593   4.176   7.362 -1.4136 -0.8672 -0.6191
 9226SOL     OW39139   0.137   1.146  14.440  0.2010 -0.4486  0.1560
 9226SOL    HW139140   0.098   1.227  14.408 -0.9442 -1.8004 -1.8876
 9226SOL    HW239141   0.058   1.106  14.477  0.5007 -1.5850 -0.4249
 9227SOL     OW39142   3.171   0.256   9.387  0.3390 -0.0026 -0.5988
 9227SOL    HW139143   3.121   0.188   9.432  0.4113  0.2131 -0.1939
 9227SOL    HW239144   3.210   0.299   9.463 -0.2988 -1.8344  0.7659
 9228SOL     OW39145   0.589   3.736   5.235  0.0755  0.4080 -0.7764
 9228SOL    HW139146   0.685   3.736   5.231  0.0853  0.5468 -0.5596
 9228SOL    HW239147   0.566   3.645   5.253  0.3893  1.0203  2.7378
 9229SOL     OW39148   2.888   1.310   4.002 -0.5998 -0.3859 -0.0909
 9229SOL    HW139149   2.941   1.375   3.956  0.6130 -2.5412 -1.7138
 9229SOL    HW239150   2.826   1.280   3.935 -0.2311 -0.3572 -0.4449
 9230SOL     OW39151   2.498   1.777   8.305  0.2256 -0.3735 -0.2891
 9230SOL    HW139152   2.443   1.750   8.379  0.0909 -1.2065 -0.6852
 9230SOL    HW239153   2.498   1.871   8.324 -2.5126 -0.3215 -0.5894
 9231SOL     OW39154   3.412   0.188  10.602 -0.1604 -0.1361  0.0128
 9231SOL    HW139155   3.327   0.213  10.637 -0.8648 -0.4661 -1.4645
 9231SOL    HW239156   3.451   0.134  10.671 -1.7540 -1.2456  0.0375
 9232SOL     OW39157   0.916   3.540   4.928 -0.1577 -0.4031 -0.3002
 9232SOL    HW139158   0.905   3.625   4.972  1.0877 -0.3899 -0.0046
 9232SOL    HW239159   0.838   3.492   4.956  0.3188 -1.5686 -1.0087
 9233SOL     OW39160   0.212   4.492  11.320 -0.0494 -0.1450 -0.7006
 9233SOL    HW139161   0.144   4.462  11.380 -0.2189  2.8829  0.6069
 9233SOL    HW239162   0.274   4.420  11.332 -0.2165  0.0286  1.1198
 9234SOL     OW39163   2.334   3.471   4.422 -0.5024  0.3301  0.0168
 9234SOL    HW139164   2.269   3.520   4.472 -0.0703  0.2020  0.7075
 9234SOL    HW239165   2.291   3.467   4.337  1.1856  0.1081 -0.8267
 9235SOL     OW39166   2.864   0.530  13.049  0.2441 -0.4773 -0.0935
 9235SOL    HW139167   2.787   0.541  13.106  0.1097  1.2518 -0.6130
 9235SOL    HW239168   2.836   0.448  13.010  0.1527 -0.5300  0.0794
 9236SOL     OW39169   1.797   0.603   8.215 -0.3160 -0.5315 -0.2212
 9236SOL    HW139170   1.803   0.509   8.195  1.3928 -0.8033  1.5286
 9236SOL    HW239171   1.762   0.590   8.303 -0.7146 -0.3247 -0.3459
 9237SOL     OW39172   1.425   4.112   9.385 -0.2412 -0.3750 -0.3884
 9237SOL    HW139173   1.445   4.140   9.474 -0.4515  0.1864 -0.5150
 9237SOL    HW239174   1.337   4.077   9.400 -0.9100  2.0308  1.3320
 9238SOL     OW39175   1.242   2.563   3.752 -0.3333 -0.6460  0.1474
 9238SOL    HW139176   1.164   2.605   3.715  1.5757 -0.3725 -3.5736
 9238SOL    HW239177   1.289   2.544   3.671 -1.2588 -1.1278 -0.2718
 9239SOL     OW39178   4.458   3.399   2.139 -0.4221  0.2891  0.3882
 9239SOL    HW139179   4.387   3.378   2.078  0.6056 -0.0321 -0.6793
 9239SOL    HW239180   4.455   3.337   2.212 -1.8745  0.0662  0.1443
 9240SOL     OW39181   0.362   3.840   4.216  0.7034 -0.3866 -0.0934
 9240SOL    HW139182   0.392   3.913   4.271  0.6417  0.4194 -1.1301
 9240SOL    HW239183   0.371   3.767   4.278 -0.8730 -1.0857 -0.6952
 9241SOL     OW39184   2.217   1.374   3.991  0.1159  0.3525 -0.3643
 9241SOL    HW139185   2.185   1.451   3.943 -0.9170  0.6389  0.7882
 9241SOL    HW239186   2.225   1.312   3.919 -0.5910 -0.7951  0.5431
 9242SOL     OW39187   2.269   1.539   6.827  0.4300 -0.5879 -0.4758
 9242SOL    HW139188   2.299   1.526   6.737 -0.2947  2.1621 -1.1112
 9242SOL    HW239189   2.307   1.466   6.876 -1.1305  1.1562  3.2923
 9243SOL     OW39190   4.237   0.002   4.254 -0.5733 -0.0112 -0.4819
 9243SOL    HW139191   4.305   0.018   4.321 -1.3661 -0.9315  0.5322
 9243SOL    HW239192   4.251   4.634   4.231  0.4672 -0.4143  1.7242
 9244SOL     OW39193   3.100   3.917   0.755 -0.4127 -0.0291 -0.1510
 9244SOL    HW139194   3.102   3.832   0.798 -1.3137 -0.4306 -0.9157
 9244SOL    HW239195   3.081   3.885   0.667  0.6253 -0.9819 -0.0237
 9245SOL     OW39196   0.563   4.056   5.322  0.5043 -0.3832  0.0873
 9245SOL    HW139197   0.593   4.052   5.412 -0.1765 -0.7815  0.2999
 9245SOL    HW239198   0.614   3.980   5.293 -0.8720 -0.4203 -2.2632
 9246SOL     OW39199   1.011   1.214  15.510  0.3514  0.5187  0.4190
 9246SOL    HW139200   1.013   1.310  15.512  0.2972  0.4647  3.1781
 9246SOL    HW239201   0.916   1.206  15.524  0.4048 -1.0527 -0.1742
 9247SOL     OW39202   1.719   2.649   7.013 -0.1764  0.1511 -0.0560
 9247SOL    HW139203   1.683   2.733   7.041 -0.6477  0.7299 -2.4534
 9247SOL    HW239204   1.675   2.598   7.082  0.3358  0.9136  0.8336
 9248SOL     OW39205   0.681   4.596  17.083  0.2166  0.2416  0.6431
 9248SOL    HW139206   0.638   4.514  17.108 -2.1370  1.4401  0.5095
 9248SOL    HW239207   0.646   4.656  17.149  2.2492  0.7219  1.2713
 9249SOL     OW39208   3.417   4.103   4.767 -0.1899 -0.7049 -0.1592
 9249SOL    HW139209   3.506   4.136   4.775 -0.7597 -0.1195  3.8282
 9249SOL    HW239210   3.429   4.015   4.804  0.3716  0.1529  1.6599
 9250SOL     OW39211   2.595   1.464   9.234  0.2521 -0.3887 -0.1866
 9250SOL    HW139212   2.505   1.491   9.216  0.4210 -0.9763 -1.9145
 9250SOL    HW239213   2.611   1.509   9.318  0.7161 -3.0830  1.1555
 9251SOL     OW39214   3.311   0.528   7.966 -0.4192 -0.0794 -0.3505
 9251SOL    HW139215   3.366   0.595   8.005 -0.6804 -1.2153  2.0124
 9251SOL    HW239216   3.248   0.583   7.919  0.3681 -0.2299 -1.5619
 9252SOL     OW39217   1.480   3.007   6.243 -0.2569 -0.1872  0.0685
 9252SOL    HW139218   1.438   2.921   6.243  0.0120 -0.3110  1.5203
 9252SOL    HW239219   1.456   3.039   6.330  1.3156 -1.1761  0.8762
 9253SOL     OW39220   2.091   2.922   2.476 -0.4727 -0.5864 -0.1047
 9253SOL    HW139221   2.086   3.011   2.441 -0.4742 -0.0111  1.3344
 9253SOL    HW239222   2.186   2.913   2.483 -0.5378 -1.0360  0.1952
 9254SOL     OW39223   2.693   4.346  13.324  0.1330  0.1938  0.4609
 9254SOL    HW139224   2.707   4.387  13.239  1.3605  1.9163  1.4913
 9254SOL    HW239225   2.782   4.326  13.355 -0.2134 -0.5036  1.0092
 9255SOL     OW39226   4.047   2.093   2.442  0.3245  0.4620 -0.0836
 9255SOL    HW139227   4.055   2.070   2.349 -1.4583 -2.4999  0.4962
 9255SOL    HW239228   4.125   2.050   2.477  0.4006  1.7428  1.2921
 9256SOL     OW39229   3.384   4.601   6.971 -0.2095 -0.3390 -0.5665
 9256SOL    HW139230   3.305   4.555   6.941 -1.3588 -1.4636  4.3047
 9256SOL    HW239231   3.395   4.541   7.044 -0.2805  0.5566  0.1801
 9257SOL     OW39232   4.142   3.192   4.727 -0.3984  0.6449  0.2540
 9257SOL    HW139233   4.148   3.159   4.817 -1.9911  0.8540  0.4422
 9257SOL    HW239234   4.087   3.123   4.691 -0.5849  1.4372 -0.9602
 9258SOL     OW39235   3.400   0.240   5.985 -0.4301 -0.1642 -0.0546
 9258SOL    HW139236   3.435   0.194   5.908 -1.5670  0.2156 -0.7971
 9258SOL    HW239237   3.476   0.261   6.039  1.0093 -0.5280 -1.9268
 9259SOL     OW39238   0.104   2.183   9.501 -0.0855  0.4040  0.0180
 9259SOL    HW139239   0.082   2.251   9.565 -0.2466 -1.9606  2.4959
 9259SOL    HW239240   0.035   2.197   9.436 -0.2264 -1.4412 -0.2284
 9260SOL     OW39241   4.614   0.250   4.326  0.2299  0.1322  0.1147
 9260SOL    HW139242   4.690   0.193   4.315  1.0233  1.2924 -0.4062
 9260SOL    HW239243   4.652   0.320   4.379  0.1290 -0.2888  0.7429
 9261SOL     OW39244   4.437   1.207   5.018  0.0444  0.0047 -0.4964
 9261SOL    HW139245   4.521   1.241   5.049 -0.7309  0.9706  0.5627
 9261SOL    HW239246   4.438   1.245   4.930  1.6209 -0.8598 -0.8483
 9262SOL     OW39247   1.780   1.452   2.411  0.0554 -0.0363 -0.3412
 9262SOL    HW139248   1.715   1.467   2.480 -0.9598  1.6703 -1.6505
 9262SOL    HW239249   1.734   1.390   2.354 -1.7072  0.6267  0.3835
 9263SOL     OW39250   0.368   0.737   4.345 -0.2858 -0.1495 -0.1267
 9263SOL    HW139251   0.327   0.803   4.402  0.3739 -0.4041  0.6409
 9263SOL    HW239252   0.431   0.793   4.301  1.4839 -0.8615  1.4809
 9264SOL     OW39253   2.133   1.567   8.969  0.0239  0.3679 -0.0640
 9264SOL    HW139254   2.047   1.542   8.935  0.4221 -2.3607  0.9841
 9264SOL    HW239255   2.149   1.657   8.940  1.8617  0.2273  0.4745
 9265SOL     OW39256   3.950   4.514   7.563  0.2636 -0.0480  0.3158
 9265SOL    HW139257   3.914   4.493   7.477 -0.3680 -1.5943  0.9487
 9265SOL    HW239258   3.940   4.608   7.569  0.0433 -0.0720  0.3033
 9266SOL     OW39259   2.517   0.861   5.597  0.3923 -0.0485 -0.0606
 9266SOL    HW139260   2.480   0.948   5.610 -1.7822 -1.3427  2.4218
 9266SOL    HW239261   2.610   0.880   5.583  0.4951 -0.3614  0.2119
 9267SOL     OW39262   1.356   2.034   5.276  0.1926 -0.1289 -0.0558
 9267SOL    HW139263   1.344   2.092   5.200  2.6373  0.1865 -0.2093
 9267SOL    HW239264   1.276   2.056   5.325 -0.3196 -4.0252  0.8179
 9268SOL     OW39265   2.871   0.408   4.883 -0.5083 -0.2912  0.5430
 9268SOL    HW139266   2.965   0.394   4.901  0.0950 -0.6735 -2.9404
 9268SOL    HW239267   2.831   0.324   4.905  3.4123 -2.0596  1.0336
 9269SOL     OW39268   0.279   0.036   4.535  0.4615 -0.4441  0.5850
 9269SOL    HW139269   0.334   4.682   4.542 -0.3524 -1.1505 -0.6627
 9269SOL    HW239270   0.348   0.102   4.538 -1.2105  1.2862  0.7218
 9270SOL     OW39271   0.224   0.632   8.495  0.2160 -0.4395 -0.6688
 9270SOL    HW139272   0.265   0.555   8.535 -2.5890 -2.0119 -0.8915
 9270SOL    HW239273   0.176   0.675   8.566  0.7034  1.9540 -1.7825
 9271SOL     OW39274   0.591   2.132   3.260  0.1627  0.3328  0.0495
 9271SOL    HW139275   0.531   2.192   3.218  0.3119  0.9091  0.6584
 9271SOL    HW239276   0.613   2.072   3.189  1.5209 -0.2060  0.9256
 9272SOL     OW39277   4.719   0.186  10.319  0.7350 -0.2144  0.1054
 9272SOL    HW139278   4.641   0.150  10.278  1.5267  0.3157 -1.8739
 9272SOL    HW239279   4.703   0.280  10.326  1.4544 -0.1335  0.7497
 9273SOL     OW39280   1.496   4.249   7.601  0.0024  0.1355 -0.4279
 9273SOL    HW139281   1.450   4.168   7.624  1.0339 -0.4662 -0.4891
 9273SOL    HW239282   1.414   4.292   7.577 -1.2942 -1.1826  1.5952
 9274SOL     OW39283   4.322   4.647   0.425 -0.3424  0.4246 -0.2529
 9274SOL    HW139284   4.334   4.556   0.453  1.4268  0.7399  0.0289
 9274SOL    HW239285   4.410   4.682   0.411  0.1429 -0.2701  1.0157
 9275SOL     OW39286   3.406   3.356   5.135 -0.1700  0.2114 -0.2351
 9275SOL    HW139287   3.400   3.325   5.225 -1.5715 -0.7270 -0.6524
 9275SOL    HW239288   3.500   3.373   5.130 -0.5591  2.5700  0.7200
 9276SOL     OW39289   2.747   4.326   1.563 -0.0639  0.2661 -0.0396
 9276SOL    HW139290   2.785   4.240   1.545  0.1015  0.0838  1.1966
 9276SOL    HW239291   2.787   4.392   1.505  0.2489  0.3896  0.3191
 9277SOL     OW39292   2.422   2.825   2.879  0.3755 -0.0396 -0.0091
 9277SOL    HW139293   2.428   2.742   2.926  0.7327 -0.6028 -1.0513
 9277SOL    HW239294   2.401   2.798   2.789 -0.1125  0.4436 -0.0445
 9278SOL     OW39295   0.070   3.773   1.285  0.0015  0.4488  0.1398
 9278SOL    HW139296   0.017   3.852   1.294  0.5486  0.5475  2.5501
 9278SOL    HW239297   0.022   3.711   1.340 -2.1390  0.2211 -1.9861
 9279SOL     OW39298   2.671   0.198   7.870  0.3229  0.3339  0.1672
 9279SOL    HW139299   2.725   0.158   7.938 -0.1274  0.9686  0.9060
 9279SOL    HW239300   2.637   0.120   7.825  0.8367  0.6352 -0.7394
 9280SOL     OW39301   4.478   0.614   8.962 -0.2211 -0.4420  0.5497
 9280SOL    HW139302   4.404   0.631   8.903  0.8126  0.4015 -0.5127
 9280SOL    HW239303   4.545   0.678   8.935  0.2217 -0.7862  0.8245
 9281SOL     OW39304   3.454   1.748  16.177 -0.0601 -0.2499 -0.1085
 9281SOL    HW139305   3.417   1.698  16.251  0.6887 -1.1459 -0.3389
 9281SOL    HW239306   3.409   1.832  16.186 -1.1690 -0.6683 -1.7503
 9282SOL     OW39307   4.099   0.710  11.986 -0.1984  0.2103 -0.0355
 9282SOL    HW139308   4.011   0.685  11.958 -0.3751  0.0330  0.6752
 9282SOL    HW239309   4.109   0.781  11.924  1.4512  1.6551  1.8574
 9283SOL     OW39310   0.048   1.849   2.159  0.2230  0.4905  0.1549
 9283SOL    HW139311   0.115   1.820   2.220  0.4603 -2.2677 -1.4339
 9283SOL    HW239312   0.055   1.944   2.173 -1.7424  0.6409  0.0759
 9284SOL     OW39313   4.619   4.354   1.309 -0.4052  0.8162  0.0479
 9284SOL    HW139314   4.660   4.439   1.324 -0.2355  0.7842 -0.2415
 9284SOL    HW239315   4.686   4.296   1.344 -0.9583  1.3820  2.0834
 9285SOL     OW39316   4.003   3.593   1.668  0.3210  0.5381 -0.4434
 9285SOL    HW139317   4.045   3.541   1.599 -0.1347  1.0088 -1.0692
 9285SOL    HW239318   4.031   3.544   1.745 -0.2249  0.7325 -0.1224
 9286SOL     OW39319   3.951   3.699   1.321  0.1843  0.4981 -0.3879
 9286SOL    HW139320   4.032   3.650   1.319  0.5417  1.1320 -1.5489
 9286SOL    HW239321   3.929   3.701   1.414  2.5838 -0.2826  0.1810
 9287SOL     OW39322   4.144   1.394   4.324  0.4878  0.2495 -0.0006
 9287SOL    HW139323   4.183   1.341   4.394  1.4472  2.1571  0.9153
 9287SOL    HW239324   4.068   1.435   4.366 -0.5963 -0.7207 -1.0166
 9288SOL     OW39325   1.075   0.931   5.125 -0.4185  0.5255  1.3611
 9288SOL    HW139326   1.108   0.844   5.104  0.8903  1.0425  1.2262
 9288SOL    HW239327   1.155   0.984   5.126  1.9096 -2.9761  1.1131
 9289SOL     OW39328   4.412   1.259   5.961  0.2540 -0.1005  0.1829
 9289SOL    HW139329   4.469   1.187   5.936 -0.5411 -1.2301  1.6643
 9289SOL    HW239330   4.446   1.275   6.049 -0.3046 -0.6479  0.4969
 9290SOL     OW39331   1.414   2.942  16.105  0.6831  0.5529  0.3904
 9290SOL    HW139332   1.459   2.869  16.063 -1.0171 -0.9189  1.1089
 9290SOL    HW239333   1.466   2.950  16.184  0.0254  0.4336  0.8366
 9291SOL     OW39334   0.635   0.865   5.944 -0.5863  0.4446 -0.1424
 9291SOL    HW139335   0.583   0.801   5.895 -1.3352  2.0796 -1.4801
 9291SOL    HW239336   0.626   0.840   6.036 -0.7010  0.3354 -0.1818
 9292SOL     OW39337   0.422   1.336   8.802 -0.3961 -0.4108 -0.2189
 9292SOL    HW139338   0.396   1.263   8.745  1.5241 -1.0693 -0.2461
 9292SOL    HW239339   0.353   1.322   8.867 -1.6217 -3.1734 -2.0980
 9293SOL     OW39340   3.432   3.643   6.727  0.0688  0.2677 -0.5045
 9293SOL    HW139341   3.509   3.691   6.758  0.4800 -1.0664  0.5549
 9293SOL    HW239342   3.454   3.556   6.760 -0.0784  0.2684 -0.4034
 9294SOL     OW39343   1.007   3.842   3.015  0.2431  0.6430  0.2038
 9294SOL    HW139344   1.033   3.776   3.079 -0.0325 -2.4183 -2.8005
 9294SOL    HW239345   0.914   3.821   3.014 -0.4927  3.9432 -1.8128
 9295SOL     OW39346   0.100   3.817   8.509 -0.1539  0.8696  0.4721
 9295SOL    HW139347   0.185   3.773   8.505  0.0235  1.4513 -2.6065
 9295SOL    HW239348   0.052   3.753   8.560  0.8084 -0.0573  0.2291
 9296SOL     OW39349   1.190   2.831   8.066  0.4903 -0.4249  0.8370
 9296SOL    HW139350   1.284   2.814   8.062  0.6144  0.2975  0.6825
 9296SOL    HW239351   1.173   2.915   8.024  1.7419 -1.0378 -0.9118
 9297SOL     OW39352   4.171   4.057   5.836 -0.5875 -0.4349 -0.0120
 9297SOL    HW139353   4.256   4.088   5.806  0.9592 -2.0033  2.7657
 9297SOL    HW239354   4.158   4.107   5.917 -0.1052  0.0012 -0.2014
 9298SOL     OW39355   2.444   2.472  16.943  0.6773 -0.2482 -0.0832
 9298SOL    HW139356   2.453   2.395  16.999 -1.8171  0.3855  1.1865
 9298SOL    HW239357   2.526   2.519  16.958 -0.3302  2.1744 -2.0917
 9299SOL     OW39358   0.810   1.755  15.191 -0.0834 -0.4193 -0.8377
 9299SOL    HW139359   0.852   1.730  15.108 -0.7441 -0.9557 -1.0109
 9299SOL    HW239360   0.873   1.819  15.223 -1.2615  0.7851 -0.9300
 9300SOL     OW39361   4.328   3.855  12.375  0.3166  0.1211  0.0103
 9300SOL    HW139362   4.255   3.916  12.388  1.5888  0.7555  4.1991
 9300SOL    HW239363   4.300   3.784  12.317 -1.6885 -0.6753  1.9684
 9301SOL     OW39364   0.444   1.396  12.125 -0.1568  0.8192  0.4211
 9301SOL    HW139365   0.523   1.447  12.143  1.1942 -1.5794  1.3045
 9301SOL    HW239366   0.444   1.390  12.030  1.7579 -2.3103  0.5968
 9302SOL     OW39367   3.832   1.034   4.447 -0.0261  0.1907  0.0770
 9302SOL    HW139368   3.775   1.096   4.403  0.6742  1.5751  1.1115
 9302SOL    HW239369   3.827   1.067   4.537 -0.6724  0.7391 -0.1593
 9303SOL     OW39370   2.009   3.681   1.943 -0.0826  0.0113  0.6072
 9303SOL    HW139371   1.920   3.676   1.977  0.0617  0.7062  1.0842
 9303SOL    HW239372   1.992   3.643   1.857  2.2148  0.7857 -0.1901
 9304SOL     OW39373   4.278   0.068   6.451 -0.0290 -0.4824 -0.1129
 9304SOL    HW139374   4.307   4.714   6.498  2.9633  1.9256  1.9800
 9304SOL    HW239375   4.261   0.039   6.361  0.8192 -0.8016 -0.1664
 9305SOL     OW39376   0.271   4.180   4.183 -0.1247  0.0300  0.1310
 9305SOL    HW139377   0.207   4.115   4.214 -0.2783  0.9585  1.7388
 9305SOL    HW239378   0.333   4.129   4.131 -0.9237 -1.0752  0.2467
 9306SOL     OW39379   3.495   1.531   6.722 -0.5971  0.1339 -0.0563
 9306SOL    HW139380   3.459   1.580   6.647 -0.2738  0.1071 -0.2317
 9306SOL    HW239381   3.578   1.491   6.696 -1.0810 -1.4584  0.8820
 9307SOL     OW39382   0.706   3.071  16.544 -0.1465  0.1964 -0.0990
 9307SOL    HW139383   0.794   3.089  16.509  0.5900 -0.6983  1.2828
 9307SOL    HW239384   0.682   2.994  16.494 -2.4814 -0.0563  1.4427
 9308SOL     OW39385   4.509   1.075   2.208  0.1622  0.4657  0.1574
 9308SOL    HW139386   4.432   1.041   2.253  0.4816 -2.0381 -1.2273
 9308SOL    HW239387   4.549   1.126   2.279  0.9912  2.5781 -1.8269
 9309SOL     OW39388   0.505   3.767   7.647  0.3347 -0.3817 -0.7171
 9309SOL    HW139389   0.411   3.778   7.633  0.4896 -0.0101 -1.4365
 9309SOL    HW239390   0.517   3.807   7.734 -1.4056 -1.3526 -0.0237
 9310SOL     OW39391   0.811   3.196   0.162 -0.0288  0.6526 -0.0999
 9310SOL    HW139392   0.726   3.237   0.182 -0.1616  0.5042 -0.3599
 9310SOL    HW239393   0.825   3.174   0.254  0.6300  0.6134 -0.2138
 9311SOL     OW39394   3.920   3.811  16.631 -0.3863 -0.3496 -0.1044
 9311SOL    HW139395   3.921   3.781  16.722  1.8998  2.1260  0.6986
 9311SOL    HW239396   3.826   3.804  16.612 -0.7419 -1.9781  2.2256
 9312SOL     OW39397   2.019   1.177  17.520 -0.1877 -0.0056  0.4392
 9312SOL    HW139398   2.042   1.266  17.546  1.4933 -0.6696  1.2544
 9312SOL    HW239399   1.990   1.152  17.608 -1.9757  0.4022 -0.0486
 9313SOL     OW39400   3.210   1.882  12.527 -0.0201 -0.0174 -0.1157
 9313SOL    HW139401   3.120   1.895  12.558 -0.5737 -0.5498 -1.4900
 9313SOL    HW239402   3.213   1.954  12.465 -0.9805  0.0283 -0.1198
 9314SOL     OW39403   0.920   1.045   4.424 -0.1285  0.1107 -0.0842
 9314SOL    HW139404   0.903   1.139   4.419  2.7401  0.7550  2.3977
 9314SOL    HW239405   0.846   1.004   4.469 -0.5746  1.3296  0.2899
 9315SOL     OW39406   2.537   4.527   5.310 -0.2409 -0.1005 -0.3680
 9315SOL    HW139407   2.582   4.602   5.273  0.1276 -0.7167 -1.1706
 9315SOL    HW239408   2.524   4.551   5.402  0.8934  0.0692 -0.2484
 9316SOL     OW39409   2.230   2.602   5.370 -0.7173  0.3178  0.8052
 9316SOL    HW139410   2.159   2.579   5.311 -0.5820 -0.2581  0.8662
 9316SOL    HW239411   2.198   2.689   5.394 -0.4269  1.2464 -2.2327
 9317SOL     OW39412   3.072   0.140   7.030  0.2693  0.4811 -0.3749
 9317SOL    HW139413   3.037   0.188   7.105  0.0619 -2.5518  1.4568
 9317SOL    HW239414   3.165   0.160   7.041  0.6734 -3.1907  2.5861
 9318SOL     OW39415   2.734   4.037   5.953 -0.4059 -0.0573  0.0496
 9318SOL    HW139416   2.814   4.036   6.006 -0.5350  0.1129  0.2456
 9318SOL    HW239417   2.705   3.946   5.958  1.0458 -0.4612  1.0855
 9319SOL     OW39418   3.714   3.636   1.490  0.1551 -0.1098 -0.0587
 9319SOL    HW139419   3.681   3.698   1.554 -1.4817 -0.4829 -0.5485
 9319SOL    HW239420   3.732   3.564   1.551  2.0576  0.0455 -0.4372
 9320SOL     OW39421   0.548   0.540  14.614  0.3228  0.3056 -1.1413
 9320SOL    HW139422   0.489   0.593  14.668  0.7532 -0.3931  0.0207
 9320SOL    HW239423   0.633   0.580  14.632 -0.2657  1.8041 -1.7144
 9321SOL     OW39424   3.957   0.610   4.583 -0.0916 -0.6477  0.5644
 9321SOL    HW139425   3.955   0.648   4.495  1.2040 -0.5362  0.5739
 9321SOL    HW239426   3.867   0.619   4.611  0.0135  2.2465  0.0530
 9322SOL     OW39427   3.672   2.131   6.548 -0.2075 -0.5056 -0.4844
 9322SOL    HW139428   3.615   2.079   6.491  0.3639 -1.6841  0.0190
 9322SOL    HW239429   3.614   2.179   6.607 -0.8245 -1.2264 -0.5182
 9323SOL     OW39430   1.879   4.571  10.445 -0.3529 -0.0230  0.2726
 9323SOL    HW139431   1.806   4.634  10.439 -1.3138 -1.1990 -0.3122
 9323SOL    HW239432   1.836   4.496  10.405  1.0050 -0.1223 -1.0232
 9324SOL     OW39433   3.507   2.076   4.034 -0.7521  0.1971  0.0940
 9324SOL    HW139434   3.600   2.098   4.043 -1.0311  1.4154 -0.0511
 9324SOL    HW239435   3.451   2.120   4.097 -0.6214  0.0783  0.2916
 9325SOL     OW39436   0.767   0.233   7.255 -0.0813  0.4300  0.2982
 9325SOL    HW139437   0.735   0.277   7.177 -1.1122  1.6677  1.4137
 9325SOL    HW239438   0.720   0.285   7.320 -1.0590 -0.9182  0.6608
 9326SOL     OW39439   2.014   1.497   7.717  0.3688 -0.4609  0.3781
 9326SOL    HW139440   1.952   1.472   7.648 -1.1369  3.3018  0.3636
 9326SOL    HW239441   1.960   1.469   7.790 -0.8871 -1.3528 -0.8966
 9327SOL     OW39442   0.799   3.821   7.551 -0.1308 -0.2569 -0.6418
 9327SOL    HW139443   0.710   3.822   7.586 -0.0239  0.4250 -0.4003
 9327SOL    HW239444   0.844   3.885   7.606  1.1384 -0.1384 -1.8167
 9328SOL     OW39445   1.778   2.984   1.817 -0.0045  0.2489 -0.2876
 9328SOL    HW139446   1.745   2.975   1.906  0.0391 -1.7376 -0.4738
 9328SOL    HW239447   1.709   3.044   1.788 -1.3911 -1.0868  0.2712
 9329SOL     OW39448   3.379   3.289   2.820 -0.1284  0.6395 -0.2865
 9329SOL    HW139449   3.399   3.242   2.739  2.1369  1.4240 -0.1803
 9329SOL    HW239450   3.440   3.249   2.882 -0.3388  0.3629 -0.2619
 9330SOL     OW39451   2.406   4.519   7.768  0.4222 -0.3447 -0.0721
 9330SOL    HW139452   2.454   4.454   7.821  0.9333  0.4152  0.3976
 9330SOL    HW239453   2.319   4.481   7.773  0.5040 -0.8918 -2.8382
 9331SOL     OW39454   2.337   2.807  12.399  0.4896  0.2181  0.2872
 9331SOL    HW139455   2.403   2.837  12.336  2.3926 -1.5183  1.4615
 9331SOL    HW239456   2.373   2.721  12.419  0.6138 -0.0377 -1.0434
 9332SOL     OW39457   0.604   4.024   5.921  0.6755 -0.0492  0.4426
 9332SOL    HW139458   0.557   3.989   5.996  2.0902 -2.3538  0.2662
 9332SOL    HW239459   0.681   3.968   5.906 -0.7920 -2.3259  1.4220
 9333SOL     OW39460   1.732   3.011   1.280 -0.4993  0.2534  0.6250
 9333SOL    HW139461   1.773   3.011   1.367  0.0407 -2.6100  0.3684
 9333SOL    HW239462   1.806   2.979   1.227 -1.4278 -2.4341  0.9277
 9334SOL     OW39463   3.068   0.784   7.451 -0.6227 -0.7316 -0.1617
 9334SOL    HW139464   3.032   0.760   7.536  0.1481 -0.5085  0.2250
 9334SOL    HW239465   3.148   0.734   7.435 -0.2750  0.2939 -1.5708
 9335SOL     OW39466   4.714   3.411  16.222 -0.5598 -0.1216  0.4041
 9335SOL    HW139467   0.066   3.380  16.271 -1.5694 -2.6325  0.3685
 9335SOL    HW239468   4.705   3.500  16.256 -0.9796 -0.2861  0.7158
 9336SOL     OW39469   3.971   2.322   0.892  0.1464  0.1240 -0.1354
 9336SOL    HW139470   3.968   2.232   0.925 -3.2957  0.9296  1.7544
 9336SOL    HW239471   3.878   2.345   0.893  0.0404 -0.3034 -0.0671
 9337SOL     OW39472   4.636   2.653   7.691 -0.2587  0.1586  0.7647
 9337SOL    HW139473   4.584   2.704   7.753 -0.5022  1.0907 -0.2050
 9337SOL    HW239474   4.676   2.583   7.742 -2.7392 -1.4082  0.5523
 9338SOL     OW39475   3.705   0.898   0.010 -0.4608  0.5674 -0.2319
 9338SOL    HW139476   3.704   0.924   0.102  2.2225  1.2132 -0.4017
 9338SOL    HW239477   3.698   0.982  17.661 -0.1848  1.6441  1.7186
 9339SOL     OW39478   1.367   4.589   9.209  0.1302  0.3272  0.0726
 9339SOL    HW139479   1.438   4.535   9.245  0.4601  1.6083  1.3806
 9339SOL    HW239480   1.345   4.536   9.133 -0.1452 -0.6730  0.8612
 9340SOL     OW39481   1.634   1.905   3.353  0.2662  0.3598  0.4344
 9340SOL    HW139482   1.610   1.910   3.446 -0.5893 -1.1032  0.2892
 9340SOL    HW239483   1.664   1.996   3.348  0.9959  0.0483 -0.7439
 9341SOL     OW39484   1.291   1.766  16.148  0.6919 -0.2702  0.4795
 9341SOL    HW139485   1.218   1.813  16.109  3.3308  2.9602 -0.5363
 9341SOL    HW239486   1.261   1.754  16.238  0.1195 -1.4816  0.1392
 9342SOL     OW39487   2.739   2.672  10.958 -0.0933 -0.1372  0.1223
 9342SOL    HW139488   2.779   2.748  11.000  1.8820 -1.4945  0.6888
 9342SOL    HW239489   2.822   2.634  10.930  1.2169  2.5580  0.3165
 9343SOL     OW39490   3.421   1.734   5.553 -0.0603  0.0405 -0.2815
 9343SOL    HW139491   3.437   1.640   5.544  0.5711  0.1919 -0.7789
 9343SOL    HW239492   3.424   1.750   5.459  0.0649 -1.6191 -0.5638
 9344SOL     OW39493   1.618   0.676   5.865  0.2979  0.2061  0.6062
 9344SOL    HW139494   1.590   0.712   5.781  0.7120 -0.7594  0.0520
 9344SOL    HW239495   1.685   0.739   5.892  0.4675  0.1390  0.3468
 9345SOL     OW39496   1.600   1.236   3.334  0.4274 -0.0851 -1.0071
 9345SOL    HW139497   1.640   1.254   3.249 -0.7302  1.0895 -1.3045
 9345SOL    HW239498   1.670   1.256   3.396  0.3879  0.8766 -1.2708
 9346SOL     OW39499   1.840   0.340  14.728 -1.1543  0.3716 -0.1408
 9346SOL    HW139500   1.862   0.419  14.679  1.8443  0.8336  1.9231
 9346SOL    HW239501   1.750   0.319  14.703 -0.3355 -3.1010 -0.1941
 9347SOL     OW39502   0.306   4.196   1.472 -0.7447 -0.5165  0.6503
 9347SOL    HW139503   0.284   4.116   1.520  0.6642  0.6527  3.2646
 9347SOL    HW239504   0.398   4.173   1.458 -0.4018  0.2883  1.5702
 9348SOL     OW39505   3.828   4.241   2.250  0.0915 -0.3726  0.3924
 9348SOL    HW139506   3.902   4.295   2.221  0.0792 -1.0717 -0.9106
 9348SOL    HW239507   3.859   4.156   2.219 -0.5562  0.5957 -2.8919
 9349SOL     OW39508   0.319   3.075  10.207 -0.7633 -0.8109  0.6765
 9349SOL    HW139509   0.237   3.031  10.185 -1.1365  0.2128  0.0384
 9349SOL    HW239510   0.320   3.040  10.297 -0.3980  0.5727  1.2033
 9350SOL     OW39511   0.848   3.319   7.827 -0.7369  0.2120  0.2666
 9350SOL    HW139512   0.822   3.228   7.816 -2.2953  0.5264  1.3601
 9350SOL    HW239513   0.926   3.314   7.882  0.8992  1.1195 -1.9303
 9351SOL     OW39514   0.976   3.394   0.009 -0.1274  0.4738  0.2397
 9351SOL    HW139515   0.914   3.357   0.072 -1.0650 -1.2534 -1.7080
 9351SOL    HW239516   1.052   3.338   0.023 -1.8023 -1.8514 -0.0379
 9352SOL     OW39517   1.832   1.949   7.671  0.0262 -0.2842  0.1603
 9352SOL    HW139518   1.890   1.879   7.703  1.3136  2.2039  3.2912
 9352SOL    HW239519   1.802   1.913   7.588  1.8710 -0.5240 -0.3948
 9353SOL     OW39520   3.129   1.626   0.467 -0.3577  0.1128 -0.2764
 9353SOL    HW139521   3.172   1.620   0.553 -0.0926 -0.1340 -0.4242
 9353SOL    HW239522   3.112   1.719   0.480 -0.8343 -0.0452  0.2377
 9354SOL     OW39523   1.845   0.971   0.724  0.0464  0.3628 -0.5167
 9354SOL    HW139524   1.902   0.974   0.801  0.6293  0.0115 -0.9304
 9354SOL    HW239525   1.778   0.910   0.755 -0.6622  1.9546  1.1213
 9355SOL     OW39526   3.677   0.164   3.733 -0.3143  0.1142 -0.9410
 9355SOL    HW139527   3.602   0.145   3.789  1.6825 -0.1898  1.6445
 9355SOL    HW239528   3.658   0.115   3.653  0.4472  0.3653 -1.2728
 9356SOL     OW39529   4.521   0.180   9.565  0.2528 -0.0011 -0.5280
 9356SOL    HW139530   4.496   0.173   9.657 -0.1920  0.6321 -0.6032
 9356SOL    HW239531   4.515   0.088   9.538  2.4963 -0.8479  1.9010
 9357SOL     OW39532   1.887   1.953  16.353  0.4481  0.5764 -0.4745
 9357SOL    HW139533   1.801   1.924  16.383  0.4135 -0.9129 -2.0221
 9357SOL    HW239534   1.875   1.973  16.260  0.5017 -1.2228 -0.8739
 9358SOL     OW39535   2.185   3.515  12.799  0.1748  0.2302 -0.3919
 9358SOL    HW139536   2.180   3.560  12.883 -0.6158  0.3279 -0.4942
 9358SOL    HW239537   2.274   3.478  12.800 -0.2954 -0.9590 -1.9082
 9359SOL     OW39538   3.825   3.156  15.136  0.1263 -0.1637 -0.0813
 9359SOL    HW139539   3.766   3.084  15.160 -1.2843  0.3739 -1.9202
 9359SOL    HW239540   3.881   3.149  15.213 -1.7308 -1.2762  1.1827
 9360SOL     OW39541   2.300   3.868   9.739 -0.6099 -0.1820 -0.4931
 9360SOL    HW139542   2.245   3.882   9.817  1.8668  1.5070  0.9658
 9360SOL    HW239543   2.383   3.854   9.784 -0.8821 -1.3466 -0.3641
 9361SOL     OW39544   0.634   1.727   6.661 -0.1922  0.2296 -0.4774
 9361SOL    HW139545   0.673   1.810   6.636  0.0708  0.3746  0.4242
 9361SOL    HW239546   0.555   1.741   6.609  0.3132  1.6127 -0.8696
 9362SOL     OW39547   0.471   0.340  11.543  0.0668 -0.1791  0.3250
 9362SOL    HW139548   0.386   0.380  11.524 -0.8395 -3.0778 -1.6776
 9362SOL    HW239549   0.485   0.380  11.629  0.1155  1.8267 -0.6117
 9363SOL     OW39550   3.656   1.713  11.825 -0.2318 -0.8879  0.4334
 9363SOL    HW139551   3.678   1.679  11.912  0.6364 -3.3051 -0.7202
 9363SOL    HW239552   3.687   1.803  11.833 -0.7920 -0.9143  2.9597
 9364SOL     OW39553   3.840   2.989  14.486  0.1793 -0.1469 -0.1721
 9364SOL    HW139554   3.776   3.060  14.475 -1.1033 -0.7193  3.6367
 9364SOL    HW239555   3.916   3.027  14.531 -1.3268  1.6472  0.8707
 9365SOL     OW39556   0.069   2.249   5.654 -0.2208 -0.6382 -0.1377
 9365SOL    HW139557   0.073   2.174   5.595 -1.4283  0.2507 -1.3589
 9365SOL    HW239558   0.107   2.217   5.736 -3.2141 -1.4420  0.9491
 9366SOL     OW39559   1.769   0.993   3.591  0.2780  0.6432 -0.0388
 9366SOL    HW139560   1.766   0.989   3.686  0.7019  1.0178 -0.0065
 9366SOL    HW239561   1.806   0.910   3.561  1.3356  1.1192 -0.0415
 9367SOL     OW39562   4.404   1.634  15.735  0.0315  0.0447  0.1498
 9367SOL    HW139563   4.399   1.718  15.781 -3.2084 -0.2285  0.3326
 9367SOL    HW239564   4.418   1.581  15.814 -0.7909 -2.7784 -1.6142
 9368SOL     OW39565   2.861   2.832   7.032  0.4647  0.3041 -0.2474
 9368SOL    HW139566   2.882   2.890   7.106  1.7262 -0.8061  0.2660
 9368SOL    HW239567   2.836   2.758   7.088  1.1352 -0.0254 -0.3892
 9369SOL     OW39568   0.539   4.381  17.146  0.0135 -0.4672  0.1720
 9369SOL    HW139569   0.446   4.399  17.160 -0.1579  0.8261 -2.6172
 9369SOL    HW239570   0.537   4.285  17.139  1.0645 -0.5145  0.4849
 9370SOL     OW39571   3.350   3.629  13.026  0.3335 -0.1251 -0.7367
 9370SOL    HW139572   3.444   3.631  13.043  0.1727 -0.0896  0.1694
 9370SOL    HW239573   3.342   3.535  13.010 -1.9735 -0.1024  0.2427
 9371SOL     OW39574   1.560   0.000   1.621 -0.1442 -0.8037  0.4583
 9371SOL    HW139575   1.596   4.708   1.533  0.4535  1.1870  0.3312
 9371SOL    HW239576   1.478   0.035   1.586  0.8505  0.5872 -0.4935
 9372SOL     OW39577   1.431   4.149   3.134  0.5598 -0.3289  0.1524
 9372SOL    HW139578   1.521   4.121   3.124  0.0125 -2.0148 -0.0078
 9372SOL    HW239579   1.399   4.179   3.048 -3.9444 -1.3771  1.4355
 9373SOL     OW39580   3.899   1.819   4.226 -0.0589 -0.3556 -0.0322
 9373SOL    HW139581   3.840   1.820   4.301  0.6327 -0.5820  0.5175
 9373SOL    HW239582   3.980   1.784   4.262 -0.8759  0.1575  2.2872
 9374SOL     OW39583   0.863   2.240   3.145  0.3023 -0.3253 -0.0123
 9374SOL    HW139584   0.768   2.242   3.141  0.3277  0.9423 -0.0670
 9374SOL    HW239585   0.884   2.179   3.074 -1.0669  0.6571 -1.2578
 9375SOL     OW39586   3.532   1.916   1.959  0.2242  0.2862 -0.5705
 9375SOL    HW139587   3.499   1.826   1.957  0.6982  0.0966  0.0780
 9375SOL    HW239588   3.592   1.893   2.030  0.3925  2.7366  0.0499
 9376SOL     OW39589   3.713   3.628   8.036 -0.3140  0.1488  0.5738
 9376SOL    HW139590   3.703   3.542   8.076 -1.7026 -0.9875 -2.2311
 9376SOL    HW239591   3.641   3.673   8.081  2.5233  4.2653  1.0018
 9377SOL     OW39592   4.486   0.095   5.581  0.3685  0.2894 -0.1113
 9377SOL    HW139593   4.527   0.088   5.495 -2.2634 -0.4430 -1.3185
 9377SOL    HW239594   4.497   0.189   5.596 -1.7270  0.6597 -0.9327
 9378SOL     OW39595   4.373   3.017   7.673  0.2527 -0.0431 -0.1518
 9378SOL    HW139596   4.319   3.035   7.750  0.1329 -1.3224  0.0770
 9378SOL    HW239597   4.419   3.098   7.653  0.6831 -0.1178  0.5169
 9379SOL     OW39598   0.959   1.457   4.250  0.3156 -0.3256  0.5787
 9379SOL    HW139599   0.957   1.492   4.161 -0.6103 -1.4904  0.1443
 9379SOL    HW239600   0.888   1.513   4.282  1.1698 -1.1865  4.0020
 9380SOL     OW39601   1.212   1.800   0.265 -1.1312 -0.9261 -0.1737
 9380SOL    HW139602   1.295   1.846   0.275 -0.9337 -1.3916  0.3137
 9380SOL    HW239603   1.183   1.806   0.174 -0.9988 -0.5576 -0.1939
 9381SOL     OW39604   1.734   0.176  13.932 -0.3777  0.3080  0.1676
 9381SOL    HW139605   1.789   0.254  13.921 -0.3071  0.3752  0.9772
 9381SOL    HW239606   1.662   0.213  13.983 -0.3351  0.5930  0.0226
 9382SOL     OW39607   3.165   3.610   4.060 -0.3743 -0.8269  0.1123
 9382SOL    HW139608   3.148   3.517   4.049  2.2703 -1.1790 -1.1342
 9382SOL    HW239609   3.244   3.619   4.114  0.1094 -0.4361 -0.6611
 9383SOL     OW39610   2.804   0.818   6.822 -0.5402  0.3163  0.3486
 9383SOL    HW139611   2.899   0.827   6.832 -0.7120 -0.9997  3.1264
 9383SOL    HW239612   2.784   0.781   6.908 -1.6351 -0.1267 -0.1029
 9384SOL     OW39613   0.374   0.006   3.179 -0.1466  0.9070 -0.1442
 9384SOL    HW139614   0.302   0.023   3.240  1.3299  0.3798  1.7147
 9384SOL    HW239615   0.377   0.091   3.134  2.3771  1.1782  0.5539
 9385SOL     OW39616   2.449   0.825   6.990  0.0823  0.2886  0.3388
 9385SOL    HW139617   2.448   0.880   6.912  1.9305  0.3246  0.3394
 9385SOL    HW239618   2.539   0.837   7.021 -0.6433  1.1065  2.1572
 9386SOL     OW39619   4.062   4.454   5.952 -0.0761 -0.0144  0.2701
 9386SOL    HW139620   3.977   4.494   5.968  0.7105  1.4841  0.6418
 9386SOL    HW239621   4.124   4.526   5.963  1.6662 -1.6580  1.1927
 9387SOL     OW39622   4.459   3.035   8.911 -0.1030  0.0036  0.0510
 9387SOL    HW139623   4.415   3.029   8.996 -0.6803  0.0180 -0.2445
 9387SOL    HW239624   4.535   3.086   8.936 -1.2578  1.4928  0.5372
 9388SOL     OW39625   3.579   0.283   7.543 -0.2571 -0.5689  0.4378
 9388SOL    HW139626   3.485   0.277   7.561 -0.1474 -2.3144  0.4437
 9388SOL    HW239627   3.593   0.246   7.456 -0.0559  0.0764  0.1982
 9389SOL     OW39628   1.135   1.270   9.435 -0.1645  0.1606 -0.4198
 9389SOL    HW139629   1.159   1.180   9.414  0.5763 -0.0705  1.4592
 9389SOL    HW239630   1.143   1.327   9.359 -0.5738 -1.3484 -1.5878
 9390SOL     OW39631   2.453   0.348   7.904 -0.3715  0.0569 -0.4293
 9390SOL    HW139632   2.417   0.360   7.816  1.4285 -1.2331 -1.3629
 9390SOL    HW239633   2.538   0.308   7.880 -0.8351  0.5460 -2.9058
 9391SOL     OW39634   1.806   2.677  13.111 -0.2176  0.1028  0.2000
 9391SOL    HW139635   1.745   2.604  13.118  1.1603 -0.8178  2.6127
 9391SOL    HW239636   1.778   2.743  13.175  1.8427  0.5154  0.6779
 9392SOL     OW39637   1.698   0.452   2.913  0.7434  0.7745  0.3323
 9392SOL    HW139638   1.616   0.460   2.962 -0.4007  0.3149 -1.5043
 9392SOL    HW239639   1.752   0.523   2.947  1.6422 -0.6063  1.8066
 9393SOL     OW39640   1.101   4.198  11.965 -0.2094  0.8198 -0.1710
 9393SOL    HW139641   1.067   4.172  12.051  0.1547 -0.2901 -0.3615
 9393SOL    HW239642   1.195   4.210  11.979 -0.3580  2.5876 -0.6656
 9394SOL     OW39643   4.334   3.402   7.977 -0.4287 -0.5723 -0.7737
 9394SOL    HW139644   4.293   3.316   7.992  0.1703 -0.9569 -1.3425
 9394SOL    HW239645   4.278   3.447   7.914  0.8402 -0.7282 -2.0261
 9395SOL     OW39646   2.685   0.771   2.378 -0.3381 -0.1529  0.2077
 9395SOL    HW139647   2.615   0.723   2.333 -2.7881  2.8436  0.7647
 9395SOL    HW239648   2.760   0.743   2.327  0.6171  0.8478  1.0689
 9396SOL     OW39649   2.494   0.015   9.095 -0.0057  0.0314 -0.0053
 9396SOL    HW139650   2.563   0.037   9.157 -1.9952  0.7131  1.9821
 9396SOL    HW239651   2.527   4.656   9.061  0.8044  0.4876 -0.3310
 9397SOL     OW39652   0.049   0.139   2.161  0.4160 -0.5386  0.1453
 9397SOL    HW139653   0.099   0.211   2.199  1.3271 -1.1295  0.0518
 9397SOL    HW239654   0.070   0.164   2.071 -1.4035  0.9884  0.1459
 9398SOL     OW39655   1.895   0.435  17.288 -0.3187  0.2438 -0.3120
 9398SOL    HW139656   1.860   0.522  17.269  1.1743  1.0292  0.5322
 9398SOL    HW239657   1.818   0.389  17.321  0.5077 -0.0492  1.2144
 9399SOL     OW39658   2.028   4.337  16.278 -0.3002 -0.2769  0.3247
 9399SOL    HW139659   2.096   4.277  16.307 -0.4558 -1.5705 -1.9614
 9399SOL    HW239660   2.038   4.313  16.186 -1.4740 -2.4438  0.7626
 9400SOL     OW39661   3.105   3.204   1.087  0.0348 -0.1896 -0.3732
 9400SOL    HW139662   3.023   3.163   1.060  0.3903  0.2810 -2.1869
 9400SOL    HW239663   3.170   3.134   1.077  0.8616  0.6428 -0.7389
 9401SOL     OW39664   3.226   4.423   2.658  0.0219 -0.2177 -0.1770
 9401SOL    HW139665   3.199   4.446   2.569 -0.3258  0.6521  0.1440
 9401SOL    HW239666   3.314   4.460   2.662  0.0675 -0.2054 -1.3086
 9402SOL     OW39667   1.370   3.993   9.058  0.0012 -0.4307  0.1236
 9402SOL    HW139668   1.397   4.080   9.030 -1.2684 -0.2226 -0.4718
 9402SOL    HW239669   1.275   3.999   9.056  0.2025  1.9252 -2.1605
 9403SOL     OW39670   4.022   0.258  16.138  0.3887 -0.0523  0.7881
 9403SOL    HW139671   4.009   0.243  16.044 -1.5077 -2.2209  1.3953
 9403SOL    HW239672   3.985   0.345  16.155  0.3976  0.1660 -0.3082
 9404SOL     OW39673   4.120   1.680   6.858  0.2073 -0.3322  0.3908
 9404SOL    HW139674   4.063   1.653   6.930  1.0186 -2.0606  0.3702
 9404SOL    HW239675   4.062   1.652   6.787  0.9448  1.7788 -1.0351
 9405SOL     OW39676   0.346   3.999   8.656 -0.1478  0.3190  0.4493
 9405SOL    HW139677   0.371   4.091   8.650  0.2059  0.0616 -1.7309
 9405SOL    HW239678   0.273   4.003   8.718 -1.0095  0.4578 -0.5899
 9406SOL     OW39679   2.237   4.096   9.600 -0.1283 -0.4032 -0.1005
 9406SOL    HW139680   2.312   4.136   9.556 -0.1836 -1.5611 -1.2742
 9406SOL    HW239681   2.265   4.006   9.617  0.4831 -0.1125  0.4755
 9407SOL     OW39682   1.928   2.546   2.314  0.0574  0.0187 -0.4467
 9407SOL    HW139683   1.927   2.601   2.393 -0.8108  1.0836 -1.2065
 9407SOL    HW239684   1.841   2.556   2.277  0.5856  0.1427 -1.6466
 9408SOL     OW39685   4.012   2.971  13.240  0.7483  0.2049  0.1503
 9408SOL    HW139686   4.101   2.938  13.256 -0.4897 -2.1019  2.3442
 9408SOL    HW239687   4.023   3.029  13.165  0.5296  1.0359  0.7497
 9409SOL     OW39688   3.042   4.487   6.561 -0.5265 -0.1404 -0.2904
 9409SOL    HW139689   3.010   4.573   6.590 -1.8969 -0.7920  0.1403
 9409SOL    HW239690   2.965   4.430   6.565 -0.1890 -0.5131  0.7553
 9410SOL     OW39691   2.665   2.902   9.212 -0.5367  0.3175 -0.0259
 9410SOL    HW139692   2.629   2.847   9.142  1.1522 -0.6330 -0.1549
 9410SOL    HW239693   2.759   2.898   9.196 -0.4183 -0.6456  0.8822
 9411SOL     OW39694   2.420   0.072   5.708 -0.0645 -0.2424  0.2971
 9411SOL    HW139695   2.506   0.058   5.668  1.0116 -0.5809  2.6795
 9411SOL    HW239696   2.391   0.140   5.648  1.4553  0.7971  0.7421
 9412SOL     OW39697   1.014   4.151   2.008  0.0791  0.0636 -0.7342
 9412SOL    HW139698   1.036   4.071   2.055 -0.5607  0.1364 -0.3070
 9412SOL    HW239699   0.920   4.140   1.993  0.5925 -1.1015 -2.9802
 9413SOL     OW39700   4.306   3.923  10.449 -0.4053 -0.4397  0.0250
 9413SOL    HW139701   4.248   3.997  10.431 -0.5037 -0.4241  0.4162
 9413SOL    HW239702   4.373   3.979  10.490 -0.1641 -0.4757 -0.3188
 9414SOL     OW39703   1.608   0.278   3.258 -0.3523 -0.3007  0.4692
 9414SOL    HW139704   1.548   0.344   3.224  0.4703 -1.1862 -2.7575
 9414SOL    HW239705   1.687   0.331   3.250 -1.8463  1.9145  0.3096
 9415SOL     OW39706   3.403   1.234  11.114 -0.3067  0.1439 -0.4063
 9415SOL    HW139707   3.472   1.285  11.156  0.0971 -0.9535  0.2459
 9415SOL    HW239708   3.340   1.302  11.088 -1.5002 -0.8755 -0.1984
 9416SOL     OW39709   4.410   2.766   8.911  0.5233 -0.1549  0.5707
 9416SOL    HW139710   4.467   2.720   8.849  1.8325 -0.1665  1.7887
 9416SOL    HW239711   4.452   2.852   8.907  0.0648  0.0590  0.2810
 9417SOL     OW39712   1.598   3.821  17.212  0.6667 -0.6561  0.6141
 9417SOL    HW139713   1.642   3.737  17.195 -1.9371 -2.3997  2.5228
 9417SOL    HW239714   1.541   3.795  17.284  0.7805 -3.4413 -0.2695
 9418SOL     OW39715   3.311   0.753   0.369  0.2511  0.2602 -1.1129
 9418SOL    HW139716   3.346   0.747   0.458 -3.2351  0.1693  0.2428
 9418SOL    HW239717   3.395   0.776   0.330  1.6323 -0.3605  1.5382
 9419SOL     OW39718   0.250   0.131   5.700  0.2186 -0.3510 -0.2030
 9419SOL    HW139719   0.161   0.101   5.719 -0.5971  1.2891 -1.4738
 9419SOL    HW239720   0.293   0.047   5.686 -0.0351 -0.5799  0.3960
 9420SOL     OW39721   0.360   1.787   5.560 -0.0428  0.7581  0.0802
 9420SOL    HW139722   0.339   1.811   5.470  0.9165 -0.8135 -0.5646
 9420SOL    HW239723   0.284   1.732   5.578 -0.8756  1.6247 -0.8020
 9421SOL     OW39724   3.431   1.945  15.383 -0.0932  0.2560  0.4151
 9421SOL    HW139725   3.476   1.949  15.299 -2.1663 -0.6412 -0.7163
 9421SOL    HW239726   3.465   1.861  15.415 -1.4669 -0.4659 -0.0536
 9422SOL     OW39727   2.327   1.470   3.302 -0.4867 -0.2727  0.4324
 9422SOL    HW139728   2.292   1.387   3.336  3.2731 -1.7991  0.6175
 9422SOL    HW239729   2.408   1.475   3.353  0.7902 -1.6237 -1.4853
 9423SOL     OW39730   2.240   2.579   2.458  0.6453  0.2305  0.0564
 9423SOL    HW139731   2.224   2.613   2.370  0.0026  2.1400  0.8964
 9423SOL    HW239732   2.331   2.552   2.445  1.1044  1.4518  0.6664
 9424SOL     OW39733   4.187   3.514   5.370 -0.6255  0.1097  0.0731
 9424SOL    HW139734   4.240   3.591   5.393 -0.9829  0.2922  0.2901
 9424SOL    HW239735   4.247   3.464   5.316 -0.0124  2.2561 -1.2132
 9425SOL     OW39736   2.684   0.031  16.635  0.2806  0.5388  0.0272
 9425SOL    HW139737   2.743   0.076  16.696 -1.2280  0.6775  1.3975
 9425SOL    HW239738   2.630   0.107  16.612 -0.0108  0.4169  0.3110
 9426SOL     OW39739   4.221   1.898  14.068  0.1272 -0.2975 -0.4736
 9426SOL    HW139740   4.215   1.987  14.035  0.0200 -0.3404 -0.5705
 9426SOL    HW239741   4.133   1.866  14.087 -0.0477  0.4983  0.0151
 9427SOL     OW39742   3.998   1.146   7.222  0.0165  0.2311 -0.4532
 9427SOL    HW139743   4.007   1.064   7.173 -1.0242  0.3131 -0.7591
 9427SOL    HW239744   4.091   1.167   7.229  0.1938 -1.7148  3.0030
 9428SOL     OW39745   2.262   3.489   5.703  0.2591 -0.0279 -0.1007
 9428SOL    HW139746   2.308   3.505   5.786  0.8485  0.7296 -0.5791
 9428SOL    HW239747   2.182   3.534   5.729  1.4869  0.3783  2.9766
 9429SOL     OW39748   2.778   3.393  14.289 -0.7364 -0.3165 -0.1845
 9429SOL    HW139749   2.807   3.476  14.251  2.6720  0.3545  3.9318
 9429SOL    HW239750   2.683   3.410  14.285 -0.9394 -1.2864  0.4744
 9430SOL     OW39751   2.473   4.126   3.871 -0.1215 -0.0333  0.1432
 9430SOL    HW139752   2.492   4.220   3.878 -1.6382  0.0706  2.6927
 9430SOL    HW239753   2.528   4.104   3.795 -1.3286  0.2686 -0.8246
 9431SOL     OW39754   2.501   3.752   7.279  0.2134 -0.0355 -0.1361
 9431SOL    HW139755   2.538   3.783   7.196 -2.4136 -0.2704 -1.3805
 9431SOL    HW239756   2.412   3.785   7.271  0.4746  0.9212  1.0232
 9432SOL     OW39757   4.688   3.389   0.648  0.2499 -0.4297 -0.7116
 9432SOL    HW139758   4.673   3.294   0.653 -0.3290 -0.4141 -2.3447
 9432SOL    HW239759   4.702   3.403   0.742  2.4185 -0.2738 -1.0605
 9433SOL     OW39760   2.461   2.668   8.748  0.0681 -0.3001  0.6164
 9433SOL    HW139761   2.535   2.724   8.724 -1.2971  2.1868  2.2855
 9433SOL    HW239762   2.486   2.589   8.700 -1.0933 -0.9376  1.0478
 9434SOL     OW39763   0.784   1.505   6.339  0.2122 -0.1916 -1.0390
 9434SOL    HW139764   0.727   1.578   6.319  0.4999  0.6922  1.3317
 9434SOL    HW239765   0.839   1.506   6.261 -1.6988 -2.2991 -2.4210
 9435SOL     OW39766   4.049   2.101   6.280  0.1604 -0.1514  0.3529
 9435SOL    HW139767   3.991   2.096   6.356  3.5717 -0.2779  2.9313
 9435SOL    HW239768   4.063   2.010   6.255 -1.2309 -0.3956  0.4629
 9436SOL     OW39769   0.412   3.411   5.048 -0.8082 -0.9473 -0.0968
 9436SOL    HW139770   0.416   3.413   5.143  2.0292  1.2409 -0.2502
 9436SOL    HW239771   0.419   3.503   5.021  0.0771 -0.8804  0.3327
 9437SOL     OW39772   0.447   2.029   7.972 -0.0902 -0.0236  0.4722
 9437SOL    HW139773   0.389   1.967   8.017 -2.0293  0.6105 -1.1273
 9437SOL    HW239774   0.432   2.108   8.024 -1.0765 -0.7172  1.2326
 9438SOL     OW39775   1.501   4.661   8.279 -0.8279 -0.1028  0.6166
 9438SOL    HW139776   1.437   4.597   8.309 -2.3260  1.1422  0.0465
 9438SOL    HW239777   1.544   4.695   8.358 -0.5328  0.0253  0.4001
 9439SOL     OW39778   1.955   0.254   1.297  0.1439 -0.0564 -0.2568
 9439SOL    HW139779   1.929   0.195   1.227  2.6360  0.5991 -1.7319
 9439SOL    HW239780   2.007   0.190   1.346 -2.0334 -1.5640  0.0775
 9440SOL     OW39781   0.929   3.687   7.356  0.4922  0.8263 -0.1816
 9440SOL    HW139782   0.955   3.606   7.399  2.2094  1.5361  0.1453
 9440SOL    HW239783   0.867   3.727   7.417 -0.3997  0.7871 -1.0673
 9441SOL     OW39784   1.888   4.091   5.840 -0.6436 -0.4468 -0.2514
 9441SOL    HW139785   1.848   4.053   5.918 -2.4256 -0.3828 -1.1332
 9441SOL    HW239786   1.956   4.030   5.813  1.0606  0.8127  1.2523
 9442SOL     OW39787   3.158   2.230   2.070 -0.3752  0.0031  0.7972
 9442SOL    HW139788   3.149   2.244   1.976 -0.5609 -1.4497  0.5953
 9442SOL    HW239789   3.242   2.184   2.078 -0.2773  0.1657  0.7098
 9443SOL     OW39790   0.484   4.227   5.779  0.0462  0.1436  0.3588
 9443SOL    HW139791   0.504   4.164   5.849 -3.0859  0.1108  1.2379
 9443SOL    HW239792   0.553   4.292   5.787  1.0664 -0.7478 -1.3471
 9444SOL     OW39793   3.282   0.233   8.513 -0.1481 -0.1203  0.2291
 9444SOL    HW139794   3.255   0.307   8.459  4.0087 -0.5165 -2.3457
 9444SOL    HW239795   3.239   0.244   8.598  3.1701 -1.2175  2.0517
 9445SOL     OW39796   1.080   2.142  14.526 -0.0418 -0.3427 -0.3285
 9445SOL    HW139797   1.037   2.059  14.503  0.3641 -0.6287 -0.0585
 9445SOL    HW239798   1.162   2.104  14.559  0.6429 -0.0176 -1.6334
 9446SOL     OW39799   4.282   1.481  17.384  0.3261  0.0586  0.1513
 9446SOL    HW139800   4.319   1.396  17.409  1.5395  0.0242 -1.7432
 9446SOL    HW239801   4.320   1.542  17.448 -1.4309  0.6502  0.6089
 9447SOL     OW39802   0.125   0.678   4.204 -0.3278  0.2363 -0.1411
 9447SOL    HW139803   0.125   0.688   4.108  0.4182 -2.7898 -0.4626
 9447SOL    HW239804   0.216   0.692   4.232  0.0558 -1.4746 -0.5299
 9448SOL     OW39805   2.868   3.568   4.061  0.0520  0.4964 -0.2944
 9448SOL    HW139806   2.796   3.599   4.116  1.4637  3.7114 -0.2285
 9448SOL    HW239807   2.942   3.626   4.076 -1.8480  2.1019  2.9761
 9449SOL     OW39808   1.450   2.454   1.497 -0.5832  0.0873  0.0260
 9449SOL    HW139809   1.387   2.527   1.497  0.0294  0.6169 -0.7737
 9449SOL    HW239810   1.469   2.440   1.590  1.7121 -1.0063 -0.6337
 9450SOL     OW39811   3.015   1.387   5.919  0.4734  0.2043  0.0956
 9450SOL    HW139812   3.086   1.387   5.983  0.3475  0.1297  0.2350
 9450SOL    HW239813   2.940   1.367   5.975  1.2851  0.1131  1.1441
 9451SOL     OW39814   2.310   0.092  17.041 -0.3755  0.1249 -1.0856
 9451SOL    HW139815   2.327   0.115  17.133  0.5587 -2.3182 -0.6361
 9451SOL    HW239816   2.387   0.037  17.028 -0.2344  0.4631 -1.6809
 9452SOL     OW39817   2.949   0.458  14.039  0.6349 -0.1469 -0.3673
 9452SOL    HW139818   2.889   0.513  13.989 -2.6312 -3.3219  0.0301
 9452SOL    HW239819   3.002   0.518  14.091  0.8024 -0.8979  0.3445
 9453SOL     OW39820   3.140   0.492   4.022 -0.4710  0.4638 -0.6287
 9453SOL    HW139821   3.126   0.579   4.058 -1.7658 -0.9843  2.4216
 9453SOL    HW239822   3.118   0.431   4.093  0.6856  1.1391  0.3033
 9454SOL     OW39823   3.723   3.206   9.241  0.0921  0.1876  0.3376
 9454SOL    HW139824   3.712   3.233   9.332 -2.1888  0.6960 -0.0737
 9454SOL    HW239825   3.721   3.111   9.253 -2.8433  0.3670  1.1679
 9455SOL     OW39826   3.006   3.904  12.072 -0.5005  0.1151 -0.1587
 9455SOL    HW139827   3.005   3.835  12.006 -2.4376 -0.0581  0.0637
 9455SOL    HW239828   3.099   3.895  12.093 -0.7932 -2.0998  0.2035
 9456SOL     OW39829   0.709   3.434   5.072  0.4706  0.2870 -0.7566
 9456SOL    HW139830   0.643   3.431   5.141  2.4485  0.8836  1.1498
 9456SOL    HW239831   0.690   3.350   5.031 -1.2564  0.8562 -1.1201
 9457SOL     OW39832   3.092   1.182   2.245 -0.0581  0.4773 -0.6156
 9457SOL    HW139833   3.135   1.256   2.202  0.3661 -0.1422 -1.2359
 9457SOL    HW239834   3.157   1.149   2.307  0.6749  0.7711 -1.2390
 9458SOL     OW39835   2.348   4.180   4.299  0.0267  0.1115  0.6695
 9458SOL    HW139836   2.350   4.107   4.360 -0.6163  0.0470  0.6165
 9458SOL    HW239837   2.255   4.199   4.283  0.3749  1.0694 -0.2037
 9459SOL     OW39838   1.794   1.288  16.586 -0.0740 -0.1021  0.3411
 9459SOL    HW139839   1.793   1.192  16.582 -1.6049 -0.1056  0.8352
 9459SOL    HW239840   1.873   1.309  16.535 -0.9722 -0.5401 -1.2096
 9460SOL     OW39841   4.139   2.327   4.114  0.1922 -0.0655  0.1980
 9460SOL    HW139842   4.069   2.290   4.168  0.8421 -0.3051  0.8821
 9460SOL    HW239843   4.139   2.252   4.054  0.8713  1.0678 -1.2075
 9461SOL     OW39844   0.982   4.119   4.976  0.0190  0.0967  0.0432
 9461SOL    HW139845   0.906   4.140   5.030 -0.6006  2.3564 -1.7161
 9461SOL    HW239846   0.982   4.161   4.890  1.8411 -1.0934 -0.5467
 9462SOL     OW39847   0.040   3.626   6.028  0.0778 -0.1284  0.6828
 9462SOL    HW139848   0.028   3.643   5.934 -1.3089 -0.9795  0.7180
 9462SOL    HW239849   0.051   3.718   6.051  1.4822 -0.4092  1.1554
 9463SOL     OW39850   0.417   0.025   7.534 -0.0804 -0.0233 -0.2897
 9463SOL    HW139851   0.388   0.021   7.625 -0.9911 -0.5009 -0.5987
 9463SOL    HW239852   0.473   0.101   7.524  0.9974 -0.7745  0.0703
 9464SOL     OW39853   0.804   3.302   5.580 -0.4548 -0.7680 -0.5923
 9464SOL    HW139854   0.735   3.298   5.514  1.7987 -2.4124 -2.8896
 9464SOL    HW239855   0.816   3.210   5.604  0.4555 -0.3211  0.6919
 9465SOL     OW39856   0.457   3.003   4.372 -0.0070  0.1661 -0.2729
 9465SOL    HW139857   0.403   3.013   4.294 -0.7363 -0.3906  0.1530
 9465SOL    HW239858   0.438   2.910   4.388  0.7544  0.2898  1.3078
 9466SOL     OW39859   3.000   2.531   6.857  0.1140  0.3288  0.1712
 9466SOL    HW139860   3.085   2.527   6.901  0.1759 -1.9740 -0.1462
 9466SOL    HW239861   2.938   2.515   6.927  0.9254  0.0989  0.8346
 9467SOL     OW39862   2.368   4.343  14.160  0.1130  0.1925  0.0675
 9467SOL    HW139863   2.463   4.337  14.166  0.0615  0.2948  1.0493
 9467SOL    HW239864   2.359   4.379  14.248  0.5369  2.1675 -0.7063
 9468SOL     OW39865   2.612   3.288   9.117 -0.3150 -0.2809  0.1014
 9468SOL    HW139866   2.586   3.361   9.173 -2.6057 -1.3178  0.4013
 9468SOL    HW239867   2.651   3.233   9.185 -0.1223 -0.4431 -0.1408
 9469SOL     OW39868   1.449   0.959   7.390  0.0579 -0.1351  0.1773
 9469SOL    HW139869   1.508   1.005   7.331 -1.1819  0.7791 -0.3454
 9469SOL    HW239870   1.384   1.028   7.403  1.9217  1.4196  1.2195
 9470SOL     OW39871   0.215   0.289  11.385  0.2603  0.3134  0.2791
 9470SOL    HW139872   0.153   0.316  11.317  1.0354  0.8547 -0.2175
 9470SOL    HW239873   0.206   0.194  11.376 -1.2173  0.4108  0.8481
 9471SOL     OW39874   3.318   2.088   5.886 -0.5810  0.0008 -0.7599
 9471SOL    HW139875   3.337   2.142   5.963  2.7727  0.5116 -1.9587
 9471SOL    HW239876   3.253   2.134   5.832 -0.3514  2.0815  0.7183
 9472SOL     OW39877   4.071   2.123   9.989  0.1387 -0.1753  0.3316
 9472SOL    HW139878   4.114   2.074  10.059  0.2185 -4.2109 -2.5343
 9472SOL    HW239879   3.996   2.063   9.979  0.4700 -0.4464 -0.5575
 9473SOL     OW39880   2.881   0.049   7.524 -0.2578  0.2334 -0.1396
 9473SOL    HW139881   2.892   0.084   7.612  0.0547  1.0062 -0.4895
 9473SOL    HW239882   2.950   4.706   7.516  0.9357  1.5495 -0.9155
 9474SOL     OW39883   0.189   0.305  12.803  0.4595  0.2041 -0.1328
 9474SOL    HW139884   0.122   0.248  12.841  1.1061  0.0423  0.7587
 9474SOL    HW239885   0.179   0.270  12.714 -2.2286 -0.7167  0.5262
 9475SOL     OW39886   1.599   2.823   4.947 -0.4396 -1.0379  0.1586
 9475SOL    HW139887   1.679   2.810   4.897 -1.2979 -0.9401 -1.2527
 9475SOL    HW239888   1.524   2.829   4.887 -1.0181 -1.5158  0.8290
 9476SOL     OW39889   1.602   1.790  15.433  0.6123 -0.5757  0.5325
 9476SOL    HW139890   1.696   1.798  15.416  0.0838  0.8571 -1.7243
 9476SOL    HW239891   1.603   1.836  15.517  0.9881 -0.6629  0.5776
 9477SOL     OW39892   1.881   3.530   1.751 -0.0919 -0.0727 -0.0702
 9477SOL    HW139893   1.808   3.570   1.705  0.0797  0.4116  0.0806
 9477SOL    HW239894   1.869   3.440   1.720 -0.1901 -0.0211 -0.1812
 9478SOL     OW39895   1.007   1.704   6.384 -0.2805  0.1997 -0.0190
 9478SOL    HW139896   1.062   1.714   6.306  1.9359  0.5630  1.5931
 9478SOL    HW239897   0.965   1.621   6.363 -1.5831  0.6275  0.8763
 9479SOL     OW39898   2.626   1.136   9.564 -1.0859  0.0216 -0.2991
 9479SOL    HW139899   2.546   1.120   9.514 -1.8462  1.5840  0.4035
 9479SOL    HW239900   2.692   1.108   9.501 -2.5267 -1.4861 -1.1554
 9480SOL     OW39901   0.139   2.246  10.040 -0.2251  0.1000  0.7176
 9480SOL    HW139902   0.224   2.288  10.030 -0.2599 -0.2112 -0.8593
 9480SOL    HW239903   0.088   2.319  10.075 -1.7330 -1.2642  1.3467
 9481SOL     OW39904   2.631   2.179  12.937 -0.7055  0.6424  0.5183
 9481SOL    HW139905   2.634   2.106  12.876  0.5455  2.1398 -1.2040
 9481SOL    HW239906   2.725   2.199  12.941 -0.4948 -0.5283  1.6561
 9482SOL     OW39907   4.160   2.803   8.750 -0.0038  0.3989 -0.1883
 9482SOL    HW139908   4.210   2.790   8.830 -1.0100  0.4655  0.4448
 9482SOL    HW239909   4.071   2.819   8.780  1.0029  1.2940  2.2612
 9483SOL     OW39910   1.557   2.880   2.298 -0.1647 -0.3835  0.1252
 9483SOL    HW139911   1.586   2.942   2.232 -2.6492 -0.8972 -1.4849
 9483SOL    HW239912   1.592   2.801   2.257  0.9043  0.8402 -1.2953
 9484SOL     OW39913   4.380   3.111   5.844 -0.0353 -0.1919 -0.3358
 9484SOL    HW139914   4.285   3.113   5.839  0.0071  2.7245 -0.1127
 9484SOL    HW239915   4.414   3.112   5.754  2.4498  0.3249  0.5983
 9485SOL     OW39916   2.596   0.873  12.049 -0.5671 -0.0073 -0.1632
 9485SOL    HW139917   2.551   0.803  12.001  1.0921 -1.9605  1.1032
 9485SOL    HW239918   2.629   0.819  12.121  1.5910  0.3110 -0.9086
 9486SOL     OW39919   0.507   0.694   5.783 -0.5707 -0.7655 -0.0867
 9486SOL    HW139920   0.422   0.664   5.753 -0.5265 -0.3938 -0.5757
 9486SOL    HW239921   0.538   0.731   5.701  0.7625 -1.2289  0.2038
 9487SOL     OW39922   4.411   3.859  16.061 -0.2095 -0.0511 -0.0183
 9487SOL    HW139923   4.493   3.852  16.012  0.8138  1.8733  1.3919
 9487SOL    HW239924   4.436   3.895  16.146 -0.7148 -1.1446  0.5922
 9488SOL     OW39925   0.154   3.825   5.608 -0.0021  0.1159 -0.7262
 9488SOL    HW139926   0.228   3.814   5.548 -0.2576 -1.5049 -0.7509
 9488SOL    HW239927   0.148   3.921   5.603 -1.4124  0.0787  0.2848
 9489SOL     OW39928   2.304   1.874   9.135  0.1035  0.1984  0.0436
 9489SOL    HW139929   2.272   1.942   9.076 -1.1734  1.1467  1.8212
 9489SOL    HW239930   2.383   1.911   9.174 -0.9528 -0.0122  2.3757
 9490SOL     OW39931   2.045   4.195  15.146  0.1865 -0.3488 -0.3656
 9490SOL    HW139932   2.043   4.160  15.235  0.6732  1.6292  0.4312
 9490SOL    HW239933   2.130   4.238  15.148 -0.3353  0.7637 -1.4575
 9491SOL     OW39934   3.881   1.655  15.644 -0.2269  0.2099 -0.1617
 9491SOL    HW139935   3.845   1.652  15.733 -0.7288  0.5334 -0.3570
 9491SOL    HW239936   3.977   1.651  15.649  0.0350  3.6176 -2.4383
 9492SOL     OW39937   0.579   0.489   2.125 -0.7386  0.0537 -0.3322
 9492SOL    HW139938   0.531   0.429   2.068  1.0177  1.3777 -3.1977
 9492SOL    HW239939   0.660   0.500   2.075  1.0575  0.7373  2.7542
 9493SOL     OW39940   2.147   3.743   1.264 -0.7683  0.0231 -0.0461
 9493SOL    HW139941   2.141   3.826   1.216  0.3725 -0.4727 -1.0417
 9493SOL    HW239942   2.172   3.688   1.190 -1.9060  0.9421 -1.1276
 9494SOL     OW39943   3.284   3.508  16.793  0.0759  0.1429 -0.1686
 9494SOL    HW139944   3.304   3.416  16.812 -0.8883  0.1089  0.6495
 9494SOL    HW239945   3.268   3.506  16.698  0.5596 -0.3812 -0.2438
 9495SOL     OW39946   1.747   4.180  11.646  0.4124  0.4278 -0.1367
 9495SOL    HW139947   1.692   4.251  11.678  1.2862  1.3871 -0.7534
 9495SOL    HW239948   1.779   4.141  11.728 -1.7121  0.4248  0.6875
 9496SOL     OW39949   2.175   0.852   4.448 -0.6440  0.5071 -0.3391
 9496SOL    HW139950   2.266   0.883   4.440 -0.1280 -1.5326 -2.1238
 9496SOL    HW239951   2.131   0.933   4.421 -0.6449  1.1823  1.6365
 9497SOL     OW39952   1.602   3.634   0.161 -0.0273  0.6844 -0.0195
 9497SOL    HW139953   1.580   3.727   0.150 -0.6382  0.2504 -2.5457
 9497SOL    HW239954   1.693   3.645   0.136  0.0213 -0.5465 -0.3990
 9498SOL     OW39955   2.919   2.317   2.655  0.4415  0.7234 -0.0654
 9498SOL    HW139956   2.941   2.224   2.655 -1.2471  0.3189  0.0788
 9498SOL    HW239957   2.926   2.335   2.562  0.9399  0.6187 -0.0505
 9499SOL     OW39958   2.562   2.432   7.452  0.5802  0.1723  0.4273
 9499SOL    HW139959   2.482   2.484   7.448  0.0837 -0.4365  2.3544
 9499SOL    HW239960   2.583   2.433   7.358 -0.0241 -1.1744  0.2735
 9500SOL     OW39961   3.706   4.120  13.330  0.5802  0.0357 -0.5892
 9500SOL    HW139962   3.767   4.114  13.404  1.4731  1.4001 -1.2206
 9500SOL    HW239963   3.684   4.213  13.327 -2.6554 -0.6707  1.4089
 9501SOL     OW39964   2.333   0.559  15.595 -0.4703  0.4427 -0.0454
 9501SOL    HW139965   2.405   0.622  15.589 -0.4447  0.2709 -1.5152
 9501SOL    HW239966   2.386   0.482  15.615 -0.5051 -0.5312 -3.7318
 9502SOL     OW39967   1.326   2.497   5.612  0.1927 -0.1491  0.2171
 9502SOL    HW139968   1.323   2.563   5.543 -0.2230  0.3454  0.7066
 9502SOL    HW239969   1.419   2.474   5.608  0.3189  0.1321  1.3307
 9503SOL     OW39970   2.285   3.853  11.737 -0.0681 -0.1686 -0.1090
 9503SOL    HW139971   2.284   3.830  11.644 -2.4619 -3.7011  0.7925
 9503SOL    HW239972   2.194   3.881  11.750 -0.1318  0.1647 -1.2436
 9504SOL     OW39973   1.171   3.687   4.143 -0.8998 -0.3971 -0.0806
 9504SOL    HW139974   1.158   3.779   4.169  0.3573 -0.0704 -0.6183
 9504SOL    HW239975   1.196   3.650   4.227 -1.8788  2.4785  1.4948
 9505SOL     OW39976   1.462   1.046  14.935  0.0980 -0.0402 -0.2339
 9505SOL    HW139977   1.532   1.103  14.904 -0.7802  0.2622 -1.6589
 9505SOL    HW239978   1.382   1.078  14.892 -0.8935 -2.5056 -0.2376
 9506SOL     OW39979   2.049   2.419   2.609  0.0024 -0.1710  0.7687
 9506SOL    HW139980   1.980   2.485   2.597 -0.3746 -0.6397  0.3802
 9506SOL    HW239981   2.122   2.464   2.567 -0.2250  0.2395  0.8043
 9507SOL     OW39982   1.780   3.773   4.770 -0.0258  0.0184 -0.1198
 9507SOL    HW139983   1.747   3.790   4.858  0.2616  0.3591 -0.0753
 9507SOL    HW239984   1.868   3.813   4.771  1.1008 -2.4495 -0.6311
 9508SOL     OW39985   1.060   3.033   9.081 -0.2975  0.1065  0.9680
 9508SOL    HW139986   0.985   3.017   9.024  0.0630  2.1031 -0.0452
 9508SOL    HW239987   1.110   3.104   9.041 -0.2640 -1.1785 -1.3021
 9509SOL     OW39988   4.360   1.311   7.952 -0.9516  0.3089 -0.1984
 9509SOL    HW139989   4.454   1.292   7.962 -0.2011  3.8183 -0.5865
 9509SOL    HW239990   4.356   1.348   7.864 -0.1861  3.5781  1.1240
 9510SOL     OW39991   4.608   3.980   2.223 -0.2554 -0.1428 -0.1949
 9510SOL    HW139992   4.695   4.020   2.211 -0.1277  0.1514  1.6447
 9510SOL    HW239993   4.563   4.014   2.146  0.7626 -1.4291 -1.3569
 9511SOL     OW39994   1.320   2.300  12.334 -0.3446  0.7972 -0.3323
 9511SOL    HW139995   1.359   2.363  12.395  0.7700 -1.3057  1.1020
 9511SOL    HW239996   1.262   2.343  12.272 -0.8991  0.4059 -0.0783
 9512SOL     OW39997   4.210   2.144  15.608 -0.4591 -0.3436 -0.2312
 9512SOL    HW139998   4.284   2.155  15.549 -0.7282 -0.2069 -0.5397
 9512SOL    HW239999   4.223   2.051  15.622 -2.1728 -0.7171 -1.1250
 9513SOL     OW40000   1.857   0.549   6.397  0.4146  0.5647 -0.1358
 9513SOL    HW140001   1.824   0.591   6.476 -1.5563  0.2940 -0.8015
 9513SOL    HW240002   1.821   0.612   6.334 -1.9904  0.2203  0.9107
 9514SOL     OW40003   4.087   4.075   0.830  0.1543 -0.3259  0.3696
 9514SOL    HW140004   4.096   4.117   0.745  0.9726 -2.6181 -0.6924
 9514SOL    HW240005   4.180   4.081   0.852 -0.3990  1.1003  2.3130
 9515SOL     OW40006   4.072   0.288  11.450 -0.2071 -0.4030  0.0629
 9515SOL    HW140007   3.996   0.256  11.401 -0.6496 -0.1081  0.5536
 9515SOL    HW240008   4.070   0.382  11.433 -0.5316 -0.4040  0.0937
 9516SOL     OW40009   0.748   2.274   8.183  0.4884 -0.7144  0.1859
 9516SOL    HW140010   0.737   2.209   8.114 -0.0848 -0.2180 -0.2015
 9516SOL    HW240011   0.828   2.316   8.152 -0.9159  2.9961  1.6044
 9517SOL     OW40012   0.402   1.131   3.173 -0.6075  0.2112 -0.1856
 9517SOL    HW140013   0.476   1.185   3.199 -0.4895  1.8958 -3.9274
 9517SOL    HW240014   0.431   1.100   3.087 -1.9954 -0.3963 -0.4351
 9518SOL     OW40015   0.547   2.908  12.196 -0.2675  0.0258  0.1792
 9518SOL    HW140016   0.538   2.997  12.230  0.9089 -0.2968  1.3056
 9518SOL    HW240017   0.639   2.907  12.169 -0.7974 -3.5105 -1.5370
 9519SOL     OW40018   4.455   4.586   5.317 -0.1660  0.2541  0.0094
 9519SOL    HW140019   4.517   4.528   5.360 -0.2841  0.2469  0.1718
 9519SOL    HW240020   4.491   4.674   5.329 -0.6072  0.1500  2.0757
 9520SOL     OW40021   3.842   0.364   6.755 -0.1594 -0.0861 -0.4075
 9520SOL    HW140022   3.878   0.420   6.824 -0.3634 -0.8988  0.3499
 9520SOL    HW240023   3.924   0.349   6.709  2.4318  0.0382  4.1679
 9521SOL     OW40024   4.504   2.005   8.920 -0.1272 -0.2029 -0.5501
 9521SOL    HW140025   4.523   1.988   9.012  1.9193  2.2480 -0.5336
 9521SOL    HW240026   4.444   2.079   8.920  1.9364  1.4907 -2.9930
 9522SOL     OW40027   3.464   4.323   5.128  0.1483  0.0088 -0.1622
 9522SOL    HW140028   3.373   4.341   5.148  0.9772  1.8689  2.0214
 9522SOL    HW240029   3.464   4.342   5.034 -2.0715  1.1159  0.0725
 9523SOL     OW40030   3.052   0.156  15.286  0.5231 -0.5628  0.2620
 9523SOL    HW140031   3.125   0.216  15.270 -1.6993  1.5699 -1.8905
 9523SOL    HW240032   3.096   0.077  15.255  0.3552 -0.1332 -1.0676
 9524SOL     OW40033   0.610   1.570   5.154 -0.4121  0.5600 -1.2213
 9524SOL    HW140034   0.602   1.631   5.081 -1.8471  0.7499 -0.9114
 9524SOL    HW240035   0.599   1.486   5.111  0.7606 -0.6159  0.7950
 9525SOL     OW40036   4.720   0.042   6.092  0.1902 -0.0932  0.0152
 9525SOL    HW140037   0.000   0.026   5.998  1.0069 -0.2070  0.0697
 9525SOL    HW240038   0.041   0.126   6.105  1.1451 -0.8069  1.3019
 9526SOL     OW40039   3.764   4.549   3.602 -0.0657 -0.2232 -0.3061
 9526SOL    HW140040   3.767   4.465   3.649  1.6479 -0.4439 -0.8083
 9526SOL    HW240041   3.670   4.548   3.585 -0.0483 -0.0333 -0.4079
 9527SOL     OW40042   1.545   0.418   5.021  0.5118 -0.0029 -0.0022
 9527SOL    HW140043   1.631   0.456   5.002  1.0724 -2.3928 -2.2674
 9527SOL    HW240044   1.510   0.408   4.933  1.5849 -0.2373 -0.4010
 9528SOL     OW40045   2.435   0.750  11.378 -0.3379  0.0289 -0.6726
 9528SOL    HW140046   2.461   0.830  11.332 -0.1070  1.5121  1.9902
 9528SOL    HW240047   2.424   0.690  11.305  1.5937 -0.5260 -0.5100
 9529SOL     OW40048   3.854   0.347   3.667  0.3959  0.5455  0.2798
 9529SOL    HW140049   3.804   0.377   3.591  2.4091  0.4634 -1.0712
 9529SOL    HW240050   3.797   0.274   3.690  0.9158 -0.6954 -2.3943
 9530SOL     OW40051   3.279   4.681   3.306 -0.9159 -0.7454 -0.1818
 9530SOL    HW140052   3.331   4.617   3.258 -2.4754  0.3958 -3.4430
 9530SOL    HW240053   3.193   4.639   3.305 -0.9450 -0.6661 -0.8899
 9531SOL     OW40054   3.591   3.265   4.902  0.2782  0.2026 -0.0347
 9531SOL    HW140055   3.599   3.327   4.975  0.3421 -0.5873  0.6252
 9531SOL    HW240056   3.557   3.188   4.947 -0.3175 -1.4690 -3.3470
 9532SOL     OW40057   3.992   2.082  13.277  0.0138  0.5106 -0.0808
 9532SOL    HW140058   3.982   2.072  13.371  0.6589 -1.0542 -0.1695
 9532SOL    HW240059   3.950   2.167  13.271 -0.5167  0.2892  0.4805
 9533SOL     OW40060   4.184   2.327   2.130  0.7432 -0.5290  0.0328
 9533SOL    HW140061   4.249   2.259   2.113  0.8062 -0.9529  1.9342
 9533SOL    HW240062   4.103   2.276   2.123 -0.3773  1.1311  0.7854
 9534SOL     OW40063   4.478   4.515  10.855 -0.8935 -0.3836 -0.6504
 9534SOL    HW140064   4.544   4.564  10.903  1.1924 -2.6687 -1.2174
 9534SOL    HW240065   4.478   4.563  10.772  0.7869  1.9455  0.7076
 9535SOL     OW40066   3.843   4.015   7.933  0.0258 -0.3877 -0.1785
 9535SOL    HW140067   3.839   3.944   7.869  0.5345 -0.4354 -0.1612
 9535SOL    HW240068   3.924   4.054   7.899  1.0755 -2.8592 -0.5345
 9536SOL     OW40069   4.295   2.818   2.517 -0.1393 -0.4022 -0.3553
 9536SOL    HW140070   4.282   2.905   2.556 -1.8827  0.0625 -1.9670
 9536SOL    HW240071   4.364   2.780   2.571  0.3035  0.8173 -0.0758
 9537SOL     OW40072   1.609   3.804   4.264 -0.1679  0.5183  0.5954
 9537SOL    HW140073   1.577   3.731   4.210  1.9755  0.4356 -0.5630
 9537SOL    HW240074   1.524   3.845   4.280  0.4664  1.4866  1.4549
 9538SOL     OW40075   0.921   2.626   0.040  0.3195  0.5427 -0.0925
 9538SOL    HW140076   0.868   2.678   0.101 -0.7671  0.2987 -0.8379
 9538SOL    HW240077   0.973   2.584   0.109 -0.5775 -0.0596  0.2134
 9539SOL     OW40078   2.949   1.362   6.363  0.2519 -0.5450  0.3061
 9539SOL    HW140079   2.973   1.310   6.440 -0.1676  1.0436  1.5176
 9539SOL    HW240080   2.922   1.437   6.416 -1.5031 -2.2295  1.8076
 9540SOL     OW40081   1.831   0.984   5.548  0.0039  0.1664  0.3599
 9540SOL    HW140082   1.874   1.010   5.467  1.0528  0.0944  0.8865
 9540SOL    HW240083   1.811   0.893   5.530  0.4065 -0.2416  1.9438
 9541SOL     OW40084   2.853   0.645   8.612 -0.0802 -0.4567  0.6760
 9541SOL    HW140085   2.882   0.675   8.526  1.3792  2.6592  2.2793
 9541SOL    HW240086   2.795   0.720   8.622 -1.3301 -1.3429  0.1385
 9542SOL     OW40087   0.104   0.560   7.365 -0.2395  0.3429  0.2247
 9542SOL    HW140088   0.073   0.530   7.450  3.3365  1.6739  2.0267
 9542SOL    HW240089   0.022   0.564   7.316 -0.2596  0.5800  0.2748
 9543SOL     OW40090   2.355   3.296   3.379 -0.3633 -0.1829  0.2040
 9543SOL    HW140091   2.376   3.251   3.297 -0.6692 -1.7216  0.9775
 9543SOL    HW240092   2.442   3.320   3.410  0.1344 -2.3367  0.4149
 9544SOL     OW40093   2.901   1.669   8.432 -0.3661 -0.3667 -0.2491
 9544SOL    HW140094   2.983   1.619   8.423  0.0724  0.4332 -0.7360
 9544SOL    HW240095   2.852   1.587   8.442 -0.9432  0.1805  1.2940
 9545SOL     OW40096   2.655   1.684  12.910 -0.3071  0.0506 -0.3444
 9545SOL    HW140097   2.581   1.695  12.970 -0.8472  2.1141 -1.3713
 9545SOL    HW240098   2.622   1.655  12.824 -0.4762  0.4427 -0.4124
 9546SOL     OW40099   3.250   3.595  15.384  0.9105 -0.0300 -0.2822
 9546SOL    HW140100   3.248   3.524  15.319  1.1964  0.4391 -0.8063
 9546SOL    HW240101   3.267   3.663  15.319  2.6741 -1.0098 -0.8478
 9547SOL     OW40102   1.650   0.617   7.855 -0.1721  0.2641  0.3900
 9547SOL    HW140103   1.727   0.587   7.806 -1.8129 -0.6164 -1.6922
 9547SOL    HW240104   1.582   0.604   7.788  1.4837 -2.0094 -0.8642
 9548SOL     OW40105   3.351   2.841   3.377 -0.4926 -0.2369  0.1215
 9548SOL    HW140106   3.381   2.826   3.467 -0.2535 -0.3081  0.0317
 9548SOL    HW240107   3.408   2.773   3.341  0.5027 -0.3936  1.9590
 9549SOL     OW40108   2.024   1.931   4.420  0.2259  0.4941 -0.0504
 9549SOL    HW140109   1.973   1.861   4.380 -0.0439 -0.0861  1.2822
 9549SOL    HW240110   2.072   1.974   4.350  0.3137  0.1125 -0.2244
 9550SOL     OW40111   1.126   1.736   3.090  0.0186  0.3716 -0.3219
 9550SOL    HW140112   1.159   1.826   3.095 -2.0809  1.1263  0.1939
 9550SOL    HW240113   1.179   1.692   3.024  1.2345 -1.6175  2.0128
 9551SOL     OW40114   4.027   0.899   7.074 -0.5430  0.1051  0.4460
 9551SOL    HW140115   3.965   0.926   7.008 -0.7043 -0.8634  0.1994
 9551SOL    HW240116   4.098   0.870   7.017 -0.6852 -1.3014  0.9800
 9552SOL     OW40117   1.062   0.237  10.667 -1.2109 -0.1295 -0.0129
 9552SOL    HW140118   1.148   0.239  10.708 -1.4213 -1.9264  0.5536
 9552SOL    HW240119   1.012   0.280  10.736 -0.3850 -0.3716  0.7409
 9553SOL     OW40120   0.444   3.621  15.366 -0.6571  0.2915  0.0632
 9553SOL    HW140121   0.492   3.635  15.285 -1.3129 -2.1862 -0.7252
 9553SOL    HW240122   0.365   3.661  15.331  0.7020  1.6092 -1.5336
 9554SOL     OW40123   1.652   0.065   6.856  0.5483  0.1170  0.0293
 9554SOL    HW140124   1.608   4.715   6.815 -0.6116  1.5604 -1.3356
 9554SOL    HW240125   1.686   0.115   6.782  1.1755 -0.6073 -0.1639
 9555SOL     OW40126   4.567   2.756   8.261 -0.1976 -0.1336  0.1630
 9555SOL    HW140127   4.528   2.841   8.280 -2.7943 -1.1748 -0.5583
 9555SOL    HW240128   4.642   2.745   8.319 -2.0601 -0.5626  2.5010
 9556SOL     OW40129   3.660   2.414  10.315  0.1779  0.1601 -0.1117
 9556SOL    HW140130   3.702   2.473  10.378  0.8297 -0.1268 -0.2781
 9556SOL    HW240131   3.628   2.347  10.375  1.3115  0.5982  0.9694
 9557SOL     OW40132   3.984   2.575  12.952  0.2707 -0.4689  0.1333
 9557SOL    HW140133   3.930   2.653  12.965  1.6498  0.8302 -1.9483
 9557SOL    HW240134   4.057   2.627  12.918 -0.1230 -0.1058 -0.1454
 9558SOL     OW40135   2.546   4.172   5.541  0.2980 -0.6954  0.0331
 9558SOL    HW140136   2.514   4.169   5.631  0.0550  0.0288 -0.0286
 9558SOL    HW240137   2.594   4.089   5.532 -0.7807 -1.3761  0.5236
 9559SOL     OW40138   3.789   4.505   6.018  0.1689 -0.3124  0.4033
 9559SOL    HW140139   3.785   4.514   5.923  0.3728 -2.6684  0.1744
 9559SOL    HW240140   3.710   4.454   6.037  0.4865 -0.4345  1.3791
 9560SOL     OW40141   0.763   4.579   1.349  0.0340  0.2489 -0.3015
 9560SOL    HW140142   0.845   4.628   1.359 -0.0895  0.2991  0.4792
 9560SOL    HW240143   0.740   4.594   1.257 -0.8644 -1.7427 -0.4013
 9561SOL     OW40144   0.067   4.481  12.749  0.0433  0.3550  0.0767
 9561SOL    HW140145   0.146   4.518  12.788  0.8781 -1.0475 -0.3088
 9561SOL    HW240146   0.091   4.419  12.680 -1.6364  0.3202 -0.4755
 9562SOL     OW40147   4.005   3.212   7.642 -0.2483  0.5486 -0.2752
 9562SOL    HW140148   4.072   3.178   7.583  0.6123  0.9487  0.4841
 9562SOL    HW240149   4.057   3.250   7.712 -0.0817  1.6963 -1.0096
 9563SOL     OW40150   1.768   2.771  14.937 -0.0909 -0.2956  0.0031
 9563SOL    HW140151   1.772   2.720  14.856 -0.4733  0.2130 -0.3356
 9563SOL    HW240152   1.678   2.801  14.932 -0.1482 -0.6572 -1.0872
 9564SOL     OW40153   2.696   1.639   1.321  0.0124 -0.3137  0.1996
 9564SOL    HW140154   2.703   1.641   1.226  1.0702  1.6459  0.3261
 9564SOL    HW240155   2.778   1.592   1.337  0.2616  0.3490  0.8267
 9565SOL     OW40156   2.317   1.984   2.898  0.3372  0.1485 -0.3524
 9565SOL    HW140157   2.248   1.918   2.890 -1.5815  2.1598 -0.4895
 9565SOL    HW240158   2.280   2.072   2.897  0.1691  0.0957  1.9828
 9566SOL     OW40159   3.322   2.706   2.997  0.3628  0.5592  0.3598
 9566SOL    HW140160   3.247   2.673   2.948  0.1602 -0.8885  1.6436
 9566SOL    HW240161   3.281   2.782   3.038 -0.1376  0.9534 -0.8894
 9567SOL     OW40162   2.014   3.877   7.422  0.1263 -0.2433 -0.1748
 9567SOL    HW140163   1.946   3.944   7.409  0.1142  0.1825  2.0930
 9567SOL    HW240164   1.969   3.820   7.484 -1.7952  0.8964 -0.4953
 9568SOL     OW40165   3.987   3.163   9.519  0.4248  0.0486 -0.6220
 9568SOL    HW140166   4.042   3.127   9.449 -0.0746  0.9384 -1.4773
 9568SOL    HW240167   4.048   3.146   9.590 -1.0218  2.2098  1.1402
   4.72377   4.72377  17.69678
