Membrane in water
40167
    1TCq1    O1    1   1.423   1.519  10.683 -0.1068 -0.0668 -0.6584
    1TCq1    C1    2   1.431   1.590  10.790  0.0134  0.1625  0.0409
    1TCq1    O2    3   1.534   1.603  10.849 -0.3217 -0.3092  0.3355
    1TCq1    C2    4   1.301   1.579  10.865 -0.3054  0.4612  0.6053
    1TCq1    C3    5   1.184   1.580  10.784  0.0761  0.4154 -0.2065
    1TCq1    C4    6   1.066   1.564  10.848 -0.9141  0.5273  0.7447
    1TCq1    C5    7   1.063   1.557  10.986  0.3997  0.0023  0.1723
    1TCq1    C6    8   1.175   1.569  11.059  0.0074 -0.1784  0.6389
    1TCq1    C7    9   1.294   1.586  10.996 -0.0476  0.6555  0.2844
    1TCq1    C8   10   1.171   1.552  11.201 -0.0135  0.3765  0.0781
    1TCq1    O4   11   1.069   1.587  11.264 -0.4571  0.0269  0.2727
    1TCq1    C9   12   0.948   1.582  10.767  0.1209 -0.1061 -0.4195
    1TCq1    O5   13   0.965   1.645  10.658 -0.9714 -0.0059 -0.7082
    1TCq1    O6   14   0.845   1.556  10.832  0.1274  0.1439 -0.1174
    1TCq1    H1   15   1.330   1.494  10.662 -0.7124  2.1195 -0.5962
    1TCq1    H2   16   1.187   1.586  10.676  0.7632  1.6874 -0.1141
    1TCq1    H3   17   0.969   1.546  11.039 -0.3185 -0.2734 -1.1499
    1TCq1    H4   18   1.388   1.591  11.049  0.7844  0.2734 -1.1808
    2MPD2     C   19   1.405   1.393  11.635  0.2036  0.3105 -0.0517
    2MPD2    C1   20   1.293   1.476  11.612 -0.5212  0.0915  0.0868
    2MPD2    C2   21   1.257   1.498  11.483 -0.4436  0.0557 -0.5645
    2MPD2    C3   22   1.316   1.439  11.371 -0.1473  0.2499  0.2381
    2MPD2    C4   23   1.426   1.364  11.396 -0.2225  0.2175 -0.2363
    2MPD2    C5   24   1.471   1.342  11.526 -0.0811  0.5746 -0.9007
    2MPD2     H   25   1.182   1.572  11.457 -1.9459 -1.1749  0.2825
    2MPD2    H1   26   1.481   1.328  11.310 -0.9864  1.6538 -1.3224
    2MPD2    H2   27   1.441   1.358  11.731 -0.6942 -2.2291 -0.6225
    2MPD2    H3   28   1.558   1.278  11.533 -0.9929 -0.3757  1.4937
    2MPD2     N   29   1.280   1.468  11.238 -0.1624  0.0636  0.3144
    2MPD2    H5   30   1.339   1.431  11.165  1.4540  1.9479  0.6949
    2MPD2    N1   31   1.216   1.532  11.708 -0.0010  0.4904 -0.3389
    2MPD2    H7   32   1.130   1.577  11.677 -0.8190 -2.2584 -2.0444
    3TCq1    O1   33   0.133   2.777   9.714  0.2009 -1.0576 -0.3993
    3TCq1    C1   34   0.087   2.656   9.760  0.1068  0.2349 -0.3950
    3TCq1    O2   35   4.693   2.612   9.757 -0.2050 -0.7890  1.0430
    3TCq1    C2   36   0.168   2.606   9.876 -0.0171 -0.0596 -0.4150
    3TCq1    C3   37   0.301   2.634   9.889  0.8349 -0.2195  0.0824
    3TCq1    C4   38   0.380   2.579   9.984 -0.0391  0.2977  1.1469
    3TCq1    C5   39   0.329   2.485  10.069 -0.0204  0.0058  0.7375
    3TCq1    C6   40   0.200   2.443  10.048  0.0807 -0.1330  0.0714
    3TCq1    C7   41   0.120   2.505   9.954  0.0582 -0.3250  0.0276
    3TCq1    C8   42   0.134   2.394  10.170  0.1625 -0.1001  0.1122
    3TCq1    O4   43   0.037   2.317  10.169 -0.1976 -0.9043  0.1658
    3TCq1    C9   44   0.519   2.616   9.991  0.2190  0.6522 -0.6044
    3TCq1    O5   45   0.583   2.591  10.097  0.4922  0.1382 -0.1750
    3TCq1    O6   46   0.574   2.675   9.894  0.4426  0.0148  0.1932
    3TCq1    H1   47   0.226   2.809   9.718 -0.5073  0.7770  1.2402
    3TCq1    H2   48   0.350   2.694   9.814 -0.5242 -1.2510 -1.6184
    3TCq1    H3   49   0.398   2.443  10.141  0.2088 -2.4698 -0.9405
    3TCq1    H4   50   0.016   2.475   9.944 -0.2459  0.5024  0.7272
    4MPD2     C   51   0.147   2.420  10.689 -0.1963  1.0558 -0.1786
    4MPD2    C1   52   0.222   2.516  10.630 -0.1620 -0.3443 -0.1839
    4MPD2    C2   53   0.231   2.526  10.499 -0.0245  0.3056 -0.4506
    4MPD2    C3   54   0.177   2.438  10.414 -0.2059  0.1148  0.0769
    4MPD2    C4   55   0.108   2.335  10.466 -0.3344  0.3253  0.5998
    4MPD2    C5   56   0.098   2.324  10.602 -0.8123  0.3958  0.8213
    4MPD2     H   57   0.291   2.607  10.458  2.6367 -1.0886  0.6892
    4MPD2    H1   58   0.078   2.249  10.407 -2.5048  0.9692  0.7818
    4MPD2    H2   59   0.122   2.410  10.795 -1.0011  1.2429 -0.3525
    4MPD2    H3   60   0.049   2.234  10.638  0.4697  0.2771  2.2873
    4MPD2     N   61   0.201   2.454  10.276  0.1672  0.4035 -0.1343
    4MPD2    H5   62   0.273   2.519  10.246  0.0375  0.7347  0.2672
    4MPD2    N1   63   0.289   2.623  10.702 -0.1395 -0.2642 -0.8249
    4MPD2    H7   64   0.340   2.697  10.655  0.8030 -0.7421 -0.5515
    5TCq1    O1   65   1.761   4.512  12.117  0.3544  0.2732 -0.2736
    5TCq1    C1   66   1.747   4.441  12.001  0.0220 -0.5466 -0.2730
    5TCq1    O2   67   1.841   4.394  11.940 -0.0689 -0.4250  0.2865
    5TCq1    C2   68   1.609   4.442  11.952 -0.0611  0.2419  0.3564
    5TCq1    C3   69   1.506   4.461  12.039  0.2470 -0.2973 -0.6545
    5TCq1    C4   70   1.382   4.479  11.984 -0.4018 -0.3741  0.8631
    5TCq1    C5   71   1.356   4.468  11.846  0.0232  0.2281  0.4440
    5TCq1    C6   72   1.462   4.451  11.766  0.1419 -0.3662  0.2926
    5TCq1    C7   73   1.588   4.439  11.819  0.1827  0.8031  0.3463
    5TCq1    C8   74   1.443   4.426  11.623 -0.1694 -0.0926  0.3338
    5TCq1    O4   75   1.540   4.385  11.560  0.2436 -0.3484  0.0683
    5TCq1    C9   76   1.267   4.503  12.069  0.5234 -0.4555  0.8381
    5TCq1    O5   77   1.157   4.523  12.015 -0.2454  0.1106  0.1067
    5TCq1    O6   78   1.299   4.520  12.190 -0.3329  0.0032 -0.4186
    5TCq1    H1   79   1.681   4.562  12.143  0.7615  0.3499  0.8651
    5TCq1    H2   80   1.505   4.459  12.148  0.6754 -0.7290 -0.6589
    5TCq1    H3   81   1.255   4.448  11.809 -0.0296 -1.8950  1.7253
    5TCq1    H4   82   1.670   4.439  11.749  0.0675 -2.8916  0.2089
    6MPD2     C   83   1.136   4.532  11.461 -0.1710 -0.4794  0.1600
    6MPD2    C1   84   1.262   4.479  11.461  0.1322 -0.6847 -0.6154
    6MPD2    C2   85   1.307   4.406  11.356  0.6718  0.7913 -0.3711
    6MPD2    C3   86   1.232   4.376  11.243  0.0447  0.5756  0.0826
    6MPD2    C4   87   1.100   4.417  11.251  0.3333 -0.1593 -0.2708
    6MPD2    C5   88   1.055   4.507  11.349  0.1834 -0.3157  0.1070
    6MPD2     H   89   1.413   4.386  11.364  1.0380  1.6943 -2.8306
    6MPD2    H1   90   1.025   4.383  11.181  0.9223  0.0971 -1.0418
    6MPD2    H2   91   1.094   4.590  11.542 -2.3771 -0.0167 -1.3100
    6MPD2    H3   92   0.953   4.539  11.332  0.6610  1.4570  0.4878
    6MPD2     N   93   1.287   4.289  11.154  0.3501 -0.6495 -0.0730
    6MPD2    H5   94   1.386   4.268  11.157 -0.0691 -2.7294 -0.7965
    6MPD2    N1   95   1.326   4.486  11.587 -0.2624  0.3527 -0.0346
    6MPD2    H7   96   1.284   4.552  11.652  0.9122 -0.1854  1.2622
    7TCq1    O1   97   2.718   3.775  12.497  0.1172  0.8492 -0.3174
    7TCq1    C1   98   2.839   3.714  12.503 -0.7070 -0.4574 -0.3573
    7TCq1    O2   99   2.896   3.647  12.419  0.4314  0.4202  0.6096
    7TCq1    C2  100   2.875   3.707  12.649 -0.5557  0.5069  0.4411
    7TCq1    C3  101   2.859   3.817  12.724 -0.7457  0.2407  0.6616
    7TCq1    C4  102   2.906   3.806  12.854  0.3887  0.1913 -0.3180
    7TCq1    C5  103   2.971   3.697  12.908 -0.4498 -0.8996  0.0171
    7TCq1    C6  104   2.982   3.591  12.827  0.1402 -0.1468  0.3267
    7TCq1    C7  105   2.938   3.595  12.698  0.5608  0.1268  0.3939
    7TCq1    C8  106   3.042   3.470  12.875  0.2537  0.5625 -0.0689
    7TCq1    O4  107   2.978   3.371  12.841 -0.0682 -0.2626 -0.0416
    7TCq1    C9  108   2.896   3.930  12.935 -0.0363  0.1641 -0.3574
    7TCq1    O5  109   2.899   3.913  13.062 -0.5085  0.1165 -0.6282
    7TCq1    O6  110   2.884   4.036  12.875 -0.2834  0.0394  0.3919
    7TCq1    H1  111   2.686   3.794  12.587  1.2398  1.4159 -0.0331
    7TCq1    H2  112   2.825   3.909  12.679  0.9538 -0.2028 -1.5361
    7TCq1    H3  113   2.995   3.698  13.013  0.6544  1.8169 -0.2756
    7TCq1    H4  114   2.960   3.512  12.633  0.0034  0.3033 -0.0203
    8MPD2     C  115   3.401   3.179  13.113 -0.1085 -0.4305 -0.0535
    8MPD2    C1  116   3.269   3.150  13.083 -1.4390  0.6673 -0.9062
    8MPD2    C2  117   3.190   3.243  13.010  0.1950  0.5780  0.2493
    8MPD2    C3  118   3.238   3.371  12.989 -0.7356 -0.0457  0.1924
    8MPD2    C4  119   3.369   3.401  13.026 -0.2165  0.1312  0.3174
    8MPD2    C5  120   3.441   3.304  13.081  0.2069 -1.3751  0.0720
    8MPD2     H  121   3.091   3.213  12.976  0.9914 -0.2967 -1.3301
    8MPD2    H1  122   3.416   3.496  13.008 -2.1999  1.1347  0.4549
    8MPD2    H2  123   3.475   3.117  13.161  0.0186  1.0882  1.7014
    8MPD2    H3  124   3.541   3.329  13.115  0.0918 -1.7013  0.6504
    8MPD2     N  125   3.166   3.479  12.931  0.5720 -0.0543 -0.3139
    8MPD2    H5  126   3.226   3.560  12.925  0.2590  0.1926 -0.1597
    8MPD2    N1  127   3.231   3.020  13.122 -0.7472 -0.0924 -0.0567
    8MPD2    H7  128   3.295   2.963  13.176  0.3131 -0.3413 -1.5817
    9TCq1    O1  129   0.480   2.689  10.304 -0.1920  0.5041  0.2152
    9TCq1    C1  130   0.560   2.698  10.413  0.9406  0.8237  0.6484
    9TCq1    O2  131   0.513   2.720  10.525  0.1660 -0.1913 -0.2582
    9TCq1    C2  132   0.690   2.726  10.376  0.0421  0.1050 -0.2485
    9TCq1    C3  133   0.714   2.798  10.265  0.4134  0.3206  0.0748
    9TCq1    C4  134   0.827   2.862  10.244 -0.6780  0.1389  0.5526
    9TCq1    C5  135   0.923   2.874  10.336  0.0729 -0.3175  0.2593
    9TCq1    C6  136   0.901   2.808  10.459  0.2541  0.0942 -0.5724
    9TCq1    C7  137   0.780   2.740  10.479 -0.1483  0.3856 -0.5124
    9TCq1    C8  138   1.015   2.806  10.557 -0.8120 -1.0822  0.4025
    9TCq1    O4  139   1.115   2.872  10.532  0.5663 -0.1247 -0.7216
    9TCq1    C9  140   0.844   2.922  10.116  0.1836  0.3178 -0.1137
    9TCq1    O5  141   0.770   2.889  10.018 -0.0054  0.0896  0.1640
    9TCq1    O6  142   0.927   3.018  10.093 -0.5213  0.1683  0.6480
    9TCq1    H1  143   0.532   2.657  10.227 -1.3761  1.0089 -0.7854
    9TCq1    H2  144   0.646   2.798  10.181  1.6915  3.2556 -0.9587
    9TCq1    H3  145   1.014   2.931  10.323 -0.4309  0.7201  1.1962
    9TCq1    H4  146   0.753   2.680  10.566 -3.2303  0.5447 -1.3532
   10MPD2     C  147   1.197   2.710  10.765  0.6860  0.2050 -0.0784
   10MPD2    C1  148   1.060   2.687  10.756  0.4761 -0.7043 -1.2201
   10MPD2    C2  149   0.997   2.625  10.860  0.1832 -0.3834  0.2511
   10MPD2    C3  150   1.064   2.577  10.969 -0.7934  0.7054 -0.5866
   10MPD2    C4  151   1.203   2.598  10.979  0.1063  0.0492 -0.5459
   10MPD2    C5  152   1.267   2.655  10.871  0.2486 -0.3039  0.2409
   10MPD2     H  153   0.889   2.618  10.865  0.3428 -0.9089  3.0737
   10MPD2    H1  154   1.252   2.548  11.062 -1.1114 -3.4813 -1.9446
   10MPD2    H2  155   1.252   2.762  10.688  0.7991 -1.1361 -0.9083
   10MPD2    H3  156   1.375   2.668  10.874  0.2291  0.2692 -1.4010
   10MPD2     N  157   1.006   2.513  11.080  0.0932  0.1966 -0.3865
   10MPD2    H5  158   1.068   2.517  11.160  0.3308 -0.0734 -0.5601
   10MPD2    N1  159   0.978   2.727  10.660  0.0487 -0.0013 -0.3183
   10MPD2    H7  160   0.882   2.694  10.653 -0.2165  0.3830  1.3834
   11TCq1    O1  161   1.575   3.236  14.293 -0.3280  0.3963 -0.1758
   11TCq1    C1  162   1.471   3.162  14.336 -0.4938  0.0739  0.7004
   11TCq1    O2  163   1.390   3.191  14.420  0.4973 -0.0390 -0.5589
   11TCq1    C2  164   1.500   3.021  14.309  0.5442  0.0901  0.0252
   11TCq1    C3  165   1.600   2.982  14.228  0.1460  0.9319  0.3893
   11TCq1    C4  166   1.589   2.862  14.168  0.0910  0.0504 -0.3221
   11TCq1    C5  167   1.480   2.781  14.188  0.4432 -0.2472  0.1514
   11TCq1    C6  168   1.383   2.825  14.272 -0.1407 -0.3872 -0.4603
   11TCq1    C7  169   1.396   2.947  14.337  0.4948 -0.0257  0.3548
   11TCq1    C8  170   1.264   2.742  14.303  0.2709  0.4167 -0.0599
   11TCq1    O4  171   1.199   2.772  14.402 -0.2306 -0.8609 -0.2624
   11TCq1    C9  172   1.676   2.841  14.060 -0.6163  0.0204 -0.1279
   11TCq1    O5  173   1.679   2.730  14.001 -0.2261 -0.1648  0.1277
   11TCq1    O6  174   1.780   2.910  14.053 -0.0163  0.2996  0.0216
   11TCq1    H1  175   1.605   3.201  14.206  2.5265 -1.0812  1.4238
   11TCq1    H2  176   1.689   3.040  14.208  0.6656 -0.1979 -0.6239
   11TCq1    H3  177   1.471   2.682  14.145 -1.9662  0.4699 -1.0197
   11TCq1    H4  178   1.317   2.992  14.396  0.8713  1.1762 -0.0592
   12MPD2     C  179   1.066   2.505  14.353  0.0383  0.3178 -0.5302
   12MPD2    C1  180   1.140   2.531  14.233 -0.1236  0.4349 -0.3766
   12MPD2    C2  181   1.112   2.440  14.127  0.7258  0.2302  0.3941
   12MPD2    C3  182   1.007   2.351  14.123  0.4810 -0.0585  0.5686
   12MPD2    C4  183   0.930   2.348  14.242  0.6741 -0.3450 -0.0251
   12MPD2    C5  184   0.957   2.431  14.344  0.3073 -0.3475 -0.4656
   12MPD2     H  185   1.166   2.456  14.034  0.5434  0.5898  0.3501
   12MPD2    H1  186   0.849   2.276  14.250 -0.0737  0.6144  1.0057
   12MPD2    H2  187   1.075   2.562  14.445 -0.1407 -1.0386  0.3269
   12MPD2    H3  188   0.905   2.424  14.438 -1.3486  2.3540 -1.1861
   12MPD2     N  189   0.983   2.270  14.006  0.6051 -0.9195 -0.1740
   12MPD2    H5  190   1.053   2.278  13.934  1.3020 -3.0302  0.2737
   12MPD2    N1  191   1.240   2.635  14.218 -0.0178 -0.4002  0.4647
   12MPD2    H7  192   1.286   2.632  14.127 -1.1518  2.7893 -0.1973
   13TCq1    O1  193   1.664   2.547  10.574  0.1798  0.2473 -0.2942
   13TCq1    C1  194   1.552   2.533  10.649  1.5296 -0.0852  0.1206
   13TCq1    O2  195   1.551   2.468  10.754 -0.8751 -0.6210  0.3771
   13TCq1    C2  196   1.440   2.553  10.548 -0.5693  0.8934 -0.1387
   13TCq1    C3  197   1.450   2.673  10.479 -0.8361  0.3858 -0.4105
   13TCq1    C4  198   1.345   2.702  10.399  0.3801 -1.0251 -0.1318
   13TCq1    C5  199   1.228   2.622  10.397  0.5847 -0.3124  0.1350
   13TCq1    C6  200   1.219   2.518  10.484 -0.4563  0.3843  0.5039
   13TCq1    C7  201   1.328   2.478  10.557 -0.1117  0.6540 -0.0892
   13TCq1    C8  202   1.087   2.447  10.521 -0.6744 -0.2480  0.0463
   13TCq1    O4  203   1.101   2.371  10.619  0.2390  0.1317 -0.9363
   13TCq1    C9  204   1.339   2.831  10.331 -0.1202 -0.6725 -0.4230
   13TCq1    O5  205   1.258   2.859  10.234 -0.1708  0.5914 -0.0627
   13TCq1    O6  206   1.438   2.904  10.354 -0.4585  0.2958 -0.5542
   13TCq1    H1  207   1.662   2.557  10.476 -1.4583  1.3398 -0.1503
   13TCq1    H2  208   1.540   2.732  10.493  0.3870 -1.6280  0.2011
   13TCq1    H3  209   1.137   2.656  10.349  0.6663  1.8416  1.5106
   13TCq1    H4  210   1.332   2.387  10.616  1.1487  0.0303 -1.1274
   14MPD2     C  211   0.763   2.412  10.371 -0.8476 -0.1696 -0.6596
   14MPD2    C1  212   0.851   2.424  10.473 -0.0648 -0.7224  0.1343
   14MPD2    C2  213   0.810   2.412  10.603  0.2106 -0.0200  0.5882
   14MPD2    C3  214   0.677   2.392  10.638  0.1529 -0.6466 -0.6166
   14MPD2    C4  215   0.585   2.374  10.538  0.2938 -0.6649  0.5339
   14MPD2    C5  216   0.630   2.379  10.406  0.4628 -0.9236 -0.7622
   14MPD2     H  217   0.879   2.427  10.686  0.8893  1.7030 -0.2825
   14MPD2    H1  218   0.480   2.356  10.555 -0.2608  1.2859 -0.7493
   14MPD2    H2  219   0.795   2.423  10.268  1.2087 -0.3555 -0.0477
   14MPD2    H3  220   0.555   2.366  10.328  1.5304  1.2260 -2.1563
   14MPD2     N  221   0.635   2.371  10.773 -0.2933 -0.3181  0.2579
   14MPD2    H5  222   0.690   2.410  10.848  1.8432 -0.4763 -1.2284
   14MPD2    N1  223   0.980   2.466  10.441  0.0648 -0.1591 -0.0816
   14MPD2    H7  224   0.999   2.505  10.349 -1.6118 -2.3647 -1.3659
   15TCq1    O1  225   2.517   2.241   1.505 -0.2725  0.1559  0.6525
   15TCq1    C1  226   2.397   2.189   1.545 -0.2126  0.3303  0.8082
   15TCq1    O2  227   2.306   2.176   1.465 -0.4323  0.2688 -0.3354
   15TCq1    C2  228   2.442   2.070   1.619 -0.6385 -0.4856 -0.1510
   15TCq1    C3  229   2.539   2.088   1.720  0.5097  1.1043 -0.3278
   15TCq1    C4  230   2.587   1.973   1.781 -0.2026  0.3046  0.9729
   15TCq1    C5  231   2.539   1.851   1.747 -0.0017  0.3433  0.3494
   15TCq1    C6  232   2.444   1.836   1.652 -0.7335 -0.1011 -0.3017
   15TCq1    C7  233   2.388   1.947   1.590  0.5219  0.0433  0.3409
   15TCq1    C8  234   2.429   1.697   1.599  0.2899  0.1041 -0.3249
   15TCq1    O4  235   2.477   1.604   1.664  0.0373 -0.0425  0.8035
   15TCq1    C9  236   2.705   1.980   1.877 -0.2021 -0.2766  0.3558
   15TCq1    O5  237   2.711   1.881   1.957  0.0685  0.6041  0.0046
   15TCq1    O6  238   2.776   2.087   1.870 -0.6184  0.3133 -0.2148
   15TCq1    H1  239   2.592   2.240   1.568  0.1052  0.2030  0.1985
   15TCq1    H2  240   2.585   2.183   1.743  0.5074  0.5963  1.8385
   15TCq1    H3  241   2.589   1.764   1.789  0.5256  0.1679 -0.6418
   15TCq1    H4  242   2.300   1.936   1.528  1.3556 -0.8729 -0.6699
   16MPD2     C  243   2.262   1.601   1.290 -0.1143  0.0938  0.0165
   16MPD2    C1  244   2.324   1.575   1.411 -0.4768  0.3534  0.2199
   16MPD2    C2  245   2.337   1.443   1.459  0.0128  0.3690 -0.0769
   16MPD2    C3  246   2.280   1.332   1.388  0.1424  0.1659  0.1916
   16MPD2    C4  247   2.231   1.361   1.264  0.6185  0.6249 -0.7656
   16MPD2    C5  248   2.225   1.492   1.213 -0.2498 -0.2471 -0.2489
   16MPD2     H  249   2.381   1.418   1.555  1.2682  0.4561 -0.6290
   16MPD2    H1  250   2.187   1.289   1.197 -1.1897 -0.1964  1.3002
   16MPD2    H2  251   2.231   1.699   1.256  1.3215 -0.0477 -1.7092
   16MPD2    H3  252   2.187   1.516   1.115 -0.9274 -1.0145 -0.1743
   16MPD2     N  253   2.315   1.200   1.420 -0.2506 -0.0220 -0.6628
   16MPD2    H5  254   2.384   1.184   1.493 -0.5637 -0.0657 -0.3780
   16MPD2    N1  255   2.356   1.693   1.479 -0.0588  0.3136  0.7779
   16MPD2    H7  256   2.326   1.780   1.438 -0.1734 -0.3669 -0.5928
   17TCq1    O1  257   0.064   1.991  11.032 -0.2209  0.3976  0.2968
   17TCq1    C1  258   0.042   2.003  10.901  0.0891 -0.1959  0.0180
   17TCq1    O2  259   4.654   2.013  10.845 -0.2258 -0.0649 -0.5498
   17TCq1    C2  260   0.166   1.968  10.841  0.5090 -0.0036 -0.3470
   17TCq1    C3  261   0.254   1.882  10.902 -0.1629  0.9878 -0.4203
   17TCq1    C4  262   0.370   1.858  10.827 -0.0473  0.0218 -0.3122
   17TCq1    C5  263   0.388   1.901  10.699  0.2886  0.2860 -0.0345
   17TCq1    C6  264   0.290   1.980  10.641  0.8690 -0.0905 -0.0404
   17TCq1    C7  265   0.172   2.001  10.708  0.3008  0.0230  0.4337
   17TCq1    C8  266   0.291   2.023  10.497  0.2269 -0.2085 -0.0860
   17TCq1    O4  267   0.181   2.051  10.451  0.1099  0.2008  0.0425
   17TCq1    C9  268   0.470   1.768  10.880  0.1732 -0.5932 -0.2101
   17TCq1    O5  269   0.436   1.691  10.974 -0.3514 -0.1008 -0.1254
   17TCq1    O6  270   0.590   1.779  10.850  0.4954 -0.3927  0.9459
   17TCq1    H1  271   0.158   2.010  11.052  0.4996 -0.0090 -2.7648
   17TCq1    H2  272   0.252   1.844  11.003 -0.6505  0.8314 -0.4916
   17TCq1    H3  273   0.480   1.869  10.650 -1.1379  0.3392 -2.7270
   17TCq1    H4  274   0.094   2.061  10.662  1.1241 -0.4878 -1.6307
   18MPD2     C  275   0.343   2.129  10.219  0.0385 -0.7059 -0.1760
   18MPD2    C1  276   0.440   2.091  10.313  1.2410  0.5004  0.0151
   18MPD2    C2  277   0.571   2.102  10.276  0.2267 -0.2404  0.0838
   18MPD2    C3  278   0.603   2.140  10.141  0.3945  0.1978  0.1795
   18MPD2    C4  279   0.502   2.179  10.053  0.7212 -0.3188 -0.0625
   18MPD2    C5  280   0.376   2.155  10.084 -0.0701 -0.0230 -0.5372
   18MPD2     H  281   0.645   2.092  10.354 -1.5824  0.6456  1.9274
   18MPD2    H1  282   0.515   2.210   9.950  0.1323 -0.7207 -0.2585
   18MPD2    H2  283   0.238   2.138  10.244 -0.3064 -0.2781 -1.7796
   18MPD2    H3  284   0.294   2.162  10.014  1.7984  0.8567 -2.6204
   18MPD2     N  285   0.741   2.145  10.095 -0.2782 -0.0513 -0.5577
   18MPD2    H5  286   0.763   2.194  10.009  3.3989  2.4009  1.7066
   18MPD2    N1  287   0.415   2.046  10.445  0.7345  0.0858 -0.7206
   18MPD2    H7  288   0.489   2.036  10.514  1.7647  0.8210 -1.7159
   19TMC2    C1  289   2.942   2.025  14.005 -0.5116 -0.1668 -0.1835
   19TMC2    C2  290   3.016   2.015  13.897  0.6114 -0.1669  0.0341
   19TMC2    C3  291   2.981   1.941  13.795  0.5831 -0.2358  0.4432
   19TMC2    C4  292   2.818   1.975  14.005 -0.6392  0.2008  0.0991
   19TMC2    C5  293   2.773   1.911  13.893 -0.6510  0.2027  0.0044
   19TMC2    C6  294   2.853   1.901  13.780 -0.0091 -0.4062  0.1894
   19TMC2     C  295   3.002   2.097  14.124 -0.2539 -0.5049 -0.9472
   19TMC2     O  296   3.117   2.130  14.114  0.2218  0.1795 -0.5493
   19TMC2     H  297   3.119   2.050  13.898 -0.2761  2.4605 -0.9971
   19TMC2    H1  298   2.755   1.977  14.093 -0.7262  1.5173  0.0013
   19TMC2    H2  299   2.825   1.839  13.695 -1.0300 -0.9384  0.9174
   19TMC2    C7  300   2.631   1.879  13.883  0.3306 -0.8470 -0.3033
   19TMC2    C8  301   3.065   1.941  13.680 -0.0376  0.4122 -0.4461
   19TMC2    O1  302   2.560   1.869  13.979  0.2832 -1.0960  0.7825
   19TMC2    O2  303   3.024   1.913  13.568 -0.0246 -0.1413  0.3431
   19TMC2    O5  304   3.196   1.951  13.711  0.1933 -0.3375  0.5736
   19TMC2    H5  305   3.232   1.931  13.800 -0.9929 -1.3339  0.8273
   20MPD2     C  306   3.105   2.209  14.402  0.8418 -0.1551  0.0654
   20MPD2    C1  307   2.978   2.161  14.375 -0.3568  0.0757 -0.1266
   20MPD2    C2  308   2.893   2.162  14.478 -0.2470  0.5629 -0.3330
   20MPD2    C3  309   2.919   2.207  14.602 -0.1213  0.2778 -0.4474
   20MPD2    C4  310   3.044   2.257  14.627 -0.4391  0.1743  0.4468
   20MPD2    C5  311   3.141   2.254  14.529  0.3095  0.2591  0.1343
   20MPD2     H  312   2.794   2.126  14.452 -0.1922  1.0450 -1.1799
   20MPD2    H1  313   3.075   2.301  14.721 -0.5571 -0.0619  0.5941
   20MPD2    H2  314   3.190   2.197  14.336 -0.7985 -2.5746 -1.5927
   20MPD2    H3  315   3.240   2.286  14.559  1.0674  0.1519 -2.2684
   20MPD2     N  316   2.823   2.217  14.708 -0.3525 -0.4339  0.4959
   20MPD2    H5  317   2.846   2.254  14.800 -0.7076 -2.1235  1.2732
   20MPD2    N1  318   2.930   2.108  14.246  0.2422  0.3468 -0.1904
   20MPD2    H7  319   2.832   2.082  14.236 -0.5959  2.5638  2.2622
   21MPD2     C  320   4.595   2.573  14.130 -0.8253 -0.4965 -0.6890
   21MPD2    C1  321   4.656   2.488  14.224  0.4953  0.0542 -0.0467
   21MPD2    C2  322   4.622   2.507  14.356  0.8540  0.1625 -0.4580
   21MPD2    C3  323   4.531   2.601  14.395  0.0135 -0.0399  0.3861
   21MPD2    C4  324   4.464   2.674  14.292 -0.0792  0.0034  0.0193
   21MPD2    C5  325   4.504   2.663  14.166  0.5026 -0.0408 -0.6187
   21MPD2     H  326   4.656   2.431  14.427 -0.7039  1.4859  1.7062
   21MPD2    H1  327   4.396   2.756  14.310 -0.7489 -0.4259 -0.5508
   21MPD2    H2  328   4.606   2.568  14.023 -1.6165 -0.0285 -0.7860
   21MPD2    H3  329   4.464   2.726  14.088  1.5157  3.4348  1.6806
   21MPD2     N  330   4.485   2.612  14.526 -0.3005  0.0120 -0.2055
   21MPD2    H5  331   4.420   2.687  14.548  1.1274  0.8572  1.1589
   21MPD2    N1  332   0.032   2.392  14.193  0.1206 -0.5752 -0.3222
   21MPD2    H7  333   0.076   2.342  14.270 -1.7938 -2.1183 -0.2231
   22TCq2    C1  334   4.528   2.535  14.634  0.0501  0.4693  0.0142
   22TCq2    O2  335   4.569   2.421  14.627  0.0390  0.0282 -0.0980
   22TCq2    C2  336   4.469   2.584  14.755  0.7286 -0.2688  0.1291
   22TCq2    C3  337   4.452   2.494  14.858  0.1959  0.3463 -0.0826
   22TCq2    C4  338   4.414   2.534  14.980  0.5635 -0.0730 -0.2924
   22TCq2    C5  339   4.378   2.667  14.998  0.1526 -0.1392 -0.2489
   22TCq2    C6  340   4.393   2.758  14.893 -0.0263  0.0226  0.9453
   22TCq2    C7  341   4.444   2.722  14.772 -0.5808  0.4658  0.9566
   22TCq2    C8  342   4.362   2.895  14.933  0.4276  0.4503 -0.6162
   22TCq2    O4  343   4.377   2.921  15.051 -0.5799  0.5469 -0.2993
   22TCq2    C9  344   4.390   2.435  15.082 -0.3548 -0.2720  0.6782
   22TCq2    O5  345   4.313   2.471  15.174  0.4565  0.6504  0.2462
   22TCq2    O6  346   4.424   2.316  15.059  0.3963 -0.4698  0.3835
   22TCq2    H2  347   4.490   2.395  14.839 -1.2846 -0.1003 -0.6942
   22TCq2    H3  348   4.334   2.690  15.094  0.4335  1.5286 -0.5279
   22TCq2    H4  349   4.460   2.803  14.703  2.4729 -1.4573 -0.5970
   23MPD2     C  350   1.857   3.344  15.407 -0.3354  0.2820  0.0393
   23MPD2    C1  351   1.765   3.248  15.362 -0.1137 -0.1855 -0.4578
   23MPD2    C2  352   1.663   3.296  15.281  0.0760  0.2542  0.0949
   23MPD2    C3  353   1.650   3.433  15.244 -0.0727 -0.2673  0.5604
   23MPD2    C4  354   1.748   3.524  15.282  0.3560  0.1724  0.0055
   23MPD2    C5  355   1.856   3.474  15.351  0.3952  0.2580 -0.7963
   23MPD2     H  356   1.587   3.224  15.253 -0.7406  0.7315  1.0858
   23MPD2    H1  357   1.754   3.626  15.247 -0.6007 -0.5124 -2.1616
   23MPD2    H2  358   1.944   3.310  15.461 -1.7805  1.4261  3.0916
   23MPD2    H3  359   1.936   3.536  15.390 -0.4947 -0.2541  1.8752
   23MPD2     N  360   1.548   3.485  15.164 -0.1486 -0.0690  0.1528
   23MPD2    H5  361   1.554   3.585  15.146 -1.6986 -0.0125 -0.1006
   23MPD2    N1  362   1.775   3.117  15.416 -0.4594  0.3719  0.4237
   23MPD2    H7  363   1.861   3.094  15.465 -0.8761 -1.1459  0.4342
   24TCq2    C1  364   1.434   3.418  15.115  0.4327  0.2178 -0.1984
   24TCq2    O2  365   1.402   3.303  15.143 -0.0714 -0.1236  0.1617
   24TCq2    C2  366   1.338   3.491  15.031 -0.4623  0.1647  0.4867
   24TCq2    C3  367   1.291   3.612  15.082 -0.4633  0.0033 -0.3545
   24TCq2    C4  368   1.170   3.655  15.037  0.6614  0.5103  0.0111
   24TCq2    C5  369   1.096   3.590  14.941  0.3801  0.1225  0.4634
   24TCq2    C6  370   1.149   3.470  14.900  0.6623  0.1639 -0.1553
   24TCq2    C7  371   1.271   3.417  14.938  0.4226  0.1639  0.4158
   24TCq2    C8  372   1.087   3.395  14.790 -0.7685  0.1168 -0.6634
   24TCq2    O4  373   1.158   3.323  14.723  0.1531 -0.6977  0.0925
   24TCq2    C9  374   1.099   3.764  15.107 -0.2629  0.4783  0.9773
   24TCq2    O5  375   1.158   3.841  15.184 -0.3037 -0.5142  0.3154
   24TCq2    O6  376   0.970   3.764  15.104  0.4843 -0.2712 -0.2638
   24TCq2    H2  377   1.323   3.652  15.178 -1.1542  0.1750 -0.1950
   24TCq2    H3  378   1.003   3.631  14.904 -0.7924  0.9612  4.3568
   24TCq2    H4  379   1.316   3.324  14.907  1.1030  0.5507  0.2473
   25TMC2    C1  380   0.735   1.397  11.350  0.4356 -0.2951 -0.3086
   25TMC2    C2  381   0.824   1.473  11.414  0.0555  0.6604  0.2300
   25TMC2    C3  382   0.769   1.560  11.507 -0.1988 -0.0609 -0.9057
   25TMC2    C4  383   0.597   1.408  11.352  0.5587 -0.3424 -0.5180
   25TMC2    C5  384   0.547   1.506  11.441  0.3324 -0.2186  0.1460
   25TMC2    C6  385   0.632   1.580  11.516  0.0849  0.3542 -0.0571
   25TMC2     C  386   0.790   1.278  11.277  0.5762  0.3930  0.4194
   25TMC2     O  387   0.899   1.289  11.231 -0.4718  0.3141  0.0480
   25TMC2     H  388   0.931   1.454  11.407 -0.1582  0.2431 -2.0513
   25TMC2    H1  389   0.525   1.353  11.293 -0.4235  0.5528 -0.1545
   25TMC2    H2  390   0.598   1.649  11.591  3.0000  0.0752  1.5398
   25TMC2    C7  391   0.413   1.513  11.483  0.3608  0.6653  0.0496
   25TMC2    C8  392   0.857   1.645  11.576 -0.6043 -0.2989 -0.1863
   25TMC2    O1  393   0.392   1.560  11.597  0.0649  0.0006 -0.9035
   25TMC2    O2  394   0.965   1.608  11.620 -0.0010 -0.4049  0.2696
   25TMC2    O5  395   0.848   1.765  11.516  0.1492 -1.0229 -0.0096
   25TMC2    H5  396   0.769   1.777  11.460 -0.3230  0.3746  0.9580
   26MPD2     C  397   0.772   0.816  11.055  0.3679  0.3166 -1.1267
   26MPD2    C1  398   0.658   0.834  11.126 -0.5292 -0.2405 -0.8160
   26MPD2    C2  399   0.647   0.951  11.198 -0.1983  0.4077 -0.9033
   26MPD2    C3  400   0.737   1.051  11.197  0.0635  0.1007 -0.2180
   26MPD2    C4  401   0.855   1.028  11.124  0.2771 -0.3265  0.0493
   26MPD2    C5  402   0.868   0.911  11.056  0.4154 -0.0940  0.5139
   26MPD2     H  403   0.558   0.966  11.258 -0.3007 -0.1791 -0.9085
   26MPD2    H1  404   0.939   1.096  11.131 -0.6194  0.6503  1.2383
   26MPD2    H2  405   0.805   0.725  11.006  2.0636  0.4099 -0.1436
   26MPD2    H3  406   0.962   0.878  11.014  0.3522  1.1133 -0.5571
   26MPD2     N  407   0.705   1.169  11.263  0.2414  0.1287  0.1691
   26MPD2    H5  408   0.611   1.169  11.302 -0.0607 -0.7258 -0.5731
   26MPD2    N1  409   0.558   0.735  11.114 -0.5651  0.1808  0.1236
   26MPD2    H7  410   0.575   0.666  11.042  0.4453 -0.9695  1.4797
   27TMC2    C1  411   4.296   2.747  12.177 -0.2121  0.2115 -0.0599
   27TMC2    C2  412   4.233   2.858  12.146  0.1627  0.3959 -0.1557
   27TMC2    C3  413   4.308   2.967  12.127 -0.4253 -0.3883  0.1292
   27TMC2    C4  414   4.436   2.742  12.186 -1.2534 -0.4532 -0.3934
   27TMC2    C5  415   4.506   2.856  12.178  0.1215 -0.1835 -0.1225
   27TMC2    C6  416   4.445   2.973  12.147  0.0584  0.1255  0.0588
   27TMC2     C  417   4.230   2.647  12.256  0.3943  0.4720  0.0101
   27TMC2     O  418   4.277   2.532  12.260 -0.4367  0.4728  0.3845
   27TMC2     H  419   4.129   2.853  12.116  0.4706  0.9086 -1.2927
   27TMC2    H1  420   4.490   2.652  12.212  0.5548  0.8099  0.1697
   27TMC2    H2  421   4.507   3.060  12.128  0.1036 -0.1330 -0.9772
   27TMC2    C7  422   4.615   2.863  12.278 -0.5716  0.4356  0.8770
   27TMC2    C8  423   4.260   3.061  12.030  0.4318  0.5864 -0.2991
   27TMC2    O1  424   4.636   2.769  12.355  0.4908 -0.3845  0.5221
   27TMC2    O2  425   4.191   3.049  11.935 -0.5758  0.0782 -0.1549
   27TMC2    O5  426   4.262   3.172  12.096  0.4194 -0.1773 -0.1365
   27TMC2    H5  427   4.295   3.163  12.188  0.0314 -0.4775 -0.0306
   28MPD2     C  428   3.919   2.548  12.668  0.2330  0.5259  0.4495
   28MPD2    C1  429   3.910   2.677  12.636  0.3323 -0.5594 -0.3915
   28MPD2    C2  430   3.994   2.724  12.537 -0.1594  0.8466  0.5262
   28MPD2    C3  431   4.074   2.650  12.455  0.0164 -0.7188 -0.1625
   28MPD2    C4  432   4.064   2.512  12.482 -0.5935 -0.4582  0.1716
   28MPD2    C5  433   4.004   2.469  12.596  1.0180  0.2215 -0.3789
   28MPD2     H  434   3.995   2.830  12.517  2.9499  0.7890  0.4870
   28MPD2    H1  435   4.127   2.443  12.426 -0.9021  1.1010 -2.1056
   28MPD2    H2  436   3.860   2.508  12.750 -0.4181  0.1911 -0.1913
   28MPD2    H3  437   4.016   2.365  12.625  1.3835  0.4223  0.1575
   28MPD2     N  438   4.141   2.712  12.345  0.7494 -0.0977  0.2123
   28MPD2    H5  439   4.132   2.813  12.338  0.2686 -0.1843 -0.4645
   28MPD2    N1  440   3.826   2.753  12.713  0.4431 -0.3805 -0.3575
   28MPD2    H7  441   3.797   2.708  12.799 -1.1768 -0.9965 -1.2169
   29MPD2     C  442   4.076   0.258  14.031  0.0732  0.0486 -0.0633
   29MPD2    C1  443   4.001   0.217  14.142 -0.0283  0.1932  0.7831
   29MPD2    C2  444   3.964   0.319  14.230  0.7714 -0.1137 -0.4565
   29MPD2    C3  445   3.986   0.457  14.209  0.4993 -0.3129 -0.2311
   29MPD2    C4  446   4.062   0.486  14.100 -0.0829  0.2529  0.6488
   29MPD2    C5  447   4.106   0.391  14.012  0.1264 -0.0678  0.5569
   29MPD2     H  448   3.902   0.294  14.316 -1.0114 -0.0701 -1.7220
   29MPD2    H1  449   4.096   0.588  14.086  0.6956 -0.1281 -0.2096
   29MPD2    H2  450   4.112   0.187  13.957 -2.1662 -0.1033 -0.9925
   29MPD2    H3  451   4.161   0.413  13.922  1.8960  0.2993  1.7207
   29MPD2     N  452   3.937   0.564  14.277  0.1295 -0.5626 -0.1864
   29MPD2    H5  453   3.950   0.653  14.231 -0.7436  0.1346  0.9256
   29MPD2    N1  454   3.952   0.081  14.163  0.1934  0.6367  0.4238
   29MPD2    H7  455   3.888   0.067  14.240  0.8222 -1.6856  0.5443
   30TCq2    C1  456   3.872   0.556  14.401 -0.2053  0.1874  0.5740
   30TCq2    O2  457   3.854   0.454  14.468  0.1213 -0.7253  0.1026
   30TCq2    C2  458   3.837   0.688  14.455 -0.2397 -0.5093 -0.3625
   30TCq2    C3  459   3.818   0.702  14.590  0.1530 -0.3508 -0.2703
   30TCq2    C4  460   3.820   0.828  14.647  0.0043  0.1113 -0.0894
   30TCq2    C5  461   3.839   0.940  14.574  0.1566  0.3744 -0.4967
   30TCq2    C6  462   3.857   0.922  14.436 -0.2200  1.0366  0.5477
   30TCq2    C7  463   3.856   0.796  14.377  0.5974  0.0283 -0.3906
   30TCq2    C8  464   3.861   1.033  14.346  0.4273 -0.1677  0.3763
   30TCq2    O4  465   3.824   1.027  14.231  0.0449 -0.1748 -0.3917
   30TCq2    C9  466   3.782   0.835  14.787  0.1395 -0.3362  0.1900
   30TCq2    O5  467   3.821   0.747  14.869  0.9195  0.2791 -0.5142
   30TCq2    O6  468   3.727   0.944  14.824  0.3371 -0.3118  0.2295
   30TCq2    H2  469   3.794   0.610  14.642  0.9814 -0.1016  0.5570
   30TCq2    H3  470   3.835   1.040  14.615  0.0789  1.1694 -2.4407
   30TCq2    H4  471   3.852   0.787  14.269 -1.0427 -2.2078 -0.1481
   31MPD2     C  472   1.794   4.394  14.379  0.5769  0.0941  0.2112
   31MPD2    C1  473   1.658   4.421  14.366  0.3071 -0.0540  0.5363
   31MPD2    C2  474   1.579   4.348  14.447  0.2629 -0.7484 -0.6977
   31MPD2    C3  475   1.619   4.268  14.551 -0.9332 -0.3385 -0.1656
   31MPD2    C4  476   1.753   4.246  14.563 -0.1532 -0.3614 -0.1314
   31MPD2    C5  477   1.838   4.309  14.471  0.4407  0.0289 -0.2132
   31MPD2     H  478   1.472   4.356  14.434  0.2472 -1.8382 -1.1843
   31MPD2    H1  479   1.788   4.177  14.639  0.5092  1.5460  1.2759
   31MPD2    H2  480   1.861   4.442  14.309  0.9833 -1.0030 -0.1534
   31MPD2    H3  481   1.945   4.316  14.485  0.0867  1.1480  1.8716
   31MPD2     N  482   1.534   4.201  14.641 -0.1139  0.3891  0.1486
   31MPD2    H5  483   1.576   4.149  14.717  1.2128  1.1224 -0.0777
   31MPD2    N1  484   1.614   4.519  14.274  0.0837 -0.2082 -0.1192
   31MPD2    H7  485   1.689   4.560  14.219 -2.7758  1.5312 -2.7296
   32TCq2    C1  486   1.398   4.211  14.643  0.3049  0.1357 -0.3879
   32TCq2    O2  487   1.317   4.280  14.581 -0.7693 -0.3912 -0.3938
   32TCq2    C2  488   1.348   4.127  14.758 -0.2265  0.3805  0.4833
   32TCq2    C3  489   1.213   4.131  14.785 -0.6407  0.4293  0.2099
   32TCq2    C4  490   1.165   4.092  14.903  0.2355 -0.6545 -0.5039
   32TCq2    C5  491   1.247   4.058  15.002 -0.2576 -0.0068 -0.7885
   32TCq2    C6  492   1.381   4.051  14.976  0.1848 -0.2010 -1.0009
   32TCq2    C7  493   1.438   4.083  14.849  0.5478  0.1596  0.5542
   32TCq2    C8  494   1.469   3.995  15.071 -0.7747 -0.4225 -0.2595
   32TCq2    O4  495   1.588   4.005  15.048 -0.2099  0.4180  0.4130
   32TCq2    C9  496   1.022   4.113  14.932 -0.7959 -0.0499 -0.1422
   32TCq2    O5  497   0.946   4.167  14.848 -1.0732 -0.1879  0.0502
   32TCq2    O6  498   0.969   4.066  15.037  0.6330 -0.6358  0.9491
   32TCq2    H2  499   1.143   4.164  14.709  0.0767  0.8333 -0.2683
   32TCq2    H3  500   1.215   4.055  15.105  0.3223 -0.7484 -0.6369
   32TCq2    H4  501   1.545   4.077  14.838  0.4283  0.4526 -0.7113
   33MPD2     C  502   1.377   2.561   9.714 -0.1675  0.2880  0.2888
   33MPD2    C1  503   1.246   2.521   9.717 -0.5443 -0.4077 -0.1232
   33MPD2    C2  504   1.156   2.547   9.607  0.0030  0.0492  1.1712
   33MPD2    C3  505   1.209   2.619   9.498 -0.3804  1.0644 -1.3892
   33MPD2    C4  506   1.337   2.669   9.498  0.3511 -0.3273  0.0973
   33MPD2    C5  507   1.417   2.639   9.610  0.2222 -0.2150  0.8118
   33MPD2     H  508   1.054   2.512   9.605 -0.5112  1.8745 -4.2875
   33MPD2    H1  509   1.375   2.728   9.416  0.7809 -0.3100  0.3071
   33MPD2    H2  510   1.448   2.549   9.795  0.2892  0.2010 -0.1248
   33MPD2    H3  511   1.520   2.671   9.607  0.6364 -1.6078  0.5165
   33MPD2     N  512   1.133   2.676   9.393  0.2790  0.5395  0.0149
   33MPD2    H5  513   1.184   2.713   9.314  1.2442 -1.9301 -0.5353
   33MPD2    N1  514   1.209   2.456   9.837 -0.3999  0.4427 -0.2953
   33MPD2    H7  515   1.277   2.454   9.912 -1.6154  1.5500  0.8326
   34TCq2    C1  516   0.997   2.652   9.380  0.2849  0.4525 -0.2745
   34TCq2    O2  517   0.927   2.571   9.433  0.1265 -0.1673 -0.3701
   34TCq2    C2  518   0.934   2.721   9.268  0.6288 -0.2268 -0.3070
   34TCq2    C3  519   0.835   2.659   9.199  0.0824  0.6253 -0.0523
   34TCq2    C4  520   0.794   2.722   9.083 -0.1103  0.4103 -0.4227
   34TCq2    C5  521   0.854   2.836   9.034 -0.6442  0.2653 -0.2125
   34TCq2    C6  522   0.959   2.891   9.102 -0.3796 -1.1211 -0.1689
   34TCq2    C7  523   1.000   2.839   9.225  0.0768  0.4243 -0.0230
   34TCq2    C8  524   1.040   2.991   9.040 -0.4117  0.1970 -0.0159
   34TCq2    O4  525   1.137   3.025   9.099 -0.1770 -0.2015  0.1081
   34TCq2    C9  526   0.696   2.658   8.995  0.0526  0.4769 -0.2561
   34TCq2    O5  527   0.606   2.590   9.055 -0.3482  0.1273 -0.7937
   34TCq2    O6  528   0.693   2.685   8.875 -0.4672  0.7849  0.2444
   34TCq2    H2  529   0.789   2.563   9.223 -0.2197  0.0866 -2.8082
   34TCq2    H3  530   0.824   2.863   8.933  0.8129 -0.2263 -0.7832
   34TCq2    H4  531   1.058   2.902   9.290  0.4782 -0.5714  0.5707
   35MPD2     C  532   3.505   3.542  11.828  0.3203 -0.2945  0.2647
   35MPD2    C1  533   3.368   3.524  11.804  0.3167 -0.4895 -0.0456
   35MPD2    C2  534   3.321   3.538  11.675  0.3140 -0.5717  0.4066
   35MPD2    C3  535   3.398   3.581  11.570 -0.0189  0.0470 -0.0830
   35MPD2    C4  536   3.534   3.602  11.590  0.5292  1.2026 -0.0744
   35MPD2    C5  537   3.583   3.574  11.720 -0.2638  0.4425 -0.0934
   35MPD2     H  538   3.215   3.523  11.656  0.0213  1.0331  0.7551
   35MPD2    H1  539   3.602   3.621  11.509  0.2788 -0.9186 -0.7830
   35MPD2    H2  540   3.570   3.527  11.914 -1.0320 -0.9655  1.1737
   35MPD2    H3  541   3.686   3.583  11.750  0.0014 -0.5192 -0.7336
   35MPD2     N  542   3.342   3.567  11.440 -0.0696  0.0402  0.5981
   35MPD2    H5  543   3.244   3.543  11.441 -0.7178  2.5679 -0.2584
   35MPD2    N1  544   3.276   3.483  11.905 -1.1833 -0.2073  0.6917
   35MPD2    H7  545   3.312   3.462  11.997 -0.4212  0.7872  0.6220
   36TCq2    C1  546   3.401   3.615  11.324  0.7653  0.4875 -0.2436
   36TCq2    O2  547   3.506   3.678  11.311  0.3079  0.0608  0.3846
   36TCq2    C2  548   3.318   3.597  11.207  0.4068 -0.3604 -0.5316
   36TCq2    C3  549   3.326   3.680  11.098  0.7024 -0.2791  0.1301
   36TCq2    C4  550   3.272   3.643  10.980  0.0475  0.1107  0.0719
   36TCq2    C5  551   3.197   3.529  10.971 -0.1148  0.0178 -0.3668
   36TCq2    C6  552   3.166   3.458  11.077 -0.0662  0.7060 -0.3133
   36TCq2    C7  553   3.239   3.484  11.195  0.4863  0.0373  0.1700
   36TCq2    C8  554   3.062   3.365  11.070 -0.0463 -0.4485 -0.0433
   36TCq2    O4  555   3.052   3.283  11.161 -0.4741 -0.4852  0.0004
   36TCq2    C9  556   3.318   3.713  10.861 -0.5790  0.3893 -0.4406
   36TCq2    O5  557   3.264   3.681  10.752  0.5008  0.1942 -0.1347
   36TCq2    O6  558   3.402   3.809  10.879  0.3036  0.4283  0.4191
   36TCq2    H2  559   3.401   3.758  11.095  0.0200  0.3980  0.4877
   36TCq2    H3  560   3.177   3.500  10.868  3.9080 -2.1173 -0.5035
   36TCq2    H4  561   3.217   3.416  11.277 -2.0132 -0.2473 -0.7498
   37TMC2    C1  562   0.403   3.306  11.961 -0.6102 -0.0316  0.3993
   37TMC2    C2  563   0.314   3.259  11.869  0.2238  0.8235 -0.0658
   37TMC2    C3  564   0.346   3.276  11.737 -0.2654 -0.0793 -0.0111
   37TMC2    C4  565   0.513   3.381  11.927 -0.1499 -0.4741  0.1313
   37TMC2    C5  566   0.537   3.397  11.791 -0.1415  0.4018  0.4658
   37TMC2    C6  567   0.457   3.342  11.698  0.1444  0.3170  0.8504
   37TMC2     C  568   0.371   3.289  12.102  0.4586 -0.6359 -0.1159
   37TMC2     O  569   0.272   3.218  12.131  0.5367  0.1261 -0.1591
   37TMC2     H  570   0.229   3.195  11.888  0.2520  0.0916 -2.4271
   37TMC2    H1  571   0.572   3.440  11.996 -0.9447  0.2297  0.1936
   37TMC2    H2  572   0.479   3.345  11.592 -0.0944  0.3026  0.8002
   37TMC2    C7  573   0.663   3.461  11.750 -0.4697  0.0853  0.1620
   37TMC2    C8  574   0.256   3.233  11.633  0.1864 -1.9250  0.0743
   37TMC2    O1  575   0.750   3.481  11.844  0.4681 -0.0544 -0.2178
   37TMC2    O2  576   0.293   3.195  11.524  0.4343 -0.3431  0.5226
   37TMC2    O5  577   0.132   3.212  11.680  0.3019 -0.1017  0.3182
   37TMC2    H5  578   0.094   3.270  11.750 -1.7676  1.6639 -2.2514
   38MPD2     C  579   0.517   3.313  12.592 -0.8719 -0.3802 -0.2082
   38MPD2    C1  580   0.613   3.362  12.513 -0.3818 -0.0420  0.6176
   38MPD2    C2  581   0.592   3.371  12.382  0.2616  0.7320  0.2636
   38MPD2    C3  582   0.475   3.327  12.322 -0.4012  0.1055 -0.5014
   38MPD2    C4  583   0.368   3.286  12.403  0.4622  0.1931 -0.2400
   38MPD2    C5  584   0.399   3.265  12.539 -0.3806  0.3894  0.5599
   38MPD2     H  585   0.675   3.412  12.325 -1.5733  2.2747 -1.2967
   38MPD2    H1  586   0.269   3.249  12.379  1.2914 -1.9973 -0.3514
   38MPD2    H2  587   0.536   3.299  12.698  0.1969  0.8777 -0.2380
   38MPD2    H3  588   0.338   3.207  12.608  1.9366 -0.8525  1.5488
   38MPD2     N  589   0.466   3.338  12.181  0.2324 -0.0903 -0.0836
   38MPD2    H5  590   0.549   3.380  12.140 -0.2571 -0.1630 -1.1504
   38MPD2    N1  591   0.739   3.405  12.554 -0.9737 -0.4203 -0.3450
   38MPD2    H7  592   0.805   3.425  12.479  2.2850 -0.4139  2.4955
   39MPD2     C  593   2.702   0.375   1.754 -0.4267  0.0100  0.0888
   39MPD2    C1  594   2.666   0.474   1.844  0.1273 -0.3771 -1.0696
   39MPD2    C2  595   2.549   0.548   1.822  0.3087  0.6745  0.3104
   39MPD2    C3  596   2.468   0.516   1.712  0.0619  0.1137  0.5633
   39MPD2    C4  597   2.507   0.407   1.631  0.0447 -0.2376  1.0234
   39MPD2    C5  598   2.628   0.338   1.649 -0.6388 -0.6603  0.0211
   39MPD2     H  599   2.521   0.627   1.890  0.3277  1.4274 -0.5674
   39MPD2    H1  600   2.440   0.362   1.559 -0.0684  0.4493  0.7009
   39MPD2    H2  601   2.792   0.315   1.768  0.0864 -0.3342 -4.8365
   39MPD2    H3  602   2.658   0.267   1.573 -2.7619 -1.1449 -0.3712
   39MPD2     N  603   2.348   0.588   1.683  0.0488 -0.2405 -0.3521
   39MPD2    H5  604   2.295   0.571   1.598 -0.1638 -0.8942 -0.0879
   39MPD2    N1  605   2.752   0.492   1.960 -0.2234  0.2620  0.2940
   39MPD2    H7  606   2.830   0.428   1.967  0.0769  0.7871  1.6259
   40TCq2    C1  607   2.734   0.585   2.059 -0.3825  0.0339  0.1126
   40TCq2    O2  608   2.654   0.677   2.075 -0.1388 -0.4907  0.0576
   40TCq2    C2  609   2.849   0.590   2.149  0.2524 -0.1198  0.3116
   40TCq2    C3  610   2.833   0.633   2.276 -0.1669  0.1891  0.5779
   40TCq2    C4  611   2.944   0.643   2.357 -0.8242  0.0644 -0.4256
   40TCq2    C5  612   3.069   0.599   2.318  0.1211 -0.0541  0.3645
   40TCq2    C6  613   3.085   0.561   2.186  0.4740  0.3106  0.6102
   40TCq2    C7  614   2.978   0.557   2.101 -0.1342 -0.0240  0.0667
   40TCq2    C8  615   3.222   0.512   2.149 -0.3761 -0.3976 -0.2815
   40TCq2    O4  616   3.284   0.428   2.211  0.5596  0.3603 -0.2630
   40TCq2    C9  617   2.921   0.675   2.494  0.4613 -0.0208  0.3043
   40TCq2    O5  618   2.801   0.676   2.533 -0.5131  0.0869  0.0567
   40TCq2    O6  619   3.019   0.677   2.573 -0.3696  0.0139  0.5091
   40TCq2    H2  620   2.738   0.670   2.316 -1.8262 -0.7168 -2.5737
   40TCq2    H3  621   3.153   0.592   2.386 -0.5366  1.1258  1.2977
   40TCq2    H4  622   2.993   0.526   1.998  1.3437  0.6551  0.0738
   41TMC2    C1  623   2.685   3.459  13.219 -0.5435  0.1090 -0.3409
   41TMC2    C2  624   2.701   3.574  13.298 -0.7563  0.3648  0.6420
   41TMC2    C3  625   2.697   3.693  13.227 -0.1527 -0.6048 -0.0702
   41TMC2    C4  626   2.671   3.462  13.081 -0.1070  0.2825  0.5318
   41TMC2    C5  627   2.651   3.583  13.029  1.1792  0.4885 -0.5859
   41TMC2    C6  628   2.659   3.704  13.097 -0.6123 -0.3293 -0.0120
   41TMC2     C  629   2.691   3.329  13.286  0.0369  0.1375 -0.1346
   41TMC2     O  630   2.769   3.245  13.242  0.5652 -0.3544  0.3114
   41TMC2     H  631   2.742   3.577  13.399 -1.5376  0.5344  0.9571
   41TMC2    H1  632   2.645   3.366  13.038 -1.8691  0.7150  0.6288
   41TMC2    H2  633   2.623   3.796  13.051  2.6095 -0.1904 -2.2390
   41TMC2    C7  634   2.618   3.591  12.895  0.4349 -0.0212 -0.5390
   41TMC2    C8  635   2.683   3.810  13.315 -0.3630  0.0928 -0.3064
   41TMC2    O1  636   2.565   3.696  12.852  0.8298  0.5860  0.1756
   41TMC2    O2  637   2.614   3.807  13.416  0.4420 -0.6929 -0.1325
   41TMC2    O5  638   2.716   3.917  13.244 -0.1299  0.3039  0.2874
   41TMC2    H5  639   2.774   3.903  13.166 -1.3588  0.7635 -0.7102
   42MPD2     C  640   2.685   3.129  13.528 -0.2841 -0.7068 -0.3264
   42MPD2    C1  641   2.603   3.243  13.504  0.8327 -0.0393  0.5197
   42MPD2    C2  642   2.503   3.271  13.597 -0.0295 -0.0598  0.4196
   42MPD2    C3  643   2.482   3.193  13.711 -0.4592 -0.4592  0.0417
   42MPD2    C4  644   2.570   3.088  13.733  0.5587 -0.1451  0.0223
   42MPD2    C5  645   2.667   3.054  13.635  0.5389 -0.0982  0.2023
   42MPD2     H  646   2.453   3.363  13.570  1.0949  0.8677  1.4486
   42MPD2    H1  647   2.561   3.015  13.814  2.2638 -0.1673  0.1839
   42MPD2    H2  648   2.769   3.102  13.466  0.1153  0.3080 -0.2336
   42MPD2    H3  649   2.730   2.966  13.643 -0.2908 -0.3949  3.7115
   42MPD2     N  650   2.386   3.220  13.808 -0.0993 -0.3925 -0.3030
   42MPD2    H5  651   2.394   3.157  13.887  0.2670  1.5423  1.2024
   42MPD2    N1  652   2.615   3.340  13.400  0.3282 -0.5910  0.5956
   42MPD2    H7  653   2.553   3.420  13.400  0.3707 -0.5582  0.3844
   43MPD2     C  654   2.973   1.665   0.934 -0.4230  0.4426  0.0461
   43MPD2    C1  655   3.013   1.677   0.800  0.1455 -0.1024  0.5683
   43MPD2    C2  656   2.996   1.799   0.741 -0.4876  0.1292  0.5944
   43MPD2    C3  657   2.966   1.917   0.812  0.8157  0.5590 -0.2330
   43MPD2    C4  658   2.928   1.903   0.941  0.1137  0.3581 -0.3564
   43MPD2    C5  659   2.938   1.782   0.998  0.1180  0.0738  0.1285
   43MPD2     H  660   3.039   1.808   0.642  1.2215  2.0924  1.5105
   43MPD2    H1  661   2.896   1.985   1.005 -0.5643  0.8358 -1.3072
   43MPD2    H2  662   2.979   1.574   0.992  1.6053 -0.5192 -1.6435
   43MPD2    H3  663   2.900   1.781   1.100  1.6106 -1.1859  0.6611
   43MPD2     N  664   2.973   2.053   0.753  0.0632 -0.5165  0.2175
   43MPD2    H5  665   2.974   2.132   0.816 -0.7088  0.1753 -0.6438
   43MPD2    N1  666   3.059   1.563   0.729  0.1220  0.5463  0.2149
   43MPD2    H7  667   3.075   1.581   0.631  1.7308 -0.3283  0.3228
   44TCq2    C1  668   3.398   2.342   0.682  0.4335  0.1741 -0.1211
   44TCq2    O2  669   3.464   2.250   0.641  0.0529 -0.9401 -0.1967
   44TCq2    C2  670   3.263   2.357   0.639 -0.9129  0.4563 -0.0018
   44TCq2    C3  671   3.192   2.460   0.702 -0.4174 -0.6467  0.0734
   44TCq2    C4  672   3.061   2.437   0.725 -0.6872  0.5243 -0.2660
   44TCq2    C5  673   3.005   2.315   0.697 -0.2697 -0.2168 -0.8867
   44TCq2    C6  674   3.076   2.218   0.629  0.4181  0.4772  0.6027
   44TCq2    C7  675   3.202   2.250   0.588 -0.4279 -0.3782 -0.7596
   44TCq2    C8  676   3.034   2.078   0.637 -0.5251 -0.2384  0.6270
   44TCq2    O4  677   3.066   2.004   0.550  0.3149 -0.1079 -0.0410
   44TCq2    C9  678   2.982   2.525   0.805 -0.1019 -0.4167  0.4817
   44TCq2    O5  679   2.874   2.485   0.852 -0.4078 -0.1887 -0.0466
   44TCq2    O6  680   3.036   2.634   0.839  0.2728 -0.2087 -0.5173
   44TCq2    H2  681   3.237   2.555   0.730 -1.4921 -0.1133  0.0204
   44TCq2    H3  682   2.904   2.299   0.733  0.2932  2.0862  1.7812
   44TCq2    H4  683   3.262   2.172   0.541 -0.9127 -2.2592  1.7941
   45TMC2    C1  684   0.248   3.686   9.505 -0.6790  0.7122  0.1801
   45TMC2    C2  685   0.202   3.718   9.383  1.0162 -0.7372  0.4246
   45TMC2    C3  686   0.262   3.825   9.325 -0.2383 -0.2414  0.3315
   45TMC2    C4  687   0.341   3.752   9.576 -0.3911  0.3481  0.1536
   45TMC2    C5  688   0.399   3.864   9.512  0.3083 -0.7258  0.0266
   45TMC2    C6  689   0.358   3.901   9.389  0.3583 -0.2183 -0.0872
   45TMC2     C  690   0.216   3.559   9.563 -0.2715 -0.6591 -1.0325
   45TMC2     O  691   0.263   3.542   9.672  0.8142  0.3234 -0.6265
   45TMC2     H  692   0.121   3.667   9.330 -0.9780  2.2934  0.5490
   45TMC2    H1  693   0.381   3.707   9.666  0.3114  1.4077  0.3632
   45TMC2    H2  694   0.412   3.974   9.330 -1.2634  2.6225  1.9373
   45TMC2    C7  695   0.459   3.951   9.606 -0.0451 -0.1127 -0.0253
   45TMC2    C8  696   0.233   3.843   9.192 -0.1720  0.2311  0.0614
   45TMC2    O1  697   0.484   3.912   9.718 -0.1716 -0.2361 -0.5457
   45TMC2    O2  698   0.184   3.755   9.121  0.0458  0.3743  0.0936
   45TMC2    O5  699   0.213   3.971   9.168 -0.5131 -0.2462  0.0087
   45TMC2    H5  700   0.234   4.035   9.239 -2.4536 -0.9189  1.1933
   46MPD2     C  701   0.124   3.289   9.660 -0.4892  0.4044 -0.0568
   46MPD2    C1  702   0.093   3.343   9.537 -0.8100  0.3988  0.0080
   46MPD2    C2  703   0.011   3.275   9.452 -0.5088 -0.0208  0.4894
   46MPD2    C3  704   4.677   3.146   9.481  0.1462 -0.2159  0.4220
   46MPD2    C4  705   0.004   3.085   9.595 -0.0467  0.8840  0.2397
   46MPD2    C5  706   0.081   3.157   9.681 -0.1784 -0.6319  0.0929
   46MPD2     H  707   4.694   3.328   9.364  1.0885 -2.2004 -1.4997
   46MPD2    H1  708   4.684   2.988   9.623  1.6114 -0.1143 -0.8861
   46MPD2    H2  709   0.196   3.326   9.731 -0.5243  0.0248  0.1794
   46MPD2    H3  710   0.108   3.115   9.778  0.3105 -1.9026 -0.5963
   46MPD2     N  711   4.569   3.091   9.406  0.5209 -0.2945  0.3046
   46MPD2    H5  712   4.531   3.150   9.333 -1.0416  0.8364  2.0319
   46MPD2    N1  713   0.133   3.476   9.490 -0.3514 -0.1659 -0.2608
   46MPD2    H7  714   0.096   3.506   9.401 -0.4550 -0.7744 -0.4193
   47TMC2    C1  715   1.662   4.176   9.223  0.5267  0.2330  0.5628
   47TMC2    C2  716   1.612   4.085   9.131  0.2445  0.1939 -0.0634
   47TMC2    C3  717   1.533   4.134   9.032  0.5124  0.3855 -0.0341
   47TMC2    C4  718   1.615   4.307   9.214 -0.0042  0.4930  0.0287
   47TMC2    C5  719   1.531   4.348   9.111  0.7267 -0.3554 -0.2594
   47TMC2    C6  720   1.486   4.260   9.018 -0.1284 -0.6735  0.1624
   47TMC2     C  721   1.765   4.120   9.315  0.0308  0.0578 -0.3627
   47TMC2     O  722   1.782   3.998   9.317 -0.0812  0.0621  0.1822
   47TMC2     H  723   1.644   3.981   9.139  1.9818  0.7973  0.8331
   47TMC2    H1  724   1.651   4.379   9.287  1.0225 -1.0261  1.0330
   47TMC2    H2  725   1.405   4.289   8.952  1.3671  2.5278 -0.2759
   47TMC2    C7  726   1.489   4.485   9.095  0.4067 -0.6821  0.0985
   47TMC2    C8  727   1.476   4.037   8.940  1.0447 -0.4723 -0.1794
   47TMC2    O1  728   1.403   4.499   9.012 -0.6423  0.0954  0.3616
   47TMC2    O2  729   1.377   4.069   8.873 -0.2132  0.7673 -0.1103
   47TMC2    O5  730   1.562   3.940   8.919 -0.0037 -0.5944  0.3138
   47TMC2    H5  731   1.638   3.923   8.980 -0.3113  0.9859  1.1404
   48MPD2     C  732   2.043   4.297   9.467 -0.1479 -0.2780  0.0929
   48MPD2    C1  733   1.950   4.199   9.456 -0.4729  0.6011  0.3226
   48MPD2    C2  734   1.971   4.076   9.507  0.1813 -0.2389 -1.0035
   48MPD2    C3  735   2.097   4.047   9.557  0.0293  0.0415 -0.2894
   48MPD2    C4  736   2.190   4.144   9.561 -0.5784  0.8234 -0.0513
   48MPD2    C5  737   2.161   4.271   9.524 -0.0322  0.2978 -0.2192
   48MPD2     H  738   1.898   3.995   9.503 -0.8790  0.5878  1.1168
   48MPD2    H1  739   2.291   4.123   9.596 -1.6045 -2.5751  0.8183
   48MPD2    H2  740   2.013   4.397   9.439  0.2887 -0.3636 -0.6890
   48MPD2    H3  741   2.233   4.351   9.533 -0.5249  0.5702  1.3082
   48MPD2     N  742   2.110   3.910   9.608  0.6659 -0.4784 -0.0858
   48MPD2    H5  743   2.025   3.856   9.593  0.8168 -0.5157 -0.7903
   48MPD2    N1  744   1.838   4.221   9.377  0.1641  0.3498 -0.1458
   48MPD2    H7  745   1.819   4.318   9.354 -0.8725  0.5590  1.6695
   49MPD2     C  746   0.738   1.786  10.083 -0.0001  0.6279  0.3734
   49MPD2    C1  747   0.600   1.790  10.065 -0.6262 -0.0363 -0.0214
   49MPD2    C2  748   0.512   1.752  10.164  0.5459  0.1566  0.5770
   49MPD2    C3  749   0.562   1.705  10.281 -0.7226 -0.4028  0.1163
   49MPD2    C4  750   0.696   1.705  10.301 -0.2932  0.5309 -0.0124
   49MPD2    C5  751   0.781   1.732  10.200 -0.0412  0.0617 -0.2276
   49MPD2     H  752   0.405   1.741  10.148  0.6984  1.1341 -1.1379
   49MPD2    H1  753   0.734   1.674  10.398 -0.5703  1.6351  0.4463
   49MPD2    H2  754   0.812   1.829  10.017  2.1899 -1.3705  1.5440
   49MPD2    H3  755   0.889   1.731  10.217  0.3598 -0.2291 -2.8411
   49MPD2     N  756   0.489   1.659  10.391  0.1568 -0.4405 -0.6050
   49MPD2    H5  757   0.530   1.603  10.465  0.8020  0.1015 -0.5596
   49MPD2    N1  758   0.550   1.828   9.936 -0.8110  0.6142  0.4275
   49MPD2    H7  759   0.613   1.849   9.859  0.0757  1.5023  1.4026
   50TCq2    C1  760   0.417   1.831   9.895 -1.6157 -1.1413  0.1178
   50TCq2    O2  761   0.309   1.792   9.945  0.2005 -0.2294 -0.1447
   50TCq2    C2  762   0.410   1.911   9.774  0.1285 -0.3753 -0.5209
   50TCq2    C3  763   0.511   2.002   9.744  0.4080  0.4272 -0.3176
   50TCq2    C4  764   0.509   2.058   9.624 -0.1584  0.1691  0.3138
   50TCq2    C5  765   0.408   2.039   9.535  0.6359  0.0498 -0.3043
   50TCq2    C6  766   0.307   1.959   9.575 -0.4985  0.2603  0.8222
   50TCq2    C7  767   0.309   1.888   9.688 -0.1094  0.2300  0.4779
   50TCq2    C8  768   0.180   1.951   9.504  0.8545  0.1844 -0.6368
   50TCq2    O4  769   0.084   1.899   9.562 -0.2986  0.1743  0.4720
   50TCq2    C9  770   0.616   2.137   9.586  0.0088 -0.3622 -0.4865
   50TCq2    O5  771   0.712   2.165   9.669  0.0076  0.9385  0.3333
   50TCq2    O6  772   0.638   2.127   9.461 -0.3472  0.8470 -0.3314
   50TCq2    H2  773   0.582   2.033   9.820 -0.4334  2.5286 -0.4101
   50TCq2    H3  774   0.408   2.098   9.443  0.7205  1.6678  0.7291
   50TCq2    H4  775   0.246   1.802   9.708  2.3268 -1.8038 -0.6546
   51MPD2     C  776   0.593   1.005   1.667 -0.5232  0.6097 -0.1941
   51MPD2    C1  777   0.555   0.928   1.776  0.6400  0.1998  0.2524
   51MPD2    C2  778   0.573   0.973   1.904 -0.2502 -0.0782  0.8648
   51MPD2    C3  779   0.621   1.104   1.926  0.8249 -0.5172 -0.5181
   51MPD2    C4  780   0.657   1.179   1.814 -0.1645 -0.5064  0.2568
   51MPD2    C5  781   0.648   1.127   1.688  0.7052  0.4004  0.2352
   51MPD2     H  782   0.537   0.904   1.980  1.5078  0.9096  2.6021
   51MPD2    H1  783   0.706   1.276   1.817 -1.8908  0.4079 -1.0397
   51MPD2    H2  784   0.584   0.980   1.562 -1.0133  0.3475 -0.0875
   51MPD2    H3  785   0.687   1.182   1.602 -0.6651 -0.0923 -0.7003
   51MPD2     N  786   0.638   1.170   2.052  0.2248 -0.0564  0.3796
   51MPD2    H5  787   0.647   1.271   2.044 -2.5181  0.1202 -0.7295
   51MPD2    N1  788   0.509   0.799   1.765  0.1255  1.2896  0.6858
   51MPD2    H7  789   0.496   0.747   1.852  1.0057 -1.9497 -1.1114
   52TCq2    C1  790   0.618   1.108   2.178 -0.0870  0.9552  0.1112
   52TCq2    O2  791   0.606   0.987   2.195 -0.4565 -0.3956 -0.2058
   52TCq2    C2  792   0.635   1.199   2.289  0.0963  0.4080 -0.0922
   52TCq2    C3  793   0.610   1.145   2.413  0.6227  0.1384  0.0746
   52TCq2    C4  794   0.615   1.221   2.526  0.5881  0.3311  0.3725
   52TCq2    C5  795   0.652   1.353   2.514 -0.3819 -0.0397  0.4312
   52TCq2    C6  796   0.673   1.409   2.393  0.0787  0.0772 -0.3651
   52TCq2    C7  797   0.670   1.328   2.278 -0.0596 -0.3888  0.9287
   52TCq2    C8  798   0.736   1.539   2.391  0.0023 -0.1507  0.8468
   52TCq2    O4  799   0.830   1.554   2.314  0.0129  0.0126  0.2839
   52TCq2    C9  800   0.561   1.175   2.652  0.4503 -0.2369  0.3253
   52TCq2    O5  801   0.585   1.243   2.759 -0.2704 -0.5356 -0.0833
   52TCq2    O6  802   0.514   1.058   2.643 -0.2545  0.3569  0.6418
   52TCq2    H2  803   0.566   1.045   2.415  0.5624  0.2736  4.4136
   52TCq2    H3  804   0.636   1.415   2.602  1.0550 -4.0584  3.4781
   52TCq2    H4  805   0.679   1.374   2.181  0.9137 -1.0963  0.6862
   53TMC2    C1  806   1.303   3.783  11.724 -0.7813  0.1306  0.5334
   53TMC2    C2  807   1.438   3.758  11.735 -0.7039 -0.4407 -0.3565
   53TMC2    C3  808   1.486   3.720  11.855 -0.6320 -0.0706 -0.8443
   53TMC2    C4  809   1.227   3.784  11.833 -0.0655  0.2466  0.4439
   53TMC2    C5  810   1.280   3.757  11.944  0.8001 -0.4500  0.3030
   53TMC2    C6  811   1.409   3.727  11.965  1.0746  0.3316  0.2403
   53TMC2     C  812   1.233   3.732  11.606 -0.5290 -0.2400 -0.6449
   53TMC2     O  813   1.290   3.743  11.496  0.1113 -0.2390 -0.1479
   53TMC2     H  814   1.492   3.737  11.643 -0.1943  0.8800 -0.3613
   53TMC2    H1  815   1.124   3.815  11.824 -0.1808  0.1504  1.4298
   53TMC2    H2  816   1.442   3.704  12.066 -1.4167 -0.8820  0.7808
   53TMC2    C7  817   1.189   3.719  12.048  1.0569  0.2107 -0.3387
   53TMC2    C8  818   1.628   3.718  11.896 -0.0505  0.3899 -0.3869
   53TMC2    O1  819   1.085   3.677  11.999  0.5369 -0.7193 -0.2534
   53TMC2    O2  820   1.661   3.703  12.014 -0.1012  0.3006 -0.4125
   53TMC2    O5  821   1.702   3.697  11.786 -0.3281 -0.9798  0.8244
   53TMC2    H5  822   1.642   3.698  11.709  0.5968 -1.6147  0.0983
   54MPD2     C  823   1.014   3.635  11.429 -0.3453 -0.8082  0.0096
   54MPD2    C1  824   1.009   3.635  11.566  0.3685 -0.0795  0.2642
   54MPD2    C2  825   0.900   3.593  11.629  0.0579 -0.1085 -0.3047
   54MPD2    C3  826   0.791   3.550  11.558  0.6955 -0.8553 -0.2734
   54MPD2    C4  827   0.786   3.567  11.419  0.5504 -1.7591  0.2126
   54MPD2    C5  828   0.903   3.600  11.347  0.5962 -0.3134  0.7264
   54MPD2     H  829   0.893   3.606  11.736  0.5926  3.5049 -0.7042
   54MPD2    H1  830   0.696   3.534  11.368  1.3822 -0.6343 -1.9838
   54MPD2    H2  831   1.110   3.658  11.384 -0.2643 -2.2385 -0.5469
   54MPD2    H3  832   0.908   3.599  11.239  0.7138 -0.4875  0.7354
   54MPD2     N  833   0.678   3.491  11.615  0.2853  0.4077 -0.0824
   54MPD2    H5  834   0.592   3.470  11.564 -0.3741  1.7543  0.4910
   54MPD2    N1  835   1.113   3.673  11.644 -0.3914  0.0811  0.0496
   54MPD2    H7  836   1.095   3.672  11.744  0.9398 -0.5742  0.2873
   55MPD2     C  837   0.978   2.669   0.141  0.2651  0.0902  0.1826
   55MPD2    C1  838   0.946   2.668   0.276 -0.3977 -0.0560  0.8246
   55MPD2    C2  839   0.827   2.730   0.314 -0.0868  0.1533 -0.4444
   55MPD2    C3  840   0.742   2.782   0.216  0.0494 -0.3518  0.6012
   55MPD2    C4  841   0.778   2.767   0.086 -0.3197  0.1920  0.3162
   55MPD2    C5  842   0.894   2.719   0.052  0.2605  0.5083 -0.5762
   55MPD2     H  843   0.793   2.731   0.417  1.8404  1.2429  0.1845
   55MPD2    H1  844   0.720   2.814   0.007 -1.8377  0.5849  1.6614
   55MPD2    H2  845   1.072   2.636   0.099 -1.3037 -0.4787 -2.9027
   55MPD2    H3  846   0.915   2.711  17.627  0.5272 -0.7714 -0.4261
   55MPD2     N  847   0.617   2.842   0.237  1.1038 -0.2323 -0.2417
   55MPD2    H5  848   0.568   2.864   0.150  0.3481 -2.7074 -0.4361
   55MPD2    N1  849   1.043   2.612   0.360  0.4582  0.4643 -0.9796
   55MPD2    H7  850   1.121   2.560   0.323  0.4948 -0.2153  0.0576
   56TCq2    C1  851   1.035   2.618   0.500 -0.2231 -0.1041 -0.0447
   56TCq2    O2  852   0.971   2.703   0.561 -0.1481 -0.0190  0.0310
   56TCq2    C2  853   1.117   2.511   0.571 -0.5707 -0.9713  0.1852
   56TCq2    C3  854   1.219   2.445   0.509 -0.3139 -0.3224  0.6689
   56TCq2    C4  855   1.298   2.369   0.583 -0.5198  0.4712 -0.4079
   56TCq2    C5  856   1.290   2.379   0.720  0.5377 -0.5023 -0.0983
   56TCq2    C6  857   1.192   2.458   0.781 -0.1940 -0.6107 -0.2789
   56TCq2    C7  858   1.106   2.530   0.707  0.2302 -0.8857  0.0424
   56TCq2    C8  859   1.177   2.475   0.920 -0.7237  0.5534  0.8650
   56TCq2    O4  860   1.270   2.453   0.997 -0.0035  0.1288 -0.5897
   56TCq2    C9  861   1.382   2.268   0.522 -0.6606 -0.1224  0.0418
   56TCq2    O5  862   1.397   2.276   0.397  0.3230  1.2457 -0.1932
   56TCq2    O6  863   1.437   2.182   0.594  0.2587  0.4565 -0.5635
   56TCq2    H2  864   1.214   2.431   0.401  1.5401  5.3971 -0.1751
   56TCq2    H3  865   1.360   2.325   0.783 -0.1522  0.5164  1.5651
   56TCq2    H4  866   1.037   2.606   0.740  1.8350  0.7852 -0.4338
   57TMC2    C1  867   0.759   2.350  13.091 -0.2648  0.0420  0.1477
   57TMC2    C2  868   0.740   2.267  12.984 -0.2987 -0.4621 -0.4681
   57TMC2    C3  869   0.857   2.240  12.906 -1.0168 -0.3471 -0.0554
   57TMC2    C4  870   0.879   2.414  13.122 -0.0047  0.2477  0.2682
   57TMC2    C5  871   0.987   2.388  13.038 -0.5742  0.8160 -0.2714
   57TMC2    C6  872   0.973   2.303  12.930  0.2696  0.0329 -0.1081
   57TMC2     C  873   0.653   2.363  13.190 -1.0294  0.3739 -0.0264
   57TMC2     O  874   0.676   2.439  13.280  0.1563 -0.3665  0.5230
   57TMC2     H  875   0.642   2.228  12.957  0.0282 -0.9300 -0.9691
   57TMC2    H1  876   0.886   2.474  13.212  0.1247 -0.7499  0.9236
   57TMC2    H2  877   1.053   2.296  12.857  0.9704 -2.9610  0.9541
   57TMC2    C7  878   1.115   2.438  13.080  0.5672  0.1392 -1.1498
   57TMC2    C8  879   0.851   2.152  12.794  0.4136  0.7808  0.5408
   57TMC2    O1  880   1.105   2.532  13.155  0.0552 -0.2503  0.0125
   57TMC2    O2  881   0.921   2.054  12.788  0.3053 -0.4919  0.3605
   57TMC2    O5  882   0.731   2.148  12.743  0.2458  0.2369  0.1699
   57TMC2    H5  883   0.676   2.228  12.759  2.4960  1.7514  0.3063
   58MPD2     C  884   0.176   2.317  13.354  0.0425 -0.1219  0.1232
   58MPD2    C1  885   0.273   2.409  13.390 -0.1579  0.3752  0.0387
   58MPD2    C2  886   0.396   2.400  13.328 -0.7348  0.3623 -0.9075
   58MPD2    C3  887   0.419   2.301  13.232 -0.7146  0.2613 -1.0972
   58MPD2    C4  888   0.314   2.226  13.179 -0.3318  0.3504  1.0086
   58MPD2    C5  889   0.193   2.236  13.241  0.4956 -0.3317 -0.7601
   58MPD2     H  890   0.479   2.458  13.366 -2.0494  0.9569  1.0327
   58MPD2    H1  891   0.328   2.145  13.108  2.4299  0.4516  1.4359
   58MPD2    H2  892   0.077   2.313  13.397 -0.2984  1.2998 -0.4951
   58MPD2    H3  893   0.102   2.192  13.200  0.6028  0.6594 -2.0516
   58MPD2     N  894   0.542   2.284  13.167 -0.4078 -0.3710 -0.7287
   58MPD2    H5  895   0.550   2.216  13.093  1.1956 -0.2620 -0.6401
   58MPD2    N1  896   0.263   2.503  13.493 -0.2385 -0.0071  0.1860
   58MPD2    H7  897   0.349   2.554  13.508 -0.6771  0.8676 -0.3213
   59MPD2     C  898   3.415   2.329  13.180  0.5810 -0.1276 -0.7142
   59MPD2    C1  899   3.418   2.445  13.106 -0.8482 -0.5046  0.1255
   59MPD2    C2  900   3.438   2.564  13.177  0.2767  0.2774  0.1321
   59MPD2    C3  901   3.467   2.560  13.317 -0.2908  0.9325  0.2947
   59MPD2    C4  902   3.471   2.435  13.377 -0.1095 -1.0421  0.1288
   59MPD2    C5  903   3.449   2.324  13.307  0.4245  0.1306 -0.8872
   59MPD2     H  904   3.452   2.651  13.114 -0.4921  0.7309  0.5884
   59MPD2    H1  905   3.489   2.429  13.484 -0.6832 -0.1712  0.2762
   59MPD2    H2  906   3.413   2.230  13.137  0.6981 -1.4428  2.3290
   59MPD2    H3  907   3.469   2.225  13.345  1.3108  1.4703  2.1891
   59MPD2     N  908   3.486   2.672  13.398 -0.0738  0.9776 -0.3508
   59MPD2    H5  909   3.508   2.657  13.496  2.0601  1.2462 -0.8048
   59MPD2    N1  910   3.396   2.441  12.962  0.4730 -0.5400  0.2713
   59MPD2    H7  911   3.391   2.530  12.912  2.0274  0.0015  1.0866
   60TCq2    C1  912   3.403   2.325  12.888 -0.5399  0.1568  0.0277
   60TCq2    O2  913   3.419   2.206  12.916  0.2417 -0.0280 -0.6555
   60TCq2    C2  914   3.379   2.355  12.753 -0.2868 -0.2379 -0.5050
   60TCq2    C3  915   3.262   2.308  12.698 -0.3964 -0.0328 -0.4351
   60TCq2    C4  916   3.221   2.354  12.582  0.9182  0.2081 -0.3626
   60TCq2    C5  917   3.274   2.465  12.515 -0.4726  0.6708 -0.4924
   60TCq2    C6  918   3.388   2.513  12.579 -0.6052  0.3240  0.4716
   60TCq2    C7  919   3.437   2.461  12.699 -0.2057 -0.4559  0.2154
   60TCq2    C8  920   3.448   2.632  12.528 -1.5414 -0.0087  0.6143
   60TCq2    O4  921   3.568   2.646  12.556 -0.0353  0.4532 -0.3681
   60TCq2    C9  922   3.128   2.272  12.507 -0.3258  0.0073 -0.4272
   60TCq2    O5  923   3.119   2.157  12.553 -0.2627  0.2001 -0.0924
   60TCq2    O6  924   3.046   2.338  12.438  0.6169  0.6023  0.1944
   60TCq2    H2  925   3.211   2.225  12.746  1.2818 -0.6313  0.3318
   60TCq2    H3  926   3.244   2.490  12.414 -0.4113  1.0318 -0.4199
   60TCq2    H4  927   3.536   2.492  12.728 -1.0277  2.2597  0.1613
   61MPD2     C  928   2.641   3.460  13.918  0.0430 -0.0526 -0.6018
   61MPD2    C1  929   2.685   3.537  14.019 -0.1300  0.2727 -0.0043
   61MPD2    C2  930   2.746   3.658  13.996 -0.3594  0.1336  0.2356
   61MPD2    C3  931   2.769   3.700  13.871 -0.2459  0.2637  0.4744
   61MPD2    C4  932   2.733   3.623  13.760  0.2839  0.1323  0.2830
   61MPD2    C5  933   2.677   3.499  13.793  0.3073  0.1007 -0.0676
   61MPD2     H  934   2.772   3.719  14.081  0.1441  1.5470 -0.9381
   61MPD2    H1  935   2.754   3.647  13.656 -3.3140 -0.8263 -0.6680
   61MPD2    H2  936   2.610   3.357  13.927 -1.1532  0.4012  0.4157
   61MPD2    H3  937   2.658   3.434  13.708 -2.0978 -0.0401  0.5659
   61MPD2     N  938   2.839   3.826  13.847 -0.2453 -0.3474  0.2713
   61MPD2    H5  939   2.851   3.861  13.753 -1.0137 -0.9482 -0.0449
   61MPD2    N1  940   2.653   3.510  14.155 -0.1153 -0.5233 -0.1008
   61MPD2    H7  941   2.678   3.582  14.221 -2.7507  0.2631  0.0398
   62TCq2    C1  942   2.582   3.407  14.211  0.2983  0.3394  0.3523
   62TCq2    O2  943   2.539   3.310  14.154 -0.0449 -0.6017 -0.0544
   62TCq2    C2  944   2.534   3.440  14.344 -0.7211  0.0863 -0.1726
   62TCq2    C3  945   2.574   3.353  14.444 -0.2317 -0.3603 -0.1390
   62TCq2    C4  946   2.596   3.402  14.570  1.0064 -0.2637 -0.1621
   62TCq2    C5  947   2.599   3.537  14.601  0.0730  0.4396  0.4772
   62TCq2    C6  948   2.564   3.623  14.498 -0.4529 -0.1780  0.1990
   62TCq2    C7  949   2.522   3.577  14.372  0.4276  0.3752  0.4626
   62TCq2    C8  950   2.591   3.768  14.502 -0.0853 -0.4371 -0.0470
   62TCq2    O4  951   2.558   3.829  14.400  0.2820  0.2349 -0.4483
   62TCq2    C9  952   2.626   3.298  14.669 -0.8778  0.0900 -0.2678
   62TCq2    O5  953   2.643   3.344  14.785  0.0812  0.1474  0.4781
   62TCq2    O6  954   2.586   3.180  14.645  0.6531  0.3690 -0.9528
   62TCq2    H2  955   2.582   3.247  14.421  0.2611 -0.2519 -0.4554
   62TCq2    H3  956   2.624   3.581  14.697 -1.6231  2.2190  0.1193
   62TCq2    H4  957   2.487   3.638  14.290 -1.4731 -2.2060 -0.6359
   63TMC2    C1  958   2.179   3.899  10.527 -0.4793  0.0635  0.0422
   63TMC2    C2  959   2.249   3.906  10.641  0.2951  0.0016  0.3834
   63TMC2    C3  960   2.354   3.989  10.651 -0.0556 -0.1414 -0.4921
   63TMC2    C4  961   2.209   3.983  10.417 -0.7245 -0.3212  0.4535
   63TMC2    C5  962   2.316   4.068  10.435 -0.2756 -0.4057  0.8830
   63TMC2    C6  963   2.390   4.072  10.552  0.2600 -0.0780 -0.0422
   63TMC2     C  964   2.101   3.780  10.513 -0.3538 -0.7556 -0.2507
   63TMC2     O  965   2.133   3.684  10.587  0.2032  0.0308  0.3693
   63TMC2     H  966   2.219   3.842  10.723 -2.4347  0.9035  0.0947
   63TMC2    H1  967   2.145   3.982  10.329 -1.1621  0.9699  0.7652
   63TMC2    H2  968   2.477   4.137  10.560  0.6085 -0.7881  1.9768
   63TMC2    C7  969   2.361   4.130  10.311  0.0989 -0.0339 -0.5608
   63TMC2    C8  970   2.438   3.978  10.767  0.0519  0.3154  0.1827
   63TMC2    O1  971   2.299   4.117  10.210  0.0735 -0.2031 -0.0897
   63TMC2    O2  972   2.557   4.001  10.754 -0.3949  0.1272  0.2686
   63TMC2    O5  973   2.366   3.958  10.874  0.2661  0.1977  0.1001
   63TMC2    H5  974   2.270   3.970  10.861  0.6373  2.3622 -0.6390
   64MPD2     C  975   1.913   3.450  10.169 -0.1052  0.8682 -0.0639
   64MPD2    C1  976   2.005   3.437  10.271 -0.4107  0.1269  0.3281
   64MPD2    C2  977   2.045   3.551  10.341 -0.1117 -0.8489  0.0676
   64MPD2    C3  978   1.995   3.678  10.322  0.2544 -0.0904  0.9851
   64MPD2    C4  979   1.909   3.690  10.212 -0.2323  0.0811  0.0596
   64MPD2    C5  980   1.870   3.581  10.144  0.6755  0.3815 -0.4205
   64MPD2     H  981   2.108   3.528  10.427 -0.0153  0.1127  0.2541
   64MPD2    H1  982   1.868   3.780  10.168 -0.9317  0.1613  0.8865
   64MPD2    H2  983   1.858   3.372  10.118  0.7951  0.0333  0.2429
   64MPD2    H3  984   1.801   3.601  10.063  2.0102  0.8060 -1.4551
   64MPD2     N  985   2.029   3.786  10.399  0.2108  0.0771 -0.4375
   64MPD2    H5  986   1.985   3.875  10.383 -1.2339 -1.2418 -3.9031
   64MPD2    N1  987   2.071   3.324  10.309 -0.7504  0.1053  0.3572
   64MPD2    H7  988   2.138   3.332  10.385  1.3881  0.2107 -1.5223
   65MPD2     C  989   2.741   3.321  15.657  0.1877  0.3173 -0.5101
   65MPD2    C1  990   2.840   3.306  15.558 -0.3180 -0.1774 -0.5538
   65MPD2    C2  991   2.908   3.187  15.546  0.4392 -0.3933 -0.0363
   65MPD2    C3  992   2.882   3.080  15.639  0.0811  0.5096 -0.3059
   65MPD2    C4  993   2.780   3.100  15.737 -0.3009 -0.2293 -0.1773
   65MPD2    C5  994   2.706   3.213  15.739  0.1072 -0.7359  0.7839
   65MPD2     H  995   2.986   3.168  15.474  0.2042  1.0204 -0.6551
   65MPD2    H1  996   2.762   3.022  15.810  1.6253 -0.8398 -0.3405
   65MPD2    H2  997   2.691   3.416  15.667 -1.1853 -0.2990 -1.5833
   65MPD2    H3  998   2.635   3.234  15.818  0.6394 -0.0338  1.0818
   65MPD2     N  999   2.939   2.952  15.634 -0.4838  0.3781 -0.0560
   65MPD2    H5 1000   2.920   2.886  15.709  2.3838 -1.1145 -0.6721
   65MPD2    N1 1001   2.889   3.403  15.472  0.3770 -0.0167  0.8010
   65MPD2    H7 1002   2.960   3.370  15.408 -0.1360  3.7138 -1.6646
   66TCq2    C1 1003   2.861   3.533  15.470  0.4703 -0.7479  0.5094
   66TCq2    O2 1004   2.804   3.601  15.556  0.2194  0.4796  0.1043
   66TCq2    C2 1005   2.919   3.604  15.355 -0.2609  0.3624  0.8669
   66TCq2    C3 1006   2.970   3.523  15.256 -0.7557 -0.1637 -0.5170
   66TCq2    C4 1007   2.987   3.580  15.133 -0.4670 -0.8193 -0.2993
   66TCq2    C5 1008   2.983   3.718  15.114 -0.0250 -0.2069  0.3597
   66TCq2    C6 1009   2.944   3.793  15.219 -0.3552 -0.0447 -0.0578
   66TCq2    C7 1010   2.916   3.744  15.346 -0.4149  0.3460  0.6136
   66TCq2    C8 1011   2.916   3.935  15.189 -0.4967  0.3647  0.0586
   66TCq2    O4 1012   2.941   3.980  15.077  0.2234 -0.1940  0.0220
   66TCq2    C9 1013   3.033   3.502  15.020  0.0072 -0.4364 -0.4372
   66TCq2    O5 1014   3.016   3.562  14.910 -0.2856  0.1044 -0.6215
   66TCq2    O6 1015   3.064   3.382  15.034  0.1705  0.0781 -0.0430
   66TCq2    H2 1016   2.990   3.416  15.263 -1.3421 -0.3058 -1.0833
   66TCq2    H3 1017   3.025   3.761  15.024 -0.9252 -0.9822 -0.4386
   66TCq2    H4 1018   2.855   3.798  15.417 -1.7644  0.2841 -0.4896
   67MPD2     C 1019   3.000   2.461  14.000 -0.9173 -0.5783  0.3066
   67MPD2    C1 1020   2.934   2.567  14.060  0.1917 -0.1927 -0.2363
   67MPD2    C2 1021   2.815   2.616  14.012 -0.5512 -0.1764 -0.0510
   67MPD2    C3 1022   2.769   2.575  13.888  0.6352 -0.0856 -0.5437
   67MPD2    C4 1023   2.843   2.478  13.826 -0.0013 -0.4374  0.1751
   67MPD2    C5 1024   2.954   2.414  13.879  1.4492 -0.1432  0.2328
   67MPD2     H 1025   2.755   2.682  14.074  2.2928  1.7107  0.6921
   67MPD2    H1 1026   2.812   2.440  13.729  2.2554 -0.4530 -0.5344
   67MPD2    H2 1027   3.078   2.404  14.049  1.0286  1.0634 -0.8828
   67MPD2    H3 1028   2.997   2.335  13.819 -0.5250 -0.5225 -0.6747
   67MPD2     N 1029   2.650   2.617  13.825 -0.5372 -0.1969  0.1406
   67MPD2    H5 1030   2.632   2.578  13.733  1.5934  1.6255 -1.0382
   67MPD2    N1 1031   2.989   2.629  14.175  0.2104  0.4860  0.4559
   67MPD2    H7 1032   2.931   2.700  14.218 -0.1381 -0.7646  2.0883
   68TCq2    C1 1033   3.100   2.592  14.245 -0.3913  0.0695  0.7851
   68TCq2    O2 1034   3.173   2.495  14.241 -0.1461  0.1050  0.7032
   68TCq2    C2 1035   3.141   2.695  14.338  0.1739 -0.4460  0.1537
   68TCq2    C3 1036   3.104   2.823  14.327  0.1605 -0.0796  0.3241
   68TCq2    C4 1037   3.132   2.908  14.431 -0.3277  0.3582  0.0186
   68TCq2    C5 1038   3.203   2.865  14.537  0.1550 -0.2871 -0.1170
   68TCq2    C6 1039   3.242   2.735  14.538 -0.1577 -1.2385  0.4290
   68TCq2    C7 1040   3.207   2.649  14.444  0.2047 -0.2011 -0.2467
   68TCq2    C8 1041   3.322   2.687  14.657  0.5349 -0.0111 -0.4678
   68TCq2    O4 1042   3.374   2.575  14.661  0.1595 -0.1973  0.1420
   68TCq2    C9 1043   3.106   3.045  14.429  0.4816 -0.5804  0.4376
   68TCq2    O5 1044   3.096   3.099  14.319  0.1001 -0.1582  0.3304
   68TCq2    O6 1045   3.070   3.102  14.533 -0.2530  0.3897  0.4864
   68TCq2    H2 1046   3.058   2.856  14.235  2.3420  1.6835 -0.1333
   68TCq2    H3 1047   3.247   2.934  14.608  0.8409  0.0309 -0.8596
   68TCq2    H4 1048   3.252   2.551  14.446  1.1871  0.2596  0.6815
   69TMC2    C1 1049   0.895   4.150  12.361  0.1621 -0.5528  0.2277
   69TMC2    C2 1050   0.778   4.123  12.294 -0.1032 -0.6020 -0.1233
   69TMC2    C3 1051   0.796   4.102  12.165 -0.0154  0.4359 -0.1125
   69TMC2    C4 1052   1.019   4.140  12.308 -0.0824 -0.0853 -0.1686
   69TMC2    C5 1053   1.028   4.113  12.179 -0.6428  0.6389  0.1288
   69TMC2    C6 1054   0.917   4.088  12.104 -0.1863  0.5014 -0.6887
   69TMC2     C 1055   0.880   4.142  12.503  0.0211 -0.0018  1.3594
   69TMC2     O 1056   0.776   4.110  12.563  0.4748 -0.3624  0.8869
   69TMC2     H 1057   0.691   4.090  12.350 -1.2383  1.6950 -0.5330
   69TMC2    H1 1058   1.110   4.154  12.365 -1.0562  1.7912  0.9173
   69TMC2    H2 1059   0.921   4.069  11.997 -1.8075  1.2457 -0.8715
   69TMC2    C7 1060   1.154   4.107  12.106  0.0679 -0.4593 -0.0388
   69TMC2    C8 1061   0.695   4.022  12.100  0.0893  0.1631  0.4746
   69TMC2    O1 1062   1.251   4.074  12.174  0.2969  0.0033 -0.1968
   69TMC2    O2 1063   0.732   3.914  12.052  0.4716  0.3382  0.0250
   69TMC2    O5 1064   0.575   4.058  12.130  0.2547  0.0080  0.4482
   69TMC2    H5 1065   0.571   4.150  12.162 -0.9682 -0.4557  1.6500
   70MPD2     C 1066   1.144   4.254  12.727  0.0451  0.3496 -0.5899
   70MPD2    C1 1067   1.035   4.179  12.691  0.8697  0.4097  0.6956
   70MPD2    C2 1068   0.985   4.071  12.760  0.5010  0.8489 -0.6192
   70MPD2    C3 1069   1.050   4.043  12.879 -0.3705  0.3641 -0.2853
   70MPD2    C4 1070   1.150   4.124  12.921  0.4511 -0.2518  1.1891
   70MPD2    C5 1071   1.201   4.226  12.847 -0.5602  0.6702 -1.5746
   70MPD2     H 1072   0.899   4.013  12.728 -1.8158  2.0855  3.3587
   70MPD2    H1 1073   1.203   4.110  13.015  3.5270  0.2202 -0.4461
   70MPD2    H2 1074   1.186   4.336  12.670  1.1768 -0.6114 -1.1326
   70MPD2    H3 1075   1.294   4.276  12.875 -0.4148  0.6790 -2.0730
   70MPD2     N 1076   1.014   3.931  12.959 -0.8873 -0.3317 -0.9552
   70MPD2    H5 1077   1.075   3.909  13.038 -1.2472 -0.0175 -0.5866
   70MPD2    N1 1078   0.986   4.210  12.561 -0.0774  0.2875  0.4159
   70MPD2    H7 1079   1.033   4.273  12.496  0.5455  0.7559  1.3199
   71TMC2    C1 1080   2.370   0.148   1.790  0.3352 -0.3027 -0.5518
   71TMC2    C2 1081   2.471   0.132   1.884  0.6352  0.3201 -0.1391
   71TMC2    C3 1082   2.459   0.203   2.007  0.3404  0.4578  0.0741
   71TMC2    C4 1083   2.274   0.244   1.799 -0.8088 -0.2850 -0.5597
   71TMC2    C5 1084   2.266   0.311   1.918 -0.2975  0.0676  0.5361
   71TMC2    C6 1085   2.356   0.291   2.015  0.0526 -0.3893 -0.0568
   71TMC2     C 1086   2.361   0.036   1.702  0.1085 -0.2944  0.3369
   71TMC2     O 1087   2.425   4.652   1.728 -0.6586 -0.0579  0.0430
   71TMC2     H 1088   2.532   0.042   1.876 -0.0536 -0.2972  1.4523
   71TMC2    H1 1089   2.218   0.285   1.716 -0.8230  1.5086  0.3393
   71TMC2    H2 1090   2.344   0.337   2.113 -0.2542  1.2522 -0.8688
   71TMC2    C7 1091   2.177   0.426   1.930  0.5510 -0.7448 -0.2852
   71TMC2    C8 1092   2.573   0.223   2.090  0.2839  0.2739 -0.8119
   71TMC2    O1 1093   2.202   0.481   2.036  0.2668  0.7508 -0.4342
   71TMC2    O2 1094   2.552   0.277   2.195 -0.9094  0.6275 -0.1759
   71TMC2    O5 1095   2.697   0.163   2.041 -0.8122 -0.1516 -0.5336
   71TMC2    H5 1096   2.693   0.126   1.950  0.2389  1.2120 -1.1257
   72MPD2     C 1097   2.210   4.504   1.276  0.7178 -0.7247  0.5445
   72MPD2    C1 1098   2.191   4.642   1.254  0.2723  0.3581  0.1262
   72MPD2    C2 1099   2.207   0.013   1.358  0.0465  0.2649 -0.0247
   72MPD2    C3 1100   2.247   4.682   1.486 -0.4018 -0.6249  0.0187
   72MPD2    C4 1101   2.265   4.547   1.507  0.3836  0.2953  0.8947
   72MPD2    C5 1102   2.240   4.466   1.400 -0.1906  0.1885  0.8622
   72MPD2     H 1103   2.200   0.119   1.338 -0.3289  0.2917  0.2569
   72MPD2    H1 1104   2.312   4.507   1.597  0.6742  0.0820  0.6458
   72MPD2    H2 1105   2.201   4.425   1.202  1.9422 -0.7366  0.4061
   72MPD2    H3 1106   2.255   4.359   1.411  0.5196 -0.0989 -3.1518
   72MPD2     N 1107   2.281   0.056   1.589  0.4610  0.4691  0.8585
   72MPD2    H5 1108   2.253   0.152   1.571  1.0144  0.5645  0.5112
   72MPD2    N1 1109   2.186   4.700   1.132 -1.0464 -0.2029  0.5344
   72MPD2    H7 1110   2.200   0.081   1.124 -2.1461 -0.1825 -1.1523
   73TMC2    C1 1111   2.291   1.505  14.256 -0.0538 -0.3540 -0.0511
   73TMC2    C2 1112   2.199   1.599  14.270  0.4191 -0.4461  0.2532
   73TMC2    C3 1113   2.233   1.702  14.352 -0.0857  0.7168 -0.0797
   73TMC2    C4 1114   2.409   1.488  14.328  0.4387  0.3949 -0.2680
   73TMC2    C5 1115   2.438   1.593  14.411 -0.5430  0.1266 -0.3450
   73TMC2    C6 1116   2.354   1.699  14.424 -0.1087  0.1060  0.5974
   73TMC2     C 1117   2.320   1.469  14.114  0.3037  0.4003 -0.1017
   73TMC2     O 1118   2.437   1.449  14.095 -0.5063  0.0747  0.0944
   73TMC2     H 1119   2.129   1.605  14.187  1.3931 -0.4022 -0.5790
   73TMC2    H1 1120   2.481   1.408  14.317  0.8469  0.2261  3.3963
   73TMC2    H2 1121   2.385   1.789  14.477  0.3878  0.4752 -0.3203
   73TMC2    C7 1122   2.571   1.643  14.384 -0.4108  0.7379  0.4687
   73TMC2    C8 1123   2.137   1.806  14.373  0.0893  0.1725 -0.3641
   73TMC2    O1 1124   2.609   1.734  14.454 -0.4142 -1.0317 -0.1434
   73TMC2    O2 1125   2.017   1.784  14.382  0.2315  0.5986 -0.0530
   73TMC2    O5 1126   2.192   1.904  14.441 -0.1342 -0.5495 -0.0932
   73TMC2    H5 1127   2.290   1.911  14.435 -0.3084  2.0519 -0.2647
   74MPD2     C 1128   2.248   1.342  13.639  0.1717 -0.2738  0.8284
   74MPD2    C1 1129   2.348   1.405  13.699  0.2909 -0.2040 -1.2922
   74MPD2    C2 1130   2.330   1.431  13.833  0.0966 -0.2528  0.0854
   74MPD2    C3 1131   2.214   1.395  13.906 -0.3021 -0.8032  0.5550
   74MPD2    C4 1132   2.114   1.338  13.840  0.6394  0.4817 -0.6178
   74MPD2    C5 1133   2.130   1.319  13.704  0.0298  0.3388 -0.2226
   74MPD2     H 1134   2.401   1.505  13.869 -1.3279  0.9779  0.4133
   74MPD2    H1 1135   2.021   1.309  13.888  2.7199  0.6504  3.5378
   74MPD2    H2 1136   2.247   1.326  13.532 -1.6569  0.4371  0.7459
   74MPD2    H3 1137   2.046   1.285  13.644 -0.0885  2.0500 -1.0263
   74MPD2     N 1138   2.205   1.429  14.044 -0.2850  0.4680 -0.3808
   74MPD2    H5 1139   2.114   1.435  14.090 -0.1172  0.8796 -0.1020
   74MPD2    N1 1140   2.464   1.429  13.625 -0.2600  0.6200 -0.0253
   74MPD2    H7 1141   2.462   1.416  13.525  0.6786 -0.1773  0.0662
   75TCq2    C1 1142   2.548   2.688  13.890 -0.3846  0.4708  0.5691
   75TCq2    O2 1143   2.537   2.714  14.007 -0.1612  0.7600 -0.1075
   75TCq2    C2 1144   2.425   2.712  13.801  0.3619 -0.0978  0.1836
   75TCq2    C3 1145   2.315   2.764  13.870 -0.5108 -0.5524  0.3044
   75TCq2    C4 1146   2.224   2.836  13.796 -0.1606  0.3082  0.9781
   75TCq2    C5 1147   2.235   2.849  13.662  0.1732  0.0677 -0.2182
   75TCq2    C6 1148   2.341   2.793  13.601  0.3664 -0.7823 -0.3628
   75TCq2    C7 1149   2.443   2.728  13.668 -0.2922 -0.0011 -0.9950
   75TCq2    C8 1150   2.369   2.845  13.467  0.2753  0.7129  0.1534
   75TCq2    O4 1151   2.458   2.791  13.406  0.4625  0.2073  0.3211
   75TCq2    C9 1152   2.108   2.887  13.868  0.2869 -0.1354  0.1127
   75TCq2    O5 1153   2.072   2.838  13.980  0.3088 -0.1524 -0.2424
   75TCq2    O6 1154   2.032   2.961  13.801 -0.0999 -0.1596 -0.8746
   75TCq2    H2 1155   2.299   2.760  13.978 -0.2004 -0.2148  0.3620
   75TCq2    H3 1156   2.149   2.879  13.603  0.0874 -0.2777 -0.2701
   75TCq2    H4 1157   2.533   2.696  13.617  0.1602 -0.0181 -0.1791
   76MPD2     C 1158   2.210   3.543  11.952  0.3969 -0.0880 -0.6700
   76MPD2    C1 1159   2.114   3.550  11.854 -0.1245  1.2745 -1.4537
   76MPD2    C2 1160   2.077   3.430  11.791  0.0945  0.1407 -0.4377
   76MPD2    C3 1161   2.138   3.307  11.824 -0.3479 -0.0420  0.5907
   76MPD2    C4 1162   2.254   3.311  11.912 -0.2306  0.9154  0.9498
   76MPD2    C5 1163   2.286   3.429  11.979  0.2643  0.1023  0.1947
   76MPD2     H 1164   1.995   3.435  11.720 -1.6196  0.0282  1.5162
   76MPD2    H1 1165   2.310   3.222  11.940 -0.3454  0.7516  0.6487
   76MPD2    H2 1166   2.246   3.635  11.997  1.5622 -1.5015  1.2737
   76MPD2    H3 1167   2.359   3.433  12.059  0.6499 -2.6521 -0.0191
   76MPD2     N 1168   2.097   3.178  11.780  0.0369  0.1451  0.0534
   76MPD2    H5 1169   2.142   3.093  11.813 -0.9566  0.1328  1.3782
   76MPD2    N1 1170   2.042   3.671  11.829  0.7436  0.7899  0.1080
   76MPD2    H7 1171   1.970   3.663  11.758  1.2820 -0.3135 -0.3072
   77TCq2    C1 1172   1.990   3.159  11.693  0.0567  0.4542 -0.2648
   77TCq2    O2 1173   1.915   3.240  11.635 -0.2504  0.1653  0.3403
   77TCq2    C2 1174   1.955   3.017  11.668  0.2654 -0.0733  1.0399
   77TCq2    C3 1175   1.865   2.990  11.567  0.3416  0.2978  0.3370
   77TCq2    C4 1176   1.804   2.864  11.565  0.0842 -0.1851  0.0569
   77TCq2    C5 1177   1.830   2.778  11.665 -0.1608  0.0773 -0.6065
   77TCq2    C6 1178   1.927   2.807  11.762  0.0605 -0.5089 -0.3386
   77TCq2    C7 1179   1.987   2.925  11.773 -0.0585  0.2808  0.0931
   77TCq2    C8 1180   1.983   2.701  11.840 -0.4760  0.0174 -0.0101
   77TCq2    O4 1181   1.908   2.605  11.842  0.6108  0.4542 -0.5420
   77TCq2    C9 1182   1.705   2.835  11.461  0.3911  0.0021 -0.1381
   77TCq2    O5 1183   1.627   2.735  11.479 -0.1862 -0.1472 -0.1586
   77TCq2    O6 1184   1.705   2.893  11.352  0.3873 -0.0722 -0.3199
   77TCq2    H2 1185   1.830   3.071  11.504  1.2253 -0.2122 -0.7896
   77TCq2    H3 1186   1.795   2.677  11.654  0.2995 -0.3291  1.7189
   77TCq2    H4 1187   2.034   2.950  11.868  0.1844 -0.6584  0.2216
   78MPD1     C 1188   4.126   2.928   1.714 -0.1384 -0.5744  0.7086
   78MPD1    C1 1189   4.242   2.954   1.638  0.0975 -0.0427 -0.5007
   78MPD1    C2 1190   4.329   3.060   1.672  0.1092 -0.6438 -0.4287
   78MPD1    C3 1191   4.292   3.143   1.777  0.0365 -0.0870  0.8418
   78MPD1    C4 1192   4.170   3.137   1.828  0.2591 -0.3896  0.0115
   78MPD1    C5 1193   4.096   3.028   1.804 -0.2172  0.0944 -0.3834
   78MPD1     H 1194   4.425   3.069   1.622 -1.1306  1.7504 -2.3920
   78MPD1    H1 1195   4.128   3.205   1.902 -2.3605 -0.8567 -1.0441
   78MPD1    H2 1196   4.048   2.857   1.693 -0.0973 -0.3099 -0.3532
   78MPD1    H3 1197   3.998   3.024   1.851 -0.4795  3.2302 -0.6492
   78MPD1     N 1198   4.376   3.247   1.831 -0.4735 -0.4375  0.6074
   78MPD1    H5 1199   4.341   3.303   1.908 -0.6489 -2.2460  1.8267
   78MPD1    N1 1200   4.270   2.861   1.540 -0.2435 -0.3252 -0.1405
   78MPD1    H6 1201   4.191   2.841   1.479 -0.3561  1.6077 -0.6168
   78MPD1    H7 1202   4.353   2.884   1.486 -0.5222 -0.1139 -0.4745
   79TCq2    C1 1203   4.497   3.281   1.789  0.3888 -0.3840 -0.3311
   79TCq2    O2 1204   4.574   3.211   1.727  0.6259  0.2455  0.5517
   79TCq2    C2 1205   4.553   3.388   1.861  0.4248  0.2217 -0.0469
   79TCq2    C3 1206   4.687   3.388   1.893  0.0757 -0.3368  0.4736
   79TCq2    C4 1207   0.024   3.482   1.977  0.3920 -0.3263 -0.3653
   79TCq2    C5 1208   4.661   3.573   2.038  0.7536 -0.5985  0.3027
   79TCq2    C6 1209   4.527   3.572   2.001  0.4187  0.1538  0.3119
   79TCq2    C7 1210   4.470   3.475   1.921 -0.2567  1.1449  0.6101
   79TCq2    C8 1211   4.448   3.691   2.048 -0.2988 -0.5320 -0.0664
   79TCq2    O4 1212   4.501   3.798   2.066 -0.0043  0.0447  0.9995
   79TCq2    C9 1213   0.162   3.472   2.003 -0.3582  0.7437 -0.5707
   79TCq2    O5 1214   0.224   3.375   1.962 -0.1088  0.0426  0.5505
   79TCq2    O6 1215   0.222   3.564   2.068  0.5490  0.1597  0.3165
   79TCq2    H2 1216   0.038   3.316   1.855  0.8014  1.6430 -1.9252
   79TCq2    H3 1217   4.694   3.647   2.110 -0.6520  0.2793  0.0368
   79TCq2    H4 1218   4.366   3.477   1.888 -1.2412  1.6270  3.7291
   80MPD2     C 1219   1.503   3.379  12.084 -0.1686  0.9635 -0.0332
   80MPD2    C1 1220   1.368   3.364  12.077 -0.4426 -0.1201  0.6030
   80MPD2    C2 1221   1.288   3.375  12.187 -0.4445 -1.0350  0.3982
   80MPD2    C3 1222   1.349   3.401  12.313 -0.2796 -0.0861  0.2533
   80MPD2    C4 1223   1.487   3.387  12.321  0.8045  0.0896  0.7198
   80MPD2    C5 1224   1.567   3.387  12.206  0.4864 -0.6351 -0.9644
   80MPD2     H 1225   1.180   3.367  12.179 -0.5154  0.7432 -0.4423
   80MPD2    H1 1226   1.535   3.392  12.418  1.5873 -1.3221  0.4044
   80MPD2    H2 1227   1.569   3.364  11.999  1.4674 -0.0159  1.4329
   80MPD2    H3 1228   1.674   3.368  12.213  0.3685 -0.4233  1.1453
   80MPD2     N 1229   1.280   3.428  12.427 -0.0987 -0.2113  0.2109
   80MPD2    H5 1230   1.341   3.455  12.504 -1.7873  0.6991  1.2227
   80MPD2    N1 1231   1.309   3.367  11.952 -0.0854 -0.3857 -0.0696
   80MPD2    H7 1232   1.209   3.354  11.953 -0.2221  0.8807  2.4384
   81TCq2    C1 1233   1.368   3.385  11.831 -0.1508  0.4403  0.6443
   81TCq2    O2 1234   1.476   3.428  11.795  0.0896  0.4963  0.0866
   81TCq2    C2 1235   1.271   3.361  11.726  0.1119 -0.2374 -0.1554
   81TCq2    C3 1236   1.318   3.407  11.605 -0.3432  0.2525 -0.1032
   81TCq2    C4 1237   1.255   3.364  11.493 -0.1299  0.3096  0.0221
   81TCq2    C5 1238   1.141   3.296  11.501 -0.5637  1.0212 -0.1862
   81TCq2    C6 1239   1.078   3.275  11.624  0.3659  0.3731  0.3268
   81TCq2    C7 1240   1.152   3.294  11.742 -0.5769  0.0385 -0.0239
   81TCq2    C8 1241   0.953   3.197  11.614 -0.1737  0.0879  0.3511
   81TCq2    O4 1242   0.899   3.182  11.503  0.0052  0.3786  0.0358
   81TCq2    C9 1243   1.316   3.400  11.362 -0.2604  0.6302 -0.0246
   81TCq2    O5 1244   1.270   3.341  11.258 -0.1683 -0.4333  0.4214
   81TCq2    O6 1245   1.431   3.454  11.362  0.6229 -0.6714 -0.3939
   81TCq2    H2 1246   1.412   3.459  11.594 -0.5133  0.9524  1.7070
   81TCq2    H3 1247   1.095   3.270  11.407  0.1651 -0.3637 -0.1631
   81TCq2    H4 1248   1.109   3.257  11.834 -1.7335 -2.0859 -1.4412
   82MPD2     C 1249   3.833   2.492  10.513  0.5999 -0.0291 -0.6161
   82MPD2    C1 1250   3.748   2.386  10.538 -0.2195  0.3345  0.5417
   82MPD2    C2 1251   3.791   2.286  10.615  0.2646 -0.1657 -0.0837
   82MPD2    C3 1252   3.925   2.274  10.656 -0.3430 -0.2640  0.7183
   82MPD2    C4 1253   4.008   2.380  10.629  0.3917 -0.2873  0.2785
   82MPD2    C5 1254   3.962   2.486  10.555  0.3534  0.8311 -0.0001
   82MPD2     H 1255   3.721   2.205  10.634 -1.1311  0.6303 -1.8361
   82MPD2    H1 1256   4.109   2.371  10.667 -0.9119 -1.2028  3.5109
   82MPD2    H2 1257   3.803   2.579  10.455 -1.2089 -1.3078 -1.5778
   82MPD2    H3 1258   4.027   2.567  10.526  1.1824 -0.3678 -1.4797
   82MPD2     N 1259   3.972   2.170  10.733  0.1553  0.2268 -0.0278
   82MPD2    H5 1260   4.059   2.192  10.780  0.0993  0.0158  0.1728
   82MPD2    N1 1261   3.618   2.405  10.492  0.0430 -0.2569  0.1841
   82MPD2    H7 1262   3.597   2.482  10.429  2.5862 -0.3838 -0.7796
   83TCq2    C1 1263   3.907   2.058  10.774 -0.0425  0.3753 -0.1115
   83TCq2    O2 1264   3.807   2.002  10.725  0.0305  0.3402 -0.3855
   83TCq2    C2 1265   3.959   2.007  10.903  0.2119 -0.6554 -0.1380
   83TCq2    C3 1266   4.023   2.095  10.983 -0.3250 -0.3605 -0.4264
   83TCq2    C4 1267   4.040   2.057  11.115  0.4052 -0.5335 -0.5679
   83TCq2    C5 1268   3.991   1.943  11.159 -0.4838 -0.4867  0.2278
   83TCq2    C6 1269   3.931   1.856  11.077  0.1598  0.7070 -0.4938
   83TCq2    C7 1270   3.917   1.888  10.944  0.0917  0.1536  0.1538
   83TCq2    C8 1271   3.844   1.750  11.142 -0.5720  0.2576 -0.3627
   83TCq2    O4 1272   3.815   1.773  11.259  0.6808  0.1902  0.3561
   83TCq2    C9 1273   4.102   2.145  11.215 -0.2906  0.0438 -0.3010
   83TCq2    O5 1274   4.059   2.128  11.330  0.2307 -0.0410 -0.1933
   83TCq2    O6 1275   4.168   2.246  11.181  0.0590 -0.4161  0.4292
   83TCq2    H2 1276   4.055   2.191  10.946  1.6220 -0.5812  0.6706
   83TCq2    H3 1277   4.014   1.924  11.263 -0.2137  0.3465  0.3143
   83TCq2    H4 1278   3.875   1.824  10.868  0.5292  1.2143 -0.9819
   84TCq2    C1 1279   0.351   1.685  10.417  0.2808 -0.4154  0.3403
   84TCq2    O2 1280   0.270   1.759  10.363  0.6005  0.3996  0.0827
   84TCq2    C2 1281   0.303   1.592  10.518 -0.9111  0.4505  0.0527
   84TCq2    C3 1282   0.381   1.498  10.576 -0.0185  0.5489  0.2520
   84TCq2    C4 1283   0.349   1.437  10.697  0.4836  0.2235 -0.1600
   84TCq2    C5 1284   0.234   1.466  10.761  0.1329  0.1915 -0.2045
   84TCq2    C6 1285   0.161   1.560  10.702  0.3306 -0.5418 -0.7828
   84TCq2    C7 1286   0.187   1.620  10.582  0.6940  0.4574 -0.4422
   84TCq2    C8 1287   0.048   1.618  10.782  0.4722  0.3329 -0.3129
   84TCq2    O4 1288   4.717   1.723  10.751 -0.3082 -0.1496  0.3244
   84TCq2    C9 1289   0.437   1.337  10.760 -0.6619  0.3358 -0.7616
   84TCq2    O5 1290   0.549   1.318  10.705  0.3680  0.0769 -0.3052
   84TCq2    O6 1291   0.388   1.284  10.863  0.6642  0.0343 -0.2174
   84TCq2    H2 1292   0.482   1.469  10.549 -0.7236 -0.5693 -1.2586
   84TCq2    H3 1293   0.218   1.428  10.862 -0.9013 -1.4755 -0.9957
   84TCq2    H4 1294   0.121   1.703  10.558 -0.1107 -0.4302 -1.3445
   85MPD2     C 1295   0.455   3.961  16.435 -0.4352 -0.6538 -0.4089
   85MPD2    C1 1296   0.361   3.929  16.330 -0.0047 -0.0021  0.1058
   85MPD2    C2 1297   0.344   4.025  16.233  0.5658  0.3088 -0.3031
   85MPD2    C3 1298   0.394   4.154  16.248 -0.2218  0.2315  0.2311
   85MPD2    C4 1299   0.469   4.192  16.355  0.0154  0.0931  0.0734
   85MPD2    C5 1300   0.502   4.092  16.446  0.2146 -0.7519 -0.0545
   85MPD2     H 1301   0.287   3.999  16.144 -0.9917  1.9301  0.2278
   85MPD2    H1 1302   0.500   4.294  16.373  1.3770 -0.6074  1.7117
   85MPD2    H2 1303   0.490   3.883  16.502  0.3846 -0.4256 -0.5803
   85MPD2    H3 1304   0.567   4.119  16.528 -0.6698 -1.6953  0.9504
   85MPD2     N 1305   0.350   4.252  16.156  0.4644 -1.0353 -0.1758
   85MPD2    H5 1306   0.305   4.211  16.075 -0.3929  0.7163 -0.5871
   85MPD2    N1 1307   0.300   3.799  16.314 -0.9005 -0.3560 -0.3027
   85MPD2    H7 1308   0.243   3.792  16.230 -0.7354  0.4180 -0.4816
   86TCq2    C1 1309   0.365   4.391  16.163  0.0523 -0.3825 -0.0129
   86TCq2    O2 1310   0.417   4.472  16.243  0.0639 -0.0975  0.0440
   86TCq2    C2 1311   0.318   4.447  16.036  0.5262 -0.7632  0.0011
   86TCq2    C3 1312   0.254   4.571  16.044 -1.1709 -0.7236  0.4208
   86TCq2    C4 1313   0.226   4.646  15.933 -0.8093  0.0097  0.0806
   86TCq2    C5 1314   0.276   4.604  15.812 -0.1673  0.5467  0.6754
   86TCq2    C6 1315   0.346   4.483  15.805  0.5463 -0.2846  0.6546
   86TCq2    C7 1316   0.366   4.402  15.916  0.0645 -0.6137 -0.7791
   86TCq2    C8 1317   0.431   4.461  15.691  0.1141 -0.0699  0.8402
   86TCq2    O4 1318   0.527   4.387  15.710  0.0225  0.4337  0.4288
   86TCq2    C9 1319   0.184   0.064  15.940 -0.4631  0.5381  0.3066
   86TCq2    O5 1320   0.160   0.111  16.058 -0.4855 -0.2047 -0.6576
   86TCq2    O6 1321   0.188   0.132  15.836 -0.6868  0.1245 -0.4298
   86TCq2    H2 1322   0.225   4.612  16.140  0.6909 -0.5328  0.9090
   86TCq2    H3 1323   0.261   4.658  15.719 -0.7518  0.3778  0.6689
   86TCq2    H4 1324   0.423   4.310  15.917  2.5435  0.9316 -0.4586
   87MPD2     C 1325   2.605   3.259   0.736 -0.4775  0.2324 -0.2445
   87MPD2    C1 1326   2.618   3.357   0.828 -0.7520 -0.1340 -0.0413
   87MPD2    C2 1327   2.513   3.446   0.843  0.6618  0.4037  0.0460
   87MPD2    C3 1328   2.403   3.441   0.755 -0.3761 -0.8559  0.7999
   87MPD2    C4 1329   2.400   3.341   0.657 -0.4636  0.2678  0.1532
   87MPD2    C5 1330   2.499   3.248   0.656 -0.2398 -0.2495 -0.1466
   87MPD2     H 1331   2.513   3.519   0.923 -0.2239 -2.1947  2.4300
   87MPD2    H1 1332   2.311   3.340   0.596  0.8763  1.5686 -1.8159
   87MPD2    H2 1333   2.681   3.185   0.718  2.5926  2.0872  5.0729
   87MPD2    H3 1334   2.493   3.175   0.576  0.2778 -0.9807  0.4731
   87MPD2     N 1335   2.297   3.538   0.746  0.0436 -0.0278  0.4890
   87MPD2    H5 1336   2.250   3.534   0.656  2.8164  3.0818 -1.1352
   87MPD2    N1 1337   2.732   3.357   0.909  0.0669  0.0208  0.3768
   87MPD2    H7 1338   2.806   3.288   0.904 -0.2982 -0.2962 -0.6837
   88TCq2    C1 1339   2.775   3.455   0.986 -0.6980  0.0879 -0.2338
   88TCq2    O2 1340   2.720   3.559   1.014  0.4350  0.0280  0.0311
   88TCq2    C2 1341   2.916   3.442   1.025  0.3493  1.3012  0.2549
   88TCq2    C3 1342   2.952   3.526   1.126  0.0664 -0.7201  0.0055
   88TCq2    C4 1343   3.077   3.516   1.178  0.0468 -0.3020 -0.7817
   88TCq2    C5 1344   3.167   3.426   1.125  0.3690  0.5420  0.5478
   88TCq2    C6 1345   3.128   3.348   1.026 -0.1653  0.3242  0.3170
   88TCq2    C7 1346   2.996   3.348   0.981 -0.2700 -0.3057 -0.6585
   88TCq2    C8 1347   3.234   3.259   0.977  0.6846 -0.2916  0.3715
   88TCq2    O4 1348   3.346   3.299   0.993 -0.0057  0.5924  0.0078
   88TCq2    C9 1349   3.117   3.600   1.289  0.0302  0.1814 -0.6431
   88TCq2    O5 1350   3.044   3.701   1.303 -0.4851  0.4427 -0.0212
   88TCq2    O6 1351   3.215   3.566   1.361  0.4154 -0.0200  0.2488
   88TCq2    H2 1352   2.884   3.586   1.186  0.6366 -0.2205  0.1504
   88TCq2    H3 1353   3.260   3.418   1.180  1.0518  1.1657 -0.5221
   88TCq2    H4 1354   2.966   3.274   0.909  0.6947 -1.5116  0.1766
   89MPD2     C 1355   3.469   0.434   1.968 -0.0333 -0.7031 -0.3416
   89MPD2    C1 1356   3.369   0.534   1.943  0.4068  0.1041 -0.0590
   89MPD2    C2 1357   3.385   0.605   1.829  0.0673  0.4539 -0.3862
   89MPD2    C3 1358   3.483   0.573   1.743 -0.8911 -0.4028 -0.2045
   89MPD2    C4 1359   3.578   0.474   1.770  0.4565 -0.1939  0.4716
   89MPD2    C5 1360   3.567   0.401   1.886 -0.7326  0.3564  0.1768
   89MPD2     H 1361   3.324   0.692   1.807 -1.5143 -0.5856 -0.1089
   89MPD2    H1 1362   3.641   0.442   1.688 -0.3195  1.6821 -0.8666
   89MPD2    H2 1363   3.463   0.376   2.059 -0.3771  0.6297  0.4938
   89MPD2    H3 1364   3.638   0.325   1.915 -0.0015 -0.1382 -2.8774
   89MPD2     N 1365   3.488   0.649   1.626  0.2732  0.0865 -0.1452
   89MPD2    H5 1366   3.406   0.701   1.596 -0.9761 -1.2197  1.0240
   89MPD2    N1 1367   3.258   0.568   2.028  0.2588  0.7156 -0.0306
   89MPD2    H7 1368   3.202   0.644   1.989 -1.1009 -0.5201 -0.4950
   90TCq2    C1 1369   3.566   0.635   1.518 -0.2851  0.2803  0.7636
   90TCq2    O2 1370   3.658   0.560   1.493 -0.8900  0.8185 -0.0562
   90TCq2    C2 1371   3.525   0.709   1.397 -0.1924  0.6459  0.3719
   90TCq2    C3 1372   3.424   0.800   1.406 -0.0539  0.7628 -0.3159
   90TCq2    C4 1373   3.395   0.874   1.294  0.2478 -1.1883  0.3970
   90TCq2    C5 1374   3.457   0.848   1.175  0.3163  0.4148  0.2750
   90TCq2    C6 1375   3.568   0.768   1.180  0.6973 -0.6987 -0.1022
   90TCq2    C7 1376   3.607   0.701   1.292  0.1092 -0.2411  0.1901
   90TCq2    C8 1377   3.670   0.789   1.084 -0.7931  0.3872  0.1405
   90TCq2    O4 1378   3.760   0.708   1.075  0.3274 -0.6740  0.9667
   90TCq2    C9 1379   3.302   0.978   1.309 -0.3547 -0.5287  0.3338
   90TCq2    O5 1380   3.266   1.047   1.212  0.2440 -0.0107 -0.2462
   90TCq2    O6 1381   3.303   1.020   1.431  0.1414 -0.2135  0.5954
   90TCq2    H2 1382   3.368   0.809   1.498  0.9420  1.3345  0.2331
   90TCq2    H3 1383   3.420   0.890   1.082  1.4624  2.0832  0.5814
   90TCq2    H4 1384   3.687   0.631   1.274 -1.1386 -1.3974 -0.8162
   91TMC2    C1 1385   0.642   0.244  16.141 -0.5555  0.3156  0.8682
   91TMC2    C2 1386   0.543   0.150  16.172  0.2333 -0.5051  0.3141
   91TMC2    C3 1387   0.410   0.192  16.190 -0.1404 -0.4475  0.3875
   91TMC2    C4 1388   0.614   0.377  16.137  0.5166  0.7668  0.4043
   91TMC2    C5 1389   0.477   0.410  16.140  0.2835 -0.1277 -0.7448
   91TMC2    C6 1390   0.377   0.323  16.160 -0.1111  0.3248 -0.3015
   91TMC2     C 1391   0.756   0.200  16.062 -0.3129 -0.3678  0.1834
   91TMC2     O 1392   0.756   0.088  16.022  0.3839 -0.1411  0.2123
   91TMC2     H 1393   0.574   0.047  16.187 -1.1060 -0.7304  1.4906
   91TMC2    H1 1394   0.684   0.454  16.107  0.7594 -0.7846 -3.0136
   91TMC2    H2 1395   0.277   0.362  16.176  0.1610  0.1964  1.7538
   91TMC2    C7 1396   0.455   0.550  16.135 -0.5194  0.2044  0.5817
   91TMC2    C8 1397   0.356   0.146  16.314  0.2070  0.0935 -0.2834
   91TMC2    O1 1398   0.552   0.617  16.162  0.5787 -0.1396  0.1575
   91TMC2    O2 1399   0.425   0.117  16.410 -0.2127 -0.1215 -0.2838
   91TMC2    O5 1400   0.228   0.110  16.300  0.1181 -1.0221 -0.4803
   91TMC2    H5 1401   0.207   0.116  16.205  1.1996 -0.3255 -0.6829
   92MPD2     C 1402   0.968   0.176  15.840  0.6772 -0.1338 -0.5351
   92MPD2    C1 1403   0.956   0.275  15.939 -0.3151 -0.3852  1.0911
   92MPD2    C2 1404   1.073   0.351  15.963  0.0989  0.3385 -0.3425
   92MPD2    C3 1405   1.191   0.345  15.877  0.1478  0.4568 -0.2852
   92MPD2    C4 1406   1.194   0.250  15.777  0.1308 -0.5223  0.3992
   92MPD2    C5 1407   1.085   0.171  15.765 -0.1107  0.0851  0.5168
   92MPD2     H 1408   1.076   0.419  16.047 -2.0691 -1.9838  1.5968
   92MPD2    H1 1409   1.288   0.225  15.727  1.2800  1.3845  1.6054
   92MPD2    H2 1410   0.887   0.106  15.825 -0.4881  2.2089 -5.2277
   92MPD2    H3 1411   1.092   0.098  15.686  0.7282  1.8016 -0.9950
   92MPD2     N 1412   1.287   0.445  15.906  0.1728  0.0058  0.1232
   92MPD2    H5 1413   1.265   0.510  15.982  0.1871  1.2253 -0.9077
   92MPD2    N1 1414   0.849   0.295  16.024 -0.7304  0.0892 -0.4751
   92MPD2    H7 1415   0.844   0.386  16.068  3.2559 -0.2941  0.8756
   93MPD2     C 1416   2.115   1.013  13.990 -0.1555 -0.1742 -0.4291
   93MPD2    C1 1417   2.140   0.975  13.859 -0.2082  0.3791 -0.0068
   93MPD2    C2 1418   2.042   0.913  13.781  0.0669 -0.4045  0.5049
   93MPD2    C3 1419   1.918   0.892  13.839 -0.0023  0.2476  0.1863
   93MPD2    C4 1420   1.901   0.934  13.971 -0.1684 -0.2252 -0.2730
   93MPD2    C5 1421   1.995   0.992  14.053 -0.6195 -0.6299  0.3111
   93MPD2     H 1422   2.054   0.884  13.678 -1.9789 -2.7815  0.9532
   93MPD2    H1 1423   1.811   0.921  14.029 -0.2292  1.7254  0.0607
   93MPD2    H2 1424   2.185   1.080  14.038  1.0403 -0.9292 -1.1226
   93MPD2    H3 1425   1.979   1.031  14.153 -1.2982  1.5218 -0.6667
   93MPD2     N 1426   1.811   0.820  13.783  0.7335  0.2974  0.3876
   93MPD2    H5 1427   1.741   0.802  13.855 -0.9585  2.8548 -0.5980
   93MPD2    N1 1428   2.266   0.994  13.800  0.2202 -0.6429  0.1453
   93MPD2    H7 1429   2.289   0.961  13.707 -1.4071  0.5841 -0.7098
   94TCq2    C1 1430   2.379   1.041  13.863 -0.4427 -0.2347  0.4918
   94TCq2    O2 1431   2.405   1.041  13.983  0.0628 -0.3587 -0.0109
   94TCq2    C2 1432   2.491   1.053  13.777  0.3346 -0.2323  0.4536
   94TCq2    C3 1433   2.477   1.057  13.643  0.0394 -0.4016 -0.0915
   94TCq2    C4 1434   2.584   1.068  13.564 -0.0908  0.1302 -0.5256
   94TCq2    C5 1435   2.709   1.079  13.612  0.2976 -0.4253  0.6863
   94TCq2    C6 1436   2.728   1.067  13.748 -0.1190 -0.3851  0.4852
   94TCq2    C7 1437   2.617   1.061  13.825  0.2388 -0.1580 -0.4962
   94TCq2    C8 1438   2.868   1.089  13.789  0.2264  0.2837  0.0069
   94TCq2    O4 1439   2.959   1.049  13.716  0.5477 -0.1768  0.2891
   94TCq2    C9 1440   2.561   1.074  13.418 -0.0155  0.4844 -0.0021
   94TCq2    O5 1441   2.443   1.097  13.378 -0.2966  0.2481 -0.0177
   94TCq2    O6 1442   2.670   1.090  13.356 -0.4095 -0.2253 -0.7114
   94TCq2    H2 1443   2.378   1.060  13.598  0.0243  0.9820  0.0288
   94TCq2    H3 1444   2.793   1.102  13.548  0.2681  2.5946  1.7395
   94TCq2    H4 1445   2.636   1.051  13.932 -2.1242  0.3048 -0.0320
   95TMC2    C1 1446   2.351   2.258  16.081  0.1367  0.3140  0.8192
   95TMC2    C2 1447   2.312   2.126  16.090 -0.0776  0.0756 -0.1691
   95TMC2    C3 1448   2.289   2.070  16.211 -0.1541 -0.0820 -0.2094
   95TMC2    C4 1449   2.366   2.338  16.190  0.7695 -0.6364  0.0966
   95TMC2    C5 1450   2.325   2.282  16.312  0.2263  0.3407  0.2555
   95TMC2    C6 1451   2.291   2.146  16.325 -0.0924  0.4299  0.0930
   95TMC2     C 1452   2.423   2.305  15.962 -0.4024  0.1870  0.6879
   95TMC2     O 1453   2.517   2.380  15.991  0.3500 -0.2033 -0.0267
   95TMC2     H 1454   2.326   2.056  16.008 -1.3096  1.9384 -1.9335
   95TMC2    H1 1455   2.409   2.437  16.179  0.2740 -0.4778 -0.3952
   95TMC2    H2 1456   2.276   2.093  16.418 -1.1453  1.3925  0.4686
   95TMC2    C7 1457   2.361   2.348  16.435  0.1380 -0.9239 -0.1194
   95TMC2    C8 1458   2.268   1.929  16.227  0.2738 -0.2773  0.4106
   95TMC2    O1 1459   2.421   2.458  16.425  0.5783 -0.2471  0.1102
   95TMC2    O2 1460   2.285   1.878  16.336  0.3559  0.2202  0.1725
   95TMC2    O5 1461   2.186   1.881  16.135 -0.2658  0.5445  0.2682
   95TMC2    H5 1462   2.195   1.933  16.053  4.1821 -0.0076  0.4116
   96MPD2     C 1463   2.526   2.307  15.452  0.0252 -1.3341 -0.7770
   96MPD2    C1 1464   2.587   2.371  15.557  0.5127 -0.7085  0.4944
   96MPD2    C2 1465   2.544   2.343  15.688 -0.2703 -0.0386  0.1673
   96MPD2    C3 1466   2.437   2.262  15.713  0.7234  0.4279 -0.0831
   96MPD2    C4 1467   2.377   2.198  15.603 -0.3013 -0.0341 -0.9503
   96MPD2    C5 1468   2.427   2.224  15.472 -0.1657  0.0435  0.4497
   96MPD2     H 1469   2.598   2.384  15.772 -1.6308  2.8103 -0.3195
   96MPD2    H1 1470   2.294   2.132  15.624 -1.4755  1.9015  0.5507
   96MPD2    H2 1471   2.561   2.309  15.349  0.9419 -0.1445 -0.4334
   96MPD2    H3 1472   2.384   2.156  15.399 -1.5502  0.3004  1.0282
   96MPD2     N 1473   2.388   2.239  15.847 -0.7105 -0.0328  0.0585
   96MPD2    H5 1474   2.303   2.183  15.857 -0.3401 -0.7116 -0.5814
   96MPD2    N1 1475   2.706   2.441  15.527 -0.6261  0.3130 -1.3541
   96MPD2    H7 1476   2.706   2.443  15.425  0.4253 -1.1140 -1.3929
   97MPD2     C 1477   0.195   0.710   1.157  0.1134  0.1974  0.2051
   97MPD2    C1 1478   0.074   0.678   1.116 -0.1959 -0.6178  0.3834
   97MPD2    C2 1479   0.030   0.708   0.985  0.2667 -0.2070  0.7762
   97MPD2    C3 1480   0.123   0.770   0.898  0.1177 -0.2475  0.1204
   97MPD2    C4 1481   0.245   0.803   0.943  0.1803 -0.5546  0.5689
   97MPD2    C5 1482   0.283   0.764   1.069  0.2708  0.6321  0.0471
   97MPD2     H 1483   4.657   0.672   0.942  1.1188 -1.3874 -0.0940
   97MPD2    H1 1484   0.313   0.859   0.880  2.0920 -0.7984  2.4443
   97MPD2    H2 1485   0.218   0.686   1.260 -0.0433 -1.4642 -0.1517
   97MPD2    H3 1486   0.384   0.793   1.096  0.7634  1.1580 -2.3291
   97MPD2     N 1487   0.098   0.789   0.756 -0.1133 -0.5209  0.7140
   97MPD2    H5 1488   0.161   0.859   0.717  1.6255  0.0535  4.5626
   97MPD2    N1 1489   4.709   0.615   1.210  0.2873  0.0099 -0.3661
   97MPD2    H7 1490   0.030   0.596   1.301  1.7459 -1.8896 -1.4146
   98TCq2    C1 1491   4.710   0.749   0.678  0.5674  0.0485  0.0102
   98TCq2    O2 1492   4.631   0.659   0.714 -0.5007  0.6850 -0.5550
   98TCq2    C2 1493   4.710   0.804   0.542 -0.0502  0.0272 -0.0628
   98TCq2    C3 1494   4.611   0.761   0.458 -0.2248  0.2060 -0.5025
   98TCq2    C4 1495   4.610   0.801   0.328 -0.0496 -0.1655  0.1994
   98TCq2    C5 1496   4.694   0.898   0.292  0.5181  0.3232  0.0243
   98TCq2    C6 1497   0.051   0.960   0.385  0.7410  0.1145  0.5044
   98TCq2    C7 1498   0.059   0.916   0.512 -0.5337 -0.3896  0.2490
   98TCq2    C8 1499   0.078   1.101   0.363  1.3841  0.1084 -0.1395
   98TCq2    O4 1500   0.167   1.151   0.431  0.1139 -0.5290 -0.4860
   98TCq2    C9 1501   4.532   0.742   0.225 -0.1033  0.0464 -0.7495
   98TCq2    O5 1502   4.445   0.650   0.245  0.3417  0.3549  0.4058
   98TCq2    O6 1503   4.549   0.791   0.110  0.3597  0.1108  0.5687
   98TCq2    H2 1504   4.546   0.686   0.502  0.4617 -0.9282 -1.4411
   98TCq2    H3 1505   4.692   0.943   0.193  1.5760 -0.6002 -0.4226
   98TCq2    H4 1506   0.116   0.974   0.584 -2.4381  0.1048  1.3408
   99MPD2     C 1507   3.695   2.310   1.112 -0.2382 -0.1639  0.1034
   99MPD2    C1 1508   3.586   2.398   1.139  0.3040  0.5136 -0.4615
   99MPD2    C2 1509   3.503   2.430   1.027  0.4578  0.7328  0.3698
   99MPD2    C3 1510   3.517   2.372   0.903  0.3174 -0.0312  0.4287
   99MPD2    C4 1511   3.626   2.281   0.886  0.2952  0.1153  0.1056
   99MPD2    C5 1512   3.713   2.256   0.988 -0.6222  0.3664  0.5976
   99MPD2     H 1513   3.420   2.497   1.048  1.1046  2.4222 -2.6799
   99MPD2    H1 1514   3.647   2.232   0.791  4.2710  2.8339 -0.4095
   99MPD2    H2 1515   3.772   2.282   1.183  0.2385 -1.6046 -0.9819
   99MPD2    H3 1516   3.800   2.192   0.981  0.3780  1.6682  0.9290
   99MPD2     N 1517   3.416   2.407   0.803 -0.1460  0.0138  0.4532
   99MPD2    H5 1518   3.335   2.463   0.828 -0.1671  1.1060 -2.0903
   99MPD2    N1 1519   3.566   2.463   1.263 -0.0971 -0.4041 -0.1567
   99MPD2    H7 1520   3.497   2.537   1.261  0.5714  0.2245 -0.0266
  100TCq2    C1 1521   3.642   2.441   1.370  0.1727  0.2849  0.1831
  100TCq2    O2 1522   3.729   2.359   1.382 -0.1688 -0.3684  0.1975
  100TCq2    C2 1523   3.612   2.527   1.480  0.2397 -0.2805  0.3619
  100TCq2    C3 1524   3.715   2.546   1.567 -0.2332 -0.1015  0.2508
  100TCq2    C4 1525   3.694   2.651   1.652  0.5032  0.3830  1.0320
  100TCq2    C5 1526   3.586   2.730   1.644 -0.7424  0.0888  0.7078
  100TCq2    C6 1527   3.482   2.701   1.566 -0.2913 -0.6337  0.2163
  100TCq2    C7 1528   3.495   2.596   1.477  0.3506 -0.1687  0.6423
  100TCq2    C8 1529   3.352   2.775   1.576 -0.7456 -0.5334  0.1445
  100TCq2    O4 1530   3.357   2.883   1.630 -0.0093 -0.7058 -0.1196
  100TCq2    C9 1531   3.784   2.681   1.760  0.0892 -0.0664  0.4146
  100TCq2    O5 1532   3.898   2.634   1.757 -0.3845  0.3521 -0.2105
  100TCq2    O6 1533   3.743   2.732   1.868  0.7489 -0.3937  0.0457
  100TCq2    H2 1534   3.796   2.475   1.579 -0.6370 -0.4386  0.9759
  100TCq2    H3 1535   3.582   2.819   1.706  1.1042 -0.2396  1.2847
  100TCq2    H4 1536   3.416   2.559   1.414 -0.0807 -2.8217  2.7643
  101MPD2     C 1537   3.915   3.493  13.033  1.0059 -0.0729 -0.1647
  101MPD2    C1 1538   3.946   3.357  13.016 -0.6913 -0.6482  0.5671
  101MPD2    C2 1539   3.876   3.270  13.095 -0.2813  0.5313 -0.2558
  101MPD2    C3 1540   3.791   3.308  13.196  0.1869 -0.8158  0.3628
  101MPD2    C4 1541   3.776   3.442  13.217 -0.0285 -0.1984 -0.1839
  101MPD2    C5 1542   3.829   3.529  13.129 -0.4165 -0.1357  0.4867
  101MPD2     H 1543   3.896   3.165  13.076  0.8829  0.8735 -0.8738
  101MPD2    H1 1544   3.704   3.485  13.285  0.6018  1.4125 -0.5120
  101MPD2    H2 1545   3.961   3.569  12.971  0.9341 -1.5290 -1.9827
  101MPD2    H3 1546   3.814   3.636  13.133  0.1440 -0.0023 -1.0547
  101MPD2     N 1547   3.744   3.203  13.281  0.6827  0.0467  0.4375
  101MPD2    H5 1548   3.760   3.108  13.251  1.3747 -0.0168  1.0029
  101MPD2    N1 1549   4.042   3.328  12.921  0.4937  0.5958 -0.8659
  101MPD2    H7 1550   4.100   3.403  12.885  0.5439  1.4662  1.0202
  102TCq2    C1 1551   4.484   3.430  12.697 -0.1840 -0.9899 -0.2225
  102TCq2    O2 1552   4.518   3.473  12.586 -0.3041 -0.0115 -0.1800
  102TCq2    C2 1553   4.371   3.339  12.701  0.4827  0.3503 -0.0464
  102TCq2    C3 1554   4.361   3.261  12.583  0.0073 -0.2058 -0.6584
  102TCq2    C4 1555   4.274   3.158  12.581  0.8557  0.1218 -0.1487
  102TCq2    C5 1556   4.177   3.141  12.685 -0.3309  0.1275  0.3605
  102TCq2    C6 1557   4.200   3.210  12.800 -0.7958  0.1452 -0.1675
  102TCq2    C7 1558   4.297   3.309  12.809 -0.2079  0.1425  0.0452
  102TCq2    C8 1559   4.099   3.201  12.901 -0.1713  0.0635  0.5679
  102TCq2    O4 1560   4.042   3.094  12.910  0.1803 -0.0314 -0.2637
  102TCq2    C9 1561   4.254   3.099  12.447 -0.1366  0.2404  0.0327
  102TCq2    O5 1562   4.192   2.992  12.438 -0.5266  0.1102  0.2967
  102TCq2    O6 1563   4.299   3.168  12.348  0.3711  0.3871  0.2213
  102TCq2    H2 1564   4.414   3.294  12.493  0.6012 -4.1325 -1.7716
  102TCq2    H3 1565   4.099   3.068  12.670 -1.5976  0.8592  3.4281
  102TCq2    H4 1566   4.314   3.353  12.906 -1.2102 -1.2784  0.8573
  103TMC2    C1 1567   2.647   2.826  12.272 -0.4709  0.0177 -0.2824
  103TMC2    C2 1568   2.732   2.723  12.311 -0.0283 -0.2411  0.1936
  103TMC2    C3 1569   2.842   2.753  12.387  0.1552 -0.3204  0.1616
  103TMC2    C4 1570   2.676   2.957  12.315 -0.0285 -0.2705  0.2436
  103TMC2    C5 1571   2.789   2.983  12.389  0.1615  0.7915 -0.2849
  103TMC2    C6 1572   2.871   2.881  12.426  1.2399 -0.0475  0.0106
  103TMC2     C 1573   2.513   2.798  12.206 -0.5082  0.6662  0.4011
  103TMC2     O 1574   2.456   2.898  12.156  0.5864 -0.5276 -0.0903
  103TMC2     H 1575   2.701   2.621  12.290  0.6329 -0.5269  0.6035
  103TMC2    H1 1576   2.603   3.036  12.295 -0.2822 -0.6579 -0.3486
  103TMC2    H2 1577   2.971   2.895  12.467  1.1762  0.2944  0.0501
  103TMC2    C7 1578   2.784   3.100  12.479  0.1913  0.5295 -0.2707
  103TMC2    C8 1579   2.956   2.660  12.384  0.6741  0.4980  0.1540
  103TMC2    O1 1580   2.844   3.091  12.587  0.0549  0.3515  0.5620
  103TMC2    O2 1581   3.061   2.698  12.428 -0.3116  0.2968 -0.3678
  103TMC2    O5 1582   2.898   2.539  12.393  0.5043  0.2470  0.0926
  103TMC2    H5 1583   2.964   2.471  12.418 -0.9826 -2.1081 -2.2968
  104MPD2     C 1584   2.305   2.484  12.190 -0.6314 -0.4414  0.0813
  104MPD2    C1 1585   2.341   2.616  12.167 -0.5354  0.5619 -0.4803
  104MPD2    C2 1586   2.275   2.686  12.070 -0.0233 -0.1555  0.0720
  104MPD2    C3 1587   2.163   2.643  12.003  0.3928 -0.4327 -0.4695
  104MPD2    C4 1588   2.124   2.513  12.036 -0.1486 -0.0742  0.0838
  104MPD2    C5 1589   2.197   2.432  12.127 -0.3892  0.6847 -0.1096
  104MPD2     H 1590   2.311   2.781  12.033 -1.9514  0.7108  0.3897
  104MPD2    H1 1591   2.037   2.461  11.996  0.0839  0.9259 -1.7390
  104MPD2    H2 1592   2.342   2.406  12.257 -1.7882 -1.0886 -0.0210
  104MPD2    H3 1593   2.167   2.329  12.143  0.6363  0.8569  2.9981
  104MPD2     N 1594   2.100   2.734  11.912  0.2558  0.5290  0.1134
  104MPD2    H5 1595   2.147   2.823  11.898  0.5564  0.1699 -1.1152
  104MPD2    N1 1596   2.451   2.674  12.238  0.1864  0.2912 -0.3674
  104MPD2    H7 1597   2.493   2.607  12.302  0.3580 -0.1825 -0.9734
  105MPD2     C 1598   4.199   2.677   0.078 -0.3788 -0.3728 -0.0590
  105MPD2    C1 1599   4.104   2.780   0.076  0.8491  0.5134 -0.2060
  105MPD2    C2 1600   4.072   2.841   0.196  0.3392 -0.4202  0.6260
  105MPD2    C3 1601   4.133   2.804   0.316 -0.3847 -0.1668  0.4611
  105MPD2    C4 1602   4.235   2.707   0.313  0.1874 -0.4073  0.3375
  105MPD2    C5 1603   4.270   2.654   0.195  0.2792  0.5283 -0.4757
  105MPD2     H 1604   3.996   2.918   0.197  1.5279  0.7908 -2.8626
  105MPD2    H1 1605   4.291   2.680   0.403  0.3163  1.6544  0.8746
  105MPD2    H2 1606   4.224   2.627  17.666 -0.9910 -1.9623  0.6358
  105MPD2    H3 1607   4.342   2.572   0.197  1.6521  1.7033 -1.8608
  105MPD2     N 1608   4.087   2.870   0.434 -0.2562  0.0385 -0.4280
  105MPD2    H5 1609   4.030   2.955   0.434  1.4566  1.1777 -2.1084
  105MPD2    N1 1610   4.041   2.821  17.632 -0.0708  0.1816  0.0032
  105MPD2    H7 1611   3.978   2.900  17.637  0.3077  0.4942 -0.1059
  106TCq2    C1 1612   4.104   2.811   0.553  0.1987 -0.6436 -0.5275
  106TCq2    O2 1613   4.109   2.695   0.578 -0.5701 -0.2550  0.5002
  106TCq2    C2 1614   4.028   2.891   0.648  0.1964 -0.0151 -0.6803
  106TCq2    C3 1615   4.036   3.024   0.629 -0.1090  0.8893  0.4949
  106TCq2    C4 1616   3.946   3.099   0.693  0.5431 -0.4378  0.1361
  106TCq2    C5 1617   3.846   3.048   0.778 -0.5720  0.0570 -0.3023
  106TCq2    C6 1618   3.837   2.908   0.786 -0.6569  0.4498  0.2750
  106TCq2    C7 1619   3.923   2.828   0.716 -0.2180  0.3669 -0.1689
  106TCq2    C8 1620   3.715   2.845   0.840  0.0340 -0.1461  0.1527
  106TCq2    O4 1621   3.707   2.725   0.836 -0.1414  0.1779  0.2415
  106TCq2    C9 1622   3.947   3.249   0.673 -0.2544 -0.2606  0.0619
  106TCq2    O5 1623   4.037   3.298   0.603 -0.0465 -0.3501 -0.3158
  106TCq2    O6 1624   3.851   3.316   0.713 -0.0013  0.2484  0.1005
  106TCq2    H2 1625   4.123   3.072   0.586 -0.6568 -0.9715 -2.7047
  106TCq2    H3 1626   3.777   3.119   0.823  1.0153  2.3678 -1.5043
  106TCq2    H4 1627   3.915   2.720   0.724  1.0923  0.1481 -1.7733
  107TMC2    C1 1628   4.359   2.202  11.441 -0.2652  0.3826 -0.2289
  107TMC2    C2 1629   4.422   2.294  11.359 -0.4785  0.8826  0.7895
  107TMC2    C3 1630   4.502   2.246  11.262  0.0653  0.0404 -0.0135
  107TMC2    C4 1631   4.364   2.070  11.415 -0.3062  0.4581  0.8076
  107TMC2    C5 1632   4.436   2.029  11.308  0.1865  0.8310 -0.2651
  107TMC2    C6 1633   4.516   2.115  11.230  0.7979 -0.0147  0.8597
  107TMC2     C 1634   4.298   2.236  11.563 -0.9547 -0.7620  0.9065
  107TMC2     O 1635   4.253   2.156  11.642  0.0522 -0.1745  0.1634
  107TMC2     H 1636   4.428   2.402  11.374 -3.5474  0.8728  2.0267
  107TMC2    H1 1637   4.306   1.999  11.473  0.4966  0.4513  1.5960
  107TMC2    H2 1638   4.560   2.081  11.138 -2.4707 -1.4735 -0.1622
  107TMC2    C7 1639   4.419   1.891  11.271  0.7536  0.6120 -0.2777
  107TMC2    C8 1640   4.508   2.337  11.158  0.2941 -0.0230 -0.0815
  107TMC2    O1 1641   4.342   1.827  11.341 -0.1229 -0.8425 -0.2740
  107TMC2    O2 1642   4.616   2.354  11.099  0.1667  0.0021  0.1592
  107TMC2    O5 1643   4.382   2.356  11.106  0.5602  0.3805  0.5037
  107TMC2    H5 1644   4.308   2.306  11.146  1.9507 -1.2306  1.0527
  108MPD2     C 1645   4.209   2.576  11.646  1.1679 -0.4611  0.2743
  108MPD2    C1 1646   4.222   2.439  11.681 -0.0188  0.0520 -0.9898
  108MPD2    C2 1647   4.171   2.392  11.799 -0.5242  0.1475  0.1681
  108MPD2    C3 1648   4.095   2.478  11.881 -0.1468 -0.6195  0.1316
  108MPD2    C4 1649   4.081   2.610  11.842 -0.4615 -0.3984  0.5884
  108MPD2    C5 1650   4.140   2.655  11.727 -0.2475  0.2729  0.4807
  108MPD2     H 1651   4.182   2.288  11.829  1.0771  0.1936 -0.2608
  108MPD2    H1 1652   4.017   2.681  11.893 -1.1419  0.5166 -1.5552
  108MPD2    H2 1653   4.250   2.616  11.554  0.7493 -1.1223 -0.2061
  108MPD2    H3 1654   4.121   2.760  11.706  3.8194  0.4740 -2.1680
  108MPD2     N 1655   4.031   2.443  12.003  1.1462  0.2918  0.2070
  108MPD2    H5 1656   3.986   2.517  12.056  1.0076 -0.1468  0.7042
  108MPD2    N1 1657   4.286   2.372  11.573 -0.5150 -0.2889  0.5988
  108MPD2    H7 1658   4.301   2.430  11.491 -0.7751  0.0011  0.7571
  109MPD2     C 1659   4.569   4.446   2.400 -0.4711  0.4618 -0.3337
  109MPD2    C1 1660   4.512   4.544   2.319 -0.0964 -0.3324  0.7131
  109MPD2    C2 1661   4.562   4.674   2.341  0.5319 -0.1786 -0.1145
  109MPD2    C3 1662   4.668   4.701   2.415  0.4977 -0.1003  0.1588
  109MPD2    C4 1663   4.716   4.603   2.495 -0.2302  0.0466  0.7154
  109MPD2    C5 1664   4.668   4.478   2.489  0.0121 -0.6684 -0.1481
  109MPD2     H 1665   4.537   0.026   2.262 -1.3595 -0.4615  0.2287
  109MPD2    H1 1666   0.093   4.618   2.542  0.6470 -1.9794 -0.4256
  109MPD2    H2 1667   4.535   4.343   2.405 -0.2193  0.3541 -0.8721
  109MPD2    H3 1668   4.708   4.395   2.546  3.6226  0.6791 -0.7146
  109MPD2     N 1669   0.008   0.107   2.403 -0.0734  0.1546  0.0769
  109MPD2    H5 1670   4.682   0.168   2.335 -3.3218 -0.4235  1.7326
  109MPD2    N1 1671   4.414   4.500   2.230 -0.6349 -0.1850 -0.4137
  109MPD2    H7 1672   4.428   4.404   2.202 -0.2117 -0.7081  1.5392
  110TCq2    C1 1673   0.111   0.159   2.477  0.8983  0.0690  1.0261
  110TCq2    O2 1674   0.161   0.121   2.582 -0.0770  0.0805  0.5035
  110TCq2    C2 1675   0.156   0.288   2.423 -0.6158 -0.2600 -0.2565
  110TCq2    C3 1676   0.236   0.373   2.499 -0.6355  0.9397  0.3224
  110TCq2    C4 1677   0.258   0.499   2.445 -0.0304 -0.0341  0.1773
  110TCq2    C5 1678   0.204   0.546   2.331 -0.1236 -0.4836 -0.1764
  110TCq2    C6 1679   0.138   0.452   2.251 -0.1857 -0.7145 -0.0083
  110TCq2    C7 1680   0.106   0.329   2.295 -0.3463 -0.3106 -0.2236
  110TCq2    C8 1681   0.099   0.494   2.114 -0.7025 -0.8563  0.1962
  110TCq2    O4 1682   0.030   0.415   2.049  0.2341 -0.6175  0.7416
  110TCq2    C9 1683   0.318   0.600   2.530 -0.8341 -0.0691 -0.7717
  110TCq2    O5 1684   0.333   0.719   2.487 -0.4945  0.2993 -0.2491
  110TCq2    O6 1685   0.369   0.567   2.646 -0.0435 -0.2272  0.1703
  110TCq2    H2 1686   0.289   0.347   2.589  0.4122 -0.3534 -0.6669
  110TCq2    H3 1687   0.190   0.651   2.308 -0.2131 -0.6797 -1.0117
  110TCq2    H4 1688   0.056   0.261   2.228  0.8769 -0.9480 -0.4931
  111TMC2    C1 1689   4.566   3.700  11.345  0.3790 -0.1495 -0.2448
  111TMC2    C2 1690   4.455   3.640  11.405 -0.4648  0.4766  0.2560
  111TMC2    C3 1691   4.472   3.558  11.510  0.0183  0.7357  0.4403
  111TMC2    C4 1692   4.688   3.684  11.401 -0.4893 -0.2402  0.1591
  111TMC2    C5 1693   4.704   3.600  11.512 -0.3197  0.8937  0.2835
  111TMC2    C6 1694   4.597   3.523  11.559 -0.3426  0.6404  0.1658
  111TMC2     C 1695   4.547   3.772  11.230 -0.3393 -0.1601  0.5656
  111TMC2     O 1696   4.633   3.794  11.147  0.6045 -0.5531 -0.7951
  111TMC2     H 1697   4.360   3.628  11.352  1.4146 -0.5688 -2.9027
  111TMC2    H1 1698   0.059   3.724  11.355 -0.3839  0.1771  0.7388
  111TMC2    H2 1699   4.628   3.445  11.629  0.9847  0.3648 -0.7276
  111TMC2    C7 1700   0.094   3.607  11.614 -0.5869 -0.6541 -0.0716
  111TMC2    C8 1701   4.369   3.458  11.532 -0.3050  0.1704 -0.4413
  111TMC2    O1 1702   0.062   3.577  11.728 -0.2662  0.4654  0.7758
  111TMC2    O2 1703   4.298   3.409  11.447 -0.2153  0.5736  0.1660
  111TMC2    O5 1704   4.402   3.395  11.644 -0.5031  0.6848  0.0374
  111TMC2    H5 1705   4.438   3.452  11.715  0.3717 -0.5253  0.5700
  112MPD2     C 1706   4.173   3.903  10.897 -0.1007 -0.2892 -0.3888
  112MPD2    C1 1707   4.313   3.898  10.875  0.6193  0.1218  0.4906
  112MPD2    C2 1708   4.390   3.864  10.984  0.9746  0.0051  0.0147
  112MPD2    C3 1709   4.337   3.851  11.112 -0.4072  1.4208  0.3973
  112MPD2    C4 1710   4.202   3.878  11.134  0.0266 -0.0595 -0.2271
  112MPD2    C5 1711   4.126   3.895  11.025 -0.7786  0.6316  0.5799
  112MPD2     H 1712   4.496   3.853  10.964  1.1051  1.6769 -0.1983
  112MPD2    H1 1713   4.159   3.882  11.234  0.9291 -2.1507  0.2568
  112MPD2    H2 1714   4.099   3.918  10.819  1.1699 -0.0557 -1.5348
  112MPD2    H3 1715   4.019   3.888  11.042 -0.7226 -1.6814 -0.1160
  112MPD2     N 1716   4.415   3.817  11.229  0.1281 -0.3575 -0.1327
  112MPD2    H5 1717   4.356   3.819  11.311 -0.3100 -0.4701 -0.4436
  112MPD2    N1 1718   4.374   3.901  10.747 -0.1585  0.3967  0.1832
  112MPD2    H7 1719   4.473   3.881  10.733  0.1162  2.1296 -0.4093
  113MPD2     C 1720   2.640   2.714   0.581  0.2764 -0.6605 -0.6216
  113MPD2    C1 1721   2.517   2.700   0.650  0.6499 -0.2464 -0.2034
  113MPD2    C2 1722   2.423   2.598   0.616 -0.5313 -0.5737 -0.9830
  113MPD2    C3 1723   2.462   2.507   0.517 -0.0556  0.4799 -0.4861
  113MPD2    C4 1724   2.584   2.521   0.456  0.2651  0.2284  0.5719
  113MPD2    C5 1725   2.676   2.617   0.492 -0.3296  0.4004 -0.4449
  113MPD2     H 1726   2.325   2.594   0.662 -0.3838  1.5849 -0.4646
  113MPD2    H1 1727   2.614   2.439   0.392 -0.3516  1.0215 -0.7431
  113MPD2    H2 1728   2.713   2.794   0.585 -2.8666  2.0860  1.7870
  113MPD2    H3 1729   2.776   2.616   0.450  0.8126 -1.0070  2.3180
  113MPD2     N 1730   2.376   2.403   0.485  0.4457  0.3646 -0.4518
  113MPD2    H5 1731   2.397   2.356   0.397  1.7429 -0.0261  0.0580
  113MPD2    N1 1732   2.473   2.797   0.741 -0.2289  0.4095 -0.6009
  113MPD2    H7 1733   2.380   2.797   0.781 -0.6586 -0.2676 -1.5979
  114TCq2    C1 1734   2.268   2.355   0.564 -0.0088  0.1143  0.2047
  114TCq2    O2 1735   2.228   2.382   0.675  0.3503 -0.0626 -0.0984
  114TCq2    C2 1736   2.182   2.264   0.492 -0.1638 -0.2259  0.5389
  114TCq2    C3 1737   2.120   2.300   0.371 -0.7885 -0.3113 -0.7700
  114TCq2    C4 1738   2.026   2.208   0.327  0.1427  0.0415  0.3898
  114TCq2    C5 1739   2.026   2.075   0.375 -0.4924  0.3582  0.2753
  114TCq2    C6 1740   2.097   2.047   0.490 -0.0483 -0.4197  0.0656
  114TCq2    C7 1741   2.168   2.141   0.555  0.4840 -0.3439  0.5599
  114TCq2    C8 1742   2.049   1.933   0.562 -0.5868  0.9804 -0.8229
  114TCq2    O4 1743   1.995   1.849   0.496 -0.4391  0.8674 -0.3392
  114TCq2    C9 1744   1.921   2.250   0.226  0.0625 -0.2058  0.2841
  114TCq2    O5 1745   1.941   2.363   0.166  0.1708 -0.3671 -0.4803
  114TCq2    O6 1746   1.849   2.154   0.190  0.1203 -0.0294 -0.1960
  114TCq2    H2 1747   2.119   2.400   0.330 -0.3045 -0.1641 -0.4268
  114TCq2    H3 1748   1.945   2.012   0.339 -0.6204  0.1740  0.8962
  114TCq2    H4 1749   2.236   2.114   0.635  2.9992  0.9752 -1.1211
  115TMC2    C1 1750   3.212   0.003   0.019  0.4646  0.0841 -0.1242
  115TMC2    C2 1751   3.332   4.652   0.034  0.4753 -0.5074 -0.7638
  115TMC2    C3 1752   3.444   0.004   0.006  0.1807  0.1126 -0.1520
  115TMC2    C4 1753   3.200   0.134  17.665  0.5936  0.4158 -0.7925
  115TMC2    C5 1754   3.316   0.195  17.624 -0.0064  1.1599  0.4371
  115TMC2    C6 1755   3.439   0.134  17.639 -0.9489 -0.1327  0.3537
  115TMC2     C 1756   3.090   4.636   0.022  0.0553 -0.1649  0.5638
  115TMC2     O 1757   3.110   4.518   0.002  0.0113 -0.1431 -0.0815
  115TMC2     H 1758   3.337   4.549   0.067  0.1668  0.9901  4.0206
  115TMC2    H1 1759   3.102   0.180  17.658  0.3805  0.2690  1.2980
  115TMC2    H2 1760   3.527   0.194  17.617 -0.0118 -2.1656 -1.3628
  115TMC2    C7 1761   3.310   0.325  17.554  0.8939 -0.6020  0.4008
  115TMC2    C8 1762   3.564   4.644  17.663  0.1981 -0.0497  0.6116
  115TMC2    O1 1763   3.403   0.345  17.478  0.2099 -0.1131  0.4356
  115TMC2    O2 1764   3.571   4.531  17.617 -0.2859 -0.3838 -0.3298
  115TMC2    O5 1765   3.663   4.703   0.048  0.1817  0.6962 -0.1913
  115TMC2    H5 1766   3.637   0.058   0.106  0.5943  1.4792 -1.0197
  116MPD2     C 1767   2.617   4.504   0.126 -0.0172 -0.2994 -0.1879
  116MPD2    C1 1768   2.717   4.442   0.052 -0.1811  0.0499 -0.2293
  116MPD2    C2 1769   2.828   4.512   0.021  0.5501  0.6732  0.1068
  116MPD2    C3 1770   2.846   4.638   0.080 -0.1340 -0.3682  0.1312
  116MPD2    C4 1771   2.749   4.696   0.156  0.5579 -0.1840 -0.5925
  116MPD2    C5 1772   2.636   4.625   0.183  0.5470  0.2604  0.2030
  116MPD2     H 1773   2.905   4.470  17.639 -0.3519  0.0682 -0.6031
  116MPD2    H1 1774   2.762   0.077   0.193  0.8416 -0.6092  0.4476
  116MPD2    H2 1775   2.522   4.453   0.134  0.4820 -1.4897 -1.7507
  116MPD2    H3 1776   2.560   4.673   0.243  1.2814  1.1593  0.4130
  116MPD2     N 1777   2.972   4.699   0.067 -0.0452 -0.6491 -0.4726
  116MPD2    H5 1778   2.977   0.075   0.101  0.5236 -0.3855 -1.2768
  116MPD2    N1 1779   2.676   4.318  17.680 -0.3607  0.1984  0.4072
  116MPD2    H7 1780   2.582   4.285   0.014  0.2777 -1.4067  0.9186
  117TMC2    C1 1781   1.743   1.718  13.857 -0.0257 -0.4070  0.1409
  117TMC2    C2 1782   1.688   1.806  13.948 -0.1992 -0.6983 -0.1270
  117TMC2    C3 1783   1.768   1.842  14.054 -0.7974  0.3688  0.1927
  117TMC2    C4 1784   1.873   1.679  13.867 -0.5585  0.7988  0.1149
  117TMC2    C5 1785   1.950   1.728  13.966  0.2691 -0.5018  0.6112
  117TMC2    C6 1786   1.896   1.804  14.068 -0.2614  0.0663  0.1683
  117TMC2     C 1787   1.659   1.656  13.756  0.2820  0.1129 -0.3612
  117TMC2     O 1788   1.673   1.536  13.733  0.1181  0.7399 -0.4737
  117TMC2     H 1789   1.580   1.819  13.953 -0.1174  0.2429 -0.6472
  117TMC2    H1 1790   1.912   1.599  13.806  2.4585  0.9804  1.8022
  117TMC2    H2 1791   1.961   1.842  14.146  0.5110  1.5211 -1.1611
  117TMC2    C7 1792   2.089   1.753  13.928  0.5119 -0.5212  0.2885
  117TMC2    C8 1793   1.697   1.911  14.163 -0.4902  0.2093  0.0394
  117TMC2    O1 1794   2.156   1.809  14.013 -0.1715 -0.5332 -0.3341
  117TMC2    O2 1795   1.615   2.000  14.151  0.6054 -0.2523 -0.0940
  117TMC2    O5 1796   1.762   1.876  14.275  0.3144 -0.3415  0.2569
  117TMC2    H5 1797   1.798   1.785  14.270 -1.3361 -0.8170 -2.7807
  118MPD2     C 1798   2.224   1.744  13.590  0.4329 -0.0035 -0.0999
  118MPD2    C1 1799   2.234   1.757  13.727  0.5308 -0.5260 -0.3939
  118MPD2    C2 1800   2.353   1.802  13.784  1.0587 -0.7705 -0.6237
  118MPD2    C3 1801   2.466   1.817  13.705 -0.5504  0.2838 -0.8922
  118MPD2    C4 1802   2.457   1.783  13.572  1.0259  0.1792 -0.2579
  118MPD2    C5 1803   2.336   1.758  13.516  0.5492  0.4877  0.0583
  118MPD2     H 1804   2.362   1.824  13.890 -2.8546 -1.6784 -0.0999
  118MPD2    H1 1805   2.549   1.781  13.514  1.1461  0.6235 -0.0862
  118MPD2    H2 1806   2.128   1.735  13.541  1.4611 -3.7604 -1.4601
  118MPD2    H3 1807   2.325   1.742  13.409 -0.0194 -0.0904  0.2012
  118MPD2     N 1808   2.594   1.865  13.749 -0.1118  0.5492 -0.1116
  118MPD2    H5 1809   2.663   1.877  13.676  0.2405 -0.1327  0.1042
  118MPD2    N1 1810   2.115   1.728  13.797 -0.5597 -0.5608  0.2822
  118MPD2    H7 1811   2.031   1.703  13.745 -0.2196  1.9939 -1.5077
  119MPD2     C 1812   0.596   2.952  13.540  0.0408  0.1149 -0.4306
  119MPD2    C1 1813   0.494   2.913  13.625  0.9097  0.6777 -0.0212
  119MPD2    C2 1814   0.370   2.908  13.561 -1.5809  0.2019 -0.1647
  119MPD2    C3 1815   0.351   2.930  13.427 -0.1920  0.1513 -0.2348
  119MPD2    C4 1816   0.459   2.975  13.355 -0.2100 -0.5239 -0.1798
  119MPD2    C5 1817   0.580   2.998  13.411  0.0679 -0.3645 -0.1859
  119MPD2     H 1818   0.288   2.893  13.631 -0.4142 -0.7640  0.9918
  119MPD2    H1 1819   0.449   2.992  13.248 -0.9079 -1.6450 -0.2976
  119MPD2    H2 1820   0.699   2.950  13.573  1.0840  0.4074 -3.6329
  119MPD2    H3 1821   0.665   3.037  13.355  0.2966 -1.6122 -0.7179
  119MPD2     N 1822   0.231   2.900  13.357  0.2554 -0.1147  0.0270
  119MPD2    H5 1823   0.247   2.887  13.258 -0.4639 -0.4115 -0.0479
  119MPD2    N1 1824   0.524   2.860  13.753  0.3995  0.0031 -0.1949
  119MPD2    H7 1825   0.618   2.885  13.781  0.7720 -1.9682  0.3210
  120TCq2    C1 1826   0.119   2.857  13.421  1.0170  0.1002  0.5618
  120TCq2    O2 1827   0.099   2.854  13.544  0.0108  0.2195  0.6318
  120TCq2    C2 1828   0.031   2.779  13.337 -0.6086 -0.0216  0.3477
  120TCq2    C3 1829   0.062   2.765  13.212  0.5445  0.3226  0.1669
  120TCq2    C4 1830   4.717   2.668  13.150 -0.2596  0.5459  0.2808
  120TCq2    C5 1831   4.626   2.579  13.199  0.0662  0.2054  0.2672
  120TCq2    C6 1832   4.598   2.595  13.335 -0.3578 -0.0670  0.3375
  120TCq2    C7 1833   4.658   2.699  13.403 -0.2238 -0.6890 -0.4177
  120TCq2    C8 1834   4.484   2.546  13.395 -0.1335  0.0716  0.2108
  120TCq2    O4 1835   4.389   2.531  13.322 -0.1892  0.0757 -0.0718
  120TCq2    C9 1836   0.049   2.636  13.011 -0.2657  0.6799  0.1913
  120TCq2    O5 1837   0.163   2.686  12.980  0.0872  1.0344 -0.7581
  120TCq2    O6 1838   4.708   2.543  12.943 -0.4662  0.8038 -0.3484
  120TCq2    H2 1839   0.121   2.841  13.162  0.2220  0.8487  0.5904
  120TCq2    H3 1840   4.585   2.502  13.136  0.9845 -0.3206  0.3114
  120TCq2    H4 1841   4.653   2.710  13.511 -0.0218 -0.0559 -0.4732
  121TMC2    C1 1842   1.641   4.252  13.991 -0.0450  0.4868 -0.2824
  121TMC2    C2 1843   1.590   4.189  14.100  0.6972  0.0247 -0.0907
  121TMC2    C3 1844   1.456   4.189  14.122 -0.0460  0.7555  0.2421
  121TMC2    C4 1845   1.571   4.349  13.922  0.0642  0.7781 -0.2746
  121TMC2    C5 1846   1.434   4.344  13.947  0.4627 -0.3499 -0.1688
  121TMC2    C6 1847   1.376   4.252  14.028  0.5028 -0.7509 -0.0634
  121TMC2     C 1848   1.784   4.264  14.002 -0.3593 -0.1634 -0.1961
  121TMC2     O 1849   1.854   4.208  14.086 -0.1282 -1.0793  0.2469
  121TMC2     H 1850   1.648   4.124  14.165 -0.5653 -0.5632  0.4610
  121TMC2    H1 1851   1.605   4.407  13.837 -0.7850  1.8764  0.1177
  121TMC2    H2 1852   1.268   4.257  14.035  0.5253  0.8079 -0.9505
  121TMC2    C7 1853   1.360   4.402  13.831  0.4449  0.1574  0.2960
  121TMC2    C8 1854   1.400   4.109  14.231 -0.0197  0.0938  0.2312
  121TMC2    O1 1855   1.421   4.456  13.740  0.5223 -0.0994 -0.0124
  121TMC2    O2 1856   1.455   4.011  14.275 -0.3447 -0.2785 -0.6298
  121TMC2    O5 1857   1.270   4.119  14.222  0.8507  0.1736 -0.2088
  121TMC2    H5 1858   1.242   4.209  14.196 -1.3923  0.2563  2.4183
  122MPD2     C 1859   2.062   4.369  13.971  0.1430  0.3112  0.2511
  122MPD2    C1 1860   1.957   4.385  13.877  0.1716  0.3137  0.8565
  122MPD2    C2 1861   1.966   4.471  13.768 -1.0309 -0.1272  0.1668
  122MPD2    C3 1862   2.080   4.548  13.744 -0.0378  0.3691 -1.1006
  122MPD2    C4 1863   2.184   4.531  13.837  0.1557 -0.4708 -0.4602
  122MPD2    C5 1864   2.172   4.446  13.947  0.2433 -0.4191 -0.8399
  122MPD2     H 1865   1.878   4.470  13.704 -1.4252  1.8984  0.6780
  122MPD2    H1 1866   2.270   4.596  13.828 -1.0208  1.4300  1.9082
  122MPD2    H2 1867   2.049   4.314  14.063 -0.9184  0.8694  0.4450
  122MPD2    H3 1868   2.252   4.446  14.020  0.2135 -2.3573 -0.8103
  122MPD2     N 1869   2.095   4.630  13.632  0.2195 -0.8790 -0.6548
  122MPD2    H5 1870   2.184   4.675  13.612 -0.6454  1.3436  0.5988
  122MPD2    N1 1871   1.822   4.335  13.900  0.6271 -0.8115 -0.2953
  122MPD2    H7 1872   1.752   4.341  13.827  0.9098 -1.0421 -0.5861
  123MPD2     C 1873   0.068   2.865   8.146  0.3864 -0.0574 -0.0289
  123MPD2    C1 1874   0.083   2.891   8.276  0.2600  1.0333  0.7741
  123MPD2    C2 1875   0.194   2.965   8.329 -0.1171  0.2159 -0.1072
  123MPD2    C3 1876   0.293   3.000   8.237  0.2977 -0.3157 -0.0164
  123MPD2    C4 1877   0.271   2.987   8.100  0.5943  0.6165 -0.0909
  123MPD2    C5 1878   0.158   2.924   8.062 -0.1317  0.2295  0.3685
  123MPD2     H 1879   0.213   2.989   8.433 -0.8025  1.5699 -0.3011
  123MPD2    H1 1880   0.342   3.020   8.024  0.4902  1.2855  0.1024
  123MPD2    H2 1881   4.713   2.805   8.095 -1.0963 -0.4743  2.6539
  123MPD2    H3 1882   0.141   2.909   7.956 -0.9159  1.4600  0.3135
  123MPD2     N 1883   0.402   3.061   8.296  0.0505  0.7120 -0.1982
  123MPD2    H5 1884   0.406   3.054   8.397 -0.3979 -1.3842 -0.3120
  123MPD2    N1 1885   4.705   2.830   8.362 -0.7206  0.2103 -0.2726
  123MPD2    H7 1886   4.620   2.805   8.313 -0.7478  1.4527 -0.8470
  124TCq2    C1 1887   0.506   3.122   8.231 -0.5294 -0.7455  0.0302
  124TCq2    O2 1888   0.514   3.143   8.110  0.5001  0.1553 -0.1887
  124TCq2    C2 1889   0.601   3.179   8.325 -0.4016 -0.2330  0.3722
  124TCq2    C3 1890   0.688   3.275   8.276 -0.3191  0.1285 -0.1553
  124TCq2    C4 1891   0.782   3.331   8.356  0.5178 -0.7849  0.4260
  124TCq2    C5 1892   0.783   3.305   8.496 -0.6692 -0.2391  0.3477
  124TCq2    C6 1893   0.691   3.211   8.536 -0.4855  0.1671  0.0015
  124TCq2    C7 1894   0.602   3.141   8.455 -0.8553  0.6598  0.3199
  124TCq2    C8 1895   0.657   3.199   8.679  0.1093 -0.0796  0.3935
  124TCq2    O4 1896   0.569   3.116   8.701 -0.1237  0.4400 -0.1565
  124TCq2    C9 1897   0.870   3.431   8.303 -0.5215 -0.7000  0.3005
  124TCq2    O5 1898   0.921   3.514   8.386 -0.1076 -0.0692  0.0435
  124TCq2    O6 1899   0.865   3.451   8.179 -0.0060  0.0402 -0.3846
  124TCq2    H2 1900   0.684   3.307   8.173  0.8621  0.4144 -0.1173
  124TCq2    H3 1901   0.854   3.359   8.556 -0.5709  0.0234 -0.0040
  124TCq2    H4 1902   0.531   3.068   8.492 -0.4552  0.0623 -0.0960
  125TMC2    C1 1903   0.885   0.269   8.943  0.3617  0.1965 -0.1159
  125TMC2    C2 1904   0.786   0.344   9.000  0.1178 -0.3654 -0.4672
  125TMC2    C3 1905   0.802   0.405   9.118  0.1154 -0.4996  0.6098
  125TMC2    C4 1906   1.009   0.256   9.009 -0.1144 -0.9537 -0.4943
  125TMC2    C5 1907   1.015   0.301   9.132 -0.3395  0.5519 -0.4034
  125TMC2    C6 1908   0.913   0.372   9.190 -0.7610  0.0790  0.3614
  125TMC2     C 1909   0.875   0.243   8.803  0.2459 -0.1523 -0.6356
  125TMC2     O 1910   0.798   0.306   8.732 -0.2869  0.1248  0.6404
  125TMC2     H 1911   0.684   0.335   8.965  0.0663 -2.1204  0.1845
  125TMC2    H1 1912   1.104   0.231   8.964  0.6572  1.6248 -0.3208
  125TMC2    H2 1913   0.924   0.428   9.283  1.1961  2.0463 -1.0590
  125TMC2    C7 1914   1.146   0.294   9.200 -0.0198  0.0314  0.6094
  125TMC2    C8 1915   0.681   0.438   9.191  0.6992 -0.1617 -0.4665
  125TMC2    O1 1916   1.173   0.390   9.275  0.0147  0.0505  0.2971
  125TMC2    O2 1917   0.583   0.364   9.195  0.6057  0.8914  0.4116
  125TMC2    O5 1918   0.697   0.563   9.230 -0.1378  0.6911 -0.5870
  125TMC2    H5 1919   0.791   0.587   9.217 -0.4000  1.5614 -0.8941
  126MPD1     C 1920   1.076   0.018   8.386  0.3591  0.6286  0.1839
  126MPD1    C1 1921   1.105   4.658   8.497  0.4434 -0.4994  0.1873
  126MPD1    C2 1922   1.062   4.697   8.626 -0.3109  0.1470 -0.1391
  126MPD1    C3 1923   0.990   0.097   8.639 -0.9135 -0.6526 -0.3330
  126MPD1    C4 1924   0.959   0.174   8.526  0.7043  0.5771 -0.7998
  126MPD1    C5 1925   0.994   0.129   8.406 -0.6779 -0.0863  0.3400
  126MPD1     H 1926   1.081   4.638   8.715 -2.4867  1.2890  1.0859
  126MPD1    H1 1927   0.905   0.267   8.518  2.8936  1.9968  1.3136
  126MPD1    H2 1928   1.105   0.006   8.282 -2.4678  0.1458 -0.5713
  126MPD1    H3 1929   0.959   0.178   8.316  0.4550 -1.2248 -0.7185
  126MPD1     N 1930   0.963   0.142   8.770 -0.2296 -0.1260 -0.3487
  126MPD1    H5 1931   1.000   0.085   8.845  0.1666  1.0798  0.3726
  126MPD1    N1 1932   1.165   4.528   8.484  0.3783 -0.3298  0.1685
  126MPD1    H6 1933   1.232   4.525   8.408 -0.1664 -1.3916 -0.2677
  126MPD1    H7 1934   1.207   4.490   8.569 -1.5691 -1.5058  0.6082
  127MPD2     C 1935   1.675   3.262   9.269 -0.0877 -1.0093 -0.8148
  127MPD2    C1 1936   1.729   3.376   9.213  0.1000  0.2102  0.3557
  127MPD2    C2 1937   1.830   3.443   9.288 -0.5724  0.0670  0.0653
  127MPD2    C3 1938   1.867   3.388   9.414  0.9255  0.3909 -0.4201
  127MPD2    C4 1939   1.803   3.277   9.468  0.8933 -0.5143  0.3347
  127MPD2    C5 1940   1.711   3.214   9.391 -0.0483 -0.2778  0.0553
  127MPD2     H 1941   1.895   3.521   9.249 -0.7306  1.3445  2.3391
  127MPD2    H1 1942   1.832   3.241   9.566 -2.6271 -0.8549  1.2541
  127MPD2    H2 1943   1.615   3.201   9.203 -0.3843  0.4955 -1.9331
  127MPD2    H3 1944   1.658   3.125   9.427 -0.5362 -0.5942 -1.4482
  127MPD2     N 1945   1.975   3.456   9.467 -0.6067  0.0125 -0.1944
  127MPD2    H5 1946   2.002   3.544   9.426  1.8137 -1.1719 -1.1745
  127MPD2    N1 1947   1.699   3.406   9.077 -0.2646  0.4547  0.0827
  127MPD2    H7 1948   1.648   3.338   9.021 -1.6504  0.1784  1.6732
  128TCq2    C1 1949   1.726   3.523   9.015  0.3379 -0.9104 -0.4245
  128TCq2    O2 1950   1.800   3.606   9.060 -1.2109 -0.0054 -0.6523
  128TCq2    C2 1951   1.690   3.520   8.876 -0.1535 -0.2932  0.3729
  128TCq2    C3 1952   1.764   3.587   8.790 -0.6794 -0.8644  0.9920
  128TCq2    C4 1953   1.750   3.547   8.658  0.1921 -0.1423  0.4325
  128TCq2    C5 1954   1.661   3.457   8.626  0.1502 -0.4177 -0.2859
  128TCq2    C6 1955   1.573   3.413   8.714 -1.0256  0.4039  0.0043
  128TCq2    C7 1956   1.580   3.443   8.847  0.7054  0.4964  0.6834
  128TCq2    C8 1957   1.447   3.361   8.658 -0.3410 -0.3722  0.6372
  128TCq2    O4 1958   1.423   3.392   8.542  0.5857 -0.5991 -0.2803
  128TCq2    C9 1959   1.841   3.602   8.559  0.5206 -0.3162 -0.5905
  128TCq2    O5 1960   1.928   3.686   8.594 -0.0181 -0.4345 -0.5738
  128TCq2    O6 1961   1.835   3.551   8.437 -0.0147  0.5264  0.1695
  128TCq2    H2 1962   1.845   3.652   8.821  1.4444 -2.6693 -0.8183
  128TCq2    H3 1963   1.653   3.426   8.522 -0.8354 -1.5095  0.1129
  128TCq2    H4 1964   1.516   3.396   8.920  2.4150  0.2915  2.0502
  129MPD2     C 1965   0.385   4.683   2.271 -0.1384 -0.5875  0.1011
  129MPD2    C1 1966   0.340   4.639   2.147  0.3479  0.3479 -0.3887
  129MPD2    C2 1967   0.309   0.016   2.048 -0.0049 -0.3769 -0.6385
  129MPD2    C3 1968   0.326   0.156   2.072 -0.7099  0.3321 -1.2348
  129MPD2    C4 1969   0.375   0.193   2.195  0.6322 -0.4184 -0.1961
  129MPD2    C5 1970   0.395   0.099   2.294 -0.1288 -0.3309  0.4133
  129MPD2     H 1971   0.260   4.703   1.957  1.2853  0.1642 -1.5206
  129MPD2    H1 1972   0.379   0.299   2.218  1.6696 -0.6910  0.8715
  129MPD2    H2 1973   0.405   4.623   2.359 -0.5132  0.5436  0.9716
  129MPD2    H3 1974   0.421   0.133   2.394  1.4284 -2.2059  0.6561
  129MPD2     N 1975   0.306   0.243   1.963  0.3745 -0.2020  1.1269
  129MPD2    H5 1976   0.263   0.207   1.878  0.7974 -0.8120  1.1693
  129MPD2    N1 1977   0.324   4.502   2.115 -0.1992  0.0227 -0.1546
  129MPD2    H7 1978   0.279   4.483   2.025 -0.5113 -0.4039  0.0924
  130TCq2    C1 1979   0.366   4.400   2.197  0.2393 -0.0609 -0.2334
  130TCq2    O2 1980   0.417   4.405   2.304 -0.1047  0.5437  0.2393
  130TCq2    C2 1981   0.344   4.273   2.136 -0.1720 -0.4441 -0.0142
  130TCq2    C3 1982   0.422   4.171   2.178  0.1445 -0.2784  0.0055
  130TCq2    C4 1983   0.385   4.044   2.145 -0.3030 -0.1991  1.2215
  130TCq2    C5 1984   0.270   4.021   2.080 -0.0270 -0.5503  0.0253
  130TCq2    C6 1985   0.192   4.122   2.037  0.2439  0.4512  0.2975
  130TCq2    C7 1986   0.219   4.254   2.082  0.0016 -0.6994 -0.2599
  130TCq2    C8 1987   0.075   4.090   1.961  0.6259  0.0760  0.4162
  130TCq2    O4 1988   4.695   4.166   1.972  0.1256 -0.0569 -0.4769
  130TCq2    C9 1989   0.471   3.940   2.197 -0.3348 -0.0344 -0.7535
  130TCq2    O5 1990   0.436   3.822   2.165  0.0122 -0.0118 -0.0653
  130TCq2    O6 1991   0.588   3.972   2.230  0.5418 -0.1198  0.0817
  130TCq2    H2 1992   0.513   4.201   2.230 -0.1816 -0.5790  0.7398
  130TCq2    H3 1993   0.230   3.920   2.082  1.1306 -1.0581 -2.3447
  130TCq2    H4 1994   0.148   4.330   2.052  3.3714  2.1144 -1.1240
  131MPD2     C 1995   4.685   2.656   9.360 -0.3316  0.3860  0.1497
  131MPD2    C1 1996   0.021   2.755   9.283 -0.3319 -0.8527  0.3623
  131MPD2    C2 1997   4.710   2.763   9.143 -0.1805  0.1578  1.1227
  131MPD2    C3 1998   4.616   2.680   9.086  0.6603  0.7243 -0.1448
  131MPD2    C4 1999   4.549   2.590   9.174  0.3935 -0.4667  0.4426
  131MPD2    C5 2000   4.584   2.575   9.303 -0.2184 -0.0507 -0.8831
  131MPD2     H 2001   0.032   2.841   9.081 -1.3154 -0.0220  0.1375
  131MPD2    H1 2002   4.489   2.512   9.129 -1.5407 -0.0254  2.2921
  131MPD2    H2 2003   4.716   2.640   9.462  0.6625  0.3695 -0.1596
  131MPD2    H3 2004   4.542   2.501   9.370  1.1471  0.7924  0.9278
  131MPD2     N 2005   4.598   2.686   8.951  0.1413  0.1879  0.2354
  131MPD2    H5 2006   4.659   2.752   8.904  0.4043  0.4529  0.9628
  131MPD2    N1 2007   0.115   2.847   9.344 -0.0394 -0.1103 -0.1421
  131MPD2    H7 2008   0.129   2.842   9.445  0.3640  1.0831 -0.1409
  132TCq2    C1 2009   0.428   3.356   9.330 -0.0575  0.5139  0.7115
  132TCq2    O2 2010   0.351   3.390   9.240 -0.5250 -0.9428 -1.0028
  132TCq2    C2 2011   0.392   3.232   9.401 -0.0473 -0.1574 -0.5257
  132TCq2    C3 2012   0.419   3.196   9.531 -0.3047 -0.0411  0.5268
  132TCq2    C4 2013   0.368   3.080   9.574 -0.3799 -0.3599 -0.0541
  132TCq2    C5 2014   0.311   2.986   9.490  0.3247 -0.2377  0.4022
  132TCq2    C6 2015   0.290   3.025   9.362 -0.0324 -0.1192  0.3649
  132TCq2    C7 2016   0.330   3.147   9.314 -0.0771 -0.2793 -0.0045
  132TCq2    C8 2017   0.202   2.942   9.275  0.0334 -0.7072 -0.0704
  132TCq2    O4 2018   0.222   2.964   9.159  0.0475 -0.1595  0.0827
  132TCq2    C9 2019   0.402   3.038   9.709  0.1155 -0.1895 -0.7799
  132TCq2    O5 2020   0.336   2.941   9.756 -0.2993 -0.1821 -0.1362
  132TCq2    O6 2021   0.486   3.098   9.778 -0.3245 -0.1934  0.1331
  132TCq2    H2 2022   0.483   3.249   9.601  0.9490 -0.9706  0.0700
  132TCq2    H3 2023   0.275   2.892   9.530 -0.3672 -0.8875 -1.7389
  132TCq2    H4 2024   0.335   3.166   9.208  1.1810 -3.0447 -0.4224
  133MPD2     C 2025   4.241   2.828   8.488  0.3852 -0.4825 -0.3138
  133MPD2    C1 2026   4.321   2.921   8.557 -0.1047 -0.3962 -0.0788
  133MPD2    C2 2027   4.322   2.934   8.697 -0.5353 -0.1970 -0.0473
  133MPD2    C3 2028   4.241   2.842   8.766 -0.8567  0.3350 -0.1530
  133MPD2    C4 2029   4.157   2.751   8.701 -0.0876  0.4029 -0.3113
  133MPD2    C5 2030   4.159   2.748   8.562 -0.0821  0.3912 -0.3563
  133MPD2     H 2031   4.370   3.015   8.752 -0.7392  0.5997 -1.0384
  133MPD2    H1 2032   4.094   2.681   8.754  1.3710  0.3491  1.3636
  133MPD2    H2 2033   4.249   2.808   8.382 -2.9426 -0.7697 -0.5202
  133MPD2    H3 2034   4.097   2.674   8.512 -1.3735  1.4792 -0.3767
  133MPD2     N 2035   4.241   2.831   8.909 -0.2008  0.5613 -0.0391
  133MPD2    H5 2036   4.179   2.766   8.955 -1.4032  1.3485 -0.5596
  133MPD2    N1 2037   4.414   2.991   8.478 -0.1029 -0.4477 -0.3861
  133MPD2    H7 2038   4.407   2.959   8.382 -3.7360  0.2231 -0.3359
  134TCq2    C1 2039   4.510   3.084   8.511  0.3025 -0.1478  0.7768
  134TCq2    O2 2040   4.543   3.110   8.626 -0.0911  0.1012  0.3984
  134TCq2    C2 2041   4.575   3.148   8.397 -0.0138 -0.3401 -0.5267
  134TCq2    C3 2042   4.516   3.155   8.273  0.3259  0.2375 -0.1682
  134TCq2    C4 2043   4.579   3.228   8.176  0.3219 -0.4896 -0.0881
  134TCq2    C5 2044   4.705   3.288   8.190  0.2338  0.0206 -0.3840
  134TCq2    C6 2045   0.031   3.288   8.313  0.0775  0.0508  0.4150
  134TCq2    C7 2046   4.695   3.223   8.419 -0.8919  0.1916  0.4729
  134TCq2    C8 2047   0.168   3.342   8.336  0.1645  0.0504 -0.4497
  134TCq2    O4 2048   0.235   3.367   8.236  0.0213  0.0061  0.3589
  134TCq2    C9 2049   4.521   3.230   8.046  0.1502 -0.3240  0.3302
  134TCq2    O5 2050   4.557   3.325   7.969 -0.4472  0.4167 -0.0810
  134TCq2    O6 2051   4.425   3.151   8.029 -0.5252  0.4127 -0.0098
  134TCq2    H2 2052   4.421   3.108   8.252  0.9659 -0.6467 -1.1047
  134TCq2    H3 2053   0.025   3.354   8.115  1.0999 -0.6263 -0.4991
  134TCq2    H4 2054   0.023   3.216   8.516  2.2770 -1.4360 -1.1792
  135MPD2     C 2055   2.076   0.600   9.561  0.4585  0.3363  0.3870
  135MPD2    C1 2056   1.948   0.547   9.576 -0.1086 -0.0808  0.2138
  135MPD2    C2 2057   1.877   0.528   9.461 -0.1816  0.6662  0.5913
  135MPD2    C3 2058   1.929   0.543   9.337 -0.3297 -0.0670  0.6017
  135MPD2    C4 2059   2.058   0.580   9.325 -0.0626  0.4184  0.1671
  135MPD2    C5 2060   2.132   0.607   9.440 -0.0286 -0.1766 -0.3245
  135MPD2     H 2061   1.772   0.500   9.470 -0.2040 -0.1392 -2.2069
  135MPD2    H1 2062   2.108   0.599   9.231  0.6154  1.1276  0.6672
  135MPD2    H2 2063   2.142   0.632   9.641  0.2392 -0.2594  0.8107
  135MPD2    H3 2064   2.233   0.645   9.430  0.3579 -1.2914 -0.6523
  135MPD2     N 2065   1.855   0.502   9.224  0.2548  0.4202  0.5287
  135MPD2    H5 2066   1.903   0.476   9.138  0.2853  1.2850  0.2787
  135MPD2    N1 2067   1.896   0.516   9.709 -0.3665  0.0934  0.2105
  135MPD2    H7 2068   1.800   0.485   9.721 -0.1842 -0.0132  1.3725
  136TCq2    C1 2069   1.984   0.477   9.805 -0.4338  0.3188  0.4167
  136TCq2    O2 2070   2.102   0.504   9.830  0.7486  0.4020  0.0262
  136TCq2    C2 2071   1.925   0.379   9.894  0.1745  0.2829  0.1079
  136TCq2    C3 2072   1.795   0.395   9.916  0.7037 -0.4229  0.5086
  136TCq2    C4 2073   1.732   0.301  10.000 -0.4454  0.2160  0.3181
  136TCq2    C5 2074   1.796   0.188  10.052 -0.6075 -0.3508 -0.0078
  136TCq2    C6 2075   1.930   0.179  10.020  0.2129 -0.3915  0.1980
  136TCq2    C7 2076   2.001   0.276   9.948  0.4735  0.5491  0.1882
  136TCq2    C8 2077   2.001   0.051  10.043  0.8777  0.0225  0.3909
  136TCq2    O4 2078   2.121   0.051  10.028  0.3926 -0.7600  0.5065
  136TCq2    C9 2079   1.593   0.335  10.032 -0.4881  0.1463 -0.8844
  136TCq2    O5 2080   1.543   0.292  10.136 -0.0322 -0.2932  0.2021
  136TCq2    O6 2081   1.526   0.402   9.952 -0.2804 -0.9496  0.3672
  136TCq2    H2 2082   1.742   0.488   9.894  0.8792 -1.1347 -2.8969
  136TCq2    H3 2083   1.752   0.115  10.119 -1.6089  2.2704  2.1506
  136TCq2    H4 2084   2.103   0.258   9.917  0.3195 -1.1737  0.6953
  137MPD2     C 2085   0.809   3.900   8.832  0.1373  0.2010 -0.0231
  137MPD2    C1 2086   0.847   4.024   8.880 -0.3321 -0.1291  0.2026
  137MPD2    C2 2087   0.943   4.033   8.981  0.7207 -0.0070 -0.2098
  137MPD2    C3 2088   0.984   3.913   9.041  0.2283  0.2752  0.3533
  137MPD2    C4 2089   0.943   3.790   8.993  0.3339  0.2926 -0.4184
  137MPD2    C5 2090   0.856   3.790   8.891 -0.6126 -0.3131  0.2618
  137MPD2     H 2091   0.978   4.129   9.017  3.3181 -0.9160 -0.3628
  137MPD2    H1 2092   0.982   3.694   9.024  0.6703  0.7106  0.4505
  137MPD2    H2 2093   0.738   3.886   8.751 -0.8258  2.4344  0.4309
  137MPD2    H3 2094   0.830   3.699   8.839  2.2942 -0.6284 -0.6432
  137MPD2     N 2095   1.070   3.923   9.154 -0.2636  0.0157  0.4538
  137MPD2    H5 2096   1.121   4.010   9.164 -1.6463  0.6620  1.9677
  137MPD2    N1 2097   0.799   4.139   8.812  0.2367  0.2014 -0.0715
  137MPD2    H7 2098   0.743   4.129   8.728 -1.8773  2.5253  1.0427
  138TCq2    C1 2099   0.794   4.265   8.870  0.1778  0.0790 -0.0123
  138TCq2    O2 2100   0.843   4.306   8.977 -0.4217 -0.0650 -0.0439
  138TCq2    C2 2101   0.696   4.361   8.809 -0.0717 -0.4463  0.2522
  138TCq2    C3 2102   0.727   4.402   8.684  0.4699  0.0173  0.6476
  138TCq2    C4 2103   0.689   4.528   8.650  0.2396 -0.3766 -0.2839
  138TCq2    C5 2104   0.649   4.617   8.744  0.1921 -0.3807 -0.1684
  138TCq2    C6 2105   0.640   4.573   8.878  0.0496  0.5312  0.1492
  138TCq2    C7 2106   0.639   4.438   8.904 -0.6632 -0.2234  0.3254
  138TCq2    C8 2107   0.658   4.669   8.994  0.2279  0.2013  0.1366
  138TCq2    O4 2108   0.603   0.061   9.001 -0.6184  0.1824  0.8103
  138TCq2    C9 2109   0.713   4.584   8.518  0.1674  0.4713  0.0512
  138TCq2    O5 2110   0.778   4.514   8.436 -0.2086  0.2165  0.1063
  138TCq2    O6 2111   0.649   4.686   8.490 -0.2771  0.2737 -0.0032
  138TCq2    H2 2112   0.741   4.333   8.601 -4.4185  0.6017 -0.7229
  138TCq2    H3 2113   0.650   0.002   8.716 -1.8616 -0.4018 -0.2983
  138TCq2    H4 2114   0.605   4.403   9.001 -0.4899  0.2999  0.5798
  139TMC2    C1 2115   1.477   2.277  13.396  0.0758 -0.2668  0.6033
  139TMC2    C2 2116   1.610   2.260  13.406  0.5471  0.3886  0.0358
  139TMC2    C3 2117   1.682   2.361  13.463  0.4901  0.4602 -0.8958
  139TMC2    C4 2118   1.416   2.402  13.418  0.5378 -0.7790 -0.1671
  139TMC2    C5 2119   1.494   2.503  13.461  0.1363  0.3962 -0.1130
  139TMC2    C6 2120   1.627   2.484  13.488 -0.0590  0.4574 -0.4202
  139TMC2     C 2121   1.403   2.165  13.348  0.6792  0.2025  0.5215
  139TMC2     O 2122   1.468   2.073  13.292 -0.1400 -0.3862  0.9411
  139TMC2     H 2123   1.654   2.166  13.375  0.5712  0.1034  0.9299
  139TMC2    H1 2124   1.314   2.430  13.398 -0.7153 -4.5562  0.9720
  139TMC2    H2 2125   1.692   2.565  13.521  0.7959  0.1461 -1.3336
  139TMC2    C7 2126   1.427   2.628  13.504  0.1265  0.2800 -0.3094
  139TMC2    C8 2127   1.822   2.357  13.419  0.2190  1.2042  0.2746
  139TMC2    O1 2128   1.313   2.617  13.548 -0.5192 -0.3398 -0.0734
  139TMC2    O2 2129   1.871   2.249  13.390 -0.1690  0.8801 -0.1463
  139TMC2    O5 2130   1.831   2.467  13.342  0.0266  0.0817 -0.2832
  139TMC2    H5 2131   1.781   2.545  13.374  1.7947  0.4720  1.5537
  140MPD2     C 2132   1.037   2.140  13.318 -0.7033  0.3667  0.4298
  140MPD2    C1 2133   1.172   2.101  13.302 -0.0682 -0.2321  0.4148
  140MPD2    C2 2134   1.191   1.998  13.211  0.3439 -0.1596  0.1222
  140MPD2    C3 2135   1.092   1.922  13.153  0.0161  0.5474  0.3899
  140MPD2    C4 2136   0.959   1.965  13.171 -0.3935 -0.3115  0.6243
  140MPD2    C5 2137   0.935   2.072  13.254  0.5290  0.2312  0.3338
  140MPD2     H 2138   1.293   1.971  13.186 -0.4382 -0.8586 -2.3949
  140MPD2    H1 2139   0.875   1.917  13.122 -0.4377 -0.3274  0.7156
  140MPD2    H2 2140   1.019   2.227  13.380 -0.4815  1.2957 -0.7950
  140MPD2    H3 2141   0.836   2.111  13.278 -0.0914 -0.3650 -1.2414
  140MPD2     N 2142   1.125   1.813  13.074  0.5049 -0.2108 -0.2391
  140MPD2    H5 2143   1.225   1.795  13.066 -0.1320 -3.4532 -0.9582
  140MPD2    N1 2144   1.270   2.184  13.358  0.7964  0.6866  0.1795
  140MPD2    H7 2145   1.233   2.259  13.417 -2.1324 -1.2285  0.7951
  141TCq2    C1 2146   2.300   3.326  13.804  1.2471  0.6766 -0.8658
  141TCq2    O2 2147   2.291   3.418  13.719 -0.0043 -0.0456 -0.0847
  141TCq2    C2 2148   2.238   3.351  13.930  0.0996 -0.2823 -0.4152
  141TCq2    C3 2149   2.173   3.251  14.003  0.1116 -0.3604 -0.2916
  141TCq2    C4 2150   2.095   3.296  14.105  0.3072  0.2736 -0.2970
  141TCq2    C5 2151   2.085   3.425  14.150  0.0398  0.0539 -0.1137
  141TCq2    C6 2152   2.160   3.518  14.084  0.3355 -0.1363  0.6905
  141TCq2    C7 2153   2.235   3.477  13.970  0.7247 -0.1187  0.6875
  141TCq2    C8 2154   2.150   3.655  14.121 -0.1454 -0.2078 -0.0062
  141TCq2    O4 2155   2.068   3.692  14.203  0.6328  0.6711 -0.4417
  141TCq2    C9 2156   2.015   3.196  14.172 -0.0991  0.0249 -0.1061
  141TCq2    O5 2157   2.009   3.085  14.116 -0.3821  0.5093  0.1377
  141TCq2    O6 2158   1.968   3.229  14.283 -0.5590 -0.0116 -0.3282
  141TCq2    H2 2159   2.168   3.148  13.971 -1.1632  0.1948 -1.8955
  141TCq2    H3 2160   2.031   3.452  14.240 -0.3838 -0.2617 -0.2738
  141TCq2    H4 2161   2.285   3.545  13.901  0.7258  0.2298  1.0332
  142MPD2     C 2162   0.034   2.301   9.339  0.8214 -0.6325  0.4537
  142MPD2    C1 2163   0.090   2.330   9.460  0.7184  0.6086  0.3365
  142MPD2    C2 2164   0.192   2.414   9.461  0.3297  0.9543  0.8137
  142MPD2    C3 2165   0.249   2.470   9.344 -0.6299  0.3250  0.0693
  142MPD2    C4 2166   0.202   2.429   9.219  0.1540  0.5407  0.4612
  142MPD2    C5 2167   0.099   2.342   9.226 -0.0736  0.3034 -0.2930
  142MPD2     H 2168   0.229   2.439   9.560  2.6048  1.4830 -0.1611
  142MPD2    H1 2169   0.251   2.463   9.128 -1.8487 -0.9338 -1.1733
  142MPD2    H2 2170   4.665   2.241   9.326  1.5610 -1.6975  0.3150
  142MPD2    H3 2171   0.053   2.313   9.132  1.0863 -0.9234 -0.4810
  142MPD2     N 2172   0.363   2.559   9.345  0.3872 -0.0216  0.6448
  142MPD2    H5 2173   0.404   2.574   9.253 -0.7923  2.7922  0.5685
  142MPD2    N1 2174   0.034   2.272   9.574 -0.2853 -0.3005 -0.5256
  142MPD2    H7 2175   4.670   2.220   9.550  0.6366 -2.3929  0.7646
  143TCq2    C1 2176   0.402   2.640   9.450 -0.5324 -0.0505  0.4271
  143TCq2    O2 2177   0.365   2.627   9.565 -0.0389  0.7767 -0.5426
  143TCq2    C2 2178   0.518   2.721   9.425  0.5872  0.4411  0.8658
  143TCq2    C3 2179   0.587   2.761   9.539 -1.1105 -0.1137 -0.8137
  143TCq2    C4 2180   0.678   2.866   9.524 -0.6380  0.8851 -1.1466
  143TCq2    C5 2181   0.683   2.940   9.410  0.6041 -0.9058  0.0213
  143TCq2    C6 2182   0.609   2.905   9.301 -0.0094 -0.1161  0.2543
  143TCq2    C7 2183   0.524   2.800   9.312 -0.2245 -0.2570 -0.3494
  143TCq2    C8 2184   0.602   2.991   9.189 -0.2187  0.2621 -0.1196
  143TCq2    O4 2185   0.548   2.956   9.083  0.4818  1.0537 -0.5675
  143TCq2    C9 2186   0.762   2.907   9.641  0.0195  0.7177 -0.4090
  143TCq2    O5 2187   0.837   3.008   9.629  0.0929  0.0954 -0.1554
  143TCq2    O6 2188   0.722   2.863   9.754 -0.0609 -0.3222  0.4432
  143TCq2    H2 2189   0.570   2.701   9.628  1.2305  2.2246  1.2440
  143TCq2    H3 2190   0.757   3.018   9.415 -0.8463  0.4202  0.6761
  143TCq2    H4 2191   0.456   2.774   9.232  1.0786 -0.9595 -1.2501
  144MPD2     C 2192   2.193   1.441   0.697  0.2315  0.4801  0.2572
  144MPD2    C1 2193   2.202   1.303   0.718 -0.1232 -0.4659  0.8132
  144MPD2    C2 2194   2.288   1.257   0.817  0.6242 -0.2477  0.5634
  144MPD2    C3 2195   2.368   1.340   0.885 -1.1721 -0.9651 -0.3450
  144MPD2    C4 2196   2.352   1.474   0.866 -0.1143  0.3990 -0.6330
  144MPD2    C5 2197   2.261   1.522   0.782 -0.0566 -0.0135 -0.6343
  144MPD2     H 2198   2.291   1.150   0.836 -0.7504 -0.3933 -0.0403
  144MPD2    H1 2199   2.419   1.541   0.920  2.1551 -2.9875  0.7750
  144MPD2    H2 2200   2.140   1.482   0.611  0.1105  0.3616  0.2739
  144MPD2    H3 2201   2.250   1.630   0.772  0.7317  0.0261 -1.0924
  144MPD2     N 2202   2.456   1.294   0.986  0.5547 -0.3170  0.3332
  144MPD2    H5 2203   2.512   1.360   1.039 -0.1964 -1.0110  1.9871
  144MPD2    N1 2204   2.138   1.223   0.617  0.7152 -0.7457 -0.3165
  144MPD2    H7 2205   2.068   1.267   0.559 -0.1853 -1.8884 -0.1002
  145TCq2    C1 2206   2.478   1.158   1.014 -0.3101  0.6822 -1.0292
  145TCq2    O2 2207   2.427   1.053   0.983 -0.6112  0.7742  0.1630
  145TCq2    C2 2208   2.569   1.154   1.123 -0.7741 -0.1916 -1.0075
  145TCq2    C3 2209   2.632   1.034   1.139 -0.6530  0.1337  0.1433
  145TCq2    C4 2210   2.744   1.033   1.215 -0.5108 -0.1064 -0.2118
  145TCq2    C5 2211   2.774   1.141   1.293  0.5579  0.0123 -0.1893
  145TCq2    C6 2212   2.705   1.261   1.275  0.5436  0.1152  0.1375
  145TCq2    C7 2213   2.602   1.269   1.189  0.0192  0.2550  0.4678
  145TCq2    C8 2214   2.737   1.366   1.372 -0.7835 -0.4894 -0.0899
  145TCq2    O4 2215   2.745   1.331   1.488  0.6144  0.3353  0.3088
  145TCq2    C9 2216   2.823   0.925   1.216  0.0620 -0.3086 -0.8119
  145TCq2    O5 2217   2.943   0.945   1.240 -0.1729  0.4728  0.2643
  145TCq2    O6 2218   2.767   0.814   1.178 -0.3424 -0.2296  0.1929
  145TCq2    H2 2219   2.636   0.949   1.071  4.0553  0.1996  0.3803
  145TCq2    H3 2220   2.858   1.140   1.362  0.4388  0.7388 -0.0290
  145TCq2    H4 2221   2.525   1.345   1.191  1.9873  2.2241  2.1679
  146TMC2    C1 2222   4.354   4.378  12.214  0.2138 -0.2313  0.4188
  146TMC2    C2 2223   4.281   4.382  12.100 -0.2080 -0.1210  0.5598
  146TMC2    C3 2224   4.332   4.304  11.998 -0.7881  0.3097  0.2098
  146TMC2    C4 2225   4.483   4.332  12.220 -0.0235 -0.0660 -0.3443
  146TMC2    C5 2226   4.531   4.267  12.112 -1.0185 -0.1637 -0.7045
  146TMC2    C6 2227   4.453   4.252  11.996 -0.4671  0.2441  0.4276
  146TMC2     C 2228   4.312   4.479  12.310  0.7140 -0.1605 -0.2713
  146TMC2     O 2229   4.235   4.562  12.263  0.0413 -0.5187  0.7435
  146TMC2     H 2230   4.186   4.432  12.086  0.0740  0.1934 -0.1918
  146TMC2    H1 2231   4.547   4.376  12.296  0.6675 -0.6251 -0.6039
  146TMC2    H2 2232   4.486   4.191  11.912 -4.9353 -1.8538  0.1619
  146TMC2    C7 2233   4.656   4.193  12.131 -0.5786 -0.2226 -0.4557
  146TMC2    C8 2234   4.242   4.275  11.883 -0.7254  0.4883 -0.5271
  146TMC2    O1 2235   4.719   4.166  12.029  0.3696  0.2699  0.4311
  146TMC2    O2 2236   4.291   4.227  11.776 -0.0418 -0.5174 -0.4024
  146TMC2    O5 2237   4.122   4.248  11.942 -0.3405  0.4981 -0.0686
  146TMC2    H5 2238   4.114   4.307  12.020  0.6734 -1.8271  1.7910
  147MPD2     C 2239   0.299   4.054  12.460  0.5226  0.4260  1.3543
  147MPD2    C1 2240   0.181   4.058  12.528 -0.5652 -0.3398 -0.2128
  147MPD2    C2 2241   0.064   4.086  12.456  0.2120  0.0260 -0.1916
  147MPD2    C3 2242   0.073   4.113  12.323  0.7424  0.4639  0.6580
  147MPD2    C4 2243   0.193   4.095  12.254  0.0417 -0.1595  0.5111
  147MPD2    C5 2244   0.305   4.073  12.325 -0.1342  0.2045 -0.5994
  147MPD2     H 2245   4.691   4.098  12.511  0.5552  1.0608  0.1534
  147MPD2    H1 2246   0.201   4.098  12.146 -1.8848 -0.4939  0.3720
  147MPD2    H2 2247   0.393   4.056  12.514  3.2363  1.2639 -3.3602
  147MPD2    H3 2248   0.404   4.067  12.281  0.5092  1.8431  0.5944
  147MPD2     N 2249   4.668   4.154  12.261  0.2089 -0.8516  0.4948
  147MPD2    H5 2250   4.601   4.180  12.332 -1.3529 -0.7216 -1.0432
  147MPD2    N1 2251   0.194   4.058  12.672  0.0989 -0.1290  0.1601
  147MPD2    H7 2252   0.283   4.028  12.711 -0.7482 -2.6430  0.1310
  148MPD2     C 2253   4.293   3.447  10.102  0.0683 -0.5102 -1.2089
  148MPD2    C1 2254   4.339   3.353  10.189  0.3194  0.0962 -0.2787
  148MPD2    C2 2255   4.295   3.227  10.168  0.0773 -0.3605  1.5249
  148MPD2    C3 2256   4.208   3.186  10.065 -0.3123 -0.3213 -0.3452
  148MPD2    C4 2257   4.170   3.289   9.973 -0.9358  0.8195 -0.5690
  148MPD2    C5 2258   4.225   3.418   9.988  0.1572 -0.3546  0.5636
  148MPD2     H 2259   4.325   3.143  10.229  1.7023 -0.9809 -0.1124
  148MPD2    H1 2260   4.103   3.270   9.891  0.1303 -0.9943 -1.0030
  148MPD2    H2 2261   4.315   3.552  10.117 -1.5125  0.0153 -2.5289
  148MPD2    H3 2262   4.189   3.494   9.919 -0.8739  0.4750  2.0094
  148MPD2     N 2263   4.149   3.057  10.060 -0.3197  0.1526  0.2233
  148MPD2    H5 2264   4.088   3.040   9.981 -0.7528  0.6641  0.4491
  148MPD2    N1 2265   4.411   3.365  10.310 -0.5769 -0.3989 -0.3394
  148MPD2    H7 2266   4.426   3.277  10.359  2.6627  0.5584  0.3722
  149TCq2    C1 2267   4.421   3.486  10.376 -0.5957  0.5699  0.3264
  149TCq2    O2 2268   4.372   3.597  10.346 -0.1611  0.4781 -0.4683
  149TCq2    C2 2269   4.460   3.466  10.510 -0.5258 -1.0847  0.1999
  149TCq2    C3 2270   4.483   3.579  10.586 -0.1974  0.7445  0.3051
  149TCq2    C4 2271   4.556   3.559  10.700  0.1477 -0.0248  0.0080
  149TCq2    C5 2272   4.612   3.443  10.733 -0.0114  0.1211 -0.3364
  149TCq2    C6 2273   4.567   3.331  10.663  0.6185  0.3201 -0.0309
  149TCq2    C7 2274   4.495   3.341  10.554 -0.1466  0.7409  0.8606
  149TCq2    C8 2275   4.641   3.208  10.685  1.2067 -0.0923 -0.0265
  149TCq2    O4 2276   4.680   3.151  10.585 -0.1759 -0.2883 -0.3309
  149TCq2    C9 2277   4.635   3.676  10.752  0.5292  0.0369  0.5531
  149TCq2    O5 2278   4.613   3.787  10.695 -0.0710 -0.2418  0.7154
  149TCq2    O6 2279   0.019   3.657  10.825 -0.6331  0.1538  0.0077
  149TCq2    H2 2280   4.444   3.677  10.557  0.7210  0.7124 -1.0339
  149TCq2    H3 2281   4.683   3.434  10.814 -1.9156  1.1360  1.4430
  149TCq2    H4 2282   4.469   3.248  10.504 -0.8671  0.4881  1.7096
  150MPD2     C 2283   0.809   2.694  11.885  0.4219  0.0197  0.6553
  150MPD2    C1 2284   0.858   2.707  11.757 -0.5105 -0.6189  0.2460
  150MPD2    C2 2285   0.974   2.784  11.750  0.4066  0.4748 -1.1420
  150MPD2    C3 2286   1.050   2.825  11.857 -0.3078 -0.3126 -0.7953
  150MPD2    C4 2287   0.994   2.806  11.980 -0.0690 -0.3888  0.5752
  150MPD2    C5 2288   0.875   2.739  11.994 -0.0831 -0.5524 -0.6342
  150MPD2     H 2289   1.025   2.816  11.659 -0.1359 -1.6345 -2.2056
  150MPD2    H1 2290   1.040   2.838  12.073 -0.4986 -0.3403  0.7723
  150MPD2    H2 2291   0.726   2.627  11.903  0.8484 -1.2586 -2.1828
  150MPD2    H3 2292   0.824   2.731  12.089  1.6774  0.9081  0.4225
  150MPD2     N 2293   1.176   2.878  11.828  0.1266 -0.5649 -0.1486
  150MPD2    H5 2294   1.218   2.873  11.736 -2.5795 -0.9996 -1.3649
  150MPD2    N1 2295   0.804   2.636  11.648 -0.3881 -0.0140 -0.3947
  150MPD2    H7 2296   0.714   2.594  11.665  1.0307 -2.8368  0.0148
  151TCq2    C1 2297   1.250   2.948  11.916 -0.3910 -0.4766 -0.9686
  151TCq2    O2 2298   1.227   2.972  12.033 -1.1815  0.4402  0.3259
  151TCq2    C2 2299   1.373   2.991  11.854 -0.3671 -0.2551  0.1979
  151TCq2    C3 2300   1.378   3.011  11.717  0.1655 -0.9196 -0.1369
  151TCq2    C4 2301   1.482   3.076  11.655  0.2820  0.0110 -0.2671
  151TCq2    C5 2302   1.580   3.118  11.736  0.1532  0.3154  0.0100
  151TCq2    C6 2303   1.579   3.095  11.869  0.1473 -0.6322  0.0345
  151TCq2    C7 2304   1.482   3.030  11.936 -0.0331  0.2718  0.9710
  151TCq2    C8 2305   1.709   3.122  11.922 -0.9001  0.2476  0.6316
  151TCq2    O4 2306   1.772   3.223  11.897  0.0978 -0.1908  0.5252
  151TCq2    C9 2307   1.477   3.111  11.517  0.3218  0.3130 -0.7287
  151TCq2    O5 2308   1.571   3.187  11.478 -0.1113 -0.4324 -0.2907
  151TCq2    O6 2309   1.415   3.028  11.445  0.0694  0.7253  0.4258
  151TCq2    H2 2310   1.296   2.983  11.651  1.1181 -1.2085 -1.2095
  151TCq2    H3 2311   1.665   3.170  11.694 -0.3609  1.1966  0.0544
  151TCq2    H4 2312   1.490   2.985  12.034  0.0528  0.0271  0.8512
  152MPD2     C 2313   0.928   2.233  12.504 -0.3331  0.1971  0.5604
  152MPD2    C1 2314   0.986   2.357  12.529  0.1879  0.4925 -0.5336
  152MPD2    C2 2315   0.921   2.472  12.489 -0.2535  0.2209  0.4778
  152MPD2    C3 2316   0.803   2.458  12.426 -0.0587 -0.2939  0.7484
  152MPD2    C4 2317   0.752   2.339  12.391 -0.6826 -0.3824  0.2669
  152MPD2    C5 2318   0.815   2.222  12.423  0.5647 -0.4902 -0.6620
  152MPD2     H 2319   0.964   2.567  12.517  0.7395 -0.3550  0.8991
  152MPD2    H1 2320   0.666   2.341  12.325 -1.9811  0.3830  1.9710
  152MPD2    H2 2321   0.982   2.142  12.524  1.3839  0.6547 -1.9905
  152MPD2    H3 2322   0.787   2.121  12.395  0.8689 -1.3143  1.9709
  152MPD2     N 2323   0.738   2.578  12.408 -0.1479 -0.0949  0.1963
  152MPD2    H5 2324   0.795   2.656  12.439 -1.7013  0.7929  0.8016
  152MPD2    N1 2325   1.115   2.355  12.598  0.1007  0.4716 -0.2649
  152MPD2    H7 2326   1.161   2.266  12.612  1.7940  1.3099 -0.5024
  153TCq2    C1 2327   1.192   2.464  12.629 -0.7057  0.3038  0.0508
  153TCq2    O2 2328   1.157   2.580  12.620 -0.2919 -0.5807  0.1966
  153TCq2    C2 2329   1.331   2.430  12.678 -0.6885  0.0943  0.1422
  153TCq2    C3 2330   1.376   2.312  12.622  0.6202  0.3062 -0.4907
  153TCq2    C4 2331   1.512   2.298  12.599 -0.5347 -0.1884 -0.1791
  153TCq2    C5 2332   1.595   2.407  12.614  0.7186  0.7608 -0.2052
  153TCq2    C6 2333   1.541   2.525  12.659 -0.1350 -0.4392 -0.3932
  153TCq2    C7 2334   1.410   2.536  12.695  0.1936 -0.1379  0.0278
  153TCq2    C8 2335   1.583   2.644  12.591  0.6131  0.4652 -0.3546
  153TCq2    O4 2336   1.495   2.692  12.519  0.3563 -0.0639 -0.4637
  153TCq2    C9 2337   1.564   2.170  12.558  0.2894 -0.5098 -0.7191
  153TCq2    O5 2338   1.487   2.087  12.501 -0.6247  0.0989 -0.2801
  153TCq2    O6 2339   1.678   2.137  12.595 -0.2913  0.5128 -0.3691
  153TCq2    H2 2340   1.312   2.227  12.602  0.3269  0.6176 -0.8906
  153TCq2    H3 2341   1.701   2.397  12.597  0.9211  0.3009  1.3288
  153TCq2    H4 2342   1.369   2.630  12.727 -0.9102  0.0382 -1.9105
  154MPD2     C 2343   2.552   2.945   0.316 -0.1587  0.1657 -0.9544
  154MPD2    C1 2344   2.504   3.065   0.268 -0.0001  0.5504 -0.9548
  154MPD2    C2 2345   2.391   3.075   0.188 -0.6926  0.2128 -0.5075
  154MPD2    C3 2346   2.329   2.960   0.156  0.3593  0.3606 -0.4550
  154MPD2    C4 2347   2.381   2.837   0.193  0.2988  0.2951 -0.0489
  154MPD2    C5 2348   2.488   2.832   0.272  0.1797  0.0998  0.4055
  154MPD2     H 2349   2.367   3.173   0.148  0.8394  0.7663 -0.0805
  154MPD2    H1 2350   2.327   2.745   0.170  1.5939 -0.7482  1.1151
  154MPD2    H2 2351   2.633   2.938   0.388 -0.6572 -0.0703 -0.4175
  154MPD2    H3 2352   2.516   2.733   0.307  1.3644 -0.2846 -1.6340
  154MPD2     N 2353   2.219   2.962   0.074  0.6617 -0.2945 -0.1564
  154MPD2    H5 2354   2.175   2.870   0.065  3.3481 -1.4347 -1.4515
  154MPD2    N1 2355   2.583   3.172   0.324  0.1439  0.0696  0.4662
  154MPD2    H7 2356   2.653   3.142   0.390  1.5663  0.1742 -0.9965
  155TCq2    C1 2357   2.553   3.304   0.300  0.2649 -0.1678 -0.3730
  155TCq2    O2 2358   2.450   3.357   0.255 -0.0174 -1.0123  0.2643
  155TCq2    C2 2359   2.642   3.393   0.368  0.0374 -0.4651  0.5379
  155TCq2    C3 2360   2.771   3.344   0.397  0.8606 -0.4795 -0.4815
  155TCq2    C4 2361   2.850   3.419   0.477  0.5320  0.7949 -0.1110
  155TCq2    C5 2362   2.803   3.528   0.542  0.5095  0.0831 -0.6432
  155TCq2    C6 2363   2.674   3.570   0.522  0.1416 -0.2756  0.3371
  155TCq2    C7 2364   2.594   3.501   0.433  0.2231  0.0995  0.7630
  155TCq2    C8 2365   2.624   3.701   0.551 -0.3014  0.0462 -0.2971
  155TCq2    O4 2366   2.512   3.738   0.535 -0.4122 -0.2974  0.8712
  155TCq2    C9 2367   2.980   3.372   0.506  0.1952  0.3476 -0.1477
  155TCq2    O5 2368   3.008   3.254   0.474  0.1698  0.1975  0.0062
  155TCq2    O6 2369   3.058   3.457   0.555 -0.2442 -0.1310 -0.1628
  155TCq2    H2 2370   2.808   3.250   0.358  2.3582 -0.8955  1.9702
  155TCq2    H3 2371   2.870   3.577   0.611 -0.7346  0.3174  0.4068
  155TCq2    H4 2372   2.492   3.539   0.427 -0.2525 -1.5089 -1.3670
  156MPD2     C 2373   1.732   4.689  11.636  0.4137  0.2099 -0.6225
  156MPD2    C1 2374   1.603   0.031  11.613 -0.1978  0.2079 -0.2533
  156MPD2    C2 2375   1.567   0.128  11.704 -0.0193 -0.1636 -0.2727
  156MPD2    C3 2376   1.633   0.153  11.820 -0.2851 -0.2995 -0.1318
  156MPD2    C4 2377   1.745   0.081  11.850  0.1208  0.1169  1.0089
  156MPD2    C5 2378   1.797   0.000  11.751  0.7993 -0.1861  0.1247
  156MPD2     H 2379   1.471   0.175  11.689  0.1454  0.7647  1.6256
  156MPD2    H1 2380   1.795   0.093  11.946  0.8681  2.2964  0.3468
  156MPD2    H2 2381   1.782   4.617  11.573  0.4828 -0.4654  0.1994
  156MPD2    H3 2382   1.898   4.680  11.754  1.0421  0.3973 -0.3495
  156MPD2     N 2383   1.578   0.257  11.900  0.6895  0.0786 -0.3937
  156MPD2    H5 2384   1.495   0.296  11.856 -0.6315 -1.5797  0.6331
  156MPD2    N1 2385   1.552   0.018  11.482 -0.1311 -0.5989 -0.7396
  156MPD2    H7 2386   1.606   4.686  11.413 -0.2019 -0.0357 -1.2127
  157TCq2    C1 2387   1.436   0.073  11.434  0.2887  0.4180 -0.1322
  157TCq2    O2 2388   1.361   0.148  11.494  0.1143  0.0908  0.4120
  157TCq2    C2 2389   1.408   0.033  11.296 -0.6589 -0.4631 -0.3126
  157TCq2    C3 2390   1.483   4.659  11.234 -0.0331  0.5168  0.2167
  157TCq2    C4 2391   1.484   4.667  11.097  0.1766 -0.2791 -0.5504
  157TCq2    C5 2392   1.396   0.038  11.025 -0.3915  0.2363 -0.0870
  157TCq2    C6 2393   1.319   0.127  11.097 -0.2300  0.2466 -0.0631
  157TCq2    C7 2394   1.333   0.124  11.232 -0.0869 -0.5409 -0.2090
  157TCq2    C8 2395   1.268   0.243  11.030 -0.3174  0.9128  0.8890
  157TCq2    O4 2396   1.313   0.278  10.924  0.4659  0.5647 -0.2383
  157TCq2    C9 2397   1.569   4.578  11.018  0.4417 -0.4336  0.3631
  157TCq2    O5 2398   1.637   4.497  11.085 -1.1088  0.1279 -0.0932
  157TCq2    O6 2399   1.567   4.585  10.891 -0.1621 -0.0371 -0.1260
  157TCq2    H2 2400   1.545   4.586  11.285  0.8798  0.6743 -0.6801
  157TCq2    H3 2401   1.409   0.058  10.919  0.7020  2.2446  0.4370
  157TCq2    H4 2402   1.275   0.193  11.292  0.6297 -0.2158  0.1153
  158TMC2    C1 2403   1.559   3.824  13.409 -0.4295  0.0330  0.1581
  158TMC2    C2 2404   1.626   3.801  13.292 -0.1554  0.5101 -0.1554
  158TMC2    C3 2405   1.555   3.817  13.176 -0.0902 -0.0668  0.4121
  158TMC2    C4 2406   1.431   3.872  13.411  0.0619 -0.4448  0.0649
  158TMC2    C5 2407   1.371   3.901  13.288  0.1817 -0.4096 -0.5633
  158TMC2    C6 2408   1.433   3.875  13.167 -0.5843  0.7111 -0.0391
  158TMC2     C 2409   1.652   3.837  13.516  0.1839  0.6710 -0.1787
  158TMC2     O 2410   1.771   3.823  13.485 -0.1070  0.0752 -0.3278
  158TMC2     H 2411   1.722   3.752  13.278 -1.4169 -2.0482  0.1032
  158TMC2    H1 2412   1.393   3.915  13.502  3.5114 -1.8263  2.1776
  158TMC2    H2 2413   1.389   3.894  13.069 -1.4553 -1.3088 -0.0391
  158TMC2    C7 2414   1.227   3.904  13.288 -0.2341 -0.7401 -0.6397
  158TMC2    C8 2415   1.614   3.747  13.066  0.1162  0.2408 -0.5258
  158TMC2    O1 2416   1.172   3.941  13.186  0.0244  0.4435 -0.0705
  158TMC2    O2 2417   1.732   3.727  13.054 -0.5385 -0.0407  0.3236
  158TMC2    O5 2418   1.523   3.678  12.999  0.6284 -0.3142  0.3319
  158TMC2    H5 2419   1.436   3.674  13.045 -0.5816  1.1104 -1.8395
  159MPD2     C 2420   1.777   3.861  14.009 -0.5239 -0.2261  0.1328
  159MPD2    C1 2421   1.647   3.811  14.004 -0.7496  0.1422  0.2743
  159MPD2    C2 2422   1.593   3.810  13.879 -0.8711 -0.1207 -0.3668
  159MPD2    C3 2423   1.663   3.841  13.761 -0.4137 -0.5296  0.1817
  159MPD2    C4 2424   1.797   3.878  13.773  0.5142 -0.2227 -0.5647
  159MPD2    C5 2425   1.854   3.875  13.897  0.9096  0.3423 -0.0246
  159MPD2     H 2426   1.489   3.783  13.870 -0.7659 -0.0141 -1.9436
  159MPD2    H1 2427   1.859   3.908  13.690 -0.6539  2.6145 -0.4004
  159MPD2    H2 2428   1.832   3.859  14.102 -0.8231 -0.1637  0.3136
  159MPD2    H3 2429   1.958   3.903  13.910  1.1718 -0.6401 -0.0321
  159MPD2     N 2430   1.596   3.834  13.640 -0.0779 -0.2926  0.3235
  159MPD2    H5 2431   1.494   3.831  13.645 -0.1554 -0.3649 -1.3913
  159MPD2    N1 2432   1.589   3.762  14.119  0.1572 -0.8972 -0.1806
  159MPD2    H7 2433   1.652   3.740  14.196  0.2988 -2.5155 -0.7600
  160TMC2    C1 2434   1.370   2.064   1.518 -0.1159  0.0563  0.8751
  160TMC2    C2 2435   1.362   2.201   1.523 -0.0477 -0.8735  0.7270
  160TMC2    C3 2436   1.444   2.267   1.444 -0.4634 -0.0623  0.1860
  160TMC2    C4 2437   1.460   1.999   1.443  1.2142  0.5487  0.8794
  160TMC2    C5 2438   1.550   2.067   1.379  0.0434  0.1047 -1.1641
  160TMC2    C6 2439   1.545   2.203   1.376 -0.6987  0.6280  0.2359
  160TMC2     C 2440   1.269   1.989   1.585 -0.6743 -0.2757 -0.7522
  160TMC2     O 2441   1.299   1.876   1.619  0.4747 -0.2714 -0.0437
  160TMC2     H 2442   1.299   2.256   1.593  0.3420 -0.1690  0.5121
  160TMC2    H1 2443   1.468   1.891   1.450  1.7934  0.4563 -1.0851
  160TMC2    H2 2444   1.622   2.258   1.322 -0.2363 -1.6704 -1.4321
  160TMC2    C7 2445   1.624   1.999   1.272 -0.1358  0.3675  0.0735
  160TMC2    C8 2446   1.456   2.410   1.451 -0.4185  0.7597 -0.1674
  160TMC2    O1 2447   1.644   1.880   1.294 -0.1824  0.6052 -0.1168
  160TMC2    O2 2448   1.552   2.474   1.407  0.0061 -0.0631  0.4537
  160TMC2    O5 2449   1.330   2.454   1.445  0.1029 -0.2510 -0.7920
  160TMC2    H5 2450   1.253   2.397   1.464 -0.1167  0.1647 -0.4443
  161MPD2     C 2451   1.018   1.905   1.739  0.1522  0.0389  0.3526
  161MPD2    C1 2452   1.041   2.025   1.672 -0.1203  0.1555 -0.7056
  161MPD2    C2 2453   0.935   2.108   1.655 -0.3860 -1.1049  0.0914
  161MPD2    C3 2454   0.820   2.086   1.732  0.1247 -0.0908 -0.4868
  161MPD2    C4 2455   0.798   1.965   1.800 -0.2688  0.5207 -0.8086
  161MPD2    C5 2456   0.898   1.874   1.796 -0.1591  0.0998  0.0314
  161MPD2     H 2457   0.937   2.193   1.588  2.1908 -2.2680 -1.3349
  161MPD2    H1 2458   0.706   1.943   1.852  0.8613  1.2456  1.5352
  161MPD2    H2 2459   1.095   1.828   1.743 -1.2956 -1.4706 -0.8398
  161MPD2    H3 2460   0.872   1.776   1.834 -2.6352 -0.1715 -2.3276
  161MPD2     N 2461   0.716   2.177   1.743  0.0432 -0.1281  0.3586
  161MPD2    H5 2462   0.642   2.155   1.808 -0.8247  0.1757 -0.5143
  161MPD2    N1 2463   1.152   2.063   1.594  0.2992  0.6708 -0.5110
  161MPD2    H7 2464   1.146   2.152   1.546  1.6001  0.2111 -1.5282
  162TMC2    C1 2465   4.064   4.379   0.765  0.6496  0.2053 -0.2161
  162TMC2    C2 2466   4.031   4.468   0.662 -0.3568  0.2175  0.5696
  162TMC2    C3 2467   3.986   4.594   0.690  0.2606  0.2077 -0.0863
  162TMC2    C4 2468   4.041   4.414   0.896 -0.4820 -0.0819  0.7087
  162TMC2    C5 2469   3.989   4.541   0.915 -0.0055 -0.4695 -0.2495
  162TMC2    C6 2470   3.961   4.630   0.817 -0.2600 -0.9973  0.1287
  162TMC2     C 2471   4.115   4.244   0.727 -0.7031  0.6329 -0.2359
  162TMC2     O 2472   4.118   4.215   0.610 -0.3077  0.6729  0.0341
  162TMC2     H 2473   4.038   4.433   0.560 -0.6410  1.1794  0.2212
  162TMC2    H1 2474   4.049   4.346   0.980  0.9880  0.6531  1.1695
  162TMC2    H2 2475   3.909   0.002   0.839 -0.2723  0.0216 -4.1507
  162TMC2    C7 2476   3.928   4.572   1.047 -0.1115  0.7639 -0.3139
  162TMC2    C8 2477   3.899   4.656   0.593 -0.4425  0.1525 -0.9414
  162TMC2    O1 2478   3.846   4.660   1.049 -0.0326 -0.1397 -0.1128
  162TMC2    O2 2479   3.796   4.719   0.617 -0.4810  1.0604 -0.4070
  162TMC2    O5 2480   3.954   4.649   0.471 -0.0228 -0.0596 -0.6681
  162TMC2    H5 2481   4.040   4.602   0.466  1.1602  2.1663 -1.3890
  163MPD2     C 2482   4.356   3.794   0.836  0.0147 -0.5446  0.4582
  163MPD2    C1 2483   4.306   3.841   0.712 -0.0836  0.1965  0.3241
  163MPD2    C2 2484   4.243   3.967   0.709 -0.4263  0.4885  0.2824
  163MPD2    C3 2485   4.234   4.045   0.821  0.6860  0.1048 -0.1843
  163MPD2    C4 2486   4.283   3.994   0.940 -0.5364  0.6583 -0.0445
  163MPD2    C5 2487   4.348   3.875   0.949  0.3080  0.0091 -0.6586
  163MPD2     H 2488   4.208   3.999   0.611 -0.3695  0.2443  0.1821
  163MPD2    H1 2489   4.272   4.047   1.033  1.0119 -1.4883  1.3583
  163MPD2    H2 2490   4.409   3.699   0.836  0.9718 -0.0139  1.8112
  163MPD2    H3 2491   4.394   3.859   1.046 -0.1949 -0.0217 -0.4287
  163MPD2     N 2492   4.173   4.176   0.830 -0.3571 -0.0597  0.2336
  163MPD2    H5 2493   4.162   4.204   0.926 -3.2856  0.3620 -0.2124
  163MPD2    N1 2494   4.329   3.753   0.603  0.4665 -0.2122  0.0596
  163MPD2    H7 2495   4.376   3.665   0.624  2.7388  0.7012 -1.1186
  164TCq2    C1 2496   0.254   2.659  10.836 -0.6286  0.0015  0.4252
  164TCq2    O2 2497   0.184   2.605  10.919  0.1917 -0.5003 -0.2562
  164TCq2    C2 2498   0.283   2.798  10.865  0.3139 -0.0165  0.2411
  164TCq2    C3 2499   0.295   2.894  10.767  0.6832  0.2699 -0.3710
  164TCq2    C4 2500   0.308   3.020  10.820  0.1526 -0.7795  0.1376
  164TCq2    C5 2501   0.320   3.042  10.955  0.7592 -0.0529  0.4909
  164TCq2    C6 2502   0.309   2.949  11.048 -0.2200 -0.6666 -0.2730
  164TCq2    C7 2503   0.289   2.822  11.000  0.6033  0.5006 -0.3224
  164TCq2    C8 2504   0.231   2.981  11.167 -0.4622 -0.3200 -0.4027
  164TCq2    O4 2505   0.220   2.889  11.245  0.2320 -0.5556 -0.1527
  164TCq2    C9 2506   0.317   3.128  10.727 -0.5730 -0.2752  0.5656
  164TCq2    O5 2507   0.310   3.104  10.602  0.3350  0.1518 -0.7355
  164TCq2    O6 2508   0.336   3.245  10.775 -0.3207  0.1805 -0.4839
  164TCq2    H2 2509   0.290   2.878  10.660  1.9703  0.1063 -0.4104
  164TCq2    H3 2510   0.334   3.142  10.992  2.9109  0.2676 -1.2353
  164TCq2    H4 2511   0.267   2.741  11.068 -0.5282 -0.3851 -1.7343
  165MPD2     C 2512   0.634   1.842   2.582  0.3665  0.4456  0.8574
  165MPD2    C1 2513   0.714   1.764   2.499 -0.1676  0.0389 -0.5472
  165MPD2    C2 2514   0.797   1.831   2.412 -0.0424  0.8837  0.0164
  165MPD2    C3 2515   0.792   1.972   2.404 -0.8626 -0.2813 -0.1745
  165MPD2    C4 2516   0.720   2.040   2.494 -0.0376  0.2549 -0.2864
  165MPD2    C5 2517   0.636   1.974   2.579  0.7290 -0.1195 -0.1216
  165MPD2     H 2518   0.851   1.779   2.334  0.3020  1.7787 -0.3420
  165MPD2    H1 2519   0.711   2.147   2.508  1.8053  0.4212 -0.4470
  165MPD2    H2 2520   0.560   1.791   2.643  0.9932 -1.5901 -0.1195
  165MPD2    H3 2521   0.562   2.026   2.638  1.2775  0.5277 -0.0053
  165MPD2     N 2522   0.861   2.054   2.314 -0.3135  1.0209  0.0792
  165MPD2    H5 2523   0.855   2.155   2.319 -0.4506  0.9055  2.2743
  165MPD2    N1 2524   0.685   1.622   2.489 -0.4543 -0.4498 -0.5349
  165MPD2    H7 2525   0.601   1.599   2.542 -0.7078 -2.5769 -1.8703
  166TCq2    C1 2526   0.945   2.008   2.210  0.5795  0.0959  0.4030
  166TCq2    O2 2527   0.997   1.901   2.198 -0.0345 -0.3684 -0.3397
  166TCq2    C2 2528   0.992   2.109   2.120  0.0201  0.3400  0.7186
  166TCq2    C3 2529   0.923   2.218   2.095 -0.2246  0.4589 -0.4888
  166TCq2    C4 2530   0.959   2.295   1.990 -0.1813  0.2243  0.6618
  166TCq2    C5 2531   1.075   2.275   1.922 -0.6440  0.1292  0.1217
  166TCq2    C6 2532   1.153   2.172   1.961  0.3126  0.2470  0.9524
  166TCq2    C7 2533   1.108   2.083   2.051 -0.8403  0.2269 -0.3287
  166TCq2    C8 2534   1.289   2.162   1.918 -0.0716 -0.5482  0.5957
  166TCq2    O4 2535   1.337   2.052   1.918  0.2810  0.6096 -0.3561
  166TCq2    C9 2536   0.893   2.424   1.976 -0.2572 -0.1774 -0.5620
  166TCq2    O5 2537   0.773   2.438   2.022  0.3322  0.0130 -0.2502
  166TCq2    O6 2538   0.962   2.521   1.923  0.1128 -0.2764 -0.2276
  166TCq2    H2 2539   0.838   2.244   2.157  0.5078 -0.4161  0.8827
  166TCq2    H3 2540   1.121   2.350   1.859  0.8853 -1.9522 -1.2460
  166TCq2    H4 2541   1.168   1.995   2.074  0.1851  1.1366  0.4541
  167TMC2    C1 2542   4.412   2.845  12.952 -0.5472  0.6466 -0.3612
  167TMC2    C2 2543   4.351   2.871  13.069  0.7404  0.3684 -0.7392
  167TMC2    C3 2544   4.288   2.771  13.135  0.0236 -0.4617 -1.2344
  167TMC2    C4 2545   4.414   2.721  12.891  0.4619 -0.3797  0.0238
  167TMC2    C5 2546   4.335   2.619  12.957 -0.1401 -0.5215 -0.6034
  167TMC2    C6 2547   4.283   2.644  13.079 -0.2937  0.4204  0.2655
  167TMC2     C 2548   4.505   2.951  12.899 -0.2099 -0.5295  0.3713
  167TMC2     O 2549   4.564   3.016  12.983 -0.9261 -0.8705  0.2621
  167TMC2     H 2550   4.357   2.965  13.124  0.1350  0.1937 -0.3780
  167TMC2    H1 2551   4.479   2.695  12.808 -0.1532 -0.2289 -0.5011
  167TMC2    H2 2552   4.237   2.557  13.122  0.9463 -0.5596 -0.3815
  167TMC2    C7 2553   4.348   2.481  12.914  0.2596 -0.1918  0.0645
  167TMC2    C8 2554   4.194   2.815  13.238 -0.5862 -0.4546 -0.2976
  167TMC2    O1 2555   4.350   2.392  12.997  0.5640 -0.1227 -0.4241
  167TMC2    O2 2556   4.160   2.933  13.253  0.5873  0.1137  0.5507
  167TMC2    O5 2557   4.118   2.715  13.279  0.1014 -0.4820 -0.6101
  167TMC2    H5 2558   4.166   2.632  13.260  1.1182  0.5279 -2.3774
  168MPD2     C 2559   4.671   3.119  12.709  0.2015 -0.4673 -0.2602
  168MPD2    C1 2560   4.604   3.004  12.682 -0.0309  0.5525  0.0398
  168MPD2    C2 2561   4.601   2.955  12.550  0.5177 -0.4133 -0.1840
  168MPD2    C3 2562   4.660   3.025  12.448 -0.2006 -0.2659  0.1043
  168MPD2    C4 2563   0.023   3.128  12.478 -0.3687  0.0471 -0.0471
  168MPD2    C5 2564   0.031   3.173  12.608 -0.6383  0.5160 -0.1477
  168MPD2     H 2565   4.528   2.878  12.525  0.3881 -0.2071 -0.4413
  168MPD2    H1 2566   0.082   3.192  12.415 -0.7343  0.6463  0.2239
  168MPD2    H2 2567   4.673   3.162  12.808  0.4812  1.7251 -1.2141
  168MPD2    H3 2568   0.094   3.260  12.625  2.1762 -1.4631 -0.4196
  168MPD2     N 2569   4.646   2.993  12.312  0.1537 -0.0175  0.3809
  168MPD2    H5 2570   4.669   3.065  12.245  3.7305 -1.1215  0.4128
  168MPD2    N1 2571   4.520   2.938  12.769  0.2346 -0.2108  0.0588
  168MPD2    H7 2572   4.456   2.868  12.734  1.4138 -1.3938  0.2613
  169MPD1     C 2573   2.497   2.227   8.174 -0.5889 -0.5704 -0.1562
  169MPD1    C1 2574   2.410   2.171   8.266 -0.0617  0.1878  1.0812
  169MPD1    C2 2575   2.432   2.179   8.402  0.3303 -0.0757 -0.1388
  169MPD1    C3 2576   2.551   2.236   8.447 -0.0803  0.2297  0.7329
  169MPD1    C4 2577   2.643   2.275   8.354  0.0010 -0.2933  0.0536
  169MPD1    C5 2578   2.616   2.274   8.221 -0.2942 -0.1738  0.1400
  169MPD1     H 2579   2.355   2.149   8.472  0.5804 -0.1686  0.0919
  169MPD1    H1 2580   2.740   2.317   8.378 -0.5622  1.5531 -0.9484
  169MPD1    H2 2581   2.468   2.234   8.070  2.4464 -1.5100 -1.0649
  169MPD1    H3 2582   2.687   2.303   8.145 -0.6107  0.0052 -0.0883
  169MPD1     N 2583   2.571   2.242   8.585  0.3136 -0.4844 -0.1103
  169MPD1    H5 2584   2.486   2.211   8.632  0.1372 -3.3719 -2.3562
  169MPD1    N1 2585   2.284   2.123   8.224  0.4358 -0.0176  0.4657
  169MPD1    H6 2586   2.257   2.030   8.258  2.5754 -1.0345 -0.6259
  169MPD1    H7 2587   2.277   2.105   8.124  0.6118 -1.5729  0.7224
  170MPD1     C 2588   0.077   0.518  12.567  0.1647  0.0747 -0.8158
  170MPD1    C1 2589   4.679   0.588  12.578  0.0593 -0.3782 -0.1576
  170MPD1    C2 2590   4.647   0.635  12.714  0.6376 -0.5348  0.5642
  170MPD1    C3 2591   0.011   0.623  12.823  0.3538  0.7836 -0.0912
  170MPD1    C4 2592   0.133   0.558  12.810  0.7377 -0.5645 -0.0254
  170MPD1    C5 2593   0.159   0.511  12.681 -0.4851 -0.6208 -0.5992
  170MPD1     H 2594   4.551   0.683  12.727 -0.5302 -2.6676 -0.1760
  170MPD1    H1 2595   0.216   0.552  12.880  0.5358 -2.4144  0.0376
  170MPD1    H2 2596   0.116   0.468  12.480  1.4468  1.0145 -0.7873
  170MPD1    H3 2597   0.257   0.470  12.656  0.3842 -0.2398  2.1923
  170MPD1     N 2598   4.696   0.690  12.944 -0.0327  0.2182  0.2040
  170MPD1    H5 2599   4.613   0.748  12.940  0.2553  0.6043 -0.2466
  170MPD1    N1 2600   4.596   0.598  12.466 -0.0541 -0.2481 -0.5220
  170MPD1    H6 2601   4.533   0.678  12.463  1.0343  0.7217  3.1476
  170MPD1    H7 2602   4.641   0.587  12.375  2.7490  0.3535  0.7932
  171MPD1     C 2603   4.135   2.269  15.561  0.3465  0.1575 -0.2023
  171MPD1    C1 2604   4.054   2.228  15.460  0.6103 -0.0276  0.5785
  171MPD1    C2 2605   3.989   2.104  15.480  0.0198 -0.9406  0.1815
  171MPD1    C3 2606   3.998   2.041  15.601  0.1360  0.3079  0.3303
  171MPD1    C4 2607   4.057   2.106  15.708  0.0816  0.0397  0.4385
  171MPD1    C5 2608   4.129   2.218  15.686 -0.2969 -0.1429  0.2033
  171MPD1     H 2609   3.939   2.055  15.397 -0.4198  0.6443 -0.4699
  171MPD1    H1 2610   4.050   2.062  15.807 -3.4686 -0.5818 -0.0660
  171MPD1    H2 2611   4.188   2.363  15.549 -1.9311  1.3893 -0.5771
  171MPD1    H3 2612   4.184   2.274  15.760 -0.9502  2.0867 -1.0056
  171MPD1     N 2613   3.940   1.920  15.636 -0.5721  0.0280  0.6745
  171MPD1    H5 2614   3.952   1.885  15.730  1.8737 -0.6579  0.1106
  171MPD1    N1 2615   4.064   2.289  15.336  0.0162  0.1869 -0.4205
  171MPD1    H6 2616   4.075   2.389  15.346  1.3210  0.0601 -0.6026
  171MPD1    H7 2617   3.974   2.282  15.288 -1.4765 -1.4978  2.5478
  172MPD1     C 2618   2.712   0.734   0.081  0.1635 -0.8818 -0.1246
  172MPD1    C1 2619   2.638   0.851   0.078 -0.9789  0.0500 -0.7672
  172MPD1    C2 2620   2.618   0.906   0.200 -0.0262 -0.0316 -0.7617
  172MPD1    C3 2621   2.670   0.855   0.319  0.6097 -0.4240  0.0696
  172MPD1    C4 2622   2.746   0.742   0.317 -0.6388 -0.1753 -0.3700
  172MPD1    C5 2623   2.770   0.681   0.192  0.0080 -0.7992  0.3090
  172MPD1     H 2624   2.543   0.984   0.206 -2.2408 -2.2045 -0.3359
  172MPD1    H1 2625   2.788   0.700   0.407 -0.3240  2.2665  0.6290
  172MPD1    H2 2626   2.739   0.678  17.673  0.9877  0.9459 -1.0441
  172MPD1    H3 2627   2.827   0.591   0.173  0.0092 -0.3634 -1.7346
  172MPD1     N 2628   2.646   0.915   0.446 -0.1206  0.0849  0.0509
  172MPD1    H5 2629   2.659   0.854   0.526 -2.6112  2.1535  2.0425
  172MPD1    N1 2630   2.563   0.890  17.648  0.6516  0.2175 -0.1715
  172MPD1    H6 2631   2.541   0.989  17.640  0.7731  0.3222  0.8238
  172MPD1    H7 2632   2.603   0.841  17.568  1.4096  0.4575  0.0633
  173MPD1     C 2633   4.574   0.477  13.968 -0.5074 -0.2703  0.1567
  173MPD1    C1 2634   4.485   0.376  13.939  0.1324  0.1710  0.2301
  173MPD1    C2 2635   4.417   0.316  14.045  0.1947  0.3299 -0.3526
  173MPD1    C3 2636   4.418   0.363  14.172 -0.1391  0.1377  0.4915
  173MPD1    C4 2637   4.502   0.470  14.193  0.0358 -0.0999 -0.1742
  173MPD1    C5 2638   4.580   0.522  14.100  0.3568 -0.0179 -0.3478
  173MPD1     H 2639   4.360   0.226  14.025 -0.4039  1.1328 -2.2165
  173MPD1    H1 2640   4.521   0.494  14.297 -0.1129  0.2498 -0.2261
  173MPD1    H2 2641   4.645   0.516  13.896 -1.7855  3.5041  0.9546
  173MPD1    H3 2642   4.643   0.605  14.130  0.6836 -0.5423  0.4123
  173MPD1     N 2643   4.357   0.292  14.275  0.1999  0.1940  0.1611
  173MPD1    H5 2644   4.321   0.206  14.234 -1.2061  0.8160  0.0748
  173MPD1    N1 2645   4.495   0.325  13.813  0.3760 -0.3314  0.1639
  173MPD1    H6 2646   4.516   0.398  13.745  1.5025 -2.7814 -2.1254
  173MPD1    H7 2647   4.403   0.286  13.789  0.8515 -0.5375 -1.3399
  174MPD1     C 2648   4.188   4.180  14.238 -0.1090  0.0905  0.0240
  174MPD1    C1 2649   4.120   4.202  14.351 -0.4868  0.3803 -0.2064
  174MPD1    C2 2650   4.138   4.318  14.420  0.3119 -0.6410  0.1068
  174MPD1    C3 2651   4.204   4.423  14.358  0.7061 -0.0236 -1.2567
  174MPD1    C4 2652   4.263   4.403  14.231  1.1170 -0.1335  0.1249
  174MPD1    C5 2653   4.257   4.278  14.174 -0.5743  0.2277 -0.3747
  174MPD1     H 2654   4.087   4.326  14.516 -0.6562  3.2519 -0.7161
  174MPD1    H1 2655   4.321   4.476  14.175 -0.0080  0.9788  0.3973
  174MPD1    H2 2656   4.184   4.086  14.183  2.0113 -0.3921  0.7271
  174MPD1    H3 2657   4.296   4.261  14.074 -0.7320  0.1964 -0.4321
  174MPD1     N 2658   4.216   4.559  14.407  0.5705 -0.3670  0.1081
  174MPD1    H5 2659   4.270   4.622  14.348 -1.4895  0.6522 -0.6599
  174MPD1    N1 2660   4.077   4.085  14.421  0.2714  0.2341 -0.3097
  174MPD1    H6 2661   4.014   4.112  14.496 -0.8718 -0.5182 -1.0048
  174MPD1    H7 2662   4.041   4.016  14.356 -2.9710 -0.3010  2.0911
  175MPD1     C 2663   2.341   1.463  15.581 -0.1750  0.3759 -0.3669
  175MPD1    C1 2664   2.456   1.508  15.632  0.2363  1.1455 -0.2674
  175MPD1    C2 2665   2.474   1.486  15.766  0.8303 -0.1604 -0.4539
  175MPD1    C3 2666   2.378   1.431  15.846  0.5372 -0.6743 -0.5237
  175MPD1    C4 2667   2.264   1.386  15.791 -0.7725 -0.9108 -0.3609
  175MPD1    C5 2668   2.246   1.399  15.655  0.0169  0.7153  0.0012
  175MPD1     H 2669   2.565   1.532  15.803  0.5371  0.5297 -0.5785
  175MPD1    H1 2670   2.181   1.338  15.843 -0.7051  0.9329  1.4417
  175MPD1    H2 2671   2.300   1.485  15.483 -1.1603  0.1380 -0.0102
  175MPD1    H3 2672   2.154   1.357  15.615  0.5418  0.9309 -1.3932
  175MPD1     N 2673   2.384   1.429  15.993  0.0520 -0.2161 -0.2247
  175MPD1    H5 2674   2.302   1.395  16.043 -0.2793  1.4630  0.3809
  175MPD1    N1 2675   2.544   1.588  15.551  0.1121  0.2091 -0.5171
  175MPD1    H6 2676   2.641   1.599  15.579 -0.5929  2.7538  0.9112
  175MPD1    H7 2677   2.540   1.546  15.459  0.8955  0.4150 -0.6488
  176MPD1     C 2678   3.806   3.270  16.446 -0.8682 -0.5414 -0.5759
  176MPD1    C1 2679   3.797   3.403  16.432 -0.3899  0.2660 -0.0318
  176MPD1    C2 2680   3.801   3.480  16.546 -0.3518  0.2875 -0.3329
  176MPD1    C3 2681   3.847   3.426  16.668  0.4875  0.0922 -0.2925
  176MPD1    C4 2682   3.874   3.290  16.670 -0.5074 -0.3094 -0.2395
  176MPD1    C5 2683   3.855   3.211  16.560  0.1841  0.0543  0.0092
  176MPD1     H 2684   3.796   3.588  16.542 -0.5998  0.2178 -1.8791
  176MPD1    H1 2685   3.913   3.245  16.761 -0.7572 -1.7586 -0.8503
  176MPD1    H2 2686   3.770   3.210  16.363  0.3305 -2.6357  0.3912
  176MPD1    H3 2687   3.845   3.106  16.583 -0.1500  0.1560  0.3392
  176MPD1     N 2688   3.868   3.508  16.778  0.5157 -0.5167 -0.1478
  176MPD1    H5 2689   3.823   3.598  16.791  3.6262  0.8230  1.5113
  176MPD1    N1 2690   3.753   3.461  16.312 -0.1737  0.3886  0.9115
  176MPD1    H6 2691   3.791   3.416  16.229  0.4224  2.3123  0.1383
  176MPD1    H7 2692   3.785   3.558  16.307  0.4327  0.1402 -0.0842
  177MPD1     C 2693   2.921   3.430  10.022 -0.3098  0.3717 -0.0842
  177MPD1    C1 2694   2.887   3.555  10.010 -0.1491  0.9520 -0.9120
  177MPD1    C2 2695   2.777   3.592   9.943  0.1702 -1.0366 -0.0408
  177MPD1    C3 2696   2.681   3.499   9.907 -0.0437 -0.6578 -0.1813
  177MPD1    C4 2697   2.710   3.364   9.935  0.0063  0.1229 -0.4611
  177MPD1    C5 2698   2.838   3.333   9.986 -1.0796 -0.2595 -0.7383
  177MPD1     H 2699   2.767   3.691   9.901  0.2921 -0.2075  1.8663
  177MPD1    H1 2700   2.636   3.285   9.937  1.4295 -1.2101 -1.0201
  177MPD1    H2 2701   3.018   3.399  10.057  0.5241  2.3489 -0.6651
  177MPD1    H3 2702   2.864   3.231  10.011 -1.5897 -0.0636  0.5556
  177MPD1     N 2703   2.562   3.538   9.840 -0.2385  0.4306  0.0425
  177MPD1    H5 2704   2.551   3.639   9.829  0.0489  0.2601 -1.9133
  177MPD1    N1 2705   2.987   3.654  10.026  0.0337  0.0719  0.5358
  177MPD1    H6 2706   2.955   3.741  10.067 -0.3644  0.1269  0.1009
  177MPD1    H7 2707   3.050   3.616  10.097  1.2789 -0.8094 -1.0440
  178MPD1     C 2708   4.229   0.062  17.482 -0.1274  0.5792  0.1738
  178MPD1    C1 2709   4.206   4.657  17.439  0.3353 -0.2169 -0.8954
  178MPD1    C2 2710   4.292   4.605  17.346  0.0517  0.2449 -0.0148
  178MPD1    C3 2711   4.404   4.674  17.299  0.4470 -0.5844 -1.0284
  178MPD1    C4 2712   4.425   0.076  17.349 -0.2851  0.3821  0.3690
  178MPD1    C5 2713   4.337   0.134  17.437  0.0505 -0.0840  0.4051
  178MPD1     H 2714   4.275   4.508  17.301  0.5505 -0.0484  0.4259
  178MPD1    H1 2715   4.505   0.135  17.306  0.1689 -0.5604 -0.0757
  178MPD1    H2 2716   4.156   0.107  17.548  0.1140 -1.7373  2.0035
  178MPD1    H3 2717   4.358   0.234  17.475  2.8653 -0.5427  0.0316
  178MPD1     N 2718   4.505   4.623  17.212  0.4126  0.2302 -0.7415
  178MPD1    H5 2719   4.586   4.685  17.207 -0.8659  1.9260 -0.2973
  178MPD1    N1 2720   4.085   4.590  17.482 -0.1550  0.3660  0.0204
  178MPD1    H6 2721   4.066   4.614  17.579 -0.6297 -0.1958  0.0690
  178MPD1    H7 2722   4.091   4.488  17.478 -0.7834  0.4503 -3.4135
  179MPD1     C 2723   4.472   3.316  16.131  0.3830  0.0946 -0.1111
  179MPD1    C1 2724   4.593   3.266  16.082 -0.5497 -0.2162 -0.0705
  179MPD1    C2 2725   4.594   3.139  16.027  0.1139 -0.3118 -0.1955
  179MPD1    C3 2726   4.485   3.057  16.037  0.2219  0.6886  0.0781
  179MPD1    C4 2727   4.366   3.115  16.072 -0.1009 -0.1202  0.2407
  179MPD1    C5 2728   4.358   3.240  16.118  0.0712  0.4234  0.4833
  179MPD1     H 2729   4.672   3.099  15.965  1.3539 -1.4233  2.0885
  179MPD1    H1 2730   4.274   3.060  16.060  1.3020 -2.5054  0.4815
  179MPD1    H2 2731   4.462   3.416  16.171 -0.4391 -0.3388  0.7701
  179MPD1    H3 2732   4.263   3.274  16.158  2.1498  1.5872  4.4435
  179MPD1     N 2733   4.483   2.922  15.993 -0.3143  0.0033  0.1096
  179MPD1    H5 2734   4.389   2.885  15.986 -0.2388  0.3503 -2.5107
  179MPD1    N1 2735   4.702   3.356  16.061 -0.4608  0.2150 -0.5601
  179MPD1    H6 2736   4.708   3.430  16.131 -0.5939 -0.8784  0.6074
  179MPD1    H7 2737   0.073   3.320  16.033 -0.8064 -0.2509 -1.0847
  180MPD1     C 2738   4.257   3.805  15.648 -0.6877 -0.1091  0.5270
  180MPD1    C1 2739   4.364   3.843  15.575  0.9678 -0.1302  0.4857
  180MPD1    C2 2740   4.341   3.859  15.438 -0.1007  0.4765  0.7426
  180MPD1    C3 2741   4.226   3.810  15.378 -0.6646  0.3212 -0.4404
  180MPD1    C4 2742   4.120   3.765  15.458 -0.6446 -0.3849  0.5021
  180MPD1    C5 2743   4.135   3.763  15.596  0.2660 -0.2634 -0.4987
  180MPD1     H 2744   4.423   3.893  15.376 -1.5163  1.0993 -0.7977
  180MPD1    H1 2745   4.030   3.718  15.421 -0.4343  0.2502 -0.8180
  180MPD1    H2 2746   4.264   3.798  15.756  1.4147  0.4552  0.4392
  180MPD1    H3 2747   4.053   3.734  15.661  0.4140 -2.2982 -1.2299
  180MPD1     N 2748   4.212   3.823  15.233  0.6642 -0.1301  0.7006
  180MPD1    H5 2749   4.292   3.862  15.185 -0.5992  1.1299 -0.4036
  180MPD1    N1 2750   4.491   3.889  15.626 -0.6514  1.0563  0.2459
  180MPD1    H6 2751   4.521   3.849  15.715 -0.0588 -1.4234 -1.0782
  180MPD1    H7 2752   4.575   3.884  15.569 -1.1618  1.6973 -0.5637
  181MPD1     C 2753   1.520   0.676   8.740 -0.1749  0.5163  0.1912
  181MPD1    C1 2754   1.658   0.650   8.754  0.1536 -0.7300  0.0474
  181MPD1    C2 2755   1.726   0.721   8.861  0.2162 -0.1854 -0.5388
  181MPD1    C3 2756   1.655   0.787   8.958  0.1535  0.3827  0.3033
  181MPD1    C4 2757   1.520   0.791   8.947 -0.3722 -0.4830 -0.6627
  181MPD1    C5 2758   1.455   0.745   8.836 -0.2598  0.1153  0.6006
  181MPD1     H 2759   1.832   0.704   8.879 -0.2194 -1.9583  0.3063
  181MPD1    H1 2760   1.469   0.844   9.027  2.2978  1.1574 -0.0278
  181MPD1    H2 2761   1.453   0.646   8.661  1.5900 -0.4272 -0.9494
  181MPD1    H3 2762   1.349   0.753   8.815  0.0641  0.6907 -0.8305
  181MPD1     N 2763   1.714   0.837   9.069  0.3550 -0.0609  0.2312
  181MPD1    H5 2764   1.646   0.850   9.143  1.0048 -1.6760  1.1028
  181MPD1    N1 2765   1.724   0.607   8.636 -0.0761  0.4192 -0.0002
  181MPD1    H6 2766   1.670   0.538   8.584  0.2954  0.3721 -0.3151
  181MPD1    H7 2767   1.818   0.576   8.659 -0.0844  1.6142  1.6736
  182MPD1     C 2768   1.815   0.365   1.353 -0.1085  0.6990  0.1377
  182MPD1    C1 2769   1.828   0.312   1.229 -0.1254 -0.0430 -0.4049
  182MPD1    C2 2770   1.806   0.389   1.120 -0.3179 -0.4316  0.1707
  182MPD1    C3 2771   1.746   0.509   1.131 -0.0111  0.0438  0.0776
  182MPD1    C4 2772   1.731   0.564   1.256 -0.1018 -0.1466 -0.3299
  182MPD1    C5 2773   1.762   0.487   1.364  0.2013 -0.9136 -0.0939
  182MPD1     H 2774   1.841   0.366   1.020  0.9696  2.7201 -0.0902
  182MPD1    H1 2775   1.686   0.661   1.272 -0.8989 -0.7197  0.9221
  182MPD1    H2 2776   1.852   0.308   1.438 -0.3199  0.4760  0.0814
  182MPD1    H3 2777   1.750   0.527   1.465  1.5548 -2.9253  0.8558
  182MPD1     N 2778   1.697   0.586   1.026 -0.2985 -0.2596 -0.0987
  182MPD1    H5 2779   1.670   0.682   1.047 -0.4357 -0.2734 -0.2083
  182MPD1    N1 2780   1.903   0.197   1.217 -0.1760 -0.1920 -0.2611
  182MPD1    H6 2781   1.887   0.132   1.293 -1.3717  2.2305  1.5616
  182MPD1    H7 2782   1.871   0.141   1.139 -1.8850 -0.6017  0.7255
  183MPD1     C 2783   3.572   1.144   9.420 -0.2250  0.3233 -0.9449
  183MPD1    C1 2784   3.440   1.164   9.457 -0.0002  0.3763 -0.9161
  183MPD1    C2 2785   3.392   1.096   9.566  0.3777  0.8579 -0.1160
  183MPD1    C3 2786   3.468   1.004   9.638 -0.2620  0.0626  0.1173
  183MPD1    C4 2787   3.601   0.992   9.609 -0.2534 -0.4118 -0.9116
  183MPD1    C5 2788   3.651   1.064   9.500  0.5378  0.0010 -0.1930
  183MPD1     H 2789   3.286   1.113   9.580  0.9420  4.0037  0.3091
  183MPD1    H1 2790   3.673   0.929   9.659  0.9199  1.8095  0.2119
  183MPD1    H2 2791   3.623   1.191   9.337  0.9931 -0.1921 -0.4781
  183MPD1    H3 2792   3.755   1.067   9.471  0.3103 -0.5752 -1.0395
  183MPD1     N 2793   3.410   0.928   9.735  0.4039  0.6737  0.0387
  183MPD1    H5 2794   3.323   0.965   9.771  0.5739 -1.8104  2.9622
  183MPD1    N1 2795   3.355   1.233   9.365 -0.8247 -0.4177 -0.0469
  183MPD1    H6 2796   3.272   1.264   9.416 -0.3356  0.7289  0.0443
  183MPD1    H7 2797   3.395   1.324   9.344  0.3580  0.1284  4.4810
  184MPD1     C 2798   1.346   2.963   9.779  0.2101 -0.9025  0.1300
  184MPD1    C1 2799   1.432   3.043   9.846 -0.8945  0.6241 -0.2123
  184MPD1    C2 2800   1.471   3.164   9.796  0.0822 -0.7205 -0.6818
  184MPD1    C3 2801   1.439   3.193   9.670  0.0545 -0.6331 -0.2563
  184MPD1    C4 2802   1.359   3.109   9.601  0.5241 -0.3043  0.7158
  184MPD1    C5 2803   1.311   2.998   9.657 -0.3961 -0.1633 -0.2254
  184MPD1     H 2804   1.518   3.232   9.866  0.4893 -0.7826 -0.8982
  184MPD1    H1 2805   1.323   3.128   9.501  0.3470 -2.5601  0.3375
  184MPD1    H2 2806   1.295   2.879   9.824 -1.5531  1.0496  1.7723
  184MPD1    H3 2807   1.239   2.940   9.600  0.3227  1.6885 -3.0727
  184MPD1     N 2808   1.475   3.319   9.611  0.1799  0.3695 -0.1782
  184MPD1    H5 2809   1.421   3.354   9.532  0.0936  2.3131  0.7194
  184MPD1    N1 2810   1.453   3.014   9.981  0.0227  0.6825 -0.8328
  184MPD1    H6 2811   1.546   3.046  10.006 -0.1119  0.0127  0.4866
  184MPD1    H7 2812   1.465   2.916  10.006  1.0228  1.2602  0.9602
  185MPD1     C 2813   1.233   3.566   8.857  0.2138  1.0968  0.8974
  185MPD1    C1 2814   1.312   3.675   8.883  0.7207  0.4857 -0.3416
  185MPD1    C2 2815   1.350   3.699   9.018 -0.8968  0.1176 -0.3976
  185MPD1    C3 2816   1.342   3.600   9.112  0.0491  0.0950 -0.0832
  185MPD1    C4 2817   1.278   3.486   9.074 -0.2232  0.1518  0.1230
  185MPD1    C5 2818   1.215   3.468   8.953 -0.2263 -0.1443  0.2566
  185MPD1     H 2819   1.402   3.792   9.038  1.1896 -1.0396 -0.4343
  185MPD1    H1 2820   1.283   3.404   9.145 -1.7250  0.2762  0.3743
  185MPD1    H2 2821   1.193   3.547   8.758  3.8073  0.8980 -0.5328
  185MPD1    H3 2822   1.146   3.389   8.925  0.6212 -0.6550 -0.3981
  185MPD1     N 2823   1.414   3.590   9.232 -0.4375  0.2565 -0.6123
  185MPD1    H5 2824   1.392   3.509   9.289 -1.2645 -0.1365 -1.4951
  185MPD1    N1 2825   1.344   3.760   8.780 -0.4715 -0.0320 -0.2164
  185MPD1    H6 2826   1.336   3.714   8.689 -0.3104 -1.9588  0.7467
  185MPD1    H7 2827   1.436   3.796   8.803 -0.4079 -0.1353 -0.3081
  186MPD1     C 2828   0.337   2.031  16.006  0.1165 -0.0194  0.9671
  186MPD1    C1 2829   0.442   2.051  16.094  0.3216  0.1427 -0.4584
  186MPD1    C2 2830   0.464   2.176  16.149 -0.3271 -0.1151 -0.4671
  186MPD1    C3 2831   0.357   2.268  16.150  0.5120  0.3185  0.0014
  186MPD1    C4 2832   0.247   2.242  16.071 -1.0528 -0.7259 -0.3080
  186MPD1    C5 2833   0.241   2.125  15.993  0.1411 -0.8773 -0.5958
  186MPD1     H 2834   0.542   2.194  16.222 -0.1004 -1.7553 -0.3168
  186MPD1    H1 2835   0.166   2.312  16.060 -1.5298 -1.1645  0.3793
  186MPD1    H2 2836   0.326   1.947  15.939  1.0027  0.0077  0.7999
  186MPD1    H3 2837   0.159   2.119  15.922 -0.0228 -1.8109 -0.3244
  186MPD1     N 2838   0.357   2.391  16.225 -0.2902  1.0029 -0.1296
  186MPD1    H5 2839   0.277   2.452  16.214 -2.7195 -2.0383  0.6106
  186MPD1    N1 2840   0.540   1.956  16.089 -0.7168 -0.3506  0.5682
  186MPD1    H6 2841   0.589   1.952  16.178  0.9151 -0.4217 -0.3340
  186MPD1    H7 2842   0.498   1.864  16.074  1.3077 -1.1075 -0.4661
  187MPD1     C 2843   4.589   0.399  16.960  0.8005 -0.5099  0.0411
  187MPD1    C1 2844   4.516   0.286  16.976 -0.3643  0.5112  0.0531
  187MPD1    C2 2845   4.398   0.297  17.041  0.4083 -0.2835 -0.1566
  187MPD1    C3 2846   4.338   0.416  17.067 -0.0903 -0.2852 -0.1886
  187MPD1    C4 2847   4.409   0.531  17.035 -0.3736 -0.8719  0.6963
  187MPD1    C5 2848   4.535   0.524  16.992 -0.4513  0.4881  0.0898
  187MPD1     H 2849   4.344   0.204  17.051 -2.5385  1.4944  0.1815
  187MPD1    H1 2850   4.380   0.630  17.068  1.5869 -0.0649  0.0642
  187MPD1    H2 2851   4.692   0.388  16.931  1.0475  0.3155  0.5819
  187MPD1    H3 2852   4.595   0.614  16.989 -0.3990  0.3496 -3.5921
  187MPD1     N 2853   4.203   0.427  17.115 -0.0558 -0.2650  0.2670
  187MPD1    H5 2854   4.152   0.516  17.115  0.0192 -0.2224  0.1985
  187MPD1    N1 2855   4.568   0.155  16.941 -0.0355 -0.6647 -0.1689
  187MPD1    H6 2856   4.637   0.163  16.866  1.1302 -1.5192  0.8093
  187MPD1    H7 2857   4.496   0.099  16.897 -0.9671 -0.1985  0.7631
  188MPD1     C 2858   0.405   0.126  10.196  0.1958 -0.1909  0.2933
  188MPD1    C1 2859   0.357   0.023  10.280  0.3148  0.1592  0.2274
  188MPD1    C2 2860   0.316   4.620  10.225  0.0844  1.0575 -0.5183
  188MPD1    C3 2861   0.342   4.599  10.094  0.3637  0.1278  0.6407
  188MPD1    C4 2862   0.400   4.697  10.019  0.3709  0.0303 -0.2856
  188MPD1    C5 2863   0.438   0.094  10.069 -1.0937  0.0288  0.3219
  188MPD1     H 2864   0.266   4.541  10.279  1.1569 -0.5932 -1.9663
  188MPD1    H1 2865   0.442   4.677   9.921 -0.6699 -3.9902  0.0703
  188MPD1    H2 2866   0.451   0.214  10.239 -0.4889 -0.9906  2.6378
  188MPD1    H3 2867   0.495   0.171  10.017 -1.7479  0.8033  0.7446
  188MPD1     N 2868   0.305   4.478  10.033 -0.0090  0.2255 -1.0730
  188MPD1    H5 2869   0.262   4.410  10.096  0.8472 -0.3625 -1.1296
  188MPD1    N1 2870   0.326   0.063  10.410  0.4042 -1.1146  0.4969
  188MPD1    H6 2871   0.385   0.144  10.431 -1.5655 -0.6128  4.2321
  188MPD1    H7 2872   0.344   4.716  10.486  0.2786 -0.0809  1.4407
  189MPD1     C 2873   0.835   1.890   1.005 -0.1354 -0.7306  0.3792
  189MPD1    C1 2874   0.758   1.779   0.992 -0.1993 -0.1361  0.0232
  189MPD1    C2 2875   0.667   1.770   0.889 -0.5568  0.5417  0.0574
  189MPD1    C3 2876   0.665   1.868   0.792 -0.1219 -0.2824  0.3775
  189MPD1    C4 2877   0.743   1.976   0.807  0.1543 -0.4179  0.5111
  189MPD1    C5 2878   0.833   1.988   0.912 -0.3265  0.2453 -0.0227
  189MPD1     H 2879   0.612   1.677   0.880 -0.6939  0.8838 -2.5005
  189MPD1    H1 2880   0.748   2.056   0.734 -2.0470  0.6355  1.4900
  189MPD1    H2 2881   0.903   1.893   1.089  0.4667 -3.3977  0.0052
  189MPD1    H3 2882   0.887   2.082   0.924  0.4895 -0.0894 -1.0415
  189MPD1     N 2883   0.586   1.839   0.681  0.3332 -0.2307  0.6149
  189MPD1    H5 2884   0.533   1.752   0.671  1.5574 -1.0868  1.5623
  189MPD1    N1 2885   0.785   1.664   1.067  0.4243  0.2002 -0.4898
  189MPD1    H6 2886   0.819   1.688   1.160 -1.6167  1.0616  0.0328
  189MPD1    H7 2887   0.700   1.612   1.088 -0.3614  1.0820 -1.4571
  190MPD1     C 2888   3.521   3.315  15.858 -0.0693  0.5724  0.3774
  190MPD1    C1 2889   3.568   3.425  15.926 -0.3677  0.5644 -0.7012
  190MPD1    C2 2890   3.704   3.450  15.912  0.3743 -0.6436 -0.1476
  190MPD1    C3 2891   3.788   3.379  15.830  0.2166 -0.3042 -0.3681
  190MPD1    C4 2892   3.737   3.269  15.769 -0.2315  0.5389 -0.1750
  190MPD1    C5 2893   3.606   3.242  15.786 -0.6194 -0.4475 -0.2145
  190MPD1     H 2894   3.740   3.525  15.981  0.4131 -0.6202 -0.1933
  190MPD1    H1 2895   3.793   3.194  15.713 -0.6358  0.4166 -0.4126
  190MPD1    H2 2896   3.420   3.277  15.872  0.5745 -1.5974 -1.0074
  190MPD1    H3 2897   3.568   3.148  15.749 -1.7578 -0.1703  0.2652
  190MPD1     N 2898   3.923   3.422  15.817  0.5503  0.4439 -0.9868
  190MPD1    H5 2899   3.951   3.485  15.891  1.6615 -2.4180  1.0492
  190MPD1    N1 2900   3.476   3.488  16.012 -0.6701 -0.9522  0.1509
  190MPD1    H6 2901   3.379   3.479  15.982 -0.5937 -1.6247  0.1070
  190MPD1    H7 2902   3.508   3.584  16.029 -1.9161 -0.4170 -0.4909
  191MPD1     C 2903   4.347   0.930  12.582  0.2498 -0.3305 -0.1778
  191MPD1    C1 2904   4.229   0.865  12.606  0.6778  0.0538 -0.0875
  191MPD1    C2 2905   4.133   0.881  12.509 -0.4649  0.4012  0.4875
  191MPD1    C3 2906   4.161   0.942  12.388  0.1229 -0.2244  0.3611
  191MPD1    C4 2907   4.284   0.998  12.360 -0.2457 -0.2137 -0.4159
  191MPD1    C5 2908   4.377   0.993  12.459 -0.0592  1.2821  0.6787
  191MPD1     H 2909   4.036   0.838  12.531 -1.5235  1.4582 -2.0856
  191MPD1    H1 2910   4.305   1.059  12.272 -0.9227  1.4455  0.5629
  191MPD1    H2 2911   4.416   0.942  12.666  2.0077 -1.9692 -1.3820
  191MPD1    H3 2912   4.471   1.044  12.439  0.1386  0.6944  0.1049
  191MPD1     N 2913   4.053   0.943  12.294  0.3931  0.7996  0.0221
  191MPD1    H5 2914   3.958   0.925  12.326  0.4293 -1.3101 -1.0875
  191MPD1    N1 2915   4.186   0.833  12.738  0.2268 -0.8742 -0.1117
  191MPD1    H6 2916   4.114   0.762  12.753 -1.0429  0.2566 -0.8717
  191MPD1    H7 2917   4.252   0.834  12.815 -0.5719 -1.2444  0.5807
  192MPD1     C 2918   3.763   1.649  12.544  1.1637  0.1326 -0.2061
  192MPD1    C1 2919   3.664   1.628  12.453 -0.4177  0.0489  0.4575
  192MPD1    C2 2920   3.684   1.522  12.368 -0.2146 -0.2178 -0.0593
  192MPD1    C3 2921   3.803   1.450  12.365  0.1364 -0.1901 -0.5180
  192MPD1    C4 2922   3.909   1.485  12.445  0.0756  0.8310 -0.2930
  192MPD1    C5 2923   3.883   1.585  12.542  0.1650 -0.3546 -0.2186
  192MPD1     H 2924   3.608   1.504  12.293  1.4875  2.0836 -2.3531
  192MPD1    H1 2925   4.005   1.437  12.436 -0.1706  0.3815 -0.5214
  192MPD1    H2 2926   3.757   1.721  12.625 -0.4794  0.2148 -0.3950
  192MPD1    H3 2927   3.953   1.610  12.620  1.9138  0.8979 -2.1802
  192MPD1     N 2928   3.834   1.357  12.265  0.1981 -0.0446 -0.0440
  192MPD1    H5 2929   3.931   1.328  12.257 -0.3284 -1.7355 -0.2610
  192MPD1    N1 2930   3.551   1.711  12.460  0.1891 -0.2921  0.0914
  192MPD1    H6 2931   3.511   1.716  12.366 -2.4289 -1.7449  1.1404
  192MPD1    H7 2932   3.568   1.802  12.502 -1.3133  0.6718 -1.3676
  193MPD1     C 2933   3.293   1.583  16.066 -0.5360  0.3493 -0.7591
  193MPD1    C1 2934   3.231   1.619  16.183  0.4044 -0.0390  0.3549
  193MPD1    C2 2935   3.307   1.622  16.295  0.2922  0.5167 -0.3637
  193MPD1    C3 2936   3.442   1.573  16.289  0.1612  0.5335 -0.3969
  193MPD1    C4 2937   3.492   1.517  16.177  0.5089  0.1818  0.2149
  193MPD1    C5 2938   3.422   1.541  16.060  0.0101  0.6899  0.2418
  193MPD1     H 2939   3.269   1.671  16.384  1.3664 -1.3508  1.1241
  193MPD1    H1 2940   3.598   1.494  16.166  0.5268 -0.3367  1.4547
  193MPD1    H2 2941   3.235   1.585  15.974  0.7237 -0.4724 -1.5713
  193MPD1    H3 2942   3.460   1.503  15.966  1.1382  1.1240  0.5286
  193MPD1     N 2943   3.532   1.580  16.395 -0.0417 -0.6651  0.1886
  193MPD1    H5 2944   3.629   1.556  16.378  0.1900 -0.6555  1.4865
  193MPD1    N1 2945   3.103   1.684  16.182  0.4686  0.5332 -0.0080
  193MPD1    H6 2946   3.055   1.664  16.270  1.6683  0.0582  0.5316
  193MPD1    H7 2947   3.042   1.666  16.103  0.6407 -1.0520  0.2290
  194MPD1     C 2948   3.001   3.060  15.981  0.2915 -0.5841 -0.2554
  194MPD1    C1 2949   2.929   2.941  15.999  0.1273 -0.4740  0.3174
  194MPD1    C2 2950   2.812   2.937  16.074 -0.0630 -0.0698 -0.4329
  194MPD1    C3 2951   2.764   3.047  16.133 -0.7407 -0.6453  0.1676
  194MPD1    C4 2952   2.842   3.161  16.120  0.4000  0.5646 -0.3790
  194MPD1    C5 2953   2.957   3.170  16.048 -0.0439  0.8786  0.1821
  194MPD1     H 2954   2.744   2.854  16.060  0.6267 -0.2783 -2.5559
  194MPD1    H1 2955   2.793   3.252  16.154  0.4866 -0.1676  1.7171
  194MPD1    H2 2956   3.081   3.072  15.908 -0.2565 -0.1549 -0.7972
  194MPD1    H3 2957   3.011   3.260  16.019 -0.1881  0.3050 -1.9217
  194MPD1     N 2958   2.632   3.048  16.197 -0.2593 -0.6028  0.0567
  194MPD1    H5 2959   2.602   3.138  16.234 -0.5504 -0.2412 -1.0440
  194MPD1    N1 2960   2.955   2.837  15.912  0.0166 -0.2707  0.4888
  194MPD1    H6 2961   3.057   2.835  15.904  0.0590 -2.3487  1.5073
  194MPD1    H7 2962   2.922   2.746  15.944  0.1816 -0.4596  0.1247
  195MPD1     C 2963   3.727   4.205   1.201 -0.6081  0.2562  0.2987
  195MPD1    C1 2964   3.829   4.114   1.171 -0.3141 -0.2761  0.4264
  195MPD1    C2 2965   3.859   4.102   1.040 -0.2771  0.9043  0.5268
  195MPD1    C3 2966   3.777   4.142   0.941  0.4111 -0.7670 -0.2539
  195MPD1    C4 2967   3.676   4.226   0.972 -0.1429  0.2439 -0.2957
  195MPD1    C5 2968   3.652   4.257   1.096 -0.4668  0.0034 -0.5216
  195MPD1     H 2969   3.940   4.037   1.007  0.5201  1.9764  0.3564
  195MPD1    H1 2970   3.621   4.269   0.889 -1.5917  1.9653  1.5404
  195MPD1    H2 2971   3.702   4.255   1.294  0.0345 -1.3169  1.3182
  195MPD1    H3 2972   3.580   4.337   1.108 -0.5839  0.0323 -1.4140
  195MPD1     N 2973   3.779   4.103   0.807  0.0370 -0.2443  0.0379
  195MPD1    H5 2974   3.706   4.142   0.748  0.7020  1.5370  0.3952
  195MPD1    N1 2975   3.914   4.063   1.275 -0.2140 -0.4255 -0.4077
  195MPD1    H6 2976   3.863   4.050   1.362 -2.2610  0.1025 -1.5327
  195MPD1    H7 2977   3.967   3.983   1.241 -1.1948 -0.8481 -0.9310
  196MPD1     C 2978   2.090   4.345   0.152 -0.9527 -0.0980 -0.1069
  196MPD1    C1 2979   2.185   4.444   0.148  0.2021 -0.6132 -0.0505
  196MPD1    C2 2980   2.211   4.523   0.262 -0.4720 -0.7098  0.2724
  196MPD1    C3 2981   2.147   4.503   0.379 -0.4958  0.5642 -0.1261
  196MPD1    C4 2982   2.055   4.402   0.376  0.2570 -0.4126 -0.0835
  196MPD1    C5 2983   2.020   4.332   0.265 -0.0751  0.4607 -0.5782
  196MPD1     H 2984   2.300   4.584   0.248 -1.3541  0.6891  0.7349
  196MPD1    H1 2985   2.012   4.376   0.473  1.0849  1.3555  0.7516
  196MPD1    H2 2986   2.084   4.265   0.079 -1.5673 -0.0775 -0.0781
  196MPD1    H3 2987   1.951   4.250   0.281 -1.3476  1.6003 -0.1950
  196MPD1     N 2988   2.172   4.567   0.506 -0.3113  0.6923 -0.1912
  196MPD1    H5 2989   2.117   4.537   0.585  0.3826  0.7128  0.2965
  196MPD1    N1 2990   2.259   4.452   0.033  0.0017 -0.3547  0.2245
  196MPD1    H6 2991   2.305   4.542   0.029 -0.3181 -0.1219  2.0261
  196MPD1    H7 2992   2.198   4.448  17.632 -0.7431  1.7117  0.6907
  197MPD1     C 2993   2.161   1.357  17.541  0.5292  0.8835 -0.8032
  197MPD1    C1 2994   2.198   1.470  17.604  0.3151 -0.0397  0.1108
  197MPD1    C2 2995   2.224   1.579  17.523  0.0900  0.0748 -0.4783
  197MPD1    C3 2996   2.230   1.575  17.383  0.2761 -1.1039  0.5096
  197MPD1    C4 2997   2.208   1.456  17.323  0.5478  0.2430 -0.2319
  197MPD1    C5 2998   2.163   1.349  17.399 -0.0306  0.5098 -0.7025
  197MPD1     H 2999   2.256   1.671  17.571  1.0374 -1.6723  2.2619
  197MPD1    H1 3000   2.209   1.441  17.216  0.6762  0.3146 -0.2407
  197MPD1    H2 3001   2.131   1.269  17.596 -1.7623  2.3107  0.2016
  197MPD1    H3 3002   2.133   1.252  17.361 -0.8998  0.1420  0.9362
  197MPD1     N 3003   2.274   1.687  17.302  0.5210 -0.1128  0.5055
  197MPD1    H5 3004   2.277   1.665  17.203 -1.0549 -0.6944  0.5797
  197MPD1    N1 3005   2.179   1.488   0.062  0.8577 -0.0435 -0.3701
  197MPD1    H6 3006   2.266   1.522   0.105  0.4948 -0.1255  0.4252
  197MPD1    H7 3007   2.171   1.397   0.105  0.5811  1.0549  1.9205
  198MPD1     C 3008   3.748   1.002  15.477 -0.4892 -0.0883 -0.2594
  198MPD1    C1 3009   3.800   0.906  15.405 -0.2413 -0.0683  0.7851
  198MPD1    C2 3010   3.938   0.875  15.420 -0.2714 -0.4147 -0.1777
  198MPD1    C3 3011   4.015   0.945  15.513  0.6283 -0.3452 -0.0920
  198MPD1    C4 3012   3.960   1.053  15.579  0.0459  0.4832 -0.1855
  198MPD1    C5 3013   3.825   1.075  15.561  0.1832  0.7184  0.1290
  198MPD1     H 3014   3.978   0.794  15.360  1.3901  0.5082 -0.3145
  198MPD1    H1 3015   4.022   1.115  15.642  1.4603  0.4967 -1.5978
  198MPD1    H2 3016   3.642   1.023  15.484 -0.4083 -0.8014  2.9505
  198MPD1    H3 3017   3.780   1.159  15.613  0.1039  0.8679 -0.1849
  198MPD1     N 3018   4.150   0.911  15.512  0.0448  0.0592  0.7375
  198MPD1    H5 3019   4.190   0.836  15.456  0.7416  1.8223 -1.1558
  198MPD1    N1 3020   3.717   0.817  15.332 -0.5273  0.6242  0.1725
  198MPD1    H6 3021   3.767   0.781  15.251 -1.8239  0.3249 -0.4986
  198MPD1    H7 3022   3.630   0.857  15.297 -0.5280 -0.0302 -0.5490
  199MPD1     C 3023   2.374   1.224  10.277  0.4538  0.7333 -0.7299
  199MPD1    C1 3024   2.419   1.343  10.219  0.0600 -0.0864  0.1512
  199MPD1    C2 3025   2.403   1.366  10.083 -0.6684 -0.2280  0.0813
  199MPD1    C3 3026   2.329   1.274  10.012 -0.0193 -0.0088 -0.9024
  199MPD1    C4 3027   2.281   1.163  10.075 -0.5563 -0.2985 -0.0126
  199MPD1    C5 3028   2.304   1.138  10.205  0.0449 -0.1381  0.2888
  199MPD1     H 3029   2.450   1.457  10.049  0.0267 -1.3946 -2.0497
  199MPD1    H1 3030   2.230   1.083  10.022 -1.7797  0.0107  0.7153
  199MPD1    H2 3031   2.394   1.212  10.383  1.8549 -1.9845 -1.3062
  199MPD1    H3 3032   2.263   1.050  10.253 -0.1614  0.4603  1.2010
  199MPD1     N 3033   2.300   1.299   9.875  0.1433  0.3258  0.0773
  199MPD1    H5 3034   2.236   1.231   9.835 -2.0993  1.4836  1.7517
  199MPD1    N1 3035   2.509   1.435  10.281  0.0845  0.1751 -0.2272
  199MPD1    H6 3036   2.509   1.445  10.382 -2.1093 -2.7453  0.0631
  199MPD1    H7 3037   2.507   1.524  10.232 -0.3821 -0.5196 -1.4560
  200MPD1     C 3038   0.422   1.270  14.405  0.1965  0.4527  0.3466
  200MPD1    C1 3039   0.523   1.200  14.338  0.3285 -0.3967 -0.5321
  200MPD1    C2 3040   0.652   1.253  14.332  0.0552  0.2317  0.3240
  200MPD1    C3 3041   0.679   1.377  14.389 -0.4641  0.1780 -0.7350
  200MPD1    C4 3042   0.580   1.447  14.455 -0.3793  0.4064  0.1173
  200MPD1    C5 3043   0.456   1.394  14.458 -0.5751  0.0626 -0.0571
  200MPD1     H 3044   0.721   1.195  14.272  0.6837  1.8307 -0.5067
  200MPD1    H1 3045   0.592   1.543  14.502  1.8258  0.6828 -1.0035
  200MPD1    H2 3046   0.317   1.245  14.412  0.3029 -0.3849 -0.9896
  200MPD1    H3 3047   0.376   1.452  14.501  0.4291  1.4325 -0.0334
  200MPD1     N 3048   0.808   1.430  14.369 -0.1876 -0.7814  0.2880
  200MPD1    H5 3049   0.872   1.380  14.308  0.5896  3.8068 -2.6327
  200MPD1    N1 3050   0.502   1.062  14.301  0.6548  0.5298  0.6552
  200MPD1    H6 3051   0.574   1.029  14.237  0.5337  0.7928  0.3799
  200MPD1    H7 3052   0.407   1.057  14.264  1.4709  0.5598 -1.4533
  201MPD1     C 3053   4.399   0.147  13.402 -0.1090 -0.3675  0.8141
  201MPD1    C1 3054   4.279   0.165  13.469 -0.2099 -0.0926  0.2457
  201MPD1    C2 3055   4.171   0.213  13.400 -0.3233 -0.3232 -0.4806
  201MPD1    C3 3056   4.165   0.208  13.264 -0.2906 -0.3692  0.5737
  201MPD1    C4 3057   4.281   0.170  13.193 -0.4520 -0.4457 -0.0925
  201MPD1    C5 3058   4.394   0.144  13.263  0.0898 -0.0820 -0.6753
  201MPD1     H 3059   4.077   0.240  13.447  0.0824  0.3900 -0.0948
  201MPD1    H1 3060   4.281   0.162  13.085 -0.7872 -1.7850  0.0060
  201MPD1    H2 3061   4.497   0.138  13.448  0.4398 -0.0317 -0.3063
  201MPD1    H3 3062   4.482   0.121  13.205  0.2715  0.2196 -0.5198
  201MPD1     N 3063   4.045   0.243  13.203 -0.5586 -0.5314 -0.1926
  201MPD1    H5 3064   3.967   0.277  13.259 -0.0449  1.5893 -0.7527
  201MPD1    N1 3065   4.268   0.154  13.609  0.4445 -0.4163 -0.2053
  201MPD1    H6 3066   4.346   0.102  13.650 -1.5762 -1.8310  1.8597
  201MPD1    H7 3067   4.188   0.094  13.629  1.5888 -1.8879 -0.0081
  202MPD1     C 3068   4.471   0.286   9.982 -0.2722  0.3417  0.5736
  202MPD1    C1 3069   4.505   0.164   9.922 -0.1575 -0.0559  0.1325
  202MPD1    C2 3070   4.411   0.065   9.926 -0.0252 -0.5666  0.0798
  202MPD1    C3 3071   4.278   0.093   9.944  0.4916 -0.8936 -0.3784
  202MPD1    C4 3072   4.247   0.215   9.992  0.0938 -0.7836 -0.9130
  202MPD1    C5 3073   4.345   0.305  10.024  0.2798 -0.9565 -0.4605
  202MPD1     H 3074   4.425   4.684   9.888 -0.8793 -0.8382  0.4881
  202MPD1    H1 3075   4.147   0.245  10.019 -0.0584  0.0531 -2.3703
  202MPD1    H2 3076   4.541   0.365  10.004 -1.9519  1.0850  3.2415
  202MPD1    H3 3077   4.310   0.401  10.059  1.1662 -0.3380 -1.2761
  202MPD1     N 3078   4.166   0.002   9.924  0.0885 -0.2213 -1.3945
  202MPD1    H5 3079   4.078   0.036   9.962  0.8559 -0.4105  0.5496
  202MPD1    N1 3080   4.640   0.124   9.894  0.0143 -0.0892 -0.0459
  202MPD1    H6 3081   4.633   0.041   9.836  0.9084 -1.0081  1.1343
  202MPD1    H7 3082   4.686   0.198   9.842 -1.3339 -1.4660 -3.1491
  203MPD1     C 3083   1.786   1.475  12.238 -0.0103  0.3377  0.2491
  203MPD1    C1 3084   1.798   1.371  12.150 -0.3914  0.3934 -0.4422
  203MPD1    C2 3085   1.850   1.250  12.197  0.5579 -0.7566  0.4394
  203MPD1    C3 3086   1.935   1.249  12.306  0.8368 -0.7591  0.4687
  203MPD1    C4 3087   1.950   1.370  12.373 -0.6022 -0.0296  0.4709
  203MPD1    C5 3088   1.864   1.476  12.346 -0.2309 -0.1599  0.0097
  203MPD1     H 3089   1.824   1.162  12.139  0.8316  0.3372 -1.3573
  203MPD1    H1 3090   2.015   1.384  12.459 -0.5842  1.4770  0.2100
  203MPD1    H2 3091   1.716   1.555  12.215 -1.0768 -0.6462  0.0526
  203MPD1    H3 3092   1.856   1.563  12.411 -1.7731 -1.6250  1.7486
  203MPD1     N 3093   1.976   1.118  12.352  0.1629  0.7877  0.5766
  203MPD1    H5 3094   1.961   1.036  12.294  2.8871 -0.3519  1.4528
  203MPD1    N1 3095   1.730   1.370  12.030  0.6782 -0.9590 -0.3342
  203MPD1    H6 3096   1.728   1.468  12.005  1.1097 -0.9132 -0.1741
  203MPD1    H7 3097   1.779   1.313  11.961 -0.3660 -1.9342 -0.2754
  204MPD1     C 3098   1.560   2.629  17.229  0.2673  0.2525  0.7344
  204MPD1    C1 3099   1.686   2.575  17.245  0.3290 -0.1070  0.0730
  204MPD1    C2 3100   1.702   2.446  17.289  0.0590 -0.2869  0.3698
  204MPD1    C3 3101   1.592   2.367  17.325  0.0387 -0.4460 -0.8778
  204MPD1    C4 3102   1.471   2.419  17.307  0.2532  0.6132  0.0855
  204MPD1    C5 3103   1.452   2.544  17.256 -0.2037 -0.1496 -0.5101
  204MPD1     H 3104   1.802   2.416  17.318 -0.1904 -1.9747 -0.5750
  204MPD1    H1 3105   1.376   2.370  17.325 -0.0810  0.9020 -0.8873
  204MPD1    H2 3106   1.555   2.730  17.190  0.0179  0.1642  0.5381
  204MPD1    H3 3107   1.355   2.583  17.228  0.6468  1.7961 -0.8109
  204MPD1     N 3108   1.625   2.235  17.369  1.0477  0.2186 -0.1056
  204MPD1    H5 3109   1.719   2.202  17.354  1.3251  0.2622  1.5286
  204MPD1    N1 3110   1.785   2.672  17.239  0.6491 -0.0840 -0.1904
  204MPD1    H6 3111   1.878   2.632  17.236  1.3054  1.1743  3.8005
  204MPD1    H7 3112   1.757   2.745  17.173  2.5216 -0.5028 -1.4369
  205MPD1     C 3113   0.038   1.576  17.562  0.4850  0.3364 -0.1110
  205MPD1    C1 3114   0.131   1.660  17.608  0.0641 -0.0399  0.3811
  205MPD1    C2 3115   0.254   1.605  17.652  0.0688 -0.2651 -0.5981
  205MPD1    C3 3116   0.278   1.473  17.663 -0.4806  0.2040 -0.4850
  205MPD1    C4 3117   0.176   1.391  17.632  0.0550  0.6649 -0.1230
  205MPD1    C5 3118   0.059   1.439  17.573 -0.1401  0.3658 -0.3547
  205MPD1     H 3119   0.332   1.677  17.672 -0.4633  0.3683 -0.7926
  205MPD1    H1 3120   0.176   1.285  17.654 -0.6101  0.6092 -0.3962
  205MPD1    H2 3121   4.664   1.605  17.516  0.5872  1.2372  0.2555
  205MPD1    H3 3122   4.712   1.361  17.539 -0.3468  0.5642 -0.4081
  205MPD1     N 3123   0.399   1.428   0.026 -0.0681  0.6523 -0.0751
  205MPD1    H5 3124   0.417   1.328   0.035  0.6612  0.7619 -0.3255
  205MPD1    N1 3125   0.116   1.796  17.579  0.5939  1.0341 -0.5225
  205MPD1    H6 3126   0.181   1.863  17.622  0.3615  0.4795  0.6805
  205MPD1    H7 3127   0.019   1.818  17.601 -0.1569 -0.7957 -2.0440
  206MPD1     C 3128   0.414   3.708  15.792 -0.7926 -0.1335  0.4683
  206MPD1    C1 3129   0.498   3.675  15.685  0.0955 -0.5596 -0.2893
  206MPD1    C2 3130   0.636   3.678  15.708 -0.6104 -0.4120 -0.1405
  206MPD1    C3 3131   0.684   3.719  15.839  0.7394 -0.3785  0.0715
  206MPD1    C4 3132   0.597   3.760  15.931 -0.2202  0.0966  0.4103
  206MPD1    C5 3133   0.462   3.760  15.912 -0.3391  0.7369  0.2008
  206MPD1     H 3134   0.701   3.648  15.627  1.5135 -1.2560  1.8758
  206MPD1    H1 3135   0.642   3.797  16.023 -0.3698 -0.3860  0.6777
  206MPD1    H2 3136   0.308   3.703  15.774 -1.1477 -0.6694  2.6815
  206MPD1    H3 3137   0.390   3.792  15.987  0.6142  0.7023  1.1323
  206MPD1     N 3138   0.813   3.708  15.879 -0.2030 -0.1337  0.8416
  206MPD1    H5 3139   0.834   3.740  15.973  0.2708 -1.0026  1.0246
  206MPD1    N1 3140   0.447   3.632  15.561  0.0680 -0.4622  0.0427
  206MPD1    H6 3141   0.507   3.572  15.505 -0.3607 -0.1508 -0.7400
  206MPD1    H7 3142   0.348   3.609  15.563 -0.1799  0.5622 -0.7392
  207MPD1     C 3143   3.871   2.194   9.747 -0.5285 -0.7935  0.1066
  207MPD1    C1 3144   3.970   2.252   9.670 -0.0071 -0.4738  0.3716
  207MPD1    C2 3145   4.104   2.256   9.713 -0.6694  1.0015 -0.0160
  207MPD1    C3 3146   4.138   2.183   9.826 -0.8591  0.7371 -0.2984
  207MPD1    C4 3147   4.040   2.116   9.897  0.6610 -0.6218  0.2845
  207MPD1    C5 3148   3.912   2.122   9.859 -0.9263  0.3918 -0.3024
  207MPD1     H 3149   4.166   2.299   9.635  0.4755  1.1775  0.9932
  207MPD1    H1 3150   4.066   2.062   9.987  0.6132  0.2202  0.8009
  207MPD1    H2 3151   3.764   2.197   9.727 -0.4703  0.3246 -0.0418
  207MPD1    H3 3152   3.830   2.079   9.916 -1.0708  0.9006 -0.1265
  207MPD1     N 3153   4.273   2.176   9.873  0.5002  0.0796 -0.0686
  207MPD1    H5 3154   4.291   2.128   9.961  0.5645  0.6077  0.2066
  207MPD1    N1 3155   3.927   2.330   9.558  0.4258 -0.5868 -0.1742
  207MPD1    H6 3156   3.998   2.323   9.485  0.4771 -1.3160 -0.0509
  207MPD1    H7 3157   3.841   2.309   9.508  0.2348 -0.6174  0.1732
  208MPD1     C 3158   1.703   0.542  16.652 -0.3567  0.3129  0.0197
  208MPD1    C1 3159   1.571   0.538  16.675 -0.1282  0.2777  0.2982
  208MPD1    C2 3160   1.531   0.547  16.806 -0.3273 -0.2326 -0.4385
  208MPD1    C3 3161   1.620   0.605  16.907 -0.1460  0.1217 -0.2895
  208MPD1    C4 3162   1.755   0.631  16.867 -0.2743  0.2039 -0.7087
  208MPD1    C5 3163   1.791   0.589  16.741  0.4841 -0.9629 -0.8315
  208MPD1     H 3164   1.430   0.518  16.831  0.3470 -2.0392  0.1807
  208MPD1    H1 3165   1.836   0.639  16.938 -1.1672  2.0056  0.1075
  208MPD1    H2 3166   1.733   0.508  16.553 -1.6275 -1.8109  0.3749
  208MPD1    H3 3167   1.896   0.581  16.712  0.8566  3.1258 -0.5872
  208MPD1     N 3168   1.578   0.618  17.041  0.5524 -0.2830 -0.0604
  208MPD1    H5 3169   1.478   0.600  17.044  0.4779  0.1880  0.2735
  208MPD1    N1 3170   1.480   0.481  16.589  0.2436 -0.3404 -0.4321
  208MPD1    H6 3171   1.391   0.529  16.599 -0.2059 -0.9570 -1.4988
  208MPD1    H7 3172   1.515   0.498  16.495 -2.7937  1.7104 -1.2025
  209MPD1     C 3173   4.165   0.747   9.897  0.5066  0.0055  0.5460
  209MPD1    C1 3174   4.230   0.840   9.814  0.5822  0.3992  0.9725
  209MPD1    C2 3175   4.336   0.905   9.872  0.8911 -0.1498  0.0930
  209MPD1    C3 3176   4.368   0.890  10.008  0.2485 -0.4296  0.0805
  209MPD1    C4 3177   4.293   0.804  10.083  0.0667 -0.1741 -0.1134
  209MPD1    C5 3178   4.189   0.738  10.025 -0.0842 -0.2624  0.1858
  209MPD1     H 3179   4.409   0.958   9.811  1.8025 -1.3019  0.1649
  209MPD1    H1 3180   4.309   0.789  10.189  1.5161 -0.3629 -0.3642
  209MPD1    H2 3181   4.095   0.681   9.849 -0.0947  0.2290  1.1144
  209MPD1    H3 3182   4.129   0.669  10.082 -0.7081 -1.8329 -2.3736
  209MPD1     N 3183   4.480   0.966  10.051  0.9371  0.2183  0.2955
  209MPD1    H5 3184   4.526   1.016   9.975 -0.6907  0.4540 -0.5279
  209MPD1    N1 3185   4.214   0.829   9.672  0.3986  0.1525 -0.7082
  209MPD1    H6 3186   4.116   0.807   9.658  0.2381  0.6363 -0.3473
  209MPD1    H7 3187   4.242   0.920   9.637  1.1192 -0.6053 -2.0952
  210MPD1     C 3188   0.481   0.836  10.761  0.1030  0.1602 -0.1128
  210MPD1    C1 3189   0.453   0.971  10.777 -0.9182  0.2081 -0.1752
  210MPD1    C2 3190   0.355   1.017  10.687 -0.3444  0.7261 -0.4843
  210MPD1    C3 3191   0.300   0.938  10.583 -0.0124  0.3644  0.4694
  210MPD1    C4 3192   0.341   0.806  10.572 -0.1921 -0.3797 -0.5834
  210MPD1    C5 3193   0.423   0.753  10.669  0.1704  0.2960  0.0277
  210MPD1     H 3194   0.313   1.116  10.703 -0.2627  0.4546  1.4009
  210MPD1    H1 3195   0.298   0.734  10.504 -0.5419 -0.1401 -0.6132
  210MPD1    H2 3196   0.562   0.793  10.819  1.6504  3.1281 -0.1025
  210MPD1    H3 3197   0.464   0.653  10.663  0.8711  0.6828 -1.7112
  210MPD1     N 3198   0.200   0.977  10.495  0.0586  0.4201 -0.1581
  210MPD1    H5 3199   0.170   0.904  10.431 -1.3160  0.9327 -0.0894
  210MPD1    N1 3200   0.528   1.052  10.864 -0.0231  0.7218 -0.6901
  210MPD1    H6 3201   0.535   1.022  10.961  3.2196  1.6080 -0.6568
  210MPD1    H7 3202   0.476   1.140  10.872 -3.2523 -1.0647 -1.7535
  211MPD1     C 3203   2.179   0.743  15.467 -0.1338  0.0540 -0.0654
  211MPD1    C1 3204   2.055   0.717  15.416  0.4282  0.2378 -0.0532
  211MPD1    C2 3205   1.952   0.693  15.509 -0.1084 -0.2565 -0.0732
  211MPD1    C3 3206   1.974   0.675  15.643  0.0543  0.3215 -0.0545
  211MPD1    C4 3207   2.101   0.688  15.690 -0.4110  0.4802  0.8255
  211MPD1    C5 3208   2.200   0.728  15.603  0.3615 -0.3749  0.2489
  211MPD1     H 3209   1.856   0.678  15.461  0.5348  1.6876 -2.0060
  211MPD1    H1 3210   2.127   0.671  15.794 -0.8398  0.9278  1.0049
  211MPD1    H2 3211   2.264   0.782  15.413  0.4352  1.6203  1.9487
  211MPD1    H3 3212   2.292   0.765  15.648 -0.1736  3.1751 -1.5554
  211MPD1     N 3213   1.860   0.648  15.716  0.4092 -0.5606  0.3229
  211MPD1    H5 3214   1.766   0.645  15.677  0.8065  0.5859 -0.7034
  211MPD1    N1 3215   2.028   0.744  15.283  0.1959  0.0646  0.4417
  211MPD1    H6 3216   1.937   0.704  15.262 -0.3513  1.6451 -0.1874
  211MPD1    H7 3217   2.096   0.703  15.220 -0.5267 -0.8853  0.2891
  212MPD1     C 3218   1.141   3.918  16.780  0.3855  0.3920  0.5434
  212MPD1    C1 3219   1.127   3.814  16.691  0.4908 -0.6678 -0.6372
  212MPD1    C2 3220   1.044   3.707  16.727  0.8465 -0.5870  0.0394
  212MPD1    C3 3221   0.982   3.705  16.854 -0.3316  0.1805 -0.1669
  212MPD1    C4 3222   1.009   3.809  16.940 -0.1724  0.2876  0.0836
  212MPD1    C5 3223   1.082   3.916  16.903 -0.3383 -0.0796 -0.0612
  212MPD1     H 3224   1.016   3.625  16.662 -0.1028 -0.9094  0.8605
  212MPD1    H1 3225   0.963   3.810  17.038  0.0819 -0.2048  0.2088
  212MPD1    H2 3226   1.217   3.995  16.765 -0.6497  1.3069 -0.0206
  212MPD1    H3 3227   1.100   3.995  16.976 -0.4251  0.7635 -0.9649
  212MPD1     N 3228   0.898   3.605  16.894 -0.1430  0.3066 -0.1486
  212MPD1    H5 3229   0.864   3.612  16.990  1.9782  0.4588  0.5991
  212MPD1    N1 3230   1.190   3.822  16.567  0.4374  0.2071  0.3271
  212MPD1    H6 3231   1.254   3.901  16.573 -1.9742  2.1569  0.1887
  212MPD1    H7 3232   1.254   3.745  16.553 -0.2132 -0.6457  2.0286
  213MPD1     C 3233   3.114   0.806  15.703 -0.4487  0.4287 -0.0864
  213MPD1    C1 3234   3.246   0.801  15.720  0.0259 -0.3261  0.7684
  213MPD1    C2 3235   3.308   0.692  15.670  0.5504 -0.0958 -0.0117
  213MPD1    C3 3236   3.253   0.610  15.570  0.6178 -0.0191 -0.2656
  213MPD1    C4 3237   3.121   0.625  15.541 -0.2940 -0.8670  0.9229
  213MPD1    C5 3238   3.050   0.727  15.608 -0.5544  0.3481  0.1676
  213MPD1     H 3239   3.413   0.674  15.692  0.3511 -2.1062 -0.7524
  213MPD1    H1 3240   3.074   0.565  15.464 -0.2371  0.2086  0.0589
  213MPD1    H2 3241   3.048   0.874  15.757  0.1339 -0.3814  1.6332
  213MPD1    H3 3242   2.944   0.743  15.598 -0.6478  0.3958  1.2518
  213MPD1     N 3243   3.330   0.506  15.519 -0.2075  0.6962 -0.3745
  213MPD1    H5 3244   3.430   0.511  15.535  0.1402 -1.5482 -1.8346
  213MPD1    N1 3245   3.299   0.854  15.835  0.5200 -0.4011  0.2348
  213MPD1    H6 3246   3.401   0.848  15.831  0.6302  0.4967  2.0467
  213MPD1    H7 3247   3.275   0.953  15.841 -0.5602 -0.6273 -0.3905
  214MPD1     C 3248   3.138   4.301  15.176 -0.0783 -0.0691 -0.0168
  214MPD1    C1 3249   3.267   4.337  15.139 -0.6295 -0.0673  0.3961
  214MPD1    C2 3250   3.326   4.453  15.185  0.0754 -0.3860 -0.3284
  214MPD1    C3 3251   3.263   4.540  15.270 -0.5682  0.1276  0.1031
  214MPD1    C4 3252   3.129   4.510  15.293 -0.3061 -0.9562  0.0939
  214MPD1    C5 3253   3.074   4.391  15.260 -0.3963  0.4325 -0.4657
  214MPD1     H 3254   3.428   4.474  15.155 -0.1367  0.2760 -0.5841
  214MPD1    H1 3255   3.063   4.580  15.342 -0.5857  0.4860 -2.3501
  214MPD1    H2 3256   3.097   4.203  15.154  1.3051 -0.8497  0.8581
  214MPD1    H3 3257   2.973   4.363  15.288 -0.4130  0.1404 -0.8273
  214MPD1     N 3258   3.317   4.661  15.306  0.3361 -0.2078  0.1269
  214MPD1    H5 3259   3.251   0.004  15.352 -1.2099 -0.4373 -1.7939
  214MPD1    N1 3260   3.332   4.259  15.042 -0.1788  0.5359 -0.2307
  214MPD1    H6 3261   3.275   4.176  15.032 -1.4843  1.3380  0.5296
  214MPD1    H7 3262   3.313   4.301  14.951 -0.9961  2.1241  0.6633
  215MPD1     C 3263   0.177   0.391  10.410  0.0297  1.0568 -0.7456
  215MPD1    C1 3264   0.069   0.479  10.384 -0.2354 -0.3806 -0.6667
  215MPD1    C2 3265   0.033   0.572  10.477 -0.4982 -0.0083  0.4736
  215MPD1    C3 3266   0.077   0.560  10.606  0.8524  0.5258  0.3393
  215MPD1    C4 3267   0.180   0.477  10.632  1.0260  0.3942 -0.0250
  215MPD1    C5 3268   0.242   0.399  10.533 -0.1271  0.7345 -0.0704
  215MPD1     H 3269   4.672   0.644  10.464 -0.9502 -0.8683 -1.4197
  215MPD1    H1 3270   0.223   0.472  10.732  0.4701  1.0012  0.2479
  215MPD1    H2 3271   0.216   0.324  10.334  0.4068  2.6901 -1.9935
  215MPD1    H3 3272   0.321   0.328  10.554 -1.5285 -0.5161  1.0319
  215MPD1     N 3273   0.036   0.662  10.689  0.4816 -1.0376  0.7335
  215MPD1    H5 3274   4.713   0.735  10.633  1.6779 -0.6894  0.2893
  215MPD1    N1 3275   0.024   0.490  10.251 -0.1986 -0.4620 -0.2499
  215MPD1    H6 3276   4.649   0.523  10.232 -0.7653 -2.3383 -0.7583
  215MPD1    H7 3277   0.044   0.409  10.193  1.0215  0.1288 -0.6379
  216MPD1     C 3278   1.372   2.281  15.789 -0.4681  0.4759  0.2942
  216MPD1    C1 3279   1.351   2.170  15.866 -0.3851 -0.4132  0.0266
  216MPD1    C2 3280   1.307   2.188  15.997 -0.0421  0.3396  0.1892
  216MPD1    C3 3281   1.314   2.313  16.064  0.2384 -0.5781 -0.2453
  216MPD1    C4 3282   1.362   2.421  15.984  0.3252  0.3326 -0.0748
  216MPD1    C5 3283   1.376   2.406  15.851 -0.4956  1.2117  0.3159
  216MPD1     H 3284   1.284   2.096  16.049 -2.1778 -0.7064 -2.6507
  216MPD1    H1 3285   1.363   2.520  16.029 -1.1114 -0.0268  0.7194
  216MPD1    H2 3286   1.391   2.269  15.683 -0.3861  0.2275  0.3367
  216MPD1    H3 3287   1.389   2.494  15.789  1.5544 -0.2423 -1.3092
  216MPD1     N 3288   1.278   2.322  16.200 -0.0436 -0.0117  0.0896
  216MPD1    H5 3289   1.266   2.232  16.245  0.1863  0.1353  0.4421
  216MPD1    N1 3290   1.344   2.043  15.799 -0.0882 -1.1105  0.0531
  216MPD1    H6 3291   1.421   2.030  15.733 -1.3481 -1.2370 -1.3896
  216MPD1    H7 3292   1.351   1.970  15.869  0.5004 -1.8914 -0.8194
  217MPD1     C 3293   0.967   0.630   8.727 -0.6498  0.1887  0.3724
  217MPD1    C1 3294   1.043   0.543   8.654  0.4691 -0.1069  0.3672
  217MPD1    C2 3295   1.160   0.501   8.710  0.3180 -0.2314  0.5500
  217MPD1    C3 3296   1.184   0.516   8.846 -0.2275 -0.0417  0.3088
  217MPD1    C4 3297   1.096   0.597   8.917 -0.4258 -0.8112 -0.0568
  217MPD1    C5 3298   0.989   0.648   8.860 -0.5648  0.0135  0.1388
  217MPD1     H 3299   1.236   0.449   8.654 -0.8136  0.7036 -1.8652
  217MPD1    H1 3300   1.107   0.615   9.023 -2.3849  0.8703 -0.1323
  217MPD1    H2 3301   0.883   0.679   8.680 -1.0976  0.7512  1.7747
  217MPD1    H3 3302   0.924   0.710   8.920  0.2107  2.2613 -1.3273
  217MPD1     N 3303   1.304   0.475   8.915 -0.2612 -0.8287 -0.2401
  217MPD1    H5 3304   1.334   0.532   8.994  0.4249  1.0128 -1.8276
  217MPD1    N1 3305   1.015   0.533   8.520 -0.7422  0.3599  0.6290
  217MPD1    H6 3306   1.048   0.448   8.473 -1.3434  0.4039  0.1206
  217MPD1    H7 3307   0.916   0.537   8.495 -0.0892  2.2489 -1.6493
  218MPD1     C 3308   2.941   0.761  12.348 -0.4685  0.6744  0.8394
  218MPD1    C1 3309   2.993   0.887  12.388 -0.9351  0.0247 -0.0841
  218MPD1    C2 3310   3.124   0.877  12.434 -0.0332  0.2576 -0.2006
  218MPD1    C3 3311   3.194   0.764  12.465  0.6888 -0.1855  0.0382
  218MPD1    C4 3312   3.141   0.642  12.435 -0.1438 -0.5727  0.4202
  218MPD1    C5 3313   3.009   0.646  12.387  0.4886 -0.1792  0.6813
  218MPD1     H 3314   3.183   0.968  12.439 -0.7513  0.7400 -0.5197
  218MPD1    H1 3315   3.180   0.549  12.474 -0.3557 -0.7063  0.3144
  218MPD1    H2 3316   2.843   0.758  12.300  0.5496 -0.3515 -1.1445
  218MPD1    H3 3317   2.956   0.555  12.362 -1.9151  1.3431  0.1865
  218MPD1     N 3318   3.315   0.783  12.535 -0.1634 -0.3727  0.0095
  218MPD1    H5 3319   3.346   0.878  12.552  2.7433 -1.2141 -0.5323
  218MPD1    N1 3320   2.929   1.012  12.350 -0.2559 -0.5173 -0.3504
  218MPD1    H6 3321   2.833   1.002  12.383 -0.7063  1.1627 -1.1465
  218MPD1    H7 3322   2.984   1.082  12.401 -0.0514 -1.5367  0.8111
  219MPD1     C 3323   3.647   1.182  13.388 -0.5428  0.0483  0.2405
  219MPD1    C1 3324   3.541   1.198  13.305  0.6906  0.8496  0.2104
  219MPD1    C2 3325   3.541   1.118  13.193 -0.0814  0.4006  0.1668
  219MPD1    C3 3326   3.631   1.021  13.167  0.4258 -0.5558 -0.1241
  219MPD1    C4 3327   3.728   0.999  13.257  0.1016  0.5706  0.0928
  219MPD1    C5 3328   3.736   1.081  13.366 -0.2285  0.1955  0.1207
  219MPD1     H 3329   3.458   1.138  13.127  0.0846 -0.0358 -0.1760
  219MPD1    H1 3330   3.792   0.913  13.245 -0.4962  0.3233 -1.2943
  219MPD1    H2 3331   3.666   1.256  13.465 -1.8443 -1.3081  1.8617
  219MPD1    H3 3332   3.826   1.072  13.426  0.5990  2.8715 -0.6869
  219MPD1     N 3333   3.641   0.951  13.040  0.1659  0.1906  0.2980
  219MPD1    H5 3334   3.720   0.891  13.021  0.1629  0.1581  0.3859
  219MPD1    N1 3335   3.458   1.312  13.319  0.1564 -0.1339  0.0844
  219MPD1    H6 3336   3.367   1.313  13.273 -0.6207  0.4221  1.6196
  219MPD1    H7 3337   3.443   1.342  13.415  0.4053 -1.9669  0.7027
  220MPD1     C 3338   3.851   1.578   9.467  0.7463 -0.2336 -0.1682
  220MPD1    C1 3339   3.921   1.626   9.570  0.8877  0.4595 -0.9204
  220MPD1    C2 3340   3.990   1.542   9.655  0.6721 -0.4150 -0.5731
  220MPD1    C3 3341   3.973   1.401   9.650 -0.3680 -1.3788  0.0821
  220MPD1    C4 3342   3.881   1.354   9.556 -0.0742 -0.0329 -0.2442
  220MPD1    C5 3343   3.840   1.444   9.461 -0.3436  0.5021 -0.1978
  220MPD1     H 3344   4.044   1.585   9.739  0.4665 -0.0508 -0.6263
  220MPD1    H1 3345   3.871   1.248   9.535 -0.1034 -0.4950  2.0958
  220MPD1    H2 3346   3.794   1.643   9.402 -1.3637  0.6046  2.4902
  220MPD1    H3 3347   3.784   1.404   9.377  0.7065  0.5707 -0.9403
  220MPD1     N 3348   4.022   1.320   9.751  0.3188  0.0853 -0.1555
  220MPD1    H5 3349   4.071   1.362   9.829 -2.1431  2.3288  0.1712
  220MPD1    N1 3350   3.936   1.764   9.581 -0.1051 -0.8396  0.5305
  220MPD1    H6 3351   3.916   1.797   9.675 -0.2615 -2.2731  0.9986
  220MPD1    H7 3352   3.878   1.814   9.514  0.4732 -0.7704  0.0784
  221MPD1     C 3353   1.878   4.672  15.578 -0.0241 -0.1122  0.5014
  221MPD1    C1 3354   1.766   4.589  15.559  0.0475  0.5932  0.4071
  221MPD1    C2 3355   1.700   4.534  15.667  0.0880 -0.5630  0.4344
  221MPD1    C3 3356   1.740   4.560  15.802 -0.4502  0.0364  0.6880
  221MPD1    C4 3357   1.853   4.634  15.821  0.3787  0.3662  0.2802
  221MPD1    C5 3358   1.912   4.694  15.708 -0.2275 -0.1782  0.1949
  221MPD1     H 3359   1.607   4.481  15.651  0.0509 -0.4888  0.4069
  221MPD1    H1 3360   1.891   4.666  15.917  1.1837 -0.9453  0.3898
  221MPD1    H2 3361   1.927   4.717  15.493 -2.0665  0.0300 -0.6076
  221MPD1    H3 3362   1.997   0.038  15.730  0.1474 -1.3479  2.1214
  221MPD1     N 3363   1.672   4.513  15.918  0.0712  0.2394 -0.7468
  221MPD1    H5 3364   1.708   4.544  16.008 -0.9882 -1.4306  0.2403
  221MPD1    N1 3365   1.726   4.567  15.428 -0.9102  0.4092  0.4839
  221MPD1    H6 3366   1.627   4.542  15.430 -1.2213  1.6351  0.1244
  221MPD1    H7 3367   1.748   4.650  15.373 -1.0866  0.2415  0.1593
  222MPD1     C 3368   0.409   3.492  17.456 -0.2231 -0.4107 -0.0229
  222MPD1    C1 3369   0.385   3.402  17.555 -0.9236  0.4738 -0.2002
  222MPD1    C2 3370   0.333   3.453  17.672  0.3549 -0.0375 -0.1076
  222MPD1    C3 3371   0.279   3.585   0.004 -0.6794 -0.3227 -0.3822
  222MPD1    C4 3372   0.289   3.665  17.574  0.4558 -0.1305  0.3210
  222MPD1    C5 3373   0.355   3.618  17.461 -0.6839 -0.5940 -0.5763
  222MPD1     H 3374   0.317   3.379   0.069 -1.4900  2.3467  1.7981
  222MPD1    H1 3375   0.242   3.763  17.573  1.5817  0.4017 -1.1537
  222MPD1    H2 3376   0.473   3.464  17.373 -0.4954  0.6534 -0.5947
  222MPD1    H3 3377   0.370   3.683  17.376  0.0943  1.7966  1.3914
  222MPD1     N 3378   0.211   3.637   0.120  0.2196  0.4673  0.5134
  222MPD1    H5 3379   0.175   3.732   0.110  1.1672  0.6845 -0.9357
  222MPD1    N1 3380   0.447   3.280  17.558  1.1205  0.3206  0.1352
  222MPD1    H6 3381   0.386   3.212  17.604  0.2649  1.7851  1.1880
  222MPD1    H7 3382   0.477   3.248  17.467  2.8737 -0.9346  1.1674
  223MPD1     C 3383   4.557   3.264   1.039 -0.9552 -0.1181  0.1202
  223MPD1    C1 3384   4.697   3.262   1.034  0.2836  0.3196  0.2149
  223MPD1    C2 3385   0.039   3.323   0.930 -0.5606 -0.3042 -0.2233
  223MPD1    C3 3386   4.690   3.393   0.828 -0.3130 -0.6845  0.7669
  223MPD1    C4 3387   4.550   3.390   0.842 -0.1650 -0.1855  0.5709
  223MPD1    C5 3388   4.484   3.329   0.943  0.5788 -0.3371 -0.2619
  223MPD1     H 3389   0.147   3.327   0.931 -0.5612 -0.1470 -0.7565
  223MPD1    H1 3390   4.482   3.443   0.776 -0.3140 -0.2692  0.6547
  223MPD1    H2 3391   4.504   3.236   1.129  0.5341  2.1139  1.6635
  223MPD1    H3 3392   4.379   3.338   0.967  1.0464  0.1627  1.5813
  223MPD1     N 3393   0.031   3.477   0.730  0.0304  0.2205 -0.3475
  223MPD1    H5 3394   0.132   3.468   0.723  0.0971 -0.8251  1.8507
  223MPD1    N1 3395   0.057   3.213   1.145  0.0132  0.7741 -1.0659
  223MPD1    H6 3396   4.718   3.154   1.204  0.2773  1.3005 -0.2814
  223MPD1    H7 3397   0.140   3.168   1.107 -0.0441  0.6634 -1.0604
  224MPD1     C 3398   3.505   0.249   9.668  0.3183  0.3474  0.1870
  224MPD1    C1 3399   3.455   0.373   9.625 -0.4953 -0.5754  0.5002
  224MPD1    C2 3400   3.320   0.379   9.597 -0.4520 -0.4395  0.0143
  224MPD1    C3 3401   3.231   0.279   9.629 -0.8476 -0.1360 -0.2591
  224MPD1    C4 3402   3.282   0.162   9.675 -0.1815  0.0598 -0.1544
  224MPD1    C5 3403   3.415   0.150   9.702 -0.8873 -0.0618  0.5920
  224MPD1     H 3404   3.298   0.469   9.539  0.3669 -0.3963 -0.2286
  224MPD1    H1 3405   3.217   0.081   9.708  0.8325 -0.5628  0.2969
  224MPD1    H2 3406   3.607   0.223   9.693  0.6284 -0.4688 -1.8745
  224MPD1    H3 3407   3.445   0.062   9.756 -1.7882 -1.3974 -1.0841
  224MPD1     N 3408   3.091   0.284   9.609 -0.2376  0.0176 -0.2607
  224MPD1    H5 3409   3.035   0.204   9.637 -0.8009  1.1441  1.8246
  224MPD1    N1 3410   3.550   0.475   9.605 -0.1501  0.4307 -0.1511
  224MPD1    H6 3411   3.642   0.461   9.646 -0.3859  2.1656  0.9820
  224MPD1    H7 3412   3.515   0.565   9.639 -2.2259 -0.5282  0.2744
  225MPD1     C 3413   2.957   2.422  11.570 -0.2601 -0.3145  0.2880
  225MPD1    C1 3414   3.003   2.295  11.570 -0.2501 -0.3999  0.4526
  225MPD1    C2 3415   2.939   2.210  11.651  0.6388  0.1583  0.3111
  225MPD1    C3 3416   2.818   2.243  11.705  0.5841  0.1943 -1.2064
  225MPD1    C4 3417   2.765   2.365  11.700  0.5494 -0.1531 -0.1062
  225MPD1    C5 3418   2.840   2.456  11.639  0.5705 -0.0869  0.4070
  225MPD1     H 3419   2.986   2.112  11.659 -0.0534 -0.2258 -0.4015
  225MPD1    H1 3420   2.669   2.404  11.733  2.2344  1.5352  2.8079
  225MPD1    H2 3421   3.015   2.498  11.518  1.0505 -0.6228  1.2779
  225MPD1    H3 3422   2.806   2.556  11.613  1.3060 -0.2365 -1.1203
  225MPD1     N 3423   2.728   2.150  11.755 -0.2176 -0.0465 -0.8493
  225MPD1    H5 3424   2.635   2.180  11.785 -0.1190 -0.4487 -0.1386
  225MPD1    N1 3425   3.124   2.260  11.511 -0.4217  0.1622 -0.3679
  225MPD1    H6 3426   3.127   2.164  11.478 -1.6289 -1.3870  3.9605
  225MPD1    H7 3427   3.153   2.325  11.439 -1.5514  3.2148  1.8984
  226MPD1     C 3428   2.408   2.181  10.406  0.0617 -0.4914 -0.5150
  226MPD1    C1 3429   2.538   2.205  10.354 -0.4294  0.2354 -0.2164
  226MPD1    C2 3430   2.614   2.118  10.280 -0.2108  0.4336 -0.5933
  226MPD1    C3 3431   2.556   1.992  10.254  0.2538  0.7380 -0.4453
  226MPD1    C4 3432   2.430   1.970  10.304  0.1554  0.3584 -0.7849
  226MPD1    C5 3433   2.356   2.061  10.373 -0.5898  0.2226 -0.3350
  226MPD1     H 3434   2.714   2.147  10.249  0.9035 -0.5647  2.0257
  226MPD1    H1 3435   2.376   1.876  10.295 -0.3472  0.5601  0.0169
  226MPD1    H2 3436   2.353   2.243  10.475  1.2728 -1.1404  1.0481
  226MPD1    H3 3437   2.254   2.048  10.407  0.6079  0.2142  3.2357
  226MPD1     N 3438   2.631   1.913  10.163 -0.3862  0.4591  0.1794
  226MPD1    H5 3439   2.722   1.942  10.129 -0.8677  1.8825  0.1112
  226MPD1    N1 3440   2.592   2.333  10.358  0.0735 -0.2285  0.7789
  226MPD1    H6 3441   2.693   2.327  10.369  0.3875  0.6787 -1.6149
  226MPD1    H7 3442   2.559   2.389  10.436  0.1899 -0.0621  0.7092
  227MPD1     C 3443   2.904   2.237   9.438  0.1209 -0.6143  0.5454
  227MPD1    C1 3444   2.769   2.216   9.476 -0.0208 -0.6484 -0.1934
  227MPD1    C2 3445   2.751   2.111   9.570  0.3105  0.9663  0.6898
  227MPD1    C3 3446   2.851   2.021   9.606  0.1766 -1.0251  0.3719
  227MPD1    C4 3447   2.979   2.033   9.558  0.6239  0.9002  0.6368
  227MPD1    C5 3448   3.005   2.143   9.476 -0.1765 -0.5519  0.5382
  227MPD1     H 3449   2.655   2.108   9.619  0.0123 -0.7185 -0.0104
  227MPD1    H1 3450   3.057   1.963   9.584 -0.1395 -0.8330 -1.6752
  227MPD1    H2 3451   2.936   2.318   9.373 -0.6418  0.9169  2.0765
  227MPD1    H3 3452   3.102   2.163   9.432 -0.2099 -0.7396  0.3779
  227MPD1     N 3453   2.815   1.918   9.699  0.6228  0.0113  0.5831
  227MPD1    H5 3454   2.723   1.906   9.740  0.7856  1.2431  1.3258
  227MPD1    N1 3455   2.667   2.301   9.428 -0.1427 -0.1212  0.1892
  227MPD1    H6 3456   2.690   2.354   9.344  0.6067 -0.8262 -0.0548
  227MPD1    H7 3457   2.595   2.234   9.401 -0.2357  0.4527 -0.9823
  228MPD1     C 3458   0.328   0.081  13.125  0.6686  0.4898 -0.6572
  228MPD1    C1 3459   0.243   0.007  13.207 -0.3751  0.0274  0.1982
  228MPD1    C2 3460   0.229   4.596  13.161  0.2233  0.7736 -0.4444
  228MPD1    C3 3461   0.285   4.533  13.053 -0.9374  0.2849  0.3279
  228MPD1    C4 3462   0.353   4.617  12.969  0.1880  0.3838  0.1511
  228MPD1    C5 3463   0.378   0.030  13.005 -0.0002 -0.5442 -0.9915
  228MPD1     H 3464   0.143   4.542  13.200  0.8926  0.6885  0.8988
  228MPD1    H1 3465   0.374   4.578  12.870  1.2034  0.6097  0.2795
  228MPD1    H2 3466   0.359   0.185  13.138  1.6080 -0.0573  1.4799
  228MPD1    H3 3467   0.445   0.086  12.942 -0.3820 -0.1654 -1.0583
  228MPD1     N 3468   0.249   4.401  13.022 -0.2183 -0.4636 -0.8050
  228MPD1    H5 3469   0.290   4.364  12.937 -0.4862 -0.3382 -0.9918
  228MPD1    N1 3470   0.197   0.050  13.335 -0.0088 -0.7396  0.1449
  228MPD1    H6 3471   0.178   0.150  13.332 -3.0396 -1.3467 -0.1574
  228MPD1    H7 3472   0.111   0.009  13.369  1.0533 -0.4857  3.2096
  229MPD1     C 3473   0.035   2.804  14.962  0.8452 -0.6083  0.0824
  229MPD1    C1 3474   4.718   2.759  15.088  0.6712  0.5346  0.2398
  229MPD1    C2 3475   0.004   2.621  15.124  0.2057 -0.0668 -0.8021
  229MPD1    C3 3476   0.043   2.530  15.031  0.1486  0.6373 -0.2803
  229MPD1    C4 3477   0.083   2.574  14.904  0.4218  0.7371 -0.7894
  229MPD1    C5 3478   0.073   2.710  14.868 -0.1427 -0.4365  0.4466
  229MPD1     H 3479   4.711   2.593  15.228  1.6214 -1.0194 -0.9003
  229MPD1    H1 3480   0.113   2.501  14.829 -0.2715 -0.9481  0.5849
  229MPD1    H2 3481   0.034   2.909  14.936  0.3908 -0.5370  0.3870
  229MPD1    H3 3482   0.096   2.741  14.767 -0.6145  2.3713  1.1999
  229MPD1     N 3483   0.047   2.388  15.055  0.2176  0.5183  0.2831
  229MPD1    H5 3484   0.059   2.330  14.972 -0.7601 -0.8744  1.1100
  229MPD1    N1 3485   4.689   2.849  15.190 -0.5111 -0.1158  0.2278
  229MPD1    H6 3486   4.670   2.945  15.161  1.6351 -0.1764 -1.4437
  229MPD1    H7 3487   4.633   2.814  15.267 -0.4083  0.7331  0.6889
  230MPD1     C 3488   4.243   1.495  14.980  0.3381  0.3308 -0.0366
  230MPD1    C1 3489   4.350   1.448  15.051  0.1209 -0.3473  1.1203
  230MPD1    C2 3490   4.445   1.543  15.097 -0.9918  0.3450  0.3628
  230MPD1    C3 3491   4.420   1.680  15.095  0.0430 -0.1598  0.0417
  230MPD1    C4 3492   4.309   1.723  15.029 -0.2704 -0.2611 -0.2285
  230MPD1    C5 3493   4.225   1.628  14.969 -0.0627  0.3876  0.1706
  230MPD1     H 3494   4.535   1.493  15.130 -1.1505  0.8289  1.5270
  230MPD1    H1 3495   4.287   1.828  15.020  0.0755 -0.0787  0.9356
  230MPD1    H2 3496   4.182   1.433  14.915 -0.3888 -0.3438  1.2959
  230MPD1    H3 3497   4.159   1.673  14.896  0.9507 -0.5203 -1.2817
  230MPD1     N 3498   4.509   1.771  15.154  0.0486 -0.6946 -0.7068
  230MPD1    H5 3499   4.588   1.726  15.200  1.3454  1.1580 -1.1377
  230MPD1    N1 3500   4.388   1.314  15.036  0.1929  0.1022 -0.1704
  230MPD1    H6 3501   4.449   1.276  15.109 -2.3014  0.1653  1.9232
  230MPD1    H7 3502   4.307   1.253  15.035 -0.2171  0.5640  3.0224
  231MPD1     C 3503   2.425   4.523  14.846 -1.1135 -0.3888  0.3472
  231MPD1    C1 3504   2.478   4.567  14.726 -0.1769 -0.0602 -0.3128
  231MPD1    C2 3505   2.594   4.639  14.732  0.7423  0.1600  0.0285
  231MPD1    C3 3506   2.663   4.659  14.847 -0.5818 -0.1851  0.1865
  231MPD1    C4 3507   2.599   4.623  14.965  0.1987  0.6858 -0.8108
  231MPD1    C5 3508   2.486   4.550  14.961 -0.8338 -0.6432  0.5911
  231MPD1     H 3509   2.643   4.675  14.643  0.7981  1.6922  0.6807
  231MPD1    H1 3510   2.643   4.653  15.059  0.3522 -0.1551 -0.6120
  231MPD1    H2 3511   2.328   4.474  14.854 -1.2537 -0.0702  0.6265
  231MPD1    H3 3512   2.432   4.534  15.054 -1.2886 -1.3999  0.1948
  231MPD1     N 3513   2.791   0.002  14.836 -0.2322  0.0644  0.0142
  231MPD1    H5 3514   2.820   0.035  14.744 -1.7348 -1.6905 -1.0816
  231MPD1    N1 3515   2.416   4.526  14.604 -0.8404 -0.7494  0.3607
  231MPD1    H6 3516   2.433   4.591  14.528 -1.2095 -1.1579 -0.0726
  231MPD1    H7 3517   2.315   4.531  14.615 -0.6083 -1.8528  3.1504
  232MPD1     C 3518   0.072   2.387  17.072 -0.1906  0.0751  0.0110
  232MPD1    C1 3519   4.694   2.458  17.142  0.2487  0.4474 -0.6980
  232MPD1    C2 3520   4.595   2.395  17.204 -0.2886 -0.2189  0.1098
  232MPD1    C3 3521   4.573   2.261  17.185  0.1255 -0.4834 -1.0188
  232MPD1    C4 3522   4.671   2.189  17.115  0.6809 -0.7058  0.1417
  232MPD1    C5 3523   0.067   2.249  17.067  1.2631  0.2975 -0.1193
  232MPD1     H 3524   4.533   2.442  17.280 -2.5377  0.2689 -2.0610
  232MPD1    H1 3525   4.655   2.083  17.105 -2.0826 -0.4721  2.0437
  232MPD1    H2 3526   0.154   2.431  17.018  0.4206  0.8002  1.5282
  232MPD1    H3 3527   0.146   2.193  17.018  0.5645 -1.0478  0.2815
  232MPD1     N 3528   4.470   2.195  17.250  0.4106 -0.0745 -0.3208
  232MPD1    H5 3529   4.405   2.253  17.302  0.2960 -0.8593  0.4114
  232MPD1    N1 3530   0.002   2.592  17.173  0.2476 -0.0575 -0.1326
  232MPD1    H6 3531   0.056   2.634  17.097 -1.7960  0.1777 -1.4521
  232MPD1    H7 3532   4.633   2.641  17.180  0.5898  0.6512 -0.6958
  233MPD1     C 3533   1.145   2.184   1.195  0.3372 -0.0898  0.0733
  233MPD1    C1 3534   1.024   2.134   1.243 -0.3067  0.9021 -0.0324
  233MPD1    C2 3535   1.029   2.002   1.280 -0.3036  0.4597  0.8202
  233MPD1    C3 3536   1.131   1.915   1.233  0.3883 -0.3999 -0.4230
  233MPD1    C4 3537   1.242   1.970   1.171 -0.1919  0.0631  0.3432
  233MPD1    C5 3538   1.249   2.107   1.154  0.3300  0.4176  0.1285
  233MPD1     H 3539   0.946   1.959   1.336 -0.0034  1.2656  1.8802
  233MPD1    H1 3540   1.320   1.912   1.122 -0.9038 -0.1749 -0.5040
  233MPD1    H2 3541   1.152   2.289   1.169  2.1721 -0.6390 -1.6442
  233MPD1    H3 3542   1.338   2.150   1.109  1.3274 -0.9240  0.8256
  233MPD1     N 3543   1.134   1.777   1.248 -0.2995  0.2294  0.2263
  233MPD1    H5 3544   1.213   1.718   1.223 -1.1099 -0.8179  0.1449
  233MPD1    N1 3545   0.923   2.222   1.299 -0.3532  0.3475  0.2473
  233MPD1    H6 3546   0.841   2.171   1.329  1.5606 -2.9429 -0.0699
  233MPD1    H7 3547   0.900   2.299   1.236  0.5449 -0.7581 -1.4470
  234MPD1     C 3548   2.245   3.389   9.228  0.1138  0.1631 -0.2287
  234MPD1    C1 3549   2.344   3.461   9.292  0.4835  0.5567  0.2329
  234MPD1    C2 3550   2.342   3.598   9.277 -0.5055  0.0745  0.0999
  234MPD1    C3 3551   2.241   3.661   9.208  0.3800  0.5955  0.1326
  234MPD1    C4 3552   2.142   3.589   9.147  0.1457 -0.4987 -0.4971
  234MPD1    C5 3553   2.148   3.453   9.155  0.2143 -0.0113 -0.3067
  234MPD1     H 3554   2.423   3.656   9.320  0.6661 -0.4663 -1.3851
  234MPD1    H1 3555   2.067   3.638   9.086 -0.4903 -1.9586 -0.8829
  234MPD1    H2 3556   2.225   3.284   9.248 -2.9913  0.9269  0.8048
  234MPD1    H3 3557   2.080   3.386   9.102  0.3920 -0.5323  0.1230
  234MPD1     N 3558   2.253   3.802   9.195  0.2705 -0.2521  0.2807
  234MPD1    H5 3559   2.341   3.842   9.226  0.7600 -0.2987 -1.0611
  234MPD1    N1 3560   2.443   3.390   9.357  0.5744  0.2096  0.0418
  234MPD1    H6 3561   2.495   3.450   9.421 -1.0057  1.3838  0.2033
  234MPD1    H7 3562   2.403   3.312   9.409  0.7311  1.3895  1.9212
  235MPD1     C 3563   4.200   2.052   8.227  0.3287 -0.9520 -0.2296
  235MPD1    C1 3564   4.261   2.018   8.348  0.7459  0.4001 -0.3331
  235MPD1    C2 3565   4.292   2.129   8.434 -0.0715 -0.1897  0.1200
  235MPD1    C3 3566   4.276   2.263   8.397  0.9446 -0.5632  0.7300
  235MPD1    C4 3567   4.212   2.292   8.279  0.2143  0.4150 -0.2659
  235MPD1    C5 3568   4.181   2.182   8.192  0.1140 -0.0469 -0.0675
  235MPD1     H 3569   4.334   2.106   8.531  2.0595 -0.6090 -0.9064
  235MPD1    H1 3570   4.182   2.393   8.255  1.0262  0.4335 -1.1769
  235MPD1    H2 3571   4.182   1.984   8.145  1.3969  0.1289 -1.3640
  235MPD1    H3 3572   4.126   2.194   8.099 -1.3577 -2.7465  0.4538
  235MPD1     N 3573   4.340   2.362   8.473  0.0800  0.6162  0.5061
  235MPD1    H5 3574   4.375   2.324   8.560 -0.8624  0.7404  0.9395
  235MPD1    N1 3575   4.262   1.880   8.390  0.3195  0.2732 -0.1709
  235MPD1    H6 3576   4.346   1.867   8.447 -0.5002  1.6133  1.3379
  235MPD1    H7 3577   4.272   1.814   8.312 -1.1511 -0.2153  0.0705
  236MPD1     C 3578   3.248   2.642   9.955  0.2447 -0.0296 -0.5029
  236MPD1    C1 3579   3.327   2.550   9.887  0.6429  0.1420 -0.1568
  236MPD1    C2 3580   3.462   2.573   9.891 -0.4597  0.4535 -0.5131
  236MPD1    C3 3581   3.519   2.671   9.959  0.4868  0.7460 -0.0417
  236MPD1    C4 3582   3.442   2.759  10.028  0.6497 -0.3335 -0.2184
  236MPD1    C5 3583   3.306   2.743  10.016 -0.5759 -0.0587 -0.0669
  236MPD1     H 3584   3.521   2.497   9.841 -1.5125 -1.4762  1.1742
  236MPD1    H1 3585   3.472   2.853  10.074 -1.2635 -0.1534  0.6372
  236MPD1    H2 3586   3.141   2.643   9.967  0.5885  1.4761  2.5230
  236MPD1    H3 3587   3.234   2.816  10.052  1.3547  1.0165  1.6784
  236MPD1     N 3588   3.656   2.678   9.955 -0.4164  0.6863 -0.3717
  236MPD1    H5 3589   3.710   2.603   9.914 -0.7547  1.3163 -1.9532
  236MPD1    N1 3590   3.263   2.457   9.797  0.4525 -0.0515  0.3762
  236MPD1    H6 3591   3.315   2.370   9.790 -1.1352 -0.8947 -0.8370
  236MPD1    H7 3592   3.167   2.437   9.826  0.7624 -0.5132  1.0865
  237MPD1     C 3593   3.310   1.475  15.300  0.5449 -0.1762 -0.1141
  237MPD1    C1 3594   3.258   1.532  15.188 -0.9211 -0.5161 -0.4210
  237MPD1    C2 3595   3.133   1.487  15.149  0.0461  0.1213 -0.4487
  237MPD1    C3 3596   3.077   1.367  15.195 -1.3873  0.0921  0.2393
  237MPD1    C4 3597   3.131   1.312  15.307  0.0982 -0.0114  0.7591
  237MPD1    C5 3598   3.239   1.374  15.363 -0.4379 -0.2520  0.6205
  237MPD1     H 3599   3.089   1.547  15.070  1.2979  1.7127  0.0455
  237MPD1    H1 3600   3.085   1.231  15.362  1.7188 -1.8074 -0.5547
  237MPD1    H2 3601   3.402   1.498  15.353  1.0739 -0.8050 -0.7617
  237MPD1    H3 3602   3.279   1.321  15.449  2.0024 -0.4743 -0.6530
  237MPD1     N 3603   2.961   1.311  15.143  0.6628 -0.0747 -0.4206
  237MPD1    H5 3604   2.928   1.224  15.184  4.5700 -1.0573  0.6481
  237MPD1    N1 3605   3.326   1.649  15.143 -0.4292  0.0036 -0.2517
  237MPD1    H6 3606   3.427   1.636  15.150 -0.0570  1.6065 -3.1190
  237MPD1    H7 3607   3.305   1.676  15.048  2.0689  0.9076 -0.5564
  238MPD1     C 3608   4.598   4.660  15.770  1.0368 -0.0566 -0.4678
  238MPD1    C1 3609   4.616   0.037  15.673 -0.0004  0.0827  0.3622
  238MPD1    C2 3610   4.540   0.029  15.552  0.3007 -0.0751  0.7450
  238MPD1    C3 3611   4.476   4.629  15.523  0.4112 -0.4753 -0.5533
  238MPD1    C4 3612   4.461   4.528  15.621  0.1459 -0.1045 -0.0531
  238MPD1    C5 3613   4.522   4.553  15.742  0.6321  0.3494  0.2992
  238MPD1     H 3614   4.564   0.090  15.466  3.4753 -1.8572  0.3411
  238MPD1    H1 3615   4.418   4.431  15.597  0.4690 -1.2495  3.9751
  238MPD1    H2 3616   4.641   4.668  15.869  2.5008  1.2581 -1.2235
  238MPD1    H3 3617   4.516   4.467  15.808  1.3276  0.4456  0.4853
  238MPD1     N 3618   4.421   4.597  15.396  0.2703  0.0062 -0.1157
  238MPD1    H5 3619   4.340   4.536  15.391  0.2730  0.0186 -0.3352
  238MPD1    N1 3620   4.671   0.159  15.716 -0.0045 -0.0925  0.5186
  238MPD1    H6 3621   0.042   0.143  15.761 -1.5602  0.8519  3.9875
  238MPD1    H7 3622   4.683   0.223  15.638 -0.3049  0.8125  1.2057
  239MPD1     C 3623   0.092   0.659  14.461 -1.3132 -0.2288 -0.5752
  239MPD1    C1 3624   0.197   0.718  14.388 -1.0011 -0.1366 -0.1444
  239MPD1    C2 3625   0.179   0.847  14.333  0.0786 -0.1587 -0.1977
  239MPD1    C3 3626   0.053   0.897  14.317 -0.3865  0.9979 -0.0452
  239MPD1    C4 3627   4.671   0.844  14.387 -0.5289  0.7844 -0.2905
  239MPD1    C5 3628   4.690   0.725  14.460  0.2888 -0.5551  0.1885
  239MPD1     H 3629   0.262   0.887  14.277  2.4979 -2.5525  1.6539
  239MPD1    H1 3630   4.574   0.892  14.393  0.4403  2.8410 -1.0887
  239MPD1    H2 3631   0.105   0.568  14.517 -2.7861 -1.0760 -1.6242
  239MPD1    H3 3632   4.605   0.683  14.514 -0.7910 -0.0304 -1.1089
  239MPD1     N 3633   0.027   1.019  14.244 -0.2842  0.1409  0.1151
  239MPD1    H5 3634   4.647   1.037  14.233  0.6108  5.4858  0.8670
  239MPD1    N1 3635   0.324   0.661  14.403  0.3820  0.4789  0.1616
  239MPD1    H6 3636   0.389   0.676  14.326 -0.0086  0.0403 -0.2512
  239MPD1    H7 3637   0.310   0.561  14.413  2.1191  0.0032 -2.3214
  240MPD1     C 3638   4.301   0.237  15.181  0.0659  0.0635  0.3349
  240MPD1    C1 3639   4.234   0.222  15.064 -0.3697 -0.2838  0.4935
  240MPD1    C2 3640   4.134   0.123  15.059  0.3576 -0.0116  0.0894
  240MPD1    C3 3641   4.091   0.064  15.173 -0.7911  0.6234 -0.2567
  240MPD1    C4 3642   4.148   0.086  15.297  0.3976 -0.4055 -0.4902
  240MPD1    C5 3643   4.257   0.166  15.292 -0.1325  0.5418  0.2684
  240MPD1     H 3644   4.090   0.085  14.968  0.0320 -2.3172  1.2063
  240MPD1    H1 3645   4.119   0.045  15.393 -1.9300  0.2569 -0.9182
  240MPD1    H2 3646   4.388   0.298  15.205 -1.4681  1.4914  2.2591
  240MPD1    H3 3647   4.307   0.183  15.387 -2.3797  0.3605  1.4977
  240MPD1     N 3648   3.983   4.691  15.155 -0.0892 -0.2597 -0.3338
  240MPD1    H5 3649   3.955   4.673  15.059  1.3436 -0.0152 -0.7993
  240MPD1    N1 3650   4.272   0.294  14.952  0.3713  0.2569  0.4165
  240MPD1    H6 3651   4.195   0.319  14.890  0.2490 -1.5853 -0.1507
  240MPD1    H7 3652   4.316   0.381  14.982  0.2846  0.5076 -0.1757
  241MPD1     C 3653   3.252   4.086  15.662  0.4620 -0.0449 -0.0705
  241MPD1    C1 3654   3.384   4.094  15.697 -0.2582  0.5717  0.4297
  241MPD1    C2 3655   3.476   4.148  15.605  0.4801 -0.4602 -0.3537
  241MPD1    C3 3656   3.438   4.166  15.472 -1.2239 -0.0618  0.2665
  241MPD1    C4 3657   3.311   4.141  15.434  0.1823 -0.2061 -0.1415
  241MPD1    C5 3658   3.215   4.118  15.534 -0.6981 -0.6051  0.1507
  241MPD1     H 3659   3.570   4.192  15.636  0.0097  1.5465 -1.7453
  241MPD1    H1 3660   3.283   4.149  15.330  0.0474 -0.6663 -0.1411
  241MPD1    H2 3661   3.180   4.071  15.742 -2.1687  0.8837 -2.2367
  241MPD1    H3 3662   3.109   4.121  15.513 -0.6974 -1.8084 -0.0280
  241MPD1     N 3663   3.518   4.219  15.373  0.1382 -0.0336 -0.0542
  241MPD1    H5 3664   3.466   4.227  15.286  1.0797 -0.6789 -0.6730
  241MPD1    N1 3665   3.416   4.104  15.835  0.1757 -0.0278  0.2746
  241MPD1    H6 3666   3.516   4.087  15.837  0.5373  1.8107 -2.3746
  241MPD1    H7 3667   3.373   4.025  15.884  1.6766 -2.6283 -2.6559
  242MPD1     C 3668   3.762   2.924  16.155  0.3579 -0.4361 -0.1403
  242MPD1    C1 3669   3.892   2.960  16.162 -0.1838 -0.0408 -0.6079
  242MPD1    C2 3670   3.972   2.948  16.048 -0.2208  0.1463  1.0990
  242MPD1    C3 3671   3.914   2.916  15.921 -0.8074  0.4268  0.5259
  242MPD1    C4 3672   3.777   2.874  15.925 -0.3436 -0.5395  0.5347
  242MPD1    C5 3673   3.708   2.875  16.044 -0.1078 -0.0925  0.8068
  242MPD1     H 3674   4.074   2.984  16.051 -0.7859  1.8707 -1.0767
  242MPD1    H1 3675   3.725   2.843  15.835 -0.0010 -2.4073  0.9745
  242MPD1    H2 3676   3.693   2.938  16.237 -1.3345  1.6442 -1.9048
  242MPD1    H3 3677   3.601   2.855  16.047 -0.3381  1.0378  0.2041
  242MPD1     N 3678   3.976   2.930  15.791 -0.1723 -0.5220  0.1606
  242MPD1    H5 3679   3.917   2.924  15.709 -1.0401 -0.6723  0.7923
  242MPD1    N1 3680   3.944   3.024  16.278 -0.1219  0.1299  0.9994
  242MPD1    H6 3681   4.046   3.029  16.277 -0.2347  2.1867 -0.4092
  242MPD1    H7 3682   3.908   2.979  16.362  0.1713 -0.9741  0.5368
  243MPD1     C 3683   1.829   2.509  15.593 -0.2019  0.8290  0.0549
  243MPD1    C1 3684   1.848   2.575  15.715  0.5540  0.0551  0.6096
  243MPD1    C2 3685   1.807   2.508  15.827  0.1971  0.2089 -0.4950
  243MPD1    C3 3686   1.752   2.386  15.820 -0.0507 -0.5072 -0.0040
  243MPD1    C4 3687   1.735   2.322  15.702 -0.0131 -0.7354  0.2007
  243MPD1    C5 3688   1.763   2.386  15.586 -0.7399  0.1248  0.8000
  243MPD1     H 3689   1.821   2.560  15.921  2.7407 -0.5746 -0.4324
  243MPD1    H1 3690   1.685   2.226  15.694 -0.3497 -0.6044  0.6966
  243MPD1    H2 3691   1.869   2.540  15.497 -0.4967  1.2391  0.0663
  243MPD1    H3 3692   1.763   2.327  15.495  0.0637  0.2778  0.6966
  243MPD1     N 3693   1.720   2.321  15.945 -0.1215  0.4528  0.8043
  243MPD1    H5 3694   1.723   2.376  16.030 -2.5818 -0.6353  1.6118
  243MPD1    N1 3695   1.938   2.682  15.720 -0.5610 -0.3407 -0.3019
  243MPD1    H6 3696   1.945   2.726  15.629  0.7663  0.1654  0.0446
  243MPD1    H7 3697   1.915   2.754  15.788  1.6498 -0.6527  0.7824
  244MPD1     C 3698   1.511   2.516  16.896 -0.2942  0.3255  0.0575
  244MPD1    C1 3699   1.505   2.378  16.901  0.1881 -0.3683  0.4891
  244MPD1    C2 3700   1.513   2.305  16.780 -0.3364 -0.3238 -0.4989
  244MPD1    C3 3701   1.541   2.374  16.664 -0.0577 -0.4502 -0.0730
  244MPD1    C4 3702   1.571   2.513  16.670  0.2813  0.0557  1.1399
  244MPD1    C5 3703   1.553   2.582  16.784  0.8512 -0.0488  0.1026
  244MPD1     H 3704   1.508   2.197  16.784 -1.5612 -0.1890  1.7571
  244MPD1    H1 3705   1.599   2.571  16.583  0.6897 -1.0564  0.5341
  244MPD1    H2 3706   1.499   2.578  16.984  0.6579 -2.1003  1.8886
  244MPD1    H3 3707   1.568   2.690  16.782  1.2611 -0.0799  1.3408
  244MPD1     N 3708   1.552   2.300  16.547  0.3102 -0.0750  0.1221
  244MPD1    H5 3709   1.527   2.202  16.556  0.1493 -0.3615 -3.4497
  244MPD1    N1 3710   1.463   2.314  17.023  0.3346 -0.7140  0.0812
  244MPD1    H6 3711   1.481   2.214  17.029 -0.9344 -0.8162  2.0536
  244MPD1    H7 3712   1.517   2.350  17.102 -3.9492  1.8074  1.8684
  245MPD1     C 3713   2.555   2.154  13.068  0.2152  0.9738  0.5656
  245MPD1    C1 3714   2.668   2.125  13.142 -0.3303  0.1324 -0.3189
  245MPD1    C2 3715   2.761   2.222  13.162  0.6360 -0.4445  0.3578
  245MPD1    C3 3716   2.750   2.347  13.101 -0.0033  0.3059 -0.5937
  245MPD1    C4 3717   2.642   2.374  13.026 -0.5674 -0.0308  0.2155
  245MPD1    C5 3718   2.535   2.282  13.017  0.7249  0.5413 -0.6050
  245MPD1     H 3719   2.846   2.198  13.225  2.3188 -0.5941 -1.9782
  245MPD1    H1 3720   2.630   2.474  12.987  0.4023 -0.1047 -0.2519
  245MPD1    H2 3721   2.485   2.072  13.057  3.1576 -1.5164  0.6738
  245MPD1    H3 3722   2.447   2.304  12.957  0.0904  1.2909  0.6290
  245MPD1     N 3723   2.850   2.444  13.130  0.1224 -0.1919  0.1925
  245MPD1    H5 3724   2.931   2.411  13.182 -0.3715 -1.5498  0.1031
  245MPD1    N1 3725   2.675   2.004  13.206  0.1586 -0.1896  0.2732
  245MPD1    H6 3726   2.766   1.959  13.201 -0.1190 -0.6531 -0.7783
  245MPD1    H7 3727   2.602   1.939  13.174 -0.3911 -0.1576  1.4642
  246MPD1     C 3728   0.529   3.553   8.643  0.2448  0.3058  0.4482
  246MPD1    C1 3729   0.437   3.487   8.720  0.0152 -0.1719 -0.6673
  246MPD1    C2 3730   0.330   3.427   8.656  0.2576  0.1611 -0.3986
  246MPD1    C3 3731   0.317   3.430   8.518  0.1808 -1.0404  0.1076
  246MPD1    C4 3732   0.414   3.496   8.443  0.2987 -0.5359  0.2098
  246MPD1    C5 3733   0.521   3.548   8.508 -0.5999 -0.7608  0.1175
  246MPD1     H 3734   0.251   3.372   8.705  0.1256 -0.3442 -1.1704
  246MPD1    H1 3735   0.408   3.505   8.336 -2.6398  2.1651  0.6266
  246MPD1    H2 3736   0.613   3.608   8.683  0.4330  1.8714 -2.1120
  246MPD1    H3 3737   0.582   3.617   8.450 -1.4375 -0.3614 -0.2894
  246MPD1     N 3738   0.201   3.365   8.468 -0.6056 -0.2090 -0.0991
  246MPD1    H5 3739   0.134   3.329   8.534 -0.1053  1.1475  1.1489
  246MPD1    N1 3740   0.438   3.509   8.854 -0.1068 -0.0196 -0.2801
  246MPD1    H6 3741   0.386   3.437   8.902  1.1669  1.2372  2.9988
  246MPD1    H7 3742   0.535   3.510   8.887  0.7746 -2.6155 -2.7718
  247MPD1     C 3743   2.325   2.376  16.953  0.1275  0.0823 -0.8645
  247MPD1    C1 3744   2.384   2.461  16.866 -0.0745 -0.0807  0.6710
  247MPD1    C2 3745   2.384   2.438  16.726 -0.7779 -0.3227 -0.5576
  247MPD1    C3 3746   2.327   2.321  16.685 -0.6482 -0.2648  0.5954
  247MPD1    C4 3747   2.275   2.232  16.778  0.0382 -0.1673  0.1199
  247MPD1    C5 3748   2.268   2.263  16.912 -0.0551  0.1566 -0.1905
  247MPD1     H 3749   2.431   2.508  16.658 -0.2427 -1.4414 -1.3357
  247MPD1    H1 3750   2.235   2.139  16.739 -3.4338  0.9872  0.8508
  247MPD1    H2 3751   2.317   2.394  17.060 -3.1949 -1.2203 -0.8970
  247MPD1    H3 3752   2.228   2.204  16.993 -0.2095  1.7856  0.9020
  247MPD1     N 3753   2.327   2.278  16.548  0.3209  0.4366  0.2297
  247MPD1    H5 3754   2.315   2.178  16.542  0.6861  0.3194  1.3715
  247MPD1    N1 3755   2.453   2.570  16.922  0.1910  0.2880 -0.4971
  247MPD1    H6 3756   2.467   2.641  16.851 -1.1439  1.2495  0.2145
  247MPD1    H7 3757   2.407   2.609  17.003  1.7264 -0.7785  0.8773
  248MPD1     C 3758   2.753   4.172   0.703 -0.6480 -0.0106  0.2922
  248MPD1    C1 3759   2.862   4.117   0.637 -0.2013  0.1442  0.1504
  248MPD1    C2 3760   2.845   3.988   0.592  0.9723 -0.0645  0.1779
  248MPD1    C3 3761   2.727   3.917   0.619 -0.2426 -0.2591 -0.5554
  248MPD1    C4 3762   2.616   3.980   0.678 -0.4475 -0.5800 -0.3495
  248MPD1    C5 3763   2.635   4.108   0.734 -0.0608  0.6019  0.0767
  248MPD1     H 3764   2.921   3.937   0.532 -0.6318 -1.2504 -0.8507
  248MPD1    H1 3765   2.528   3.924   0.705 -0.9741  0.3228 -0.2034
  248MPD1    H2 3766   2.760   4.271   0.748  0.1727  1.2612 -2.6762
  248MPD1    H3 3767   2.554   4.140   0.797  1.5627  1.4331  1.7469
  248MPD1     N 3768   2.727   3.786   0.573 -0.3205 -0.2258 -0.5602
  248MPD1    H5 3769   2.818   3.761   0.536 -1.1269  0.2005 -2.8204
  248MPD1    N1 3770   2.979   4.184   0.628 -0.8035 -0.3428  0.0558
  248MPD1    H6 3771   2.984   4.281   0.656 -0.7142 -1.3578  3.5687
  248MPD1    H7 3772   3.048   4.155   0.559  0.7175  0.3235  1.2982
  249MPD1     C 3773   4.606   2.000   9.071  0.2134 -0.9971  0.5631
  249MPD1    C1 3774   0.019   1.997   9.038 -0.1952  0.2733  0.5249
  249MPD1    C2 3775   0.116   1.993   9.141 -0.1368 -0.5198 -1.1213
  249MPD1    C3 3776   0.081   1.985   9.275  0.1566 -0.3392  0.5775
  249MPD1    C4 3777   4.664   1.978   9.302 -0.2427  0.2073  0.1935
  249MPD1    C5 3778   4.567   1.986   9.203 -0.5341  1.4810 -0.5671
  249MPD1     H 3779   0.222   1.995   9.119 -0.5185  0.5309 -2.8255
  249MPD1    H1 3780   4.630   1.966   9.404  2.0674  2.3001  1.2228
  249MPD1    H2 3781   4.530   2.006   8.994  1.0109  0.4724 -0.1074
  249MPD1    H3 3782   4.463   1.991   9.231 -0.6772  0.7220 -0.9385
  249MPD1     N 3783   0.186   1.988   9.369  0.2344  0.2298 -0.3051
  249MPD1    H5 3784   0.280   1.994   9.331  0.3439  1.6500  0.1834
  249MPD1    N1 3785   0.060   2.021   8.901  0.1741 -0.7227 -0.0343
  249MPD1    H6 3786   4.701   1.982   8.850 -1.9035  1.5457  1.4223
  249MPD1    H7 3787   0.148   1.970   8.889 -0.6062 -2.2098  0.7106
  250MPD2     C 3788   2.260   1.641  12.846  0.0697 -0.7320 -0.5189
  250MPD2    C1 3789   2.145   1.710  12.804  0.3909  0.1165  1.0585
  250MPD2    C2 3790   2.029   1.643  12.766 -0.0525  0.3775  0.1021
  250MPD2    C3 3791   2.033   1.503  12.766 -0.1403  0.2015  0.7659
  250MPD2    C4 3792   2.153   1.439  12.796 -0.0262 -0.7124 -0.0727
  250MPD2    C5 3793   2.265   1.503  12.836 -0.1761  0.0708  0.5746
  250MPD2     H 3794   1.936   1.693  12.741 -0.3346 -0.3351 -0.2695
  250MPD2    H1 3795   2.160   1.331  12.789 -0.5115 -0.7557  0.0819
  250MPD2    H2 3796   2.350   1.687  12.885 -1.6682  0.9932  1.4692
  250MPD2    H3 3797   2.357   1.453  12.865 -0.6125 -0.3046  1.3041
  250MPD2     N 3798   1.921   1.426  12.746 -0.4277 -0.0613 -0.4255
  250MPD2    H5 3799   1.932   1.327  12.724 -0.5018  0.0484 -0.9480
  250MPD2    N1 3800   2.148   1.853  12.808  0.0643 -0.2240 -0.5468
  250MPD2    H7 3801   2.238   1.891  12.835 -0.4852 -0.7577  2.0041
  251TMC3    C1 3802   2.053   2.054  12.871  0.2327  0.1048  0.4323
  251TMC3    C2 3803   1.933   2.124  12.862 -0.3755 -0.0504  0.3099
  251TMC3    C3 3804   1.863   2.160  12.973  0.8748 -0.1695  0.1645
  251TMC3    C4 3805   2.099   2.016  12.997  0.5841 -0.0781  0.9657
  251TMC3    C5 3806   2.014   2.043  13.104 -0.2909 -0.3081 -1.0483
  251TMC3    C6 3807   1.896   2.122  13.102 -0.4011  0.2261 -0.8084
  251TMC3     C 3808   2.044   1.937  12.789 -0.3735 -0.1239  0.0973
  251TMC3     O 3809   1.936   1.916  12.743  0.1507  0.0015 -0.1571
  251TMC3     H 3810   1.882   2.151  12.770 -0.2563 -2.2627 -0.4024
  251TMC3    H1 3811   2.180   1.948  13.018  0.4234  0.0475  2.0099
  251TMC3    H2 3812   1.841   2.152  13.191 -1.2547  0.6664 -1.4940
  251TMC3    C7 3813   2.001   1.932  13.199  0.9407 -0.2599 -0.5754
  251TMC3    C8 3814   1.730   2.197  12.951  0.2217 -0.3459 -0.0741
  251TMC3    O1 3815   2.103   1.873  13.223  0.0592  0.0736  0.5354
  251TMC3    O2 3816   1.656   2.120  12.898  0.0056 -0.1345 -0.2269
  252TMC3    C1 3817   2.661   2.263   8.791 -0.5153 -1.1452  0.4114
  252TMC3    C2 3818   2.556   2.337   8.839  0.7016 -0.0736 -0.2065
  252TMC3    C3 3819   2.536   2.344   8.977 -0.2124 -0.6356 -0.4600
  252TMC3    C4 3820   2.745   2.207   8.871 -0.9286 -0.1254 -0.3908
  252TMC3    C5 3821   2.723   2.203   9.008  0.0325  0.0597  0.2219
  252TMC3    C6 3822   2.617   2.271   9.061 -0.6718  0.9468 -0.0333
  252TMC3     C 3823   2.682   2.246   8.650 -0.6207 -0.4264  0.6831
  252TMC3     O 3824   2.798   2.214   8.611  0.2936 -0.0787  0.1992
  252TMC3     H 3825   2.497   2.399   8.773 -1.7976 -2.7143 -0.4434
  252TMC3    H1 3826   2.810   2.128   8.835 -1.6842 -2.0574  2.4997
  252TMC3    H2 3827   2.594   2.255   9.166 -1.0234 -0.8905 -0.3884
  252TMC3    C7 3828   2.780   2.087   9.075  0.4719 -0.2578  0.7129
  252TMC3    C8 3829   2.417   2.411   9.020 -0.5906  0.0610  0.5621
  252TMC3    O1 3830   2.897   2.067   9.034  0.1825  0.7908 -0.0570
  252TMC3    O2 3831   2.325   2.433   8.941 -0.1648 -0.0773 -0.2210
  253MPD2     C 3832   2.667   1.394  15.324 -0.2070 -0.4896 -0.0800
  253MPD2    C1 3833   2.545   1.325  15.333  0.9536 -0.6515 -0.8882
  253MPD2    C2 3834   2.522   1.237  15.443 -0.1699 -0.5919  0.2149
  253MPD2    C3 3835   2.605   1.224  15.548  0.4627 -0.0750  0.3422
  253MPD2    C4 3836   2.725   1.289  15.538  0.7605  0.1618  0.1656
  253MPD2    C5 3837   2.755   1.364  15.425  0.0982  0.2674 -0.2766
  253MPD2     H 3838   2.423   1.194  15.439 -0.2320 -0.5121  1.0262
  253MPD2    H1 3839   2.808   1.265  15.604 -0.2181 -0.9680  0.9972
  253MPD2    H2 3840   2.701   1.463  15.247 -1.1418 -1.4936 -1.3915
  253MPD2    H3 3841   2.847   1.422  15.423  1.4724 -1.8773  1.5317
  253MPD2     N 3842   2.574   1.149  15.667 -0.1263 -0.4311  0.2784
  253MPD2    H5 3843   2.653   1.154  15.731  0.2110 -2.0557  0.0024
  253MPD2    N1 3844   2.431   1.358  15.254  0.3217  0.1247  0.4874
  253MPD2    H7 3845   2.346   1.305  15.275 -0.6123  1.4045 -0.0350
  254TMC3    C1 3846   2.432   1.024  15.812  0.1355 -0.3024 -0.3093
  254TMC3    C2 3847   2.300   1.000  15.836  1.2932  0.0684  0.0441
  254TMC3    C3 3848   2.274   0.964  15.963 -0.4188 -0.1929 -0.3833
  254TMC3    C4 3849   2.538   1.030  15.906 -0.4033 -0.1901  0.0918
  254TMC3    C5 3850   2.490   1.011  16.032  0.7616 -0.4812 -0.5867
  254TMC3    C6 3851   2.363   0.977  16.068 -0.4941 -0.8239 -0.5267
  254TMC3     C 3852   2.458   1.080  15.681 -0.5729  0.6110  0.3979
  254TMC3     O 3853   2.371   1.050  15.597  0.6487 -0.1634  0.2790
  254TMC3     H 3854   2.229   0.967  15.760  1.6120 -0.8038  0.1338
  254TMC3    H1 3855   2.641   1.053  15.885 -0.7600  2.1782  0.9483
  254TMC3    H2 3856   2.316   0.963  16.164 -1.6880  0.8841 -0.8595
  254TMC3    C7 3857   2.566   1.047  16.150 -0.2212  0.8816  0.4230
  254TMC3    C8 3858   2.143   0.913  15.998 -0.3151  0.2322  0.4196
  254TMC3    O1 3859   2.553   0.978  16.251  0.6698  0.0644  0.0357
  254TMC3    O2 3860   2.136   0.845  16.101  0.1991  0.8328  0.2146
  255MPD2     C 3861   1.510   3.578  10.111  0.2506 -0.4464 -0.1276
  255MPD2    C1 3862   1.501   3.713  10.120  0.2695  0.9852 -0.2821
  255MPD2    C2 3863   1.451   3.779  10.011  0.1826 -0.2364  0.0452
  255MPD2    C3 3864   1.393   3.712   9.903  0.1182 -0.2520  0.0699
  255MPD2    C4 3865   1.394   3.572   9.903 -0.1009  0.0603  0.0649
  255MPD2    C5 3866   1.458   3.504  10.002  0.8337 -0.3861 -0.0589
  255MPD2     H 3867   1.437   3.886  10.011 -4.5358 -0.8761 -0.8728
  255MPD2    H1 3868   1.356   3.506   9.826  1.3290 -1.7150  0.8782
  255MPD2    H2 3869   1.556   3.524  10.194  0.6124 -1.8432 -1.2310
  255MPD2    H3 3870   1.460   3.396  10.004 -0.8727 -0.4033  0.6820
  255MPD2     N 3871   1.345   3.797   9.800  0.9840  0.1341 -0.5495
  255MPD2    H5 3872   1.348   3.897   9.817  3.1202  0.1828 -1.1671
  255MPD2    N1 3873   1.535   3.789  10.237  0.2182  0.3420 -0.0174
  255MPD2    H7 3874   1.519   3.888  10.223  2.3420  0.7108  0.0795
  256TMC3    C1 3875   1.572   3.870  10.437 -0.0466  0.1425  0.1911
  256TMC3    C2 3876   1.690   3.945  10.457  0.4078  0.2022  0.4253
  256TMC3    C3 3877   1.682   4.080  10.430 -0.4687  0.6173 -0.5984
  256TMC3    C4 3878   1.451   3.929  10.418 -0.2001 -0.2981  0.7981
  256TMC3    C5 3879   1.446   4.064  10.402 -0.9174  0.4680 -0.0753
  256TMC3    C6 3880   1.560   4.144  10.409  0.4735 -0.3722 -0.3134
  256TMC3     C 3881   1.583   3.750  10.357 -0.0198  0.0647  0.2419
  256TMC3     O 3882   1.618   3.637  10.391 -0.3813  0.2232  0.1542
  256TMC3     H 3883   1.783   3.893  10.475  0.7212 -0.2493 -2.4207
  256TMC3    H1 3884   1.368   3.861  10.402 -0.3017  0.1670 -0.6327
  256TMC3    H2 3885   1.546   4.245  10.372 -1.1105 -0.2176  0.6881
  256TMC3    C7 3886   1.331   4.100  10.321 -0.2424  0.5807  0.2009
  256TMC3    C8 3887   1.809   4.147  10.397 -0.3506  0.4593 -0.4664
  256TMC3    O1 3888   1.284   4.013  10.246 -0.2133 -0.2545 -0.3268
  256TMC3    O2 3889   1.911   4.076  10.387 -0.2553 -0.2472 -0.0081
  257MPD2     C 3890   4.355   1.419  12.793  0.3208 -0.5797 -0.1442
  257MPD2    C1 3891   4.486   1.380  12.765 -0.1756  0.2561 -0.3157
  257MPD2    C2 3892   4.558   1.291  12.838 -0.1498 -0.0868  0.8036
  257MPD2    C3 3893   4.491   1.227  12.943 -0.7855  0.2263  0.0692
  257MPD2    C4 3894   4.360   1.254  12.970 -0.1425  0.0270  0.1913
  257MPD2    C5 3895   4.297   1.355  12.896 -0.2897  0.5255  0.7644
  257MPD2     H 3896   4.659   1.255  12.825  0.8632  2.5921  1.1713
  257MPD2    H1 3897   4.303   1.196  13.042  0.9809  0.1135  1.1446
  257MPD2    H2 3898   4.313   1.499  12.733  1.1132 -1.6210 -2.0922
  257MPD2    H3 3899   4.194   1.380  12.919  0.0365  1.0533  1.6477
  257MPD2     N 3900   4.561   1.131  13.016  0.2159 -0.3981  0.0755
  257MPD2    H5 3901   4.644   1.097  12.968  1.0110  0.7583  0.6355
  257MPD2    N1 3902   4.537   1.435  12.649 -0.3847  0.5982  0.8652
  257MPD2    H7 3903   4.468   1.485  12.594  0.1356 -0.0216 -0.3467
  258TMC3    C1 3904   4.596   0.965  13.194 -0.5222  0.0447  0.6006
  258TMC3    C2 3905   4.664   0.880  13.113 -0.1544 -0.4973 -0.0537
  258TMC3    C3 3906   4.712   0.768  13.166  0.8388  0.1586 -0.4711
  258TMC3    C4 3907   4.565   0.924  13.324  0.2114  0.6112  0.6083
  258TMC3    C5 3908   4.633   0.815  13.369  0.4800 -0.9680 -0.0610
  258TMC3    C6 3909   4.705   0.729  13.295 -0.4559 -0.4538 -0.4178
  258TMC3     C 3910   4.524   1.082  13.140 -0.0790 -0.1270  0.1596
  258TMC3     O 3911   4.443   1.135  13.217 -0.1822  0.2075  0.7090
  258TMC3     H 3912   4.670   0.905  13.008 -0.4284  2.8523  0.7066
  258TMC3    H1 3913   4.514   0.995  13.389 -3.3271  0.8805 -2.4842
  258TMC3    H2 3914   0.023   0.632  13.326 -0.8696 -0.3019  0.5777
  258TMC3    C7 3915   4.625   0.808  13.511 -0.1913  0.6520  0.0419
  258TMC3    C8 3916   0.041   0.673  13.064 -0.0664 -0.3466 -0.1193
  258TMC3    O1 3917   4.526   0.860  13.567  0.0143  0.1029  0.0884
  258TMC3    O2 3918   0.125   0.598  13.109  0.2365  0.1183  0.3151
  259MPD2     C 3919   3.877   2.794   1.392 -0.9690  0.2728  0.7468
  259MPD2    C1 3920   3.780   2.808   1.298  0.2756  0.4645 -0.6471
  259MPD2    C2 3921   3.783   2.739   1.176 -0.0721 -0.3868  0.3435
  259MPD2    C3 3922   3.887   2.652   1.151  0.2577 -0.4753  0.3734
  259MPD2    C4 3923   3.985   2.644   1.249 -0.2347 -0.5265  0.0808
  259MPD2    C5 3924   3.984   2.713   1.368  0.2816 -0.4953  0.1010
  259MPD2     H 3925   3.704   2.753   1.102 -0.0388 -1.3062  0.1342
  259MPD2    H1 3926   4.070   2.578   1.234 -0.9854 -1.6943  1.0365
  259MPD2    H2 3927   3.870   2.852   1.483 -2.7011 -2.3415  2.2636
  259MPD2    H3 3928   4.060   2.690   1.442  0.1318 -0.1205  0.3661
  259MPD2     N 3929   3.893   2.590   1.024 -0.0574 -0.0896 -0.4814
  259MPD2    H5 3930   3.819   2.618   0.960 -0.0525  1.9954  0.4287
  259MPD2    N1 3931   3.672   2.894   1.321  0.0602  0.0309 -0.0171
  259MPD2    H7 3932   3.675   2.957   1.400  1.4968 -0.2685  0.1790
  260TMC3    C1 3933   3.980   2.455   0.851  0.6955  0.3034 -0.2811
  260TMC3    C2 3934   4.096   2.420   0.795 -0.3866 -0.5198  1.1520
  260TMC3    C3 3935   4.099   2.387   0.661 -0.1083 -0.8937  0.2979
  260TMC3    C4 3936   3.865   2.469   0.780  0.1382 -0.3943 -0.5973
  260TMC3    C5 3937   3.873   2.435   0.649  0.0315 -0.3750 -0.0789
  260TMC3    C6 3938   3.988   2.397   0.593 -0.2351  0.2904  0.1236
  260TMC3     C 3939   3.992   2.507   0.982  0.6295  0.2303 -0.2632
  260TMC3     O 3940   4.079   2.445   1.047  0.1271 -0.3939  0.5092
  260TMC3     H 3941   4.186   2.406   0.854  0.6064  0.1360 -0.2216
  260TMC3    H1 3942   3.778   2.493   0.839  0.3873 -1.7701  0.3390
  260TMC3    H2 3943   3.972   2.353   0.496 -1.1520 -0.5034  0.6463
  260TMC3    C7 3944   3.754   2.443   0.567 -0.0130  0.1452  0.7248
  260TMC3    C8 3945   4.230   2.378   0.596 -0.8928  0.6444  0.2993
  260TMC3    O1 3946   3.756   2.381   0.460 -0.3153  0.2069 -0.1821
  260TMC3    O2 3947   4.332   2.381   0.666  0.4470  0.1752  0.9362
  261MPD2     C 3948   1.067   1.367  12.707  0.1369  0.3075  0.4387
  261MPD2    C1 3949   1.179   1.378  12.619  0.2962 -0.5345  0.1718
  261MPD2    C2 3950   1.156   1.408  12.486  0.5149  0.3870  0.1523
  261MPD2    C3 3951   1.032   1.420  12.429  0.0177 -0.1295 -0.3082
  261MPD2    C4 3952   0.920   1.405  12.513  0.3799  0.2004 -0.5263
  261MPD2    C5 3953   0.941   1.386  12.646 -0.4186 -0.4008  0.3191
  261MPD2     H 3954   1.240   1.419  12.418  1.5017 -4.1412  0.5894
  261MPD2    H1 3955   0.818   1.406  12.479 -0.2221 -0.0034  1.2573
  261MPD2    H2 3956   1.083   1.343  12.812 -1.8033 -0.9955  0.4354
  261MPD2    H3 3957   0.854   1.382  12.711  0.3451  2.0146  1.4999
  261MPD2     N 3958   1.024   1.450  12.289 -0.5622 -0.1186 -0.3200
  261MPD2    H5 3959   1.118   1.443  12.251 -0.1464  1.5904  0.4071
  261MPD2    N1 3960   1.308   1.343  12.662  0.2765  0.4226 -0.0547
  261MPD2    H7 3961   1.384   1.346  12.595  1.6806 -3.2484  1.3991
  262TMC3    C1 3962   0.967   1.550  12.083  0.2427  0.6465  0.0224
  262TMC3    C2 3963   0.890   1.652  12.025  0.4376 -0.0823 -0.2736
  262TMC3    C3 3964   0.954   1.726  11.934 -0.3977  0.3175  0.2922
  262TMC3    C4 3965   1.092   1.517  12.037 -0.5540  0.7763 -0.7604
  262TMC3    C5 3966   1.140   1.584  11.928 -0.3743 -0.1775  0.1407
  262TMC3    C6 3967   1.065   1.694  11.878 -0.4710 -0.2115 -0.4187
  262TMC3     C 3968   0.921   1.507  12.212  0.2362  0.0285  0.2702
  262TMC3     O 3969   0.808   1.539  12.246 -0.1417 -0.2584  0.2087
  262TMC3     H 3970   0.792   1.672  12.068 -1.4958 -1.2991 -4.1357
  262TMC3    H1 3971   1.152   1.436  12.076 -1.0022  0.1740 -1.3053
  262TMC3    H2 3972   1.107   1.756  11.800  0.0447 -2.6154 -2.0429
  262TMC3    C7 3973   1.239   1.522  11.845  0.4491  0.4483  0.0968
  262TMC3    C8 3974   0.887   1.833  11.863  0.8324  0.4632  0.3093
  262TMC3    O1 3975   1.338   1.474  11.904  0.2590  0.1081 -0.1909
  262TMC3    O2 3976   0.947   1.919  11.808  0.2703  0.3474 -0.0085
  263MPD2     C 3977   1.865   0.635  11.333  0.4630 -0.2667  0.5664
  263MPD2    C1 3978   2.000   0.630  11.295  0.5434 -0.3760  0.2602
  263MPD2    C2 3979   2.044   0.704  11.184 -0.3041 -0.4174 -0.7737
  263MPD2    C3 3980   1.955   0.798  11.127  0.1056 -0.1230  0.1870
  263MPD2    C4 3981   1.828   0.809  11.182 -0.2313  0.5663  0.6198
  263MPD2    C5 3982   1.781   0.730  11.286  0.1741  0.5594 -0.1852
  263MPD2     H 3983   2.148   0.703  11.154 -0.0945  1.4497 -0.1263
  263MPD2    H1 3984   1.756   0.879  11.139  1.9249  1.9907 -0.6861
  263MPD2    H2 3985   1.833   0.577  11.419  2.9200 -1.6991  0.4975
  263MPD2    H3 3986   1.680   0.751  11.321  1.1827  0.3028  2.9435
  263MPD2     N 3987   1.997   0.882  11.022 -0.0026  0.0802  0.7095
  263MPD2    H5 3988   2.079   0.857  10.968 -1.4620 -0.1791 -1.3898
  263MPD2    N1 3989   2.081   0.553  11.377  0.3829 -0.1679  0.8287
  263MPD2    H7 3990   2.030   0.489  11.437 -1.7379 -0.8931 -1.7446
  264TMC3    C1 3991   1.998   1.066  10.874  0.2888  0.2808  0.0280
  264TMC3    C2 3992   1.983   1.204  10.862  0.0709  0.1622  0.1953
  264TMC3    C3 3993   2.059   1.278  10.778  0.5529  0.3605  0.0125
  264TMC3    C4 3994   2.089   1.004  10.792  0.6716 -0.6078  0.2773
  264TMC3    C5 3995   2.174   1.082  10.712  0.7795 -0.6422  0.1294
  264TMC3    C6 3996   2.155   1.213  10.703 -0.2713  0.1430  0.0897
  264TMC3     C 3997   1.931   0.998  10.987  0.6802  0.2116  0.1145
  264TMC3     O 3998   1.836   1.057  11.032  0.6144  0.1545  0.2376
  264TMC3     H 3999   1.902   1.249  10.919 -0.1799  0.5283 -0.4402
  264TMC3    H1 4000   2.106   0.897  10.782 -0.4554 -0.5325 -2.4303
  264TMC3    H2 4001   2.215   1.269  10.633 -1.3978  0.6660 -0.4593
  264TMC3    C7 4002   2.318   1.044  10.701  0.2175  0.1009 -0.1546
  264TMC3    C8 4003   2.136   1.380  10.844 -0.4021 -0.2431 -0.2242
  264TMC3    O1 4004   2.347   0.929  10.696  0.0049 -0.1784 -0.2588
  264TMC3    O2 4005   2.252   1.352  10.868  0.2663  0.2741 -0.5506
  265MPD2     C 4006   3.549   1.239  15.317  0.1361  0.8563  0.0410
  265MPD2    C1 4007   3.670   1.302  15.302 -0.1802  0.1664  0.5463
  265MPD2    C2 4008   3.751   1.286  15.189 -0.0603 -0.0363  0.5861
  265MPD2    C3 4009   3.720   1.184  15.105  0.0058  0.5378 -0.1437
  265MPD2    C4 4010   3.602   1.112  15.128 -0.2567 -0.0786  0.1053
  265MPD2    C5 4011   3.516   1.148  15.224  0.1048  0.3973 -0.7673
  265MPD2     H 4012   3.840   1.347  15.191 -1.9093  2.6848  0.0494
  265MPD2    H1 4013   3.575   1.026  15.068 -0.0386 -1.8946  2.6095
  265MPD2    H2 4014   3.482   1.255  15.400  1.6642  0.7316  1.3063
  265MPD2    H3 4015   3.425   1.090  15.238 -0.3170  1.8527  2.5064
  265MPD2     N 4016   3.804   1.140  15.004  0.4014 -0.5134  0.6213
  265MPD2    H5 4017   3.785   1.057  14.948  2.6008 -1.3488  1.0795
  265MPD2    N1 4018   3.715   1.387  15.405 -0.7352 -0.1756 -0.1845
  265MPD2    H7 4019   3.799   1.440  15.386  0.2092 -2.6035 -2.6571
  266TMC3    C1 4020   3.708   1.513  15.611 -0.0621 -0.0104  0.1041
  266TMC3    C2 4021   3.718   1.491  15.749  0.0950  0.4938 -0.5453
  266TMC3    C3 4022   3.745   1.597  15.827  0.4658 -0.0912 -0.7997
  266TMC3    C4 4023   3.740   1.631  15.548  0.2242  0.1237  0.1880
  266TMC3    C5 4024   3.784   1.735  15.631  0.3186  0.2663 -0.2981
  266TMC3    C6 4025   3.790   1.714  15.766  0.0926 -0.0524 -0.2822
  266TMC3     C 4026   3.664   1.401  15.536 -0.2597 -0.4372 -0.7300
  266TMC3     O 4027   3.583   1.322  15.584 -0.4538  0.1515  0.6085
  266TMC3     H 4028   3.713   1.389  15.785 -0.9409  0.2504 -1.3796
  266TMC3    H1 4029   3.720   1.639  15.442 -1.1290 -3.2671  0.1817
  266TMC3    H2 4030   3.817   1.802  15.824 -0.9561 -0.2464  0.4980
  266TMC3    C7 4031   3.863   1.839  15.561 -0.1281 -0.3426 -0.2918
  266TMC3    C8 4032   3.797   1.571  15.959  0.3513  0.5166  0.0828
  266TMC3    O1 4033   3.822   1.862  15.446 -0.3485  0.4299  0.1623
  266TMC3    O2 4034   3.838   1.456  15.984 -0.2542 -0.1608  0.1142
  267MPD2     C 4035   1.286   3.133  16.767  0.7542 -0.5006  0.6075
  267MPD2    C1 4036   1.318   3.033  16.847  0.4693 -0.3315  0.1856
  267MPD2    C2 4037   1.279   2.904  16.811 -0.5194 -0.2063 -0.4770
  267MPD2    C3 4038   1.218   2.888  16.687 -1.0492 -0.3539 -0.0013
  267MPD2    C4 4039   1.181   3.001  16.611 -1.1410  0.2293  0.3669
  267MPD2    C5 4040   1.207   3.123  16.650 -0.6505  0.2068  0.8656
  267MPD2     H 4041   1.316   2.824  16.874 -0.5567 -0.4219 -0.7297
  267MPD2    H1 4042   1.127   2.997  16.517 -0.6241  1.5826  0.0190
  267MPD2    H2 4043   1.292   3.238  16.795 -0.5778  0.1362 -1.4415
  267MPD2    H3 4044   1.162   3.206  16.598  1.3324  0.7823  0.0697
  267MPD2     N 4045   1.189   2.758  16.635 -0.1263 -0.0625 -0.4891
  267MPD2    H5 4046   1.144   2.748  16.545  1.2703  1.3754 -1.3532
  267MPD2    N1 4047   1.376   3.070  16.973 -1.1011 -0.2533  0.4151
  267MPD2    H7 4048   1.412   3.164  16.985 -0.6055 -0.4823  0.6760
  268TMC3    C1 4049   1.508   3.044  17.164 -0.2363  0.1782 -0.1617
  268TMC3    C2 4050   1.627   3.101  17.120 -0.9310  0.5139 -0.1505
  268TMC3    C3 4051   1.738   3.089  17.197  0.0290 -0.2085 -0.1573
  268TMC3    C4 4052   1.503   2.998  17.290 -0.4648  0.0004  0.2469
  268TMC3    C5 4053   1.616   2.989  17.366 -0.0064 -0.2409  0.1468
  268TMC3    C6 4054   1.734   3.047  17.325  0.2400 -0.0731 -0.2402
  268TMC3     C 4055   1.420   2.984  17.069 -0.1446  0.1618 -0.1946
  268TMC3     O 4056   1.392   2.864  17.079 -0.1245  0.5207 -0.6627
  268TMC3     H 4057   1.629   3.130  17.016  1.1938 -0.5172 -0.4035
  268TMC3    H1 4058   1.413   2.944  17.318 -1.7686  1.0718 -1.8130
  268TMC3    H2 4059   1.825   3.039  17.382  1.0291 -0.7555 -1.6074
  268TMC3    C7 4060   1.614   2.919  17.491  0.1748  0.4351  0.2447
  268TMC3    C8 4061   1.853   3.168  17.165 -0.2926 -0.9007  0.3777
  268TMC3    O1 4062   1.717   2.862  17.527 -0.2390  0.4630  0.1298
  268TMC3    O2 4063   1.918   3.217  17.263  0.6856  0.0019  0.6588
  269MPD2     C 4064   1.702   1.231  15.292 -0.1425 -0.4863  0.0779
  269MPD2    C1 4065   1.571   1.197  15.320 -0.0892 -0.2776 -0.1072
  269MPD2    C2 4066   1.489   1.296  15.373 -0.0794  0.1029 -0.2158
  269MPD2    C3 4067   1.539   1.424  15.386  0.0603  0.8082 -0.3646
  269MPD2    C4 4068   1.672   1.450  15.344  0.1398 -0.2258 -0.1255
  269MPD2    C5 4069   1.754   1.352  15.301  0.0495  0.3426  0.1477
  269MPD2     H 4070   1.382   1.283  15.384 -0.4845  2.9067 -0.6994
  269MPD2    H1 4071   1.724   1.544  15.333  0.5649 -0.5816 -1.0999
  269MPD2    H2 4072   1.769   1.155  15.251  0.6501 -0.7968  1.9541
  269MPD2    H3 4073   1.855   1.363  15.264 -0.1897  0.3268 -0.5070
  269MPD2     N 4074   1.456   1.529  15.423  0.0894 -0.1325 -0.9581
  269MPD2    H5 4075   1.362   1.499  15.448 -0.7716  0.6298 -3.2863
  269MPD2    N1 4076   1.536   1.068  15.292  0.3930  0.6493 -0.5169
  269MPD2    H7 4077   1.611   1.004  15.269  0.5758  0.9571 -0.7662
  270TMC3    C1 4078   1.411   0.883  15.226 -0.4353  0.1444 -0.2085
  270TMC3    C2 4079   1.297   0.820  15.182 -0.4053 -0.5773  0.6040
  270TMC3    C3 4080   1.300   0.696  15.128  0.6176 -0.2770  0.2953
  270TMC3    C4 4081   1.527   0.807  15.215 -0.2135 -0.1742 -0.0558
  270TMC3    C5 4082   1.531   0.692  15.147 -0.1561 -0.0512  0.1410
  270TMC3    C6 4083   1.417   0.630  15.113 -0.0636 -0.1972 -0.4689
  270TMC3     C 4084   1.411   1.013  15.292  1.1477 -0.6324 -0.3388
  270TMC3     O 4085   1.301   1.055  15.327  1.0280  0.0302  0.1119
  270TMC3     H 4086   1.206   0.880  15.188  1.1865  1.7257  1.6821
  270TMC3    H1 4087   1.626   0.832  15.252  0.2572 -0.5241 -1.0665
  270TMC3    H2 4088   1.410   0.523  15.095 -1.7041 -0.0985 -0.3411
  270TMC3    C7 4089   1.653   0.634  15.112  0.1263 -0.5770 -0.3047
  270TMC3    C8 4090   1.205   0.659  15.030 -0.0071  0.9443 -0.0955
  270TMC3    O1 4091   1.757   0.675  15.156 -0.2032  0.5473  0.1127
  270TMC3    O2 4092   1.193   0.542  15.011 -0.5197  1.0908  0.1122
  271MPD2     C 4093   0.701   0.950  13.539 -1.0920 -0.8904  0.0649
  271MPD2    C1 4094   0.642   0.954  13.662 -0.4031 -0.1480  0.1391
  271MPD2    C2 4095   0.552   1.053  13.690  0.7143 -0.0584 -0.8167
  271MPD2    C3 4096   0.524   1.148  13.592  0.1468 -0.4083 -0.1944
  271MPD2    C4 4097   0.575   1.126  13.467 -0.3047 -0.3106  0.8188
  271MPD2    C5 4098   0.663   1.028  13.440  0.0430  0.3386  0.5084
  271MPD2     H 4099   0.502   1.066  13.785  0.9924  1.2478 -0.8464
  271MPD2    H1 4100   0.540   1.178  13.379  0.6995 -0.1801  0.4865
  271MPD2    H2 4101   0.775   0.872  13.523  0.4374  1.1633 -2.8727
  271MPD2    H3 4102   0.707   1.020  13.341 -2.3743 -0.3394 -0.5141
  271MPD2     N 4103   0.444   1.264  13.615  0.4269  0.5212 -0.0912
  271MPD2    H5 4104   0.423   1.324  13.536  3.1088 -1.3502 -2.2333
  271MPD2    N1 4105   0.682   0.884  13.777 -0.5596 -0.1448 -0.0240
  271MPD2    H7 4106   0.648   0.914  13.868  1.0508 -0.2645  0.6176
  272TMC3    C1 4107   0.810   0.726  13.911 -0.7105  0.4866 -0.6494
  272TMC3    C2 4108   0.938   0.675  13.932 -0.0530 -0.2389 -0.6235
  272TMC3    C3 4109   0.970   0.646  14.059  0.4847  0.7535 -0.3496
  272TMC3    C4 4110   0.714   0.732  14.015 -0.1482 -0.4275  0.0319
  272TMC3    C5 4111   0.755   0.675  14.133  0.0519  0.0871  0.0587
  272TMC3    C6 4112   0.883   0.641  14.160  0.0297  0.1050 -0.0924
  272TMC3     C 4113   0.785   0.785  13.776 -0.5793  0.5552  0.0138
  272TMC3     O 4114   0.858   0.747  13.685 -0.1459  0.3640 -0.4391
  272TMC3     H 4115   1.007   0.678  13.848  0.5925 -2.0360 -0.1517
  272TMC3    H1 4116   0.610   0.755  13.994  0.3625  1.7330 -0.0823
  272TMC3    H2 4117   0.909   0.600  14.257  0.4671  0.0746 -0.2243
  272TMC3    C7 4118   0.685   0.725  14.250  0.4125  0.8384 -0.0600
  272TMC3    C8 4119   1.106   0.673  14.107  0.2046  0.2786 -0.2289
  272TMC3    O1 4120   0.565   0.702  14.245 -0.6114 -0.1810  0.2696
  272TMC3    O2 4121   1.152   0.784  14.072  0.7807  0.2729 -0.0331
  273MPD2     C 4122   2.436   4.608  11.592 -0.4204  0.0714  0.0656
  273MPD2    C1 4123   2.554   4.542  11.577  0.3031  0.1768 -0.0076
  273MPD2    C2 4124   2.574   4.448  11.476 -0.5728 -0.0291  0.8973
  273MPD2    C3 4125   2.478   4.437  11.383  0.5543  0.2080  0.4679
  273MPD2    C4 4126   2.364   4.509  11.389 -0.0765 -0.0514 -0.1308
  273MPD2    C5 4127   2.330   4.584  11.504 -0.1176 -0.2669  0.2138
  273MPD2     H 4128   2.669   4.400  11.459 -0.4646  0.6950 -0.5386
  273MPD2    H1 4129   2.278   4.495  11.325 -0.3822  1.5603 -0.0566
  273MPD2    H2 4130   2.429   4.688  11.665 -0.0309 -0.1336  0.3317
  273MPD2    H3 4131   2.237   4.641  11.504  0.5550  0.8393  0.5780
  273MPD2     N 4132   2.491   4.348  11.277 -0.1034  0.0238 -0.6248
  273MPD2    H5 4133   2.431   4.363  11.196 -3.7932 -0.3506  2.0511
  273MPD2    N1 4134   2.653   4.564  11.677  0.5675 -0.8591 -0.6010
  273MPD2    H7 4135   2.623   4.628  11.750  1.2737 -0.7872 -0.3697
  274TMC3    C1 4136   2.638   4.235  11.141 -0.6001 -0.2542  0.6496
  274TMC3    C2 4137   2.570   4.279  11.030  0.0310 -0.5598  0.1731
  274TMC3    C3 4138   2.630   4.353  10.933  0.1848  0.2207 -0.1017
  274TMC3    C4 4139   2.767   4.266  11.152  0.1138  0.1221 -0.0946
  274TMC3    C5 4140   2.829   4.349  11.064 -0.0411 -0.0215 -0.1641
  274TMC3    C6 4141   2.758   4.389  10.949  0.3987 -0.1885  0.5076
  274TMC3     C 4142   2.580   4.245  11.274 -0.5747 -0.3384 -0.5065
  274TMC3     O 4143   2.636   4.195  11.365 -0.2381 -0.1114 -0.0609
  274TMC3     H 4144   2.465   4.254  11.018  0.0889 -0.3918 -0.6680
  274TMC3    H1 4145   2.825   4.249  11.241 -1.9628 -2.3637  0.7796
  274TMC3    H2 4146   2.809   4.463  10.888 -0.0187 -0.3682 -0.0608
  274TMC3    C7 4147   2.891   4.462  11.130  0.7031  0.2038 -0.2995
  274TMC3    C8 4148   2.549   4.391  10.814  0.1887 -0.6170  1.0174
  274TMC3    O1 4149   3.016   4.467  11.129  0.3228  0.6908  0.1833
  274TMC3    O2 4150   2.444   4.328  10.801 -0.0407 -0.4507 -0.2670
  275MPD2     C 4151   2.084   2.209  14.334  0.1683  0.5761 -0.8051
  275MPD2    C1 4152   2.021   2.279  14.435 -0.1456 -0.3029 -0.1532
  275MPD2    C2 4153   1.886   2.290  14.436  0.3845 -0.0796  0.3677
  275MPD2    C3 4154   1.817   2.239  14.328  0.2681  0.3392 -0.4445
  275MPD2    C4 4155   1.884   2.177  14.226  0.0232  0.5999 -0.3755
  275MPD2    C5 4156   2.018   2.166  14.230  0.6616 -0.8309  0.4577
  275MPD2     H 4157   1.836   2.331  14.523  0.1470 -0.6378  0.4918
  275MPD2    H1 4158   1.819   2.140  14.148  1.9360 -0.1711 -1.5794
  275MPD2    H2 4159   2.192   2.211  14.324 -0.0209  3.8209 -2.3926
  275MPD2    H3 4160   2.076   2.139  14.143 -0.8888  1.0923 -1.1830
  275MPD2     N 4161   1.673   2.245  14.316 -0.2110 -0.2376  0.2850
  275MPD2    H5 4162   1.619   2.207  14.238  3.3053 -3.8693 -0.3556
  275MPD2    N1 4163   2.092   2.339  14.540 -0.8402  1.3406 -0.1237
  275MPD2    H7 4164   2.029   2.386  14.605 -0.0048 -0.7288  2.1687
  276TMC3    C1 4165   2.251   2.407  14.691 -0.0257  0.2168 -0.0408
  276TMC3    C2 4166   2.146   2.415  14.787  0.1142 -0.7424 -0.5101
  276TMC3    C3 4167   2.173   2.494  14.898 -0.3786 -0.1588 -0.0326
  276TMC3    C4 4168   2.372   2.479  14.707 -0.4375 -0.3665 -0.2777
  276TMC3    C5 4169   2.379   2.576  14.806  0.1110  0.5943  0.1679
  276TMC3    C6 4170   2.275   2.578  14.898  0.0757  0.8530  0.1596
  276TMC3     C 4171   2.229   2.347  14.563 -0.1975  0.5074  0.3905
  276TMC3     O 4172   2.322   2.301  14.501  0.0988  0.0870  0.1482
  276TMC3     H 4173   2.065   2.343  14.789 -1.2516  0.7522 -2.2829
  276TMC3    H1 4174   2.448   2.468  14.630 -1.0500 -0.2443 -0.9042
  276TMC3    H2 4175   2.287   2.651  14.977 -0.3312 -0.9781  1.9293
  276TMC3    C7 4176   2.507   2.628  14.855 -0.1750 -0.4729 -0.5774
  276TMC3    C8 4177   2.145   2.434  15.033 -0.7111 -0.8483 -0.2581
  276TMC3    O1 4178   2.514   2.701  14.956  0.0320 -0.0959 -0.1186
  276TMC3    O2 4179   2.176   2.500  15.131  0.0694 -0.2966 -0.4501
  277MPD2     C 4180   4.005   1.448  13.343  0.4731  0.0323  0.0805
  277MPD2    C1 4181   3.900   1.506  13.403 -0.2169  0.0183 -0.1113
  277MPD2    C2 4182   3.857   1.450  13.517  0.4819 -0.4527 -0.0824
  277MPD2    C3 4183   3.914   1.338  13.572 -1.0141  0.0490  0.3097
  277MPD2    C4 4184   4.029   1.286  13.518 -0.2342 -0.0802 -0.5685
  277MPD2    C5 4185   4.073   1.345  13.405  1.1604 -0.8846  0.7703
  277MPD2     H 4186   3.762   1.491  13.550  0.5437 -0.0531 -0.3961
  277MPD2    H1 4187   4.078   1.196  13.550 -2.5096 -1.0955  0.0934
  277MPD2    H2 4188   4.028   1.474  13.241  0.7262  2.1727  0.6811
  277MPD2    H3 4189   4.146   1.289  13.347 -0.9955 -1.9710 -0.8997
  277MPD2     N 4190   3.852   1.272  13.683 -0.2809 -0.4286 -0.4073
  277MPD2    H5 4191   3.764   1.314  13.710 -0.1411 -0.2883 -0.1775
  277MPD2    N1 4192   3.827   1.599  13.329 -0.2429  0.4466 -0.1700
  277MPD2    H7 4193   3.855   1.600  13.231 -0.5180  0.5069 -0.2481
  278TMC3    C1 4194   3.769   1.097  13.807 -0.6897 -0.7031 -0.8754
  278TMC3    C2 4195   3.733   0.964  13.791  0.4189  0.4110 -0.2281
  278TMC3    C3 4196   3.622   0.914  13.856 -0.1685  0.1042  0.3163
  278TMC3    C4 4197   3.693   1.178  13.884  0.0635  0.0715  0.5118
  278TMC3    C5 4198   3.589   1.124  13.953 -0.6085  0.3584  0.1415
  278TMC3    C6 4199   3.547   0.992  13.937 -0.8732 -0.0039 -0.0383
  278TMC3     C 4200   3.871   1.138  13.716 -0.0860  0.1527  0.2579
  278TMC3     O 4201   3.962   1.061  13.690  0.1604  0.4379 -0.4555
  278TMC3     H 4202   3.794   0.899  13.730 -1.2687 -1.7888  0.4443
  278TMC3    H1 4203   3.709   1.285  13.881 -1.3075  0.3033  1.4569
  278TMC3    H2 4204   3.458   0.951  13.984 -0.7765 -1.1664 -0.8689
  278TMC3    C7 4205   3.479   1.212  13.996  0.2002  0.3540 -0.0563
  278TMC3    C8 4206   3.540   0.829  13.765  0.0711 -0.0478 -0.1024
  278TMC3    O1 4207   3.504   1.309  14.067  0.3656 -0.1902  0.1244
  278TMC3    O2 4208   3.419   0.823  13.789  0.4254 -0.2412  0.6447
  279MPD2     C 4209   3.042   0.830   0.595  0.2688  0.5447 -0.6891
  279MPD2    C1 4210   2.986   0.950   0.641  0.0195  0.1187  0.3817
  279MPD2    C2 4211   2.962   1.059   0.554  0.1430 -0.3570  0.8233
  279MPD2    C3 4212   2.983   1.049   0.411 -0.3485  0.5639 -0.3778
  279MPD2    C4 4213   3.029   0.925   0.368  0.0573  0.1109  0.4379
  279MPD2    C5 4214   3.058   0.826   0.459 -0.0109  0.8906 -0.5311
  279MPD2     H 4215   2.924   1.152   0.595 -1.5009  0.1156 -1.7330
  279MPD2    H1 4216   3.049   0.901   0.264 -0.4909  2.2185 -0.1367
  279MPD2    H2 4217   3.070   0.739   0.647  1.9561  0.7741 -1.1803
  279MPD2    H3 4218   3.094   0.735   0.411 -0.9764  0.2540 -0.0389
  279MPD2     N 4219   2.956   1.147   0.316 -0.2092 -0.2025  0.2067
  279MPD2    H5 4220   2.963   1.119   0.219  0.8637 -0.9210  0.4842
  279MPD2    N1 4221   2.957   0.954   0.777  0.6225  0.3447  0.7272
  279MPD2    H7 4222   3.013   0.897   0.840 -1.3956  0.1552  2.3848
  280TMC3    C1 4223   2.757   1.102   0.778 -0.0096  0.0078  0.1008
  280TMC3    C2 4224   2.688   1.022   0.694 -0.2136  0.5043  0.4299
  280TMC3    C3 4225   2.594   1.081   0.610 -0.0596  0.1409 -0.2878
  280TMC3    C4 4226   2.734   1.235   0.790  0.8539 -0.3397 -0.0565
  280TMC3    C5 4227   2.633   1.288   0.710  0.2947 -0.3722  0.1324
  280TMC3    C6 4228   2.575   1.216   0.613  0.1003 -0.0216 -0.1418
  280TMC3     C 4229   2.887   1.057   0.842 -0.3401 -0.0062 -0.1202
  280TMC3     O 4230   2.907   1.086   0.956 -0.6049 -0.3147  0.0326
  280TMC3     H 4231   2.692   0.916   0.715 -0.9758  0.1332 -1.2941
  280TMC3    H1 4232   2.803   1.297   0.845  0.2302  0.2032  0.1107
  280TMC3    H2 4233   2.504   1.266   0.548 -1.4838 -1.5280  0.4178
  280TMC3    C7 4234   2.634   1.432   0.695 -0.3817  0.0364 -0.5694
  280TMC3    C8 4235   2.584   1.031   0.467  0.3129 -0.1490 -0.1116
  280TMC3    O1 4236   2.702   1.491   0.778 -0.2295 -1.0091 -0.0764
  280TMC3    O2 4237   2.547   1.111   0.386 -0.0677  0.1142 -0.7484
  281TMC3    C1 4238   1.109   1.600  12.996 -0.4177  0.2599  0.5830
  281TMC3    C2 4239   1.249   1.615  12.985  0.7037 -0.1860 -1.0745
  281TMC3    C3 4240   1.326   1.539  13.071  0.4662 -0.3840 -0.5409
  281TMC3    C4 4241   1.053   1.505  13.073  0.2331  0.5941 -0.0203
  281TMC3    C5 4242   1.137   1.436  13.159  0.0045  0.5560 -0.4663
  281TMC3    C6 4243   1.271   1.447  13.154  0.1316 -0.0426 -1.0454
  281TMC3     C 4244   1.035   1.719  13.021  0.4075 -0.5853 -0.1972
  281TMC3     O 4245   0.912   1.706  13.041 -0.1900 -0.1464  0.1258
  281TMC3     H 4246   1.289   1.686  12.913  3.5309 -0.4017  0.2791
  281TMC3    H1 4247   0.949   1.476  13.081  1.0394 -2.1221  0.6449
  281TMC3    H2 4248   1.331   1.416  13.239  1.3521  2.0378 -1.1409
  281TMC3    C7 4249   1.076   1.343  13.249 -0.0237  0.1773  0.2904
  281TMC3    C8 4250   1.447   1.612  13.106  0.3202  0.3101 -0.9865
  281TMC3    O1 4251   0.967   1.378  13.289  0.4147  0.2300  1.1675
  281TMC3    O2 4252   1.467   1.721  13.051  0.2010  0.3964  0.2037
  282MPD2     C 4253   3.601   2.805  15.071 -0.2224  0.2430  0.3219
  282MPD2    C1 4254   3.477   2.860  15.085  0.1638  0.3422 -0.5812
  282MPD2    C2 4255   3.388   2.840  14.985  0.1193 -0.0588  0.2541
  282MPD2    C3 4256   3.410   2.767  14.871  0.4513  0.4567  0.4106
  282MPD2    C4 4257   3.537   2.721  14.860 -0.1358  0.5537 -0.0986
  282MPD2    C5 4258   3.627   2.741  14.956  0.0980 -0.1786  0.2637
  282MPD2     H 4259   3.287   2.873  15.006  1.0037  3.5966 -1.3506
  282MPD2    H1 4260   3.577   2.684  14.766  0.2093 -2.8979  1.4260
  282MPD2    H2 4261   3.682   2.849  15.129  1.2933 -1.6513 -0.3458
  282MPD2    H3 4262   3.728   2.706  14.938  1.4950  3.5818  0.7336
  282MPD2     N 4263   3.316   2.766  14.763 -0.3678  0.2540  0.1296
  282MPD2    H5 4264   3.236   2.829  14.764  0.3385  1.1752 -2.7147
  282MPD2    N1 4265   3.433   2.930  15.199 -0.1586  0.3198 -0.3017
  282MPD2    H7 4266   3.339   2.967  15.193  1.0246  3.2694 -0.5577
  283TMC3    C1 4267   3.424   2.973  15.433 -0.3143  0.2095  0.1584
  283TMC3    C2 4268   3.388   3.101  15.441  0.1037  0.3725 -0.1229
  283TMC3    C3 4269   3.342   3.148  15.560 -0.0607 -0.0082  0.5281
  283TMC3    C4 4270   3.416   2.891  15.544 -0.0263 -0.4285  0.5032
  283TMC3    C5 4271   3.374   2.939  15.665 -0.7267 -0.6696  0.0145
  283TMC3    C6 4272   3.337   3.070  15.670  0.5686  0.0617  0.1350
  283TMC3     C 4273   3.505   2.929  15.319  0.2018  0.1990 -0.5387
  283TMC3     O 4274   3.618   2.885  15.354  0.3663 -0.2743 -0.6610
  283TMC3     H 4275   3.353   3.147  15.349  0.9787 -0.8298 -1.0613
  283TMC3    H1 4276   3.440   2.787  15.522  0.3120 -0.6263  1.8108
  283TMC3    H2 4277   3.297   3.112  15.762 -1.8027  2.5775 -2.0273
  283TMC3    C7 4278   3.322   2.842  15.763  0.1205  0.3643 -0.7122
  283TMC3    C8 4279   3.294   3.288  15.569 -0.2151  0.0525 -0.1581
  283TMC3    O1 4280   3.248   2.884  15.849  0.0244 -0.1371 -0.8346
  283TMC3    O2 4281   3.257   3.328  15.677  0.0119  0.1008  0.0445
  284MPD2     C 4282   2.126   2.500  11.509 -0.0903 -0.5342  0.1592
  284MPD2    C1 4283   2.226   2.430  11.447 -0.3024 -0.1464  0.1340
  284MPD2    C2 4284   2.212   2.296  11.429  0.0840  0.0385  0.2877
  284MPD2    C3 4285   2.091   2.233  11.468 -0.4990 -0.5112  1.0346
  284MPD2    C4 4286   1.989   2.300  11.534  0.1934 -0.4542 -0.1007
  284MPD2    C5 4287   2.015   2.436  11.557  0.3504 -0.1810  0.2683
  284MPD2     H 4288   2.283   2.226  11.387 -1.4102 -0.7878 -0.8325
  284MPD2    H1 4289   1.893   2.253  11.553  0.6552 -1.0241  0.8078
  284MPD2    H2 4290   2.127   2.609  11.514  1.2993 -0.5953  1.2182
  284MPD2    H3 4291   1.935   2.498  11.596 -0.0805 -0.7793  0.3386
  284MPD2     N 4292   2.079   2.090  11.450 -0.5138  0.8585  0.3065
  284MPD2    H5 4293   2.160   2.040  11.413 -1.7439 -0.0409 -1.1904
  284MPD2    N1 4294   2.339   2.487  11.378  0.7347 -0.8935 -0.4366
  284MPD2    H7 4295   2.407   2.427  11.332  1.6318 -1.4545  1.6347
  285TMC3    C1 4296   2.482   2.647  11.276  0.3132 -0.3814 -0.0559
  285TMC3    C2 4297   2.589   2.566  11.285 -0.3492  0.1908 -0.4516
  285TMC3    C3 4298   2.705   2.600  11.223 -0.1102  0.0968  0.0543
  285TMC3    C4 4299   2.484   2.760  11.202 -0.6128 -0.5388  0.2421
  285TMC3    C5 4300   2.605   2.786  11.134 -0.1646  0.3929  0.3590
  285TMC3    C6 4301   2.719   2.708  11.148 -0.0028  0.4453 -0.4678
  285TMC3     C 4302   2.357   2.619  11.345  0.3566 -0.1281 -0.5407
  285TMC3     O 4303   2.271   2.704  11.349  0.0095 -0.0501  0.0680
  285TMC3     H 4304   2.583   2.482  11.353  0.7868  0.1284 -0.4209
  285TMC3    H1 4305   2.394   2.820  11.205 -0.6168 -0.5835  1.0850
  285TMC3    H2 4306   2.811   2.730  11.094  0.2555 -0.6692 -0.4901
  285TMC3    C7 4307   2.600   2.903  11.046  0.9367 -0.3819 -0.2595
  285TMC3    C8 4308   2.781   2.483  11.196  0.0095 -0.2155 -0.2034
  285TMC3    O1 4309   2.493   2.928  10.995 -0.1122  0.2077 -0.1910
  285TMC3    O2 4310   2.722   2.377  11.221  0.0057 -0.2009 -0.2628
  286MPD2     C 4311   2.188   1.543   1.831  0.6414 -0.1871  0.4037
  286MPD2    C1 4312   2.110   1.508   1.720  0.2736 -0.1315 -0.2428
  286MPD2    C2 4313   2.097   1.374   1.682  0.1995  0.3782 -0.0184
  286MPD2    C3 4314   2.143   1.271   1.762 -0.9178  0.1257  0.1879
  286MPD2    C4 4315   2.216   1.311   1.872  0.1759  0.0004 -0.2882
  286MPD2    C5 4316   2.222   1.442   1.915 -0.1351  0.3155  0.2992
  286MPD2     H 4317   2.053   1.361   1.584 -0.3683 -0.8921  0.4019
  286MPD2    H1 4318   2.272   1.236   1.927 -0.4811  1.1440  1.9556
  286MPD2    H2 4319   2.215   1.642   1.865  1.1585 -0.6957  1.4907
  286MPD2    H3 4320   2.278   1.457   2.006  2.4348  1.2063 -1.4243
  286MPD2     N 4321   2.122   1.132   1.739 -0.2021  0.4263 -0.0621
  286MPD2    H5 4322   2.157   1.080   1.819  2.9003 -0.0567 -1.7450
  286MPD2    N1 4323   2.058   1.609   1.635 -0.7349 -0.2620  0.0502
  286MPD2    H7 4324   2.023   1.581   1.544 -0.0665  0.2159 -0.3575
  287TMC3    C1 4325   2.051   0.937   1.626  0.6898 -0.2407  0.4820
  287TMC3    C2 4326   1.999   0.875   1.514 -0.0730 -0.8475 -0.2640
  287TMC3    C3 4327   2.038   0.746   1.486  0.5546  0.7293  0.5229
  287TMC3    C4 4328   2.140   0.875   1.708 -0.1850 -0.4278 -0.1180
  287TMC3    C5 4329   2.171   0.743   1.679  0.1920 -0.3031 -0.3606
  287TMC3    C6 4330   2.116   0.675   1.573 -0.1777 -0.3341 -0.0192
  287TMC3     C 4331   2.046   1.076   1.639  0.2386  0.2549  0.0904
  287TMC3     O 4332   2.001   1.135   1.541 -0.0877 -0.4355  0.0856
  287TMC3     H 4333   1.935   0.935   1.450 -2.4262 -2.1370  0.9005
  287TMC3    H1 4334   2.179   0.915   1.801 -1.4383  0.2541  0.1048
  287TMC3    H2 4335   2.133   0.568   1.576  2.9868  0.1944  0.4118
  287TMC3    C7 4336   2.289   0.695   1.747  0.1829  0.5022 -0.4175
  287TMC3    C8 4337   2.043   0.692   1.349  0.4785  0.1011 -0.0087
  287TMC3    O1 4338   2.338   0.766   1.831 -0.3473  0.1695  0.4676
  287TMC3    O2 4339   2.129   0.599   1.337 -0.5271  0.1681 -0.1328
  288TMC3    C1 4340   4.183   0.022  14.548 -0.2585  0.3147 -0.6729
  288TMC3    C2 4341   4.091   0.072  14.629 -0.4928  0.5097 -0.8194
  288TMC3    C3 4342   4.068   0.206  14.625  0.9076 -0.2496  0.0136
  288TMC3    C4 4343   4.256   0.101  14.462 -0.2111 -0.4014  0.3060
  288TMC3    C5 4344   4.238   0.238  14.472 -0.3066 -0.3084  0.0200
  288TMC3    C6 4345   4.150   0.295  14.555  1.2731 -0.0507  0.7094
  288TMC3     C 4346   4.181   4.597  14.528  0.0025  0.0468 -0.5023
  288TMC3     O 4347   4.139   4.538  14.626  0.1945  0.2985 -0.2934
  288TMC3     H 4348   4.054   0.007  14.707 -1.3745  0.2368 -1.4634
  288TMC3    H1 4349   4.335   0.060  14.400  1.0699  2.1215  0.2610
  288TMC3    H2 4350   4.143   0.402  14.571  1.0979 -0.0150  0.3980
  288TMC3    C7 4351   4.320   0.335  14.398  0.0018 -0.7647  0.4844
  288TMC3    C8 4352   3.990   0.264  14.728 -0.4598 -0.1183 -0.2166
  288TMC3    O1 4353   4.326   0.448  14.440  0.0538  0.2383 -0.8560
  288TMC3    O2 4354   4.040   0.361  14.781  0.2622 -0.0799 -0.1108
  289MPD2     C 4355   3.466   4.183  14.720  0.0001  0.2416 -0.2031
  289MPD2    C1 4356   3.565   4.269  14.741 -0.3069 -0.4709 -0.2560
  289MPD2    C2 4357   3.641   4.304  14.634  0.4751  0.3056  0.2662
  289MPD2    C3 4358   3.605   4.256  14.503 -0.2942  0.4827 -0.6919
  289MPD2    C4 4359   3.499   4.171  14.487 -0.6246 -0.2315  0.1626
  289MPD2    C5 4360   3.433   4.136  14.598 -0.0058  0.0617 -0.1065
  289MPD2     H 4361   3.726   4.371  14.646  2.3843 -2.2656  1.0972
  289MPD2    H1 4362   3.472   4.139  14.387  2.2478 -2.0413 -0.0333
  289MPD2    H2 4363   3.398   4.143  14.794 -0.1477 -0.3186 -0.6450
  289MPD2    H3 4364   3.347   4.070  14.597 -1.2749  1.6886  1.0550
  289MPD2     N 4365   3.674   4.291  14.388  0.6059 -0.3450 -0.1845
  289MPD2    H5 4366   3.665   4.228  14.309 -1.3530 -1.0415  0.5665
  289MPD2    N1 4367   3.572   4.328  14.869  0.1010  0.1989 -0.3511
  289MPD2    H7 4368   3.503   4.304  14.940  2.7294 -1.7141  1.5883
  290TMC3    C1 4369   3.819   4.409  14.255 -0.1563  0.2236 -0.5837
  290TMC3    C2 4370   3.875   4.533  14.236 -0.7306 -0.2883  0.3612
  290TMC3    C3 4371   3.926   4.564  14.112  0.0252  0.3244  0.2151
  290TMC3    C4 4372   3.837   4.306  14.169 -0.0308 -0.1175 -0.1758
  290TMC3    C5 4373   3.902   4.336  14.048 -0.5211  0.4991 -0.5908
  290TMC3    C6 4374   3.935   4.465  14.020  0.4527  0.2781 -0.4624
  290TMC3     C 4375   3.760   4.397  14.387  0.4516 -0.1378 -0.1129
  290TMC3     O 4376   3.780   4.492  14.462 -0.4963  0.1710  0.2362
  290TMC3     H 4377   3.855   4.616  14.303  0.8853 -0.4025  0.9806
  290TMC3    H1 4378   3.805   4.207  14.201  1.2786  0.1140  1.9041
  290TMC3    H2 4379   3.974   4.479  13.920 -1.2357 -0.8546 -1.2938
  290TMC3    C7 4380   3.875   4.246  13.931  0.2670  0.6423 -0.2634
  290TMC3    C8 4381   3.972   4.696  14.072 -0.1804  0.3505  0.0618
  290TMC3    O1 4382   3.896   4.295  13.820  0.1150 -0.5186  0.2475
  290TMC3    O2 4383   4.033   4.698  13.965  0.0501  0.2066  0.6365
  291MPD2     C 4384   3.388   4.592   0.354  0.1859 -0.3158  0.6384
  291MPD2    C1 4385   3.340   4.462   0.344 -0.2416  0.9658  0.6430
  291MPD2    C2 4386   3.436   4.354   0.346 -0.0746 -0.3864 -0.4095
  291MPD2    C3 4387   3.571   4.378   0.341  0.2873  0.4113 -0.1578
  291MPD2    C4 4388   3.617   4.511   0.357 -0.7494  0.4896  0.4578
  291MPD2    C5 4389   3.522   4.611   0.362 -0.5576 -0.1570  0.1996
  291MPD2     H 4390   3.399   4.252   0.343  1.0217 -0.7512 -1.5165
  291MPD2    H1 4391   3.722   4.536   0.350 -0.3064 -0.8459  2.2581
  291MPD2    H2 4392   3.325   4.680   0.351  2.2835  1.1720 -0.3358
  291MPD2    H3 4393   3.549   4.713   0.388  0.0369 -0.2472 -0.0620
  291MPD2     N 4394   3.670   4.281   0.355 -0.6795 -0.3078  0.3968
  291MPD2    H5 4395   3.767   4.310   0.362 -0.1641 -1.5966 -1.5865
  291MPD2    N1 4396   3.201   4.430   0.335  0.0156 -0.1156 -0.5773
  291MPD2    H7 4397   3.178   4.331   0.328  2.1191 -0.4133 -3.1657
  292TMC3    C1 4398   2.973   4.449   0.350  0.1993  0.5358 -0.5689
  292TMC3    C2 4399   2.880   4.507   0.436  0.7661  0.9525  0.0806
  292TMC3    C3 4400   2.766   4.437   0.452 -0.2125 -0.8135  0.5077
  292TMC3    C4 4401   2.958   4.341   0.276  0.1128 -0.1223 -0.1111
  292TMC3    C5 4402   2.833   4.275   0.291  0.3645  0.3202  0.1413
  292TMC3    C6 4403   2.748   4.318   0.392  0.7639  0.8790 -0.7086
  292TMC3     C 4404   3.105   4.518   0.347 -0.2721  0.3598  0.7151
  292TMC3     O 4405   3.102   4.641   0.365 -0.1772 -0.2596 -0.1309
  292TMC3     H 4406   2.896   4.601   0.488 -2.5529  1.0144  0.9708
  292TMC3    H1 4407   3.030   4.306   0.203  0.2115 -0.0828 -0.0313
  292TMC3    H2 4408   2.669   4.253   0.429  0.9696  1.8092  1.3758
  292TMC3    C7 4409   2.834   4.128   0.270 -0.0851  0.3520  0.1905
  292TMC3    C8 4410   2.674   4.484   0.557 -0.5065  0.0645 -0.4823
  292TMC3    O1 4411   2.944   4.082   0.252  0.4530 -0.2325  0.3135
  292TMC3    O2 4412   2.726   4.573   0.625 -0.4112 -0.3067  0.6453
  293MPD2     C 4413   0.386   1.333  12.178 -0.4697 -0.0723 -0.5766
  293MPD2    C1 4414   0.266   1.275  12.236  0.1115 -0.1488 -0.1295
  293MPD2    C2 4415   0.260   1.285  12.371 -0.3736 -0.2765  0.6095
  293MPD2    C3 4416   0.347   1.355  12.455 -0.4132 -0.1318 -0.4479
  293MPD2    C4 4417   0.465   1.390  12.400  0.2758  0.4852  0.2339
  293MPD2    C5 4418   0.484   1.384  12.260 -0.2094 -0.0465 -0.3571
  293MPD2     H 4419   0.176   1.233  12.416 -1.5816  0.4781 -0.7686
  293MPD2    H1 4420   0.545   1.440  12.454 -0.1745 -1.8107  3.0106
  293MPD2    H2 4421   0.399   1.328  12.070  4.2661  0.6865 -0.0515
  293MPD2    H3 4422   0.576   1.424  12.219 -0.8216  2.8863  1.1962
  293MPD2     N 4423   0.312   1.376  12.590 -0.2364 -0.6273  0.6590
  293MPD2    H5 4424   0.223   1.335  12.619  1.0858 -2.4948  2.0876
  293MPD2    N1 4425   0.170   1.217  12.144 -0.0352 -0.4604  0.2361
  293MPD2    H7 4426   0.189   1.209  12.045  0.0286  1.2161  0.1239
  294TMC3    C1 4427   4.688   1.113  12.077  0.2291  0.0528 -0.5737
  294TMC3    C2 4428   4.597   1.012  12.105  0.1561 -0.2994  0.0164
  294TMC3    C3 4429   4.538   0.955  11.998 -0.5156  0.4369  0.7734
  294TMC3    C4 4430   0.001   1.151  11.950  1.0844 -0.2600  0.1487
  294TMC3    C5 4431   4.654   1.094  11.847  0.2237  0.5144 -0.0010
  294TMC3    C6 4432   4.567   0.993  11.870  0.4998  0.3139 -0.6142
  294TMC3     C 4433   0.052   1.160  12.191 -0.3769  0.2366 -0.2671
  294TMC3     O 4434   0.011   1.152  12.307 -0.8051 -0.2400  0.2442
  294TMC3     H 4435   4.584   0.980  12.208 -1.6106  1.0686  0.2131
  294TMC3    H1 4436   0.052   1.245  11.934  0.9935 -0.5508 -1.8385
  294TMC3    H2 4437   4.506   0.947  11.792  0.6654 -2.2153  0.7312
  294TMC3    C7 4438   4.645   1.151  11.715 -0.1097  0.6677  0.1080
  294TMC3    C8 4439   4.508   0.816  12.013 -0.6551 -0.7257 -0.1623
  294TMC3    O1 4440   4.568   1.094  11.639  0.1165  0.3240 -0.0716
  294TMC3    O2 4441   4.530   0.754  11.912 -0.6258  0.0593 -0.1977
  295MPD2     C 4442   4.610   0.021   1.329  0.1225 -0.2145  0.7581
  295MPD2    C1 4443   4.680   0.126   1.268 -0.1220  0.3322  0.2711
  295MPD2    C2 4444   0.013   0.232   1.340 -0.4513 -0.3660  0.8816
  295MPD2    C3 4445   4.700   0.238   1.472 -0.2196 -0.5743  0.5743
  295MPD2    C4 4446   4.605   0.150   1.524 -0.4303  0.0812  0.6752
  295MPD2    C5 4447   4.559   0.044   1.455 -0.2735 -0.5362 -0.7995
  295MPD2     H 4448   0.081   0.306   1.301  1.4476 -2.0451  0.9926
  295MPD2    H1 4449   4.557   0.172   1.618 -0.8875 -0.2970  0.5257
  295MPD2    H2 4450   4.596   4.647   1.277  2.6439 -0.3377  0.2666
  295MPD2    H3 4451   4.490   4.698   1.507 -1.8563  2.0501  0.3606
  295MPD2     N 4452   0.039   0.325   1.563  0.2298  0.1529  0.2698
  295MPD2    H5 4453   0.011   0.306   1.659 -1.4432  0.4818 -0.1477
  295MPD2    N1 4454   0.007   0.113   1.134 -0.1759  0.0428 -0.0607
  295MPD2    H7 4455   0.054   0.195   1.098  1.1367 -0.3652  0.7218
  296TMC3    C1 4456   0.221   0.470   1.620  0.3135 -0.2264  0.0990
  296TMC3    C2 4457   0.311   0.568   1.575  0.4069  0.4964 -0.6701
  296TMC3    C3 4458   0.404   0.605   1.669 -0.5298  0.6836  0.3621
  296TMC3    C4 4459   0.241   0.393   1.738 -0.0819  0.3679 -0.2104
  296TMC3    C5 4460   0.347   0.438   1.824  0.4379 -0.1467  0.0876
  296TMC3    C6 4461   0.425   0.545   1.790  0.0030  0.6296 -0.5214
  296TMC3     C 4462   0.129   0.421   1.523 -0.0562  0.0694  0.3904
  296TMC3     O 4463   0.137   0.478   1.415  0.3155  0.2903  0.3077
  296TMC3     H 4464   0.299   0.608   1.475  1.4805  1.3235 -0.4668
  296TMC3    H1 4465   0.164   0.326   1.775  0.4700  0.5791  1.2993
  296TMC3    H2 4466   0.497   0.573   1.866  0.5373  1.1746 -1.2294
  296TMC3    C7 4467   0.365   0.371   1.952 -0.3359 -0.4059  0.7450
  296TMC3    C8 4468   0.469   0.732   1.647 -0.1013 -0.6224 -0.7234
  296TMC3    O1 4469   0.422   0.433   2.038 -0.1924 -0.1400 -0.3327
  296TMC3    O2 4470   0.464   0.786   1.538  0.8865  0.2649  0.1655
  297MPD2     C 4471   2.947   1.640  16.578  0.7828 -0.0327 -0.8766
  297MPD2    C1 4472   2.872   1.700  16.476  0.5749  0.1090 -1.2027
  297MPD2    C2 4473   2.905   1.816  16.417  0.0719  0.5393  0.2471
  297MPD2    C3 4474   3.014   1.888  16.467 -0.9663 -0.0756  0.2701
  297MPD2    C4 4475   3.081   1.842  16.582 -0.4404 -0.2786  0.7504
  297MPD2    C5 4476   3.043   1.720  16.638  0.1896  0.1110  0.2030
  297MPD2     H 4477   2.836   1.856  16.343 -1.7686 -0.4051  1.4431
  297MPD2    H1 4478   3.165   1.900  16.617 -0.3274  0.9607 -1.5320
  297MPD2    H2 4479   2.933   1.538  16.612  0.7445  0.8978  1.8802
  297MPD2    H3 4480   3.114   1.686  16.713 -2.4372 -1.8930  1.7711
  297MPD2     N 4481   3.041   2.015  16.401 -0.1174 -0.3159 -0.1155
  297MPD2    H5 4482   2.983   2.033  16.320  1.8818  5.0338 -0.3592
  297MPD2    N1 4483   2.756   1.632  16.428 -0.0180 -0.1456  0.2988
  297MPD2    H7 4484   2.724   1.670  16.339  1.8693  1.5142  0.3393
  298TMC3    C1 4485   2.576   1.487  16.411  0.4799 -0.0583  0.1911
  298TMC3    C2 4486   2.596   1.488  16.274  0.0304  0.6617  0.0943
  298TMC3    C3 4487   2.473   1.473  16.213  0.7002  0.1600 -0.4423
  298TMC3    C4 4488   2.455   1.495  16.488  0.1813 -0.4474 -0.7120
  298TMC3    C5 4489   2.341   1.482  16.408  0.0022  0.1873 -0.7448
  298TMC3    C6 4490   2.347   1.481  16.274  0.6611  0.2329  0.3786
  298TMC3     C 4491   2.683   1.536  16.490  0.2637  0.5235 -0.2145
  298TMC3     O 4492   2.685   1.486  16.603  0.1184  0.6812  0.3805
  298TMC3     H 4493   2.692   1.469  16.228 -1.2016 -1.9471 -1.4240
  298TMC3    H1 4494   2.452   1.503  16.596  0.5548 -2.0704 -0.5775
  298TMC3    H2 4495   2.258   1.492  16.213  1.8070 -0.4636 -1.4451
  298TMC3    C7 4496   2.220   1.531  16.471 -0.0051  0.3500 -0.7292
  298TMC3    C8 4497   2.491   1.468  16.064  0.1718 -0.0452 -0.0429
  298TMC3    O1 4498   2.228   1.569  16.587 -0.1044  0.2598 -0.0454
  298TMC3    O2 4499   2.602   1.492  16.020 -0.4218  0.6657 -0.2497
  299MPD2     C 4500   4.004   1.494  10.173  0.1207  0.2653  0.6914
  299MPD2    C1 4501   3.979   1.425  10.288  0.1977  0.0877  0.3547
  299MPD2    C2 4502   3.869   1.342  10.295 -0.0428 -0.0879  0.4081
  299MPD2    C3 4503   3.780   1.334  10.189  0.2218 -0.0533  0.3369
  299MPD2    C4 4504   3.811   1.406  10.073 -0.0755 -0.0463  0.1603
  299MPD2    C5 4505   3.928   1.480  10.064  0.2399 -0.0829  0.4100
  299MPD2     H 4506   3.860   1.289  10.389 -0.6750 -1.0729 -0.2187
  299MPD2    H1 4507   3.750   1.392   9.985 -0.1547  2.7603 -0.2219
  299MPD2    H2 4508   4.096   1.550  10.162  0.9080 -0.8873  1.4288
  299MPD2    H3 4509   3.952   1.521   9.966 -1.2738  0.3544  0.2142
  299MPD2     N 4510   3.670   1.251  10.187 -0.5758  0.2605  0.3341
  299MPD2    H5 4511   3.609   1.244  10.106 -1.3316  0.0559  0.9244
  299MPD2    N1 4512   4.080   1.438  10.386 -0.2866  0.6558 -0.3028
  299MPD2    H7 4513   4.136   1.522  10.382  0.2572  0.3888  1.8624
  300TMC3    C1 4514   3.487   1.156  10.302 -0.0639  0.6807 -0.2205
  300TMC3    C2 4515   3.410   1.247  10.240 -0.0250  0.4446  0.4915
  300TMC3    C3 4516   3.291   1.277  10.305  0.0903  0.7865 -0.4450
  300TMC3    C4 4517   3.446   1.081  10.412  0.4354  1.3679  0.2677
  300TMC3    C5 4518   3.331   1.123  10.475  0.6428 -0.4907 -0.9578
  300TMC3    C6 4519   3.248   1.219  10.418 -0.5254 -0.2771 -0.6173
  300TMC3     C 4520   3.628   1.180  10.302  0.2854 -0.0279 -0.0651
  300TMC3     O 4521   3.678   1.173  10.417  0.2264  0.1169 -0.0248
  300TMC3     H 4522   3.442   1.308  10.157  0.3338  2.0972  1.8297
  300TMC3    H1 4523   3.512   1.007  10.456  1.3455  2.5365  0.8591
  300TMC3    H2 4524   3.156   1.237  10.473 -1.7334 -0.8064 -2.4584
  300TMC3    C7 4525   3.315   1.087  10.616  0.3090 -0.1289 -0.6147
  300TMC3    C8 4526   3.214   1.383  10.250  0.1528  0.0361 -0.2967
  300TMC3    O1 4527   3.349   0.974  10.653 -0.1646  0.0762 -0.1577
  300TMC3    O2 4528   3.276   1.465  10.182 -0.6501  0.1073 -0.1970
  301MPD2     C 4529   0.532   3.151   1.655  0.0317  1.0663 -0.5399
  301MPD2    C1 4530   0.422   3.089   1.601  0.4665  0.0216  0.2006
  301MPD2    C2 4531   0.413   2.952   1.610 -0.0228  0.1962  0.5762
  301MPD2    C3 4532   0.507   2.876   1.682 -0.0311  0.0382  0.7961
  301MPD2    C4 4533   0.612   2.940   1.749  0.5674 -0.3695  0.6567
  301MPD2    C5 4534   0.631   3.075   1.722  0.1729  0.1033  0.2280
  301MPD2     H 4535   0.326   2.905   1.565  1.7496 -0.6897 -1.9238
  301MPD2    H1 4536   0.697   2.888   1.791 -0.9421 -1.9029  1.8549
  301MPD2    H2 4537   0.561   3.248   1.618  0.3933  1.0234 -0.3709
  301MPD2    H3 4538   0.715   3.135   1.754 -1.4690  3.2939 -1.4628
  301MPD2     N 4539   0.494   2.739   1.701  0.6515  0.9185  1.5446
  301MPD2    H5 4540   0.558   2.687   1.761  0.6041 -0.4236  0.4361
  301MPD2    N1 4541   0.315   3.157   1.533  0.1916 -0.2148  0.3531
  301MPD2    H7 4542   0.242   3.100   1.491 -0.2172  1.2782 -0.9170
  302TMC3    C1 4543   0.432   2.522   1.683  0.6268  0.2090  0.0727
  302TMC3    C2 4544   0.561   2.482   1.691  0.6612 -0.5496 -0.3339
  302TMC3    C3 4545   0.573   2.349   1.689  0.3677 -0.1581  0.2841
  302TMC3    C4 4546   0.321   2.434   1.676  0.7096 -0.2418  0.0027
  302TMC3    C5 4547   0.345   2.304   1.670  0.1099  0.9569  0.1377
  302TMC3    C6 4548   0.471   2.257   1.684  0.1799  0.1066 -0.4991
  302TMC3     C 4549   0.397   2.655   1.651  0.1278  0.1161 -0.3319
  302TMC3     O 4550   0.300   2.678   1.583  0.1250  0.2362  0.0736
  302TMC3     H 4551   0.652   2.540   1.686 -1.0627  2.1044 -0.7946
  302TMC3    H1 4552   0.227   2.481   1.652  0.2220 -0.8451  0.7312
  302TMC3    H2 4553   0.488   2.150   1.690 -0.5681 -0.0006 -0.3826
  302TMC3    C7 4554   0.259   2.219   1.584  0.2461  0.6022  0.3474
  302TMC3    C8 4555   0.709   2.300   1.683  0.0045 -0.0822  0.1895
  302TMC3    O1 4556   0.299   2.103   1.555  0.1719  0.4036 -0.1156
  302TMC3    O2 4557   0.800   2.366   1.638 -0.1350  0.3281 -0.5990
  303MPD2     C 4558   1.142   1.484  10.087 -0.1093 -0.5804  0.4695
  303MPD2    C1 4559   1.035   1.410  10.034 -0.8439  0.1373 -0.7084
  303MPD2    C2 4560   1.057   1.342   9.909  0.0082 -0.3895 -0.4992
  303MPD2    C3 4561   1.186   1.340   9.850  0.1239 -0.1280  0.2552
  303MPD2    C4 4562   1.290   1.407   9.915  0.8328  0.1868  0.4185
  303MPD2    C5 4563   1.267   1.472  10.033  0.1474 -0.5156 -0.2721
  303MPD2     H 4564   0.975   1.285   9.868  0.2107  0.9779 -2.7706
  303MPD2    H1 4565   1.393   1.403   9.879 -0.4998  0.6038 -3.4761
  303MPD2    H2 4566   1.128   1.534  10.182  1.7783  1.1171 -0.1408
  303MPD2    H3 4567   1.348   1.519  10.089 -0.2194 -0.3004  0.0809
  303MPD2     N 4568   1.218   1.254   9.740 -0.2990 -0.6168  0.2395
  303MPD2    H5 4569   1.318   1.246   9.723 -0.4587 -2.1982  0.0191
  303MPD2    N1 4570   0.922   1.414  10.111 -0.4023  0.0451 -0.6250
  303MPD2    H7 4571   0.923   1.454  10.205 -0.8530  1.5057 -1.2430
  304TMC3    C1 4572   0.687   1.377  10.161  0.2294 -0.0975  0.4107
  304TMC3    C2 4573   0.561   1.365  10.100  0.0425 -0.8588 -0.6631
  304TMC3    C3 4574   0.452   1.319  10.168 -0.1067  0.2403  0.0869
  304TMC3    C4 4575   0.708   1.333  10.291  0.2989  0.6054 -0.3868
  304TMC3    C5 4576   0.597   1.278  10.347  0.4735 -0.4901 -0.0778
  304TMC3    C6 4577   0.470   1.281  10.291 -0.3398  0.4063  0.0825
  304TMC3     C 4578   0.799   1.364  10.068  0.8125 -0.3345 -0.3413
  304TMC3     O 4579   0.771   1.323   9.956 -0.1498  0.5238  0.8566
  304TMC3     H 4580   0.543   1.408  10.002  1.2409  1.0987 -0.0298
  304TMC3    H1 4581   0.807   1.323  10.334  1.0414 -0.6428 -2.3941
  304TMC3    H2 4582   0.397   1.238  10.358 -1.5827 -1.1370 -2.2772
  304TMC3    C7 4583   0.624   1.144  10.400  0.4511  0.7317  0.2587
  304TMC3    C8 4584   0.368   1.219  10.093  0.3250  0.7002 -0.1887
  304TMC3    O1 4585   0.715   1.143  10.485  0.0133 -0.9572 -0.2266
  304TMC3    O2 4586   0.345   1.113  10.157  0.1063 -0.0530  0.0805
  305MPD2     C 4587   3.526   2.728  14.258  0.2910  0.1973 -0.0018
  305MPD2    C1 4588   3.560   2.860  14.237  0.9870 -0.5435 -0.3384
  305MPD2    C2 4589   3.558   2.903  14.106 -0.2928  0.1366  0.5079
  305MPD2    C3 4590   3.542   2.815  14.001 -0.8731 -0.7379 -0.2733
  305MPD2    C4 4591   3.507   2.683  14.029 -0.0479  0.8668 -0.4120
  305MPD2    C5 4592   3.502   2.641  14.158  0.2684  0.3376  0.6204
  305MPD2     H 4593   3.576   3.009  14.094 -0.4914 -0.1115 -1.9853
  305MPD2    H1 4594   3.475   2.609  13.957 -0.8627  1.0205 -0.2131
  305MPD2    H2 4595   3.496   2.697  14.358 -1.3676 -0.2720 -0.6522
  305MPD2    H3 4596   3.457   2.548  14.190 -2.3532  1.0485 -1.0533
  305MPD2     N 4597   3.551   2.851  13.867 -0.6373 -0.7541 -0.1295
  305MPD2    H5 4598   3.510   2.789  13.799 -0.9059  0.8055 -1.3801
  305MPD2    N1 4599   3.577   2.964  14.338  0.0806 -0.0250 -0.2388
  305MPD2    H7 4600   3.592   3.057  14.301  0.8381  0.4921  1.3626
  306TMC3    C1 4601   3.614   3.056  14.542 -0.3353 -0.2514 -0.7219
  306TMC3    C2 4602   3.720   3.140  14.507 -0.1196  0.0033 -0.2769
  306TMC3    C3 4603   3.765   3.236  14.589  0.3352  0.5261  0.1402
  306TMC3    C4 4604   3.568   3.061  14.668 -0.0024  0.3588 -0.0580
  306TMC3    C5 4605   3.602   3.172  14.740 -0.2376  0.6648  0.1212
  306TMC3    C6 4606   3.696   3.262  14.708 -0.0503  0.4195  0.2190
  306TMC3     C 4607   3.594   2.936  14.468 -0.5923 -0.0579  0.3248
  306TMC3     O 4608   3.569   2.830  14.530 -0.1403  0.1198  0.4928
  306TMC3     H 4609   3.774   3.117  14.416  1.8220 -0.7335  1.0567
  306TMC3    H1 4610   3.497   2.989  14.708  0.0260  0.2445 -0.2166
  306TMC3    H2 4611   3.721   3.348  14.769 -2.2339  1.5242 -0.4564
  306TMC3    C7 4612   3.569   3.182  14.876 -0.0674 -0.5089  0.8586
  306TMC3    C8 4613   3.911   3.238  14.595  0.0628 -0.2194  0.0268
  306TMC3    O1 4614   3.457   3.213  14.904 -0.1538 -0.1015 -0.4828
  306TMC3    O2 4615   3.977   3.175  14.517 -0.0717  0.2879  0.4713
  307MPD2     C 4616   1.060   2.564   1.182  0.0822 -0.1944 -0.0678
  307MPD2    C1 4617   0.988   2.512   1.079 -0.2252 -0.6821 -0.0172
  307MPD2    C2 4618   0.856   2.484   1.099  0.4954 -0.3974 -0.2179
  307MPD2    C3 4619   0.797   2.510   1.219  0.4027  0.5922  0.2330
  307MPD2    C4 4620   0.863   2.569   1.317  0.0113  0.2732  0.3860
  307MPD2    C5 4621   0.995   2.600   1.300  0.1437  0.6287 -0.0124
  307MPD2     H 4622   0.790   2.461   1.016  1.9461 -1.6417 -1.0179
  307MPD2    H1 4623   0.823   2.589   1.416 -0.3205 -1.4363  0.5928
  307MPD2    H2 4624   1.163   2.587   1.159 -0.6231  1.5947 -1.4014
  307MPD2    H3 4625   1.056   2.654   1.372 -1.2441  1.8270  0.2614
  307MPD2     N 4626   0.662   2.479   1.233  0.2890  0.7879  0.3565
  307MPD2    H5 4627   0.626   2.426   1.153  0.2141  0.5132  0.5724
  307MPD2    N1 4628   1.042   2.484   0.949 -0.1454  0.4871 -0.5072
  307MPD2    H7 4629   0.977   2.448   0.881  1.4287 -0.6364 -1.4245
  308TMC3    C1 4630   0.331   2.325   1.178  0.0609  0.1519  0.4082
  308TMC3    C2 4631   0.236   2.415   1.150  0.1892  0.0955  0.2073
  308TMC3    C3 4632   0.248   2.539   1.217 -0.8790  0.3999 -0.0373
  308TMC3    C4 4633   0.447   2.354   1.253 -0.4275  0.5023 -0.0152
  308TMC3    C5 4634   0.446   2.468   1.320 -0.5586  0.1069 -0.2513
  308TMC3    C6 4635   0.349   2.570   1.304 -0.3923  0.5200 -0.1495
  308TMC3     C 4636   0.332   2.193   1.121 -0.5065 -0.0658  0.2458
  308TMC3     O 4637   0.411   2.105   1.155  0.2142 -0.0278 -0.7391
  308TMC3     H 4638   0.147   2.380   1.098  0.4515 -0.4112  0.1031
  308TMC3    H1 4639   0.509   2.274   1.290 -1.7479 -0.0542  1.0105
  308TMC3    H2 4640   0.359   2.668   1.350 -1.9510  0.5594  0.0941
  308TMC3    C7 4641   0.580   2.531   1.326 -0.2395 -1.0555 -0.7450
  308TMC3    C8 4642   0.150   2.634   1.200  0.6957  0.1267 -0.7351
  308TMC3    O1 4643   0.600   2.630   1.397  0.4658 -0.4500  1.2431
  308TMC3    O2 4644   0.153   2.732   1.274  0.2847 -0.4758 -0.4358
  309MPD2     C 4645   0.675   1.297  17.027 -0.5671  0.3475  0.0959
  309MPD2    C1 4646   0.600   1.323  16.909  0.8453  0.0559  1.0523
  309MPD2    C2 4647   0.470   1.374  16.923  0.3342  0.0360 -0.0593
  309MPD2    C3 4648   0.408   1.399  17.049 -0.5857 -0.5183 -0.7950
  309MPD2    C4 4649   0.479   1.369  17.160  0.3896  0.3450 -0.1779
  309MPD2    C5 4650   0.609   1.318  17.146 -0.9154  0.8834 -0.9626
  309MPD2     H 4651   0.429   1.401  16.826 -0.5893  0.1095  0.3451
  309MPD2    H1 4652   0.441   1.368  17.261  1.1802 -1.9687  0.1129
  309MPD2    H2 4653   0.765   1.235  17.027 -0.4810  0.4726  0.3717
  309MPD2    H3 4654   0.656   1.289  17.239 -0.5009 -0.5653 -1.6100
  309MPD2     N 4655   0.283   1.463  17.063 -0.3134 -0.5296  0.1209
  309MPD2    H5 4656   0.244   1.485  17.154  2.4273  2.6796  0.5230
  309MPD2    N1 4657   0.642   1.310  16.773 -0.1733 -0.6468 -0.6595
  309MPD2    H7 4658   0.582   1.333  16.695 -1.2570  1.5324  0.7992
  310TMC3    C1 4659   0.794   1.237  16.606 -0.0402 -0.2946  0.2319
  310TMC3    C2 4660   0.749   1.335  16.510 -0.6483  0.7489 -0.2755
  310TMC3    C3 4661   0.783   1.313  16.381  0.3288 -0.5215 -0.4405
  310TMC3    C4 4662   0.892   1.151  16.566  0.0872 -0.1001 -0.0028
  310TMC3    C5 4663   0.936   1.138  16.436  0.3113 -0.0806  0.9682
  310TMC3    C6 4664   0.877   1.220  16.343  0.4225  0.1757 -0.5194
  310TMC3     C 4665   0.759   1.248  16.746 -0.8447 -0.2180 -1.0095
  310TMC3     O 4666   0.837   1.191  16.824  0.2312  0.5609  0.0130
  310TMC3     H 4667   0.682   1.414  16.539 -0.2882  0.6908  0.7153
  310TMC3    H1 4668   0.926   1.091  16.649 -0.2358 -0.0469  0.1675
  310TMC3    H2 4669   0.897   1.207  16.238 -0.3502 -0.3701 -0.5983
  310TMC3    C7 4670   1.052   1.052  16.402  1.0222 -0.2064  0.0348
  310TMC3    C8 4671   0.727   1.395  16.276 -0.5528  0.0976  0.2152
  310TMC3    O1 4672   1.071   1.034  16.282 -0.4047 -0.0180 -0.4216
  310TMC3    O2 4673   0.771   1.397  16.160 -0.4280 -0.6342  0.2465
  311MPD2     C 4674   3.124   2.637  12.791  0.1300 -0.0000  0.1078
  311MPD2    C1 4675   3.115   2.774  12.773  0.2122  0.3400 -0.5642
  311MPD2    C2 4676   2.995   2.842  12.752  0.5517 -0.6203 -0.0608
  311MPD2    C3 4677   2.877   2.766  12.743  0.4999  0.2587 -0.2127
  311MPD2    C4 4678   2.882   2.631  12.759  0.0873  0.0077 -0.0502
  311MPD2    C5 4679   3.008   2.569  12.781  0.4756  0.2315 -0.4654
  311MPD2     H 4680   2.990   2.950  12.739  0.0820 -0.5111  1.0303
  311MPD2    H1 4681   2.794   2.569  12.748 -1.5686  2.7740 -1.9890
  311MPD2    H2 4682   3.218   2.583  12.797 -0.5308 -1.1777 -0.1329
  311MPD2    H3 4683   3.020   2.461  12.776 -0.6538  0.1893 -2.3556
  311MPD2     N 4684   2.755   2.844  12.721  0.5555  0.2302 -0.1850
  311MPD2    H5 4685   2.763   2.945  12.711  1.2307  0.0012 -2.0497
  311MPD2    N1 4686   3.229   2.855  12.777 -0.0198 -0.2668 -0.7631
  311MPD2    H7 4687   3.216   2.949  12.743  3.8001  0.7690  0.5941
  312TMC3    C1 4688   2.537   2.898  12.681 -0.1092 -0.1249  0.0789
  312TMC3    C2 4689   2.429   2.877  12.607  0.5726 -0.5009  0.1756
  312TMC3    C3 4690   2.323   2.962  12.620 -0.7980 -0.0051  0.2394
  312TMC3    C4 4691   2.537   2.992  12.779  0.4646 -0.1660 -0.0613
  312TMC3    C5 4692   2.438   3.088  12.785  0.9435  0.0030 -0.2888
  312TMC3    C6 4693   2.330   3.078  12.701 -0.4075  0.1915  0.2456
  312TMC3     C 4694   2.630   2.790  12.698  0.7916 -0.1579  0.4825
  312TMC3     O 4695   2.605   2.674  12.661  0.0608 -0.3019 -0.0607
  312TMC3     H 4696   2.425   2.797  12.534 -1.3515 -1.0969  0.9533
  312TMC3    H1 4697   2.615   2.978  12.853  1.6058  0.9030 -1.0598
  312TMC3    H2 4698   2.252   3.153  12.704  0.5106  1.2111 -2.1304
  312TMC3    C7 4699   2.417   3.160  12.911 -0.1330 -0.2351  0.3609
  312TMC3    C8 4700   2.198   2.903  12.586 -0.1015  0.0106  0.5947
  312TMC3    O1 4701   2.362   3.266  12.893 -0.2319 -0.4646  0.0210
  312TMC3    O2 4702   2.197   2.798  12.528  0.2520 -0.5123 -0.3356
  313MPD2     C 4703   2.477   1.661  10.656  0.0574 -0.7438 -0.9605
  313MPD2    C1 4704   2.380   1.754  10.631 -0.6499  1.2524  0.1191
  313MPD2    C2 4705   2.262   1.729  10.563 -0.7964  0.2857 -0.4437
  313MPD2    C3 4706   2.233   1.606  10.518  0.3977 -0.3714 -0.8106
  313MPD2    C4 4707   2.328   1.506  10.547 -0.1095  0.2847  0.2418
  313MPD2    C5 4708   2.444   1.535  10.618  0.1262  0.4926 -0.2178
  313MPD2     H 4709   2.196   1.811  10.537 -2.2227 -0.7923 -0.2148
  313MPD2    H1 4710   2.322   1.408  10.501 -0.7892 -0.1413  1.2348
  313MPD2    H2 4711   2.568   1.676  10.713  0.2626  0.4319 -1.6058
  313MPD2    H3 4712   2.523   1.464  10.638 -0.0118  0.7243  1.1384
  313MPD2     N 4713   2.110   1.581  10.452  0.0270  0.5271  0.3115
  313MPD2    H5 4714   2.063   1.667  10.426 -0.6812 -0.2421 -0.9552
  313MPD2    N1 4715   2.407   1.889  10.676 -0.2683  0.1242 -0.0282
  313MPD2    H7 4716   2.336   1.959  10.658 -1.9625 -1.0318  1.9769
  314TMC3    C1 4717   2.508   2.083  10.770  0.4136  0.4632 -0.4566
  314TMC3    C2 4718   2.626   2.156  10.783  0.4159 -0.3750 -0.1340
  314TMC3    C3 4719   2.618   2.290  10.791  0.1954 -0.3313  0.1018
  314TMC3    C4 4720   2.380   2.132  10.785  0.3879  0.2592 -0.3746
  314TMC3    C5 4721   2.379   2.271  10.806  0.8205  0.3708 -0.0876
  314TMC3    C6 4722   2.496   2.351  10.800 -0.4214 -0.6637 -0.2497
  314TMC3     C 4723   2.522   1.938  10.740  0.0482 -0.2761 -0.0636
  314TMC3     O 4724   2.631   1.880  10.752 -0.0666  0.0006 -0.2192
  314TMC3     H 4725   2.721   2.103  10.795  0.0419 -1.3212 -1.3199
  314TMC3    H1 4726   2.284   2.081  10.782  2.4048 -3.5802 -0.2495
  314TMC3    H2 4727   2.488   2.459  10.803 -0.2929 -0.6609  0.0319
  314TMC3    C7 4728   2.255   2.339  10.767 -0.0887  0.6710  0.6428
  314TMC3    C8 4729   2.728   2.375  10.820  0.0860 -0.6767  0.0470
  314TMC3    O1 4730   2.146   2.285  10.795 -0.4325 -0.5332  0.1562
  314TMC3    O2 4731   2.710   2.486  10.867  0.0256 -0.2193  0.1628
  315MPD2     C 4732   1.651   1.339   0.232 -0.8527 -0.7060 -0.1361
  315MPD2    C1 4733   1.774   1.310   0.194  0.4133  0.1591  0.4120
  315MPD2    C2 4734   1.848   1.400   0.126  0.2752  0.2359 -0.2392
  315MPD2    C3 4735   1.804   1.523   0.101 -0.0267  0.3340  0.0595
  315MPD2    C4 4736   1.673   1.561   0.143  0.2775 -0.0535  0.2940
  315MPD2    C5 4737   1.593   1.464   0.200  0.2049  0.0908 -0.2215
  315MPD2     H 4738   1.949   1.368   0.102  0.8441  0.4425  1.9044
  315MPD2    H1 4739   1.632   1.661   0.143  1.2700  0.3548 -2.3300
  315MPD2    H2 4740   1.589   1.264   0.279 -0.7561 -0.8968 -0.3177
  315MPD2    H3 4741   1.492   1.480   0.236  0.5677  1.3683  0.2439
  315MPD2     N 4742   1.907   1.616   0.063 -0.5165  0.7259 -0.3528
  315MPD2    H5 4743   1.999   1.575   0.056  0.0288  1.8468  0.2703
  315MPD2    N1 4744   1.841   1.193   0.228  0.0203  0.5265 -0.1832
  315MPD2    H7 4745   1.932   1.178   0.185  0.0739  1.2616 -0.3305
  316TMC3    C1 4746   2.017   1.827   0.038 -0.2929 -0.8924 -0.0994
  316TMC3    C2 4747   2.123   1.809   0.123 -0.0656 -0.2502 -0.1411
  316TMC3    C3 4748   2.208   1.915   0.152  0.7543 -0.2661 -0.5036
  316TMC3    C4 4749   2.000   1.946  17.646 -0.1679  1.0000 -0.6158
  316TMC3    C5 4750   2.099   2.042  17.671  0.1183 -0.5513 -0.4326
  316TMC3    C6 4751   2.198   2.034   0.085 -0.3851  0.1046  0.3947
  316TMC3     C 4752   1.892   1.753   0.060  0.1191  0.0138 -0.1738
  316TMC3     O 4753   1.794   1.825   0.074  0.4487  0.4993 -0.7515
  316TMC3     H 4754   2.151   1.719   0.176 -0.8589 -0.5872 -0.2923
  316TMC3    H1 4755   1.910   1.960  17.588 -0.0861  1.4495 -0.6399
  316TMC3    H2 4756   2.270   2.112   0.108  1.8499 -1.3148 -1.7700
  316TMC3    C7 4757   2.102   2.163  17.592  0.6183 -0.1423  0.8522
  316TMC3    C8 4758   2.291   1.918   0.267 -0.4026  0.0783  0.2641
  316TMC3    O1 4759   2.170   2.253  17.639  0.1030 -0.3697 -0.2489
  316TMC3    O2 4760   2.336   2.028   0.296  0.6315  0.3022  0.2491
  317MPD2     C 4761   4.262   4.645  12.572 -0.1617  0.4608 -0.8481
  317MPD2    C1 4762   4.332   4.528  12.555  0.4299  0.0240  0.3156
  317MPD2    C2 4763   4.391   4.475  12.677 -0.6903 -0.0093  0.8502
  317MPD2    C3 4764   4.373   4.533  12.800 -0.4458 -0.6081 -0.0132
  317MPD2    C4 4765   4.289   4.640  12.811 -0.0665 -0.6697  0.3302
  317MPD2    C5 4766   4.237   4.699  12.697 -0.2645  0.1123 -0.5497
  317MPD2     H 4767   4.450   4.385  12.681 -1.8558 -0.7962  0.3101
  317MPD2    H1 4768   4.275   4.693  12.904 -2.4149  0.8328 -0.8644
  317MPD2    H2 4769   4.225   4.699  12.486 -0.2844  0.7748 -0.6013
  317MPD2    H3 4770   4.172   0.066  12.704 -0.7634 -0.3079 -0.1082
  317MPD2     N 4771   4.430   4.473  12.916 -0.0285  0.0456 -0.2005
  317MPD2    H5 4772   4.468   4.380  12.899  1.0636  0.0773  2.0446
  317MPD2    N1 4773   4.361   4.460  12.435 -1.0060 -0.4325  0.6412
  317MPD2    H7 4774   4.420   4.380  12.455  0.8325  0.3740 -1.5345
  318TMC3    C1 4775   4.488   4.431  13.141 -0.0006 -0.1325 -0.2229
  318TMC3    C2 4776   4.428   4.307  13.156 -0.3618 -0.4692 -0.2663
  318TMC3    C3 4777   4.439   4.253  13.278  0.4770 -0.2313 -0.9069
  318TMC3    C4 4778   4.554   4.499  13.236 -0.1992  0.1790  0.5773
  318TMC3    C5 4779   4.563   4.446  13.360  0.1008 -0.2294  0.2105
  318TMC3    C6 4780   4.504   4.325  13.380 -0.6432  0.7708  0.4828
  318TMC3     C 4781   4.429   4.519  13.044 -0.6646  0.9073  0.4809
  318TMC3     O 4782   4.375   4.626  13.082 -0.0987  0.2293  0.1732
  318TMC3     H 4783   4.381   4.253  13.074 -2.2610 -0.0147  0.5334
  318TMC3    H1 4784   4.614   4.586  13.210  0.0296 -0.6635 -1.6812
  318TMC3    H2 4785   4.504   4.284  13.480  2.4042  0.1020  0.2274
  318TMC3    C7 4786   4.661   4.499  13.449  0.1135 -0.3536  0.4977
  318TMC3    C8 4787   4.353   4.145  13.320  0.2248 -0.1875  0.4410
  318TMC3    O1 4788   4.700   4.613  13.421  0.3391 -0.2643  0.1635
  318TMC3    O2 4789   4.391   4.079  13.416 -0.3293 -0.4864 -0.0750
  319MPD2     C 4790   0.243   0.490  16.499 -0.8928 -0.5384 -0.4405
  319MPD2    C1 4791   0.248   0.622  16.493  0.7498 -0.5050  0.4910
  319MPD2    C2 4792   0.170   0.691  16.403 -0.3138  0.9111 -0.5937
  319MPD2    C3 4793   0.077   0.626  16.326  0.3713  0.1991 -0.1350
  319MPD2    C4 4794   0.070   0.488  16.337  0.1010  0.2791  0.4570
  319MPD2    C5 4795   0.147   0.422  16.422 -0.3424  0.6955  0.0906
  319MPD2     H 4796   0.174   0.799  16.406  0.8787  0.8511 -0.0795
  319MPD2    H1 4797   0.005   0.427  16.276  1.7881 -0.8508 -0.2136
  319MPD2    H2 4798   0.300   0.432  16.571 -0.3355 -0.7004 -1.0083
  319MPD2    H3 4799   0.129   0.316  16.436  0.7386  0.5479  0.3766
  319MPD2     N 4800   4.699   0.700  16.250  0.0938  0.0424 -0.3732
  319MPD2    H5 4801   4.647   0.651  16.177  1.2907  0.2844 -1.3957
  319MPD2    N1 4802   0.334   0.701  16.574  0.2155 -0.1236 -0.2536
  319MPD2    H7 4803   0.309   0.798  16.589  0.3244  0.0902 -1.5242
  320TMC3    C1 4804   4.564   0.871  16.159 -0.1785 -0.3391 -0.1772
  320TMC3    C2 4805   4.544   1.005  16.131  0.0899  0.3465  0.6966
  320TMC3    C3 4806   4.442   1.036  16.043  0.0248 -0.6148 -1.2021
  320TMC3    C4 4807   4.503   0.771  16.090 -0.6063  0.1418 -0.4637
  320TMC3    C5 4808   4.398   0.800  16.005 -0.0009 -0.5452  1.0127
  320TMC3    C6 4809   4.365   0.939  15.980 -0.9797 -0.1382 -0.2384
  320TMC3     C 4810   4.675   0.838  16.249 -0.5387 -0.0611  0.1243
  320TMC3     O 4811   0.009   0.918  16.321  0.0004 -0.6153 -0.2303
  320TMC3     H 4812   4.606   1.084  16.172 -0.0759  1.2387 -0.7704
  320TMC3    H1 4813   4.515   0.667  16.117  0.5752  0.7790  1.4591
  320TMC3    H2 4814   4.268   0.967  15.940 -0.6644  0.7789 -0.3739
  320TMC3    C7 4815   4.331   0.693  15.935 -0.6864  0.0331 -0.2039
  320TMC3    C8 4816   4.410   1.183  16.024  0.1327  0.5820  0.4184
  320TMC3    O1 4817   4.393   0.591  15.908 -0.5778  0.0837 -0.5499
  320TMC3    O2 4818   4.472   1.264  16.097  0.2202  0.1265 -0.0437
  321TMC3    C1 4819   0.484   0.745  16.742  0.3646  0.0378  0.4081
  321TMC3    C2 4820   0.601   0.736  16.798  0.3986 -0.1951 -0.2782
  321TMC3    C3 4821   0.643   0.843  16.879 -0.3608 -0.1547 -0.5945
  321TMC3    C4 4822   0.405   0.859  16.761  0.5388 -1.0497 -0.0248
  321TMC3    C5 4823   0.442   0.961  16.845 -0.2605 -0.7675 -0.4410
  321TMC3    C6 4824   0.571   0.964  16.892  0.0862  0.5619 -0.3526
  321TMC3     C 4825   0.439   0.650  16.644 -0.8943 -0.0659 -0.8775
  321TMC3     O 4826   0.496   0.540  16.644 -0.2048  0.3387 -0.0243
  321TMC3     H 4827   0.676   0.664  16.769 -0.2032 -0.5834 -0.8608
  321TMC3    H1 4828   0.301   0.863  16.731  0.6430  0.7965 -0.1041
  321TMC3    H2 4829   0.601   1.051  16.950 -0.8963 -0.2115  1.2965
  321TMC3    C7 4830   0.335   1.016  16.921  0.7875  0.1015  0.4093
  321TMC3    C8 4831   0.662   0.797  17.012  0.4301  0.9916  0.2276
  321TMC3    O1 4832   0.225   1.026  16.868 -0.4194 -0.3179 -0.4164
  321TMC3    O2 4833   0.630   0.886  17.089 -0.0440 -0.4084 -0.3432
  322MPD2     C 4834   3.788   2.648  13.492 -0.1357  0.3016 -0.4967
  322MPD2    C1 4835   3.803   2.573  13.604  0.7561  0.0374 -0.2246
  322MPD2    C2 4836   3.807   2.434  13.596 -0.0118 -0.2311  1.1670
  322MPD2    C3 4837   3.810   2.378  13.469  0.2449 -0.1881 -0.0927
  322MPD2    C4 4838   3.793   2.453  13.355 -0.6058  0.9401 -0.6880
  322MPD2    C5 4839   3.781   2.589  13.369 -0.2876  0.6376  0.0731
  322MPD2     H 4840   3.838   2.376  13.682  1.1415 -2.1993 -0.5749
  322MPD2    H1 4841   3.805   2.405  13.259 -0.4049 -0.6283  0.1260
  322MPD2    H2 4842   3.797   2.754  13.509  0.1322  0.6260 -2.8011
  322MPD2    H3 4843   3.763   2.648  13.280 -1.4433  0.9352  0.5048
  322MPD2     N 4844   3.829   2.236  13.477 -0.7149  0.4910 -0.0948
  322MPD2    H5 4845   3.857   2.206  13.570 -1.0684 -0.5909 -0.3410
  322MPD2    N1 4846   3.823   2.638  13.727 -0.5383 -0.1903 -0.3237
  322MPD2    H7 4847   3.840   2.738  13.731 -0.2785 -0.3156  1.8932
  323TMC3    C1 4848   3.856   2.654  13.967 -0.4972  0.2116 -0.1599
  323TMC3    C2 4849   3.956   2.737  13.940 -0.8138  0.2045 -0.4125
  323TMC3    C3 4850   4.035   2.779  14.040 -0.0146  0.2051 -0.2952
  323TMC3    C4 4851   3.839   2.605  14.095 -0.6776 -0.8104 -0.9544
  323TMC3    C5 4852   3.922   2.642  14.194 -0.6625 -0.5301 -0.2044
  323TMC3    C6 4853   4.026   2.728  14.169  0.8453  1.0168  0.3120
  323TMC3     C 4854   3.811   2.574  13.851  1.0217 -0.0062 -0.2276
  323TMC3     O 4855   3.730   2.485  13.883  0.6082  0.4080  0.6195
  323TMC3     H 4856   3.989   2.755  13.839  0.5241  0.1018  0.0053
  323TMC3    H1 4857   3.762   2.530  14.107  1.4609 -2.6963  1.1027
  323TMC3    H2 4858   4.104   2.749  14.240  0.4503  1.3884  0.6372
  323TMC3    C7 4859   3.929   2.554  14.303 -0.5843  0.4541  0.1947
  323TMC3    C8 4860   4.164   2.840  14.016  0.6557 -0.5259  0.4746
  323TMC3    O1 4861   3.877   2.444  14.284  0.7660  0.0114 -0.3497
  323TMC3    O2 4862   4.245   2.856  14.108  0.2894  0.2735 -0.3671
  324MPD2     C 4863   0.895   3.298  14.579 -0.0076 -0.1689  0.1932
  324MPD2    C1 4864   0.865   3.397  14.670  0.3269 -0.1547 -0.3494
  324MPD2    C2 4865   0.750   3.469  14.662  0.4201 -0.0656  0.0976
  324MPD2    C3 4866   0.660   3.438  14.557 -0.1678 -0.5503 -0.8740
  324MPD2    C4 4867   0.690   3.329  14.477  0.3375 -0.3755 -0.3763
  324MPD2    C5 4868   0.803   3.260  14.492 -0.0030  0.3595 -1.4077
  324MPD2     H 4869   0.732   3.554  14.726  0.7222  0.8326 -1.0062
  324MPD2    H1 4870   0.607   3.285  14.422 -1.5521  1.7372  0.7717
  324MPD2    H2 4871   0.990   3.247  14.590 -0.6339 -0.9819  1.7385
  324MPD2    H3 4872   0.820   3.183  14.418 -0.2628  0.4191 -1.5288
  324MPD2     N 4873   0.549   3.519  14.537  0.0035  0.1902 -0.0966
  324MPD2    H5 4874   0.501   3.486  14.454 -0.4769  0.8592 -0.0776
  324MPD2    N1 4875   0.963   3.446  14.765  0.0473  0.5080 -0.4744
  324MPD2    H7 4876   0.925   3.516  14.828  0.4985 -0.5309  0.9462
  325TMC3    C1 4877   0.412   3.717  14.525 -0.6793  0.2260 -0.0903
  325TMC3    C2 4878   0.347   3.653  14.422  0.4504  1.0772 -0.0332
  325TMC3    C3 4879   0.252   3.719  14.358  0.3350  0.6241  0.2393
  325TMC3    C4 4880   0.389   3.839  14.569  0.1705 -0.3663 -0.2166
  325TMC3    C5 4881   0.275   3.897  14.514 -0.2119  0.1221 -0.6048
  325TMC3    C6 4882   0.199   3.841  14.408  0.3533  0.4844 -0.4478
  325TMC3     C 4883   0.534   3.649  14.577  0.2477 -0.4344 -0.4044
  325TMC3     O 4884   0.602   3.722  14.652  0.2675 -0.2543 -0.2921
  325TMC3     H 4885   0.368   3.548  14.410  2.0385  1.2451  1.3597
  325TMC3    H1 4886   0.456   3.894  14.633 -1.8833 -0.5285  2.0683
  325TMC3    H2 4887   0.115   3.890  14.361 -1.4374 -0.3212  1.9527
  325TMC3    C7 4888   0.227   4.001  14.604  0.2731 -0.5462  0.1283
  325TMC3    C8 4889   0.175   3.634  14.265 -0.1889  0.1669 -0.0470
  325TMC3    O1 4890   0.307   4.076  14.659 -0.1791 -0.8903 -0.0958
  325TMC3    O2 4891   0.223   3.527  14.232 -0.3759 -0.3167 -0.3157
  326MPD2     C 4892   2.031   0.229  10.995  0.3385  0.1668  0.0157
  326MPD2    C1 4893   2.121   0.170  10.910  0.2516 -0.3055  0.0042
  326MPD2    C2 4894   2.226   0.093  10.953  0.2210  0.0980 -0.2265
  326MPD2    C3 4895   2.247   0.082  11.083 -0.7560 -0.1713 -0.2411
  326MPD2    C4 4896   2.169   0.153  11.177  0.7161  0.0386  0.2166
  326MPD2    C5 4897   2.058   0.223  11.126  0.1321 -0.5398  0.4818
  326MPD2     H 4898   2.296   0.057  10.879  0.8455  0.7324  0.0521
  326MPD2    H1 4899   2.189   0.160  11.283  1.1795  0.4251  0.1043
  326MPD2    H2 4900   1.948   0.293  10.968 -0.3094  0.0470  1.7070
  326MPD2    H3 4901   1.992   0.281  11.190 -0.3419  2.6051 -2.8650
  326MPD2     N 4902   2.367   0.029  11.135 -0.7842 -0.1162  0.4780
  326MPD2    H5 4903   2.402   0.054  11.227 -0.3842 -1.2394  0.6248
  326MPD2    N1 4904   2.101   0.181  10.773  0.4210  0.3600 -0.2701
  326MPD2    H7 4905   2.178   0.156  10.711  0.7444  2.6948 -0.7885
  327TMC3    C1 4906   2.011   0.207  10.569  0.0809 -0.1913  0.1741
  327TMC3    C2 4907   1.964   0.310  10.497 -0.5623  0.0865 -0.1541
  327TMC3    C3 4908   2.011   0.310  10.371  0.3119 -0.4334  0.8106
  327TMC3    C4 4909   2.094   0.109  10.528  0.4006 -0.1659  0.2877
  327TMC3    C5 4910   2.134   0.117  10.392 -0.5211 -0.8521 -0.2423
  327TMC3    C6 4911   2.100   0.223  10.314 -0.3073 -1.0903  0.4015
  327TMC3     C 4912   1.993   0.227  10.711  0.0313  0.1041  0.2379
  327TMC3     O 4913   1.892   0.285  10.749 -0.3792 -0.1091  0.5788
  327TMC3     H 4914   1.922   0.400  10.540 -1.7683 -0.7792  0.4817
  327TMC3    H1 4915   2.114   0.025  10.593 -1.2255  0.0738  1.0888
  327TMC3    H2 4916   2.125   0.220  10.209 -0.8082 -0.9530  0.2788
  327TMC3    C7 4917   2.262   0.048  10.353  0.6912 -0.5785 -0.1622
  327TMC3    C8 4918   1.977   0.425  10.295 -0.3949  0.0933 -0.6457
  327TMC3    O1 4919   2.319   0.100  10.259 -0.2309 -0.6140  0.1160
  327TMC3    O2 4920   2.058   0.453  10.209  0.1859  0.9681 -0.6687
  328MPD2     C 4921   3.861   4.165  17.337 -0.8047 -0.1075 -0.2642
  328MPD2    C1 4922   3.849   4.106  17.215 -0.0733  0.3309  0.3379
  328MPD2    C2 4923   3.840   4.194  17.108  0.8295  0.3002  0.6139
  328MPD2    C3 4924   3.844   4.336  17.120  0.0738 -0.3163  0.3101
  328MPD2    C4 4925   3.890   4.385  17.238 -0.4488  0.6131 -0.5978
  328MPD2    C5 4926   3.891   4.301  17.343 -0.0974 -0.0941  0.3676
  328MPD2     H 4927   3.835   4.150  17.009  0.3029  2.0326 -0.1249
  328MPD2    H1 4928   3.906   4.490  17.256  0.1237  0.6541 -1.3578
  328MPD2    H2 4929   3.859   4.113  17.432 -1.7749 -1.0390 -0.7977
  328MPD2    H3 4930   3.921   4.342  17.439 -0.1341  1.2144 -0.1724
  328MPD2     N 4931   3.805   4.431  17.015 -0.0224  0.3371 -0.2100
  328MPD2    H5 4932   3.817   4.530  17.033  2.5243  0.2767 -1.5112
  328MPD2    N1 4933   3.844   3.965  17.211 -0.4392  0.1065 -0.2834
  328MPD2    H7 4934   3.840   3.912  17.298  0.8499  0.9806  0.2982
  329TMC3    C1 4935   3.859   3.755  17.107 -0.0543 -0.4127 -0.2989
  329TMC3    C2 4936   3.878   3.699  17.232  0.0877  0.2812  0.1537
  329TMC3    C3 4937   3.926   3.573  17.234 -0.4286 -0.6057 -0.0468
  329TMC3    C4 4938   3.870   3.684  16.993 -0.8124 -0.4756  0.1794
  329TMC3    C5 4939   3.923   3.554  16.998 -0.3056 -0.6278 -0.1893
  329TMC3    C6 4940   3.957   3.498  17.119 -0.3816 -0.7286  0.1983
  329TMC3     C 4941   3.838   3.893  17.098 -0.2357  0.6245  0.1271
  329TMC3     O 4942   3.828   3.940  16.983 -0.2114  0.5169  0.4508
  329TMC3     H 4943   3.856   3.748  17.326  1.0336  1.8776 -0.4640
  329TMC3    H1 4944   3.837   3.733  16.902  0.1296  1.1679  0.7247
  329TMC3    H2 4945   3.996   3.397  17.119 -2.2405 -1.4452 -0.2307
  329TMC3    C7 4946   3.945   3.467  16.885 -0.3919  0.0008  0.0098
  329TMC3    C8 4947   3.915   3.495  17.351 -0.3437  0.5952  0.0853
  329TMC3    O1 4948   4.023   3.374  16.889 -0.6870  0.2475 -0.6209
  329TMC3    O2 4949   3.965   3.384  17.359 -0.2274  0.1251  0.0908
  330TMC3    C1 4950   2.225   3.707   9.655 -0.6709 -0.2169 -0.5130
  330TMC3    C2 4951   2.128   3.621   9.603 -0.0129 -0.3293  0.6339
  330TMC3    C3 4952   2.152   3.490   9.610  0.3356 -0.0380  0.3329
  330TMC3    C4 4953   2.344   3.649   9.702 -0.0113  0.1804 -0.3987
  330TMC3    C5 4954   2.356   3.513   9.720  0.2062  0.4649  0.1000
  330TMC3    C6 4955   2.257   3.430   9.674  0.1804  0.3162 -0.2186
  330TMC3     C 4956   2.231   3.848   9.648 -0.1286 -0.1101  0.1767
  330TMC3     O 4957   2.338   3.909   9.670  0.3208 -0.3858 -0.1684
  330TMC3     H 4958   2.039   3.659   9.555  0.6365  3.0548  2.0752
  330TMC3    H1 4959   2.417   3.719   9.741 -1.5652  0.8311  1.3804
  330TMC3    H2 4960   2.283   3.325   9.675  0.1982  0.3205 -0.2285
  330TMC3    C7 4961   2.471   3.452   9.784  0.9369  0.4315  0.5233
  330TMC3    C8 4962   2.051   3.398   9.562 -0.2421 -0.1134  0.3157
  330TMC3    O1 4963   2.475   3.328   9.794 -0.2244  0.4942  0.0008
  330TMC3    O2 4964   2.044   3.288   9.617  0.3275  0.1769  0.4042
  331MPD2     C 4965   0.880   3.136  13.081  0.3139  0.3819 -0.4871
  331MPD2    C1 4966   0.961   3.160  12.971 -0.7345  0.0084 -0.5247
  331MPD2    C2 4967   0.919   3.120  12.849 -0.1655 -0.7502  0.3839
  331MPD2    C3 4968   0.787   3.075  12.830 -0.8293 -0.0954  0.8779
  331MPD2    C4 4969   0.705   3.058  12.940 -0.6181  0.8864  0.6574
  331MPD2    C5 4970   0.755   3.093  13.062  0.0697  0.1919 -0.3958
  331MPD2     H 4971   0.976   3.139  12.759 -0.2345 -0.6072  0.3692
  331MPD2    H1 4972   0.600   3.032  12.929 -0.8684  1.2617  2.2014
  331MPD2    H2 4973   0.917   3.166  13.178  1.3584  4.5371 -2.1730
  331MPD2    H3 4974   0.687   3.089  13.146  0.6790 -2.5986 -0.0135
  331MPD2     N 4975   0.744   3.048  12.696 -0.2853 -0.0902 -0.0237
  331MPD2    H5 4976   0.811   3.070  12.623 -0.7908  0.2491 -0.3900
  331MPD2    N1 4977   1.086   3.224  12.991 -1.2783  0.1771  0.6199
  331MPD2    H7 4978   1.113   3.225  13.089 -0.5169  0.8031  0.4056
  332TMC3    C1 4979   0.631   2.920  12.523  0.5768  0.0570 -0.6656
  332TMC3    C2 4980   0.662   3.002  12.417 -0.0944 -0.8435 -0.0039
  332TMC3    C3 4981   0.645   2.935  12.295  0.3024  0.3002  0.2016
  332TMC3    C4 4982   0.598   2.789  12.515  0.7757 -0.2738 -0.4421
  332TMC3    C5 4983   0.576   2.734  12.394 -0.1197  0.4016 -0.2752
  332TMC3    C6 4984   0.607   2.807  12.284  0.1397 -0.1537 -0.1419
  332TMC3     C 4985   0.631   2.976  12.658  0.0531  0.6947  0.6819
  332TMC3     O 4986   0.544   2.934  12.735  0.2076  0.0506  0.3956
  332TMC3     H 4987   0.675   3.110  12.421 -0.1220 -0.9144  2.0032
  332TMC3    H1 4988   0.562   2.730  12.599  2.2895 -0.5942 -0.0159
  332TMC3    H2 4989   0.610   2.760  12.186  0.2379  1.7247 -1.0321
  332TMC3    C7 4990   0.607   2.596  12.373  0.4008  0.1337 -0.5251
  332TMC3    C8 4991   0.690   3.011  12.179  0.6731  0.1098  0.6548
  332TMC3    O1 4992   0.529   2.524  12.315 -0.6599  0.1997 -0.1097
  332TMC3    O2 4993   0.780   3.090  12.196  0.3838  0.0405 -0.5291
  333MPD2     C 4994   0.861   2.948  11.299 -0.3877  0.1244 -0.0221
  333MPD2    C1 4995   0.857   2.937  11.164 -0.4767  0.3230 -0.6933
  333MPD2    C2 4996   0.747   2.876  11.114 -0.1640 -0.7024 -0.0858
  333MPD2    C3 4997   0.661   2.805  11.199  0.0720 -0.1856 -0.2596
  333MPD2    C4 4998   0.669   2.817  11.336  0.0229 -0.0237  0.0614
  333MPD2    C5 4999   0.768   2.895  11.384  0.4460  1.0196  0.6314
  333MPD2     H 5000   0.745   2.847  11.010  2.6583 -2.5923  0.3885
  333MPD2    H1 5001   0.599   2.768  11.403  0.2392  0.1381  0.4044
  333MPD2    H2 5002   0.940   3.007  11.344  1.7495 -1.9747 -1.0197
  333MPD2    H3 5003   0.774   2.908  11.491  1.6469 -2.3793  0.9847
  333MPD2     N 5004   0.571   2.711  11.137  0.2733 -0.8000 -0.1375
  333MPD2    H5 5005   0.595   2.696  11.040 -1.4869  3.7224 -1.2995
  333MPD2    N1 5006   0.966   2.970  11.084 -0.0523  0.0390  0.1327
  333MPD2    H7 5007   1.056   2.989  11.126 -1.5149 -0.3375  3.4199
  334TMC3    C1 5008   1.100   3.053  10.911  0.7658  0.6305 -0.0600
  334TMC3    C2 5009   1.214   2.985  10.954 -0.3044 -0.0025 -0.0731
  334TMC3    C3 5010   1.329   3.032  10.912  0.4830  0.1552  0.6117
  334TMC3    C4 5011   1.103   3.156  10.821 -0.6808  0.5372  0.5372
  334TMC3    C5 5012   1.226   3.208  10.792 -0.6251  0.5520  0.1814
  334TMC3    C6 5013   1.336   3.144  10.832  0.0080  0.1384  0.4446
  334TMC3     C 5014   0.966   3.012  10.951 -0.2509 -0.1176  0.6338
  334TMC3     O 5015   0.871   3.022  10.876  0.2972  0.0724 -0.2363
  334TMC3     H 5016   1.207   2.908  11.030 -0.0921  1.5051  1.4535
  334TMC3    H1 5017   1.019   3.222  10.804 -1.6425 -1.0777 -0.9243
  334TMC3    H2 5018   1.428   3.195  10.805 -0.0073 -0.7173 -1.1638
  334TMC3    C7 5019   1.229   3.338  10.726  0.0076  0.0836  0.4748
  334TMC3    C8 5020   1.451   2.966  10.945 -0.4403 -0.3981  0.0172
  334TMC3    O1 5021   1.341   3.399  10.732  0.0662  0.1907  0.1359
  334TMC3    O2 5022   1.444   2.895  11.044  0.6506  0.3573  0.4969
  335TMC3    C1 5023   4.632   4.455  17.100  0.6504  0.5245 -0.0443
  335TMC3    C2 5024   4.632   4.374  16.990 -0.3975 -0.8457  0.0232
  335TMC3    C3 5025   0.002   4.375  16.891  0.2474  0.0096  0.2669
  335TMC3    C4 5026   0.025   4.535  17.120 -0.4176  0.2402 -0.1338
  335TMC3    C5 5027   0.120   4.526  17.021  0.1464 -0.0065 -0.4076
  335TMC3    C6 5028   0.108   4.460  16.897 -0.0514  0.1163 -0.3305
  335TMC3     C 5029   4.507   4.499  17.148  0.2143  0.0808 -0.0220
  335TMC3     O 5030   4.411   4.420  17.136 -0.2555  0.2092  0.4496
  335TMC3     H 5031   4.537   4.321  16.980 -1.1855 -0.0318  3.1738
  335TMC3    H1 5032   0.029   4.599  17.208  2.4685 -1.3328  0.8784
  335TMC3    H2 5033   0.184   4.467  16.820  2.2744 -1.8832  1.7656
  335TMC3    C7 5034   0.256   4.561  17.050 -0.3877 -0.2932  0.4613
  335TMC3    C8 5035   0.010   4.278  16.788 -0.4869 -0.4210 -0.2283
  335TMC3    O1 5036   0.335   4.478  17.004 -0.4314  0.5638 -0.2578
  335TMC3    O2 5037   0.105   4.289  16.709  0.1359  0.0288 -0.0277
  336MPD2     C 5038   0.002   2.224  16.346 -0.7516 -0.6690  0.3484
  336MPD2    C1 5039   4.682   2.176  16.223 -0.3921 -0.7133  1.1288
  336MPD2    C2 5040   4.669   2.040  16.200  0.7361  0.6926  0.3376
  336MPD2    C3 5041   4.683   1.952  16.303 -0.2676  0.3292 -0.1540
  336MPD2    C4 5042   0.011   1.998  16.423 -0.5031  0.2156 -0.2434
  336MPD2    C5 5043   0.034   2.130  16.437  0.6286  0.2845  0.4486
  336MPD2     H 5044   4.652   1.996  16.102 -0.8342  2.0104  0.0204
  336MPD2    H1 5045   0.035   1.929  16.503  0.9832  0.3633 -0.5556
  336MPD2    H2 5046   0.009   2.330  16.367 -1.0817 -1.1609  2.9888
  336MPD2    H3 5047   0.071   2.161  16.533  1.2805 -0.7422  0.5253
  336MPD2     N 5048   4.666   1.811  16.291 -0.0667 -0.1733  0.0735
  336MPD2    H5 5049   4.668   1.756  16.376 -0.4753  0.9668  0.8128
  336MPD2    N1 5050   4.627   2.263  16.120 -0.4690  0.4896 -0.2729
  336MPD2    H7 5051   4.594   2.214  16.037  0.8782 -0.2965 -0.3483
  337TMC3    C1 5052   4.595   2.465  16.001  0.0137  0.1794 -0.8861
  337TMC3    C2 5053   4.465   2.437  15.957 -0.8043  0.5914 -0.8875
  337TMC3    C3 5054   4.391   2.536  15.903  0.3617  0.5804  0.0993
  337TMC3    C4 5055   4.635   2.598  15.994 -0.4044 -0.4265 -0.1357
  337TMC3    C5 5056   4.543   2.697  15.961 -0.4068 -0.2350  0.3573
  337TMC3    C6 5057   4.427   2.669  15.904 -0.2795  0.5098 -0.3793
  337TMC3     C 5058   4.639   2.398  16.126 -0.2984 -0.6334 -0.2295
  337TMC3     O 5059   4.681   2.473  16.212  0.4322 -0.7327 -0.3014
  337TMC3     H 5060   4.416   2.340  15.957 -2.0125  1.2179  1.7517
  337TMC3    H1 5061   0.006   2.619  16.050 -0.6925 -0.8719  0.4963
  337TMC3    H2 5062   4.352   2.744  15.884 -0.4486  0.3930 -0.1839
  337TMC3    C7 5063   4.579   2.834  16.003  0.1685 -0.3190  0.2932
  337TMC3    C8 5064   4.244   2.508  15.912 -0.0246  0.6959  1.3886
  337TMC3    O1 5065   4.693   2.851  16.041 -0.0550  0.3358  0.1931
  337TMC3    O2 5066   4.212   2.429  16.000  0.3887 -0.1339  0.5167
  338MPD2     C 5067   3.979   2.034   0.620  0.2062 -0.3645  0.0977
  338MPD2    C1 5068   4.018   1.932   0.537 -0.9404 -0.2077  0.0603
  338MPD2    C2 5069   3.937   1.826   0.503 -0.3895 -0.0963  0.5000
  338MPD2    C3 5070   3.815   1.818   0.568 -0.4352  0.2861 -0.4091
  338MPD2    C4 5071   3.774   1.919   0.661 -0.2291  0.2901 -0.0965
  338MPD2    C5 5072   3.862   2.023   0.679  0.0372 -0.4038 -0.2206
  338MPD2     H 5073   3.976   1.749   0.437 -1.4655 -0.2831  0.0799
  338MPD2    H1 5074   3.679   1.922   0.713 -0.8215  0.6722 -1.2262
  338MPD2    H2 5075   4.033   2.125   0.641 -0.8403  0.9091 -2.7122
  338MPD2    H3 5076   3.834   2.094   0.757  0.0560 -2.0053  1.2389
  338MPD2     N 5077   3.730   1.709   0.541 -0.7341  0.6164 -0.0858
  338MPD2    H5 5078   3.758   1.649   0.465 -1.8577  1.8799 -1.5037
  338MPD2    N1 5079   4.147   1.932   0.469  0.5347  0.0185  0.3275
  338MPD2    H7 5080   4.166   1.869   0.392  1.6573  1.1744 -0.3522
  339TMC3    C1 5081   3.548   1.577   0.523  0.5087 -0.2767  0.1577
  339TMC3    C2 5082   3.573   1.451   0.560  0.6210  0.1619  0.5449
  339TMC3    C3 5083   3.630   1.363   0.469 -0.4011  0.8168 -0.5243
  339TMC3    C4 5084   3.566   1.606   0.392 -0.0568  0.5188  0.1158
  339TMC3    C5 5085   3.601   1.517   0.299 -0.3036  0.2231 -0.8735
  339TMC3    C6 5086   3.649   1.397   0.339 -0.1046  0.3445 -0.6305
  339TMC3     C 5087   3.616   1.675   0.602  0.0665 -0.2243 -0.5488
  339TMC3     O 5088   3.568   1.708   0.707  0.0560  0.1321 -0.1474
  339TMC3     H 5089   3.567   1.438   0.667  0.0722 -0.7619  0.3976
  339TMC3    H1 5090   3.550   1.710   0.365  0.5566  0.4834 -0.4043
  339TMC3    H2 5091   3.679   1.318   0.270 -0.4838  0.7298 -1.2347
  339TMC3    C7 5092   3.664   1.573   0.184 -0.2752 -0.1841 -0.4762
  339TMC3    C8 5093   3.688   1.238   0.504 -0.1076 -0.2459 -0.2110
  339TMC3    O1 5094   3.694   1.693   0.190 -0.4317  0.1978  0.0425
  339TMC3    O2 5095   3.766   1.189   0.422  0.0838  0.2431  0.1938
  340MPD2     C 5096   1.053   4.466  10.078  0.0737  0.0230  0.2933
  340MPD2    C1 5097   1.059   4.332  10.053  0.0473 -0.3289  0.2748
  340MPD2    C2 5098   1.139   4.250  10.135 -0.1879 -0.4152 -0.0906
  340MPD2    C3 5099   1.212   4.303  10.243  0.2356 -0.1854  0.3808
  340MPD2    C4 5100   1.202   4.441  10.265 -0.5664 -0.1357  0.1035
  340MPD2    C5 5101   1.118   4.517  10.190  0.3647  0.5289 -0.6257
  340MPD2     H 5102   1.143   4.143  10.117  1.1544 -0.0239 -2.1088
  340MPD2    H1 5103   1.256   4.478  10.352 -1.7975  1.2536  0.2674
  340MPD2    H2 5104   0.991   4.531  10.017  1.0616  0.1730 -0.5630
  340MPD2    H3 5105   1.110   4.621  10.221  1.4095 -0.1569  1.9611
  340MPD2     N 5106   1.303   4.237  10.326 -0.6804 -0.2642 -0.2552
  340MPD2    H5 5107   1.353   4.284  10.401  0.2663 -1.2865 -0.2346
  340MPD2    N1 5108   0.994   4.280   9.940 -0.4358 -0.2457 -0.0140
  340MPD2    H7 5109   0.945   4.346   9.881 -0.7044 -0.0064  0.4738
  341TMC3    C1 5110   0.923   4.136   9.774 -0.2054 -0.1494  0.0574
  341TMC3    C2 5111   0.887   4.010   9.736  0.2592 -0.2992  0.6504
  341TMC3    C3 5112   0.858   3.985   9.608 -0.5137  0.5275 -0.2626
  341TMC3    C4 5113   0.939   4.243   9.694  0.4242  0.4332 -0.4552
  341TMC3    C5 5114   0.902   4.215   9.563 -0.2016  0.1735  0.7904
  341TMC3    C6 5115   0.865   4.088   9.521  0.0546  0.5086 -0.6436
  341TMC3     C 5116   0.981   4.145   9.910 -0.3808  0.3434 -0.6384
  341TMC3     O 5117   1.006   4.046   9.976  0.1519 -0.2773 -0.1329
  341TMC3     H 5118   0.877   3.929   9.809 -1.5464  0.2926  1.0437
  341TMC3    H1 5119   1.001   4.329   9.717 -1.2667  1.5166  0.0420
  341TMC3    H2 5120   0.846   4.077   9.415 -2.8780 -0.0114 -0.0875
  341TMC3    C7 5121   0.930   4.318   9.468 -0.3304  0.4790  0.4117
  341TMC3    C8 5122   0.799   3.859   9.563  0.4443  0.0280 -0.4582
  341TMC3    O1 5123   0.950   4.277   9.351 -0.0045  0.3821  0.2496
  341TMC3    O2 5124   0.774   3.783   9.653 -0.7516  0.5093  0.3725
  342MPD2     C 5125   2.811   2.640   0.014 -0.1883  0.1516 -0.4750
  342MPD2    C1 5126   2.882   2.679  17.579  0.5309  0.2113  0.0809
  342MPD2    C2 5127   2.915   2.810  17.566 -0.0242 -0.4132 -0.1958
  342MPD2    C3 5128   2.876   2.901  17.665  1.0115  0.0391 -0.4756
  342MPD2    C4 5129   2.799   2.866   0.095 -0.0698  0.8822 -0.3414
  342MPD2    C5 5130   2.771   2.735   0.111  0.0450 -1.0813  0.3016
  342MPD2     H 5131   2.965   2.847  17.477 -0.0740  2.4091  0.9774
  342MPD2    H1 5132   2.774   2.938   0.172  1.8967  0.9182  0.2677
  342MPD2    H2 5133   2.779   2.539   0.037  0.4040  0.4717  1.8214
  342MPD2    H3 5134   2.709   2.703   0.194  0.1337 -2.1442 -0.0398
  342MPD2     N 5135   2.913   3.044  17.662  0.2474  0.6262 -0.7777
  342MPD2    H5 5136   2.878   3.107   0.053 -0.1584  2.3143 -2.4667
  342MPD2    N1 5137   2.931   2.587  17.484 -0.3843 -0.4499 -0.1650
  342MPD2    H7 5138   2.983   2.628  17.407 -0.0871 -0.2692  0.1337
  343TMC3    C1 5139   2.921   2.379  17.360  0.5401  0.4774  0.1347
  343TMC3    C2 5140   3.049   2.377  17.305 -0.2170  0.3257  0.0053
  343TMC3    C3 5141   3.087   2.282  17.217 -0.5170  0.0895  0.0936
  343TMC3    C4 5142   2.843   2.273  17.339 -0.4649 -0.5035 -0.2464
  343TMC3    C5 5143   2.888   2.168  17.267 -0.1890 -0.4172 -0.2100
  343TMC3    C6 5144   3.010   2.173  17.200  0.2774 -0.1421 -0.2696
  343TMC3     C 5145   2.896   2.453  17.482  0.1181 -0.0786  0.5841
  343TMC3     O 5146   2.844   2.385  17.570  0.3764  0.3264  0.0414
  343TMC3     H 5147   3.130   2.442  17.336 -1.3426  1.4670  0.5895
  343TMC3    H1 5148   2.743   2.271  17.380  0.3827  0.9333  1.9065
  343TMC3    H2 5149   3.048   2.082  17.153 -0.4510 -0.3026 -0.5598
  343TMC3    C7 5150   2.827   2.040  17.297  0.4097  0.5039 -0.2801
  343TMC3    C8 5151   3.225   2.288  17.171 -0.1073  0.3079 -0.2551
  343TMC3    O1 5152   2.875   1.945  17.241  0.7649  0.4464 -0.4716
  343TMC3    O2 5153   3.291   2.381  17.218  0.1680  0.4441 -0.4216
  344MPD2     C 5154   4.312   1.956  10.858 -0.4938  0.1560 -0.7411
  344MPD2    C1 5155   4.340   1.923  10.729  0.2792  0.8556 -0.1142
  344MPD2    C2 5156   4.364   2.030  10.631 -0.2151  0.2807  0.0822
  344MPD2    C3 5157   4.353   2.164  10.668 -0.3264 -0.6019 -0.2366
  344MPD2    C4 5158   4.335   2.190  10.809  0.4534  0.1831  0.6584
  344MPD2    C5 5159   4.324   2.089  10.895  0.0406  0.1437  0.0023
  344MPD2     H 5160   4.385   2.000  10.529 -0.9930 -0.3558  0.1081
  344MPD2    H1 5161   4.343   2.291  10.849  1.2886  0.8183 -1.1307
  344MPD2    H2 5162   4.316   1.886  10.941 -1.0160 -0.8927 -1.5983
  344MPD2    H3 5163   4.327   2.117  11.000 -0.0947  0.8011 -0.1720
  344MPD2     N 5164   4.358   2.269  10.578 -0.0359  0.5612  0.1056
  344MPD2    H5 5165   4.340   2.362  10.614  0.2613 -0.1391  2.0665
  344MPD2    N1 5166   4.333   1.790  10.685 -0.0853 -0.4792  0.9315
  344MPD2    H7 5167   4.360   1.765  10.590  1.4851  0.3458  1.1629
  345TMC3    C1 5168   4.447   2.390  10.399 -0.7285 -0.2513  0.0095
  345TMC3    C2 5169   4.520   2.463  10.490  0.5861 -0.0959 -0.7815
  345TMC3    C3 5170   4.602   2.570  10.445 -0.2466 -0.0004  0.1782
  345TMC3    C4 5171   4.456   2.418  10.266  0.2363  0.1153 -0.4894
  345TMC3    C5 5172   4.528   2.528  10.223  0.6081  0.0026 -0.6552
  345TMC3    C6 5173   4.600   2.604  10.309 -0.0398  0.0504 -0.2713
  345TMC3     C 5174   4.392   2.266  10.445 -0.4102  0.4090  0.0322
  345TMC3     O 5175   4.404   2.169  10.374  0.2812  0.3034  0.1778
  345TMC3     H 5176   4.522   2.439  10.596  0.9370  0.5906 -0.6380
  345TMC3    H1 5177   4.396   2.356  10.200 -0.4540 -1.6936  1.8347
  345TMC3    H2 5178   4.647   2.697  10.281  0.6794 -0.5637 -1.0879
  345TMC3    C7 5179   4.498   2.596  10.103 -0.3135 -0.0260 -0.1467
  345TMC3    C8 5180   4.641   2.682  10.535 -0.0664 -0.1293  0.2594
  345TMC3    O1 5181   4.586   2.670  10.064  0.4598  0.3716 -0.5769
  345TMC3    O2 5182   4.708   2.777  10.487  0.1715 -0.1775  0.3209
  346MPD2     C 5183   3.903   3.510  14.235 -0.4508 -0.5135  0.3799
  346MPD2    C1 5184   4.006   3.609  14.237  0.4684 -0.8462  0.2511
  346MPD2    C2 5185   4.036   3.664  14.358  0.9334 -0.9383  0.3967
  346MPD2    C3 5186   3.976   3.633  14.469  0.6785  0.0675 -0.0621
  346MPD2    C4 5187   3.881   3.529  14.467 -0.7085  0.3613 -0.2986
  346MPD2    C5 5188   3.852   3.465  14.349 -0.6283  0.7443  0.5841
  346MPD2     H 5189   4.115   3.739  14.356  1.9337 -2.0112 -0.7329
  346MPD2    H1 5190   3.831   3.503  14.560 -0.5070  0.9708 -0.0201
  346MPD2    H2 5191   3.877   3.460  14.142 -1.0805  1.5163 -0.5258
  346MPD2    H3 5192   3.778   3.386  14.350 -2.2608  2.2383 -1.6988
  346MPD2     N 5193   4.013   3.708  14.586 -0.0900 -0.1217  0.5698
  346MPD2    H5 5194   4.095   3.767  14.583 -0.1078 -0.0824  0.8259
  346MPD2    N1 5195   4.057   3.679  14.123  0.0130  0.1720  0.1513
  346MPD2    H7 5196   4.125   3.753  14.137 -1.1954  1.3526 -0.2587
  347TMC3    C1 5197   4.007   3.783  14.811 -0.0476 -0.6263  0.4535
  347TMC3    C2 5198   4.090   3.875  14.753  0.0417  0.2538  0.2122
  347TMC3    C3 5199   4.186   3.930  14.833 -0.2484  0.2286  0.4141
  347TMC3    C4 5200   4.020   3.745  14.945  0.3132  0.4286 -0.3423
  347TMC3    C5 5201   4.116   3.809  15.014 -0.3798 -0.3184 -0.1695
  347TMC3    C6 5202   4.203   3.906  14.967  0.3100  0.0533 -0.4634
  347TMC3     C 5203   3.950   3.691  14.710  0.1779  0.4440  0.0122
  347TMC3     O 5204   3.882   3.598  14.751  0.4309 -0.3149 -0.0017
  347TMC3     H 5205   4.073   3.921  14.657 -0.7823  0.7835  0.6112
  347TMC3    H1 5206   3.963   3.663  14.987  3.0304  0.0011  2.5528
  347TMC3    H2 5207   4.272   3.963  15.028  3.0674  1.3344 -4.8478
  347TMC3    C7 5208   4.098   3.796  15.160  0.8335  0.6236  0.5679
  347TMC3    C8 5209   4.305   3.972  14.760  0.7186 -0.3207 -0.4337
  347TMC3    O1 5210   4.007   3.731  15.206  0.0341 -0.9365 -0.6927
  347TMC3    O2 5211   4.332   3.923  14.652 -0.7066  0.3563  0.1844
  348MPD2     C 5212   2.573   3.314  11.755 -0.4037  0.2212 -0.6930
  348MPD2    C1 5213   2.692   3.380  11.754  0.2845 -0.1793 -0.4413
  348MPD2    C2 5214   2.741   3.440  11.642  0.6680  0.5048 -0.6933
  348MPD2    C3 5215   2.669   3.425  11.523 -0.4738  0.1603  0.2473
  348MPD2    C4 5216   2.550   3.354  11.518 -0.1446 -0.0218  0.6315
  348MPD2    C5 5217   2.497   3.295  11.636 -0.3186  0.4012  0.3184
  348MPD2     H 5218   2.837   3.489  11.655 -0.0077  1.7628 -0.4352
  348MPD2    H1 5219   2.510   3.338  11.419  1.2367 -0.6068  0.1665
  348MPD2    H2 5220   2.533   3.267  11.844  0.9392 -1.5627 -1.0360
  348MPD2    H3 5221   2.406   3.236  11.639  0.3894 -0.7129 -0.1377
  348MPD2     N 5222   2.703   3.480  11.397 -0.1842  0.6163  0.2637
  348MPD2    H5 5223   2.648   3.475  11.313  1.2609  0.2801 -0.6597
  348MPD2    N1 5224   2.779   3.397  11.865 -0.9350  0.5781 -0.1482
  348MPD2    H7 5225   2.860   3.455  11.847 -2.2907  2.0788 -1.4569
  349TMC3    C1 5226   2.866   3.364  12.081 -1.0953 -0.0976 -0.0828
  349TMC3    C2 5227   2.903   3.251  12.144  0.0151 -0.6149  0.0700
  349TMC3    C3 5228   3.038   3.216  12.133  0.1999  0.1618 -0.3075
  349TMC3    C4 5229   2.954   3.447  12.029  0.0023  0.3606 -0.0374
  349TMC3    C5 5230   3.084   3.424  12.027 -0.6876  0.3057 -0.1084
  349TMC3    C6 5231   3.128   3.300  12.066  0.0193 -0.1764 -0.3464
  349TMC3     C 5232   2.760   3.332  11.988 -0.0088  0.0111  0.4942
  349TMC3     O 5233   2.678   3.249  12.011 -0.4499  0.3639 -0.0993
  349TMC3     H 5234   2.821   3.184  12.166 -1.2543  0.7467 -0.5039
  349TMC3    H1 5235   2.931   3.550  12.003  2.2456  0.6883 -0.7301
  349TMC3    H2 5236   3.230   3.270  12.049  0.2123 -0.1640  0.7485
  349TMC3    C7 5237   3.141   3.447  11.900  0.6574 -1.0176 -0.3453
  349TMC3    C8 5238   3.100   3.110  12.213  0.3711 -0.1017 -0.1453
  349TMC3    O1 5239   3.060   3.476  11.811  0.2203 -0.2109 -0.3488
  349TMC3    O2 5240   3.045   3.004  12.236 -0.3051  0.4984 -0.3068
  350MPD2     C 5241   1.521   0.976   9.751  0.0616  0.4402 -0.0099
  350MPD2    C1 5242   1.653   1.018   9.742 -0.5707 -0.5004 -0.2324
  350MPD2    C2 5243   1.708   1.107   9.832 -0.3523 -0.1640  0.3510
  350MPD2    C3 5244   1.628   1.159   9.934 -0.3408 -0.2434  0.3306
  350MPD2    C4 5245   1.495   1.119   9.941  0.4693 -0.2372  0.9716
  350MPD2    C5 5246   1.441   1.035   9.849  0.6763  0.0796  0.3699
  350MPD2     H 5247   1.811   1.138   9.824 -0.6633  0.6900 -0.3347
  350MPD2    H1 5248   1.429   1.154  10.020  1.7498 -0.8393  2.3279
  350MPD2    H2 5249   1.468   0.911   9.682 -0.1399  2.0332 -1.3547
  350MPD2    H3 5250   1.334   1.017   9.855  0.8918 -1.6060 -0.7640
  350MPD2     N 5251   1.678   1.254  10.031  0.2543  0.0940  0.4276
  350MPD2    H5 5252   1.606   1.292  10.092 -1.0955  1.2712 -1.8813
  350MPD2    N1 5253   1.734   0.974   9.642 -0.1581 -0.0367 -0.0616
  350MPD2    H7 5254   1.826   1.018   9.641 -1.6588  3.1229  0.7189
  351TMC3    C1 5255   1.817   0.899   9.448  0.3977  0.0019 -0.0959
  351TMC3    C2 5256   1.948   0.911   9.493 -0.4146  0.2305  0.4737
  351TMC3    C3 5257   2.038   0.925   9.389 -0.0212  0.4313  0.1990
  351TMC3    C4 5258   1.777   0.887   9.320 -0.0452  1.0257 -0.7321
  351TMC3    C5 5259   1.878   0.896   9.230 -0.4235  0.2923  0.2386
  351TMC3    C6 5260   2.010   0.913   9.261 -0.0401 -0.1713 -0.6582
  351TMC3     C 5261   1.708   0.900   9.537  0.2007 -0.1256 -0.0187
  351TMC3     O 5262   1.605   0.835   9.507  0.0455 -0.0943  0.6385
  351TMC3     H 5263   1.981   0.881   9.591  1.1346  0.3569 -0.0052
  351TMC3    H1 5264   1.676   0.855   9.298  0.5416 -0.2743 -1.5660
  351TMC3    H2 5265   2.080   0.917   9.179  1.4712  2.2935  0.7677
  351TMC3    C7 5266   1.842   0.863   9.089  0.6664  0.1875  0.0704
  351TMC3    C8 5267   2.181   0.914   9.424  1.0550 -0.1528 -0.2441
  351TMC3    O1 5268   1.933   0.876   9.006 -0.2413 -0.0220  0.1306
  351TMC3    O2 5269   2.247   0.868   9.332  0.3780  0.0619  0.0339
  352MPD2     C 5270   0.231   3.892   0.852 -0.1139  0.5055  0.3221
  352MPD2    C1 5271   0.103   3.891   0.907 -0.2144 -0.8820 -0.6776
  352MPD2    C2 5272   0.080   3.794   1.005  0.2275 -0.1372 -0.2736
  352MPD2    C3 5273   0.176   3.702   1.054 -0.1509 -0.0080 -0.5698
  352MPD2    C4 5274   0.301   3.705   0.997 -0.5755 -0.0547 -0.3560
  352MPD2    C5 5275   0.327   3.799   0.900 -0.0141  0.9431  0.2290
  352MPD2     H 5276   4.704   3.807   1.056  1.7480  1.9965  2.0605
  352MPD2    H1 5277   0.377   3.637   1.032  0.8775  0.7045 -2.0424
  352MPD2    H2 5278   0.256   3.971   0.782 -0.0289  0.1621 -0.0300
  352MPD2    H3 5279   0.424   3.800   0.851  0.5491 -1.5451  1.2770
  352MPD2     N 5280   0.152   3.611   1.160  0.5729 -0.1147  0.7427
  352MPD2    H5 5281   0.228   3.547   1.179  1.0398  0.0913 -0.4242
  352MPD2    N1 5282   0.007   3.989   0.862 -0.3319  0.8912  1.2210
  352MPD2    H7 5283   0.026   4.038   0.776 -2.6625 -0.5158 -0.0902
  353TMC3    C1 5284   0.050   3.505   1.346  0.2814  0.2255  0.5554
  353TMC3    C2 5285   0.174   3.460   1.387  0.2991  0.1439  0.7227
  353TMC3    C3 5286   0.179   3.337   1.444 -0.0060 -0.2746 -0.0651
  353TMC3    C4 5287   4.659   3.425   1.379  0.2350  0.7220 -0.1511
  353TMC3    C5 5288   4.668   3.304   1.443  0.4027  0.2586  0.6621
  353TMC3    C6 5289   0.074   3.261   1.480 -0.2552 -0.3235  0.0695
  353TMC3     C 5290   0.030   3.594   1.227  0.3673  0.0966 -0.1290
  353TMC3     O 5291   4.641   3.646   1.216  0.2508  0.3456 -0.0263
  353TMC3     H 5292   0.264   3.515   1.363  1.2984 -1.8873 -0.1771
  353TMC3    H1 5293   4.567   3.474   1.350 -0.6461 -0.8593 -0.0662
  353TMC3    H2 5294   0.075   3.171   1.541 -1.4390 -0.2768  0.1629
  353TMC3    C7 5295   4.579   3.190   1.410  0.9053 -0.1797 -0.4766
  353TMC3    C8 5296   0.307   3.291   1.497 -0.0293  0.2732 -0.3670
  353TMC3    O1 5297   4.630   3.076   1.405  0.7334 -0.7092 -0.2612
  353TMC3    O2 5298   0.389   3.378   1.514 -0.3300 -0.1338  1.0015
  354TMC3    C1 5299   2.041   0.006  13.429  0.2647 -0.1559 -0.3962
  354TMC3    C2 5300   1.960   0.109  13.379  0.2357  0.0457 -0.7320
  354TMC3    C3 5301   2.001   0.181  13.269  0.4555 -0.6148 -0.3403
  354TMC3    C4 5302   2.170   4.715  13.383  0.4770  0.3270  0.1095
  354TMC3    C5 5303   2.204   0.070  13.276  0.3368  0.3657 -0.2308
  354TMC3    C6 5304   2.121   0.168  13.213  0.6027  0.7455 -0.6325
  354TMC3     C 5305   1.997   4.660  13.543  0.0876 -0.2614 -0.8304
  354TMC3     O 5306   1.876   4.653  13.556  0.5284 -0.1940 -0.1252
  354TMC3     H 5307   1.867   0.128  13.432 -0.4058 -2.0622 -1.0852
  354TMC3    H1 5308   2.226   4.630  13.419  3.7718  1.5590 -2.0805
  354TMC3    H2 5309   2.143   0.206  13.114  0.7754  0.4862 -0.6925
  354TMC3    C7 5310   2.338   0.040  13.228  0.4227  0.2249 -0.6305
  354TMC3    C8 5311   1.937   0.311  13.253  0.0848  0.3938  0.0557
  354TMC3    O1 5312   2.399   4.674  13.289  0.4217 -0.0036  0.0354
  354TMC3    O2 5313   1.831   0.323  13.312 -0.2047 -0.3740  0.5394
  355MPD2     C 5314   1.938   0.896  11.648 -0.1176 -0.1098 -0.3187
  355MPD2    C1 5315   2.065   0.898  11.596 -0.2206  0.5518  0.2651
  355MPD2    C2 5316   2.174   0.877  11.675 -0.4765 -0.6777  0.0554
  355MPD2    C3 5317   2.154   0.850  11.812 -0.8834  0.1299  0.5156
  355MPD2    C4 5318   2.022   0.838  11.859 -0.0769  0.2217 -0.1230
  355MPD2    C5 5319   1.913   0.871  11.780  0.2270 -0.4345 -0.0076
  355MPD2     H 5320   2.274   0.872  11.635 -0.4389  1.2140 -0.0914
  355MPD2    H1 5321   2.003   0.814  11.963  0.6335  0.0831 -0.0253
  355MPD2    H2 5322   1.855   0.933  11.590 -1.9120 -2.1823  0.9334
  355MPD2    H3 5323   1.812   0.870  11.821 -0.5116 -2.5047 -1.8803
  355MPD2     N 5324   2.258   0.831  11.902 -0.5592  0.4755  0.4172
  355MPD2    H5 5325   2.235   0.808  11.998  2.4155  0.8426  1.2222
  355MPD2    N1 5326   2.082   0.939  11.464 -0.3516 -0.2482  0.5525
  355MPD2    H7 5327   1.996   0.962  11.414  0.3253 -1.2268 -1.0492
  356TMC3    C1 5328   2.479   0.818  11.984 -0.1965  0.0429  0.5333
  356TMC3    C2 5329   2.594   0.742  11.957  0.2532 -0.2158 -0.3899
  356TMC3    C3 5330   2.712   0.777  12.022 -0.0837  0.2496 -0.6752
  356TMC3    C4 5331   2.482   0.913  12.087  0.2010 -0.0427  0.4908
  356TMC3    C5 5332   2.601   0.941  12.142  0.1553 -0.2130  0.3427
  356TMC3    C6 5333   2.717   0.879  12.111  0.3729 -0.1094  0.1470
  356TMC3     C 5334   2.389   0.830  11.870  0.1263  0.3603  0.2593
  356TMC3     O 5335   2.444   0.841  11.756 -0.2076  0.3540  0.2182
  356TMC3     H 5336   2.607   0.667  11.880 -1.1823  0.1535 -0.9964
  356TMC3    H1 5337   2.393   0.956  12.129  1.0638  0.4708  1.7753
  356TMC3    H2 5338   2.808   0.919  12.155 -1.5521  3.0355  1.2492
  356TMC3    C7 5339   2.607   1.054  12.237 -0.5807  0.2434 -0.0941
  356TMC3    C8 5340   2.843   0.737  11.967 -0.5140  0.6329 -0.0345
  356TMC3    O1 5341   2.649   1.039  12.349 -0.0575 -0.5822 -0.9024
  356TMC3    O2 5342   2.870   0.621  11.947 -0.5801  0.1921  0.5467
  357MPD2     C 5343   1.435   1.277   0.597  0.0778  0.1752  0.2261
  357MPD2    C1 5344   1.453   1.207   0.707 -0.4552 -0.5054  0.0540
  357MPD2    C2 5345   1.389   1.252   0.828 -0.5620 -0.6596  0.0111
  357MPD2    C3 5346   1.295   1.359   0.828  0.6883 -0.2847  0.0005
  357MPD2    C4 5347   1.282   1.428   0.709 -0.4647  0.3023 -0.1952
  357MPD2    C5 5348   1.350   1.392   0.596 -0.5552 -0.1057 -0.5656
  357MPD2     H 5349   1.407   1.197   0.920 -0.6902  1.1792  1.1342
  357MPD2    H1 5350   1.220   1.516   0.694 -1.4140 -0.3100  0.1544
  357MPD2    H2 5351   1.481   1.252   0.502 -0.0088 -0.1944  0.2825
  357MPD2    H3 5352   1.339   1.441   0.500 -0.8396 -1.9100 -1.4573
  357MPD2     N 5353   1.209   1.395   0.936  0.4064 -0.0011  0.3988
  357MPD2    H5 5354   1.142   1.470   0.928  2.2658  1.7335  1.1121
  357MPD2    N1 5355   1.545   1.095   0.691  0.0628 -0.1814 -0.0021
  357MPD2    H7 5356   1.577   1.078   0.597 -2.4288 -1.3238 -0.6402
  358TMC3    C1 5357   1.639   0.883   0.742 -0.4739  0.0926 -0.3768
  358TMC3    C2 5358   1.657   0.857   0.612  0.7262 -0.0514 -0.0694
  358TMC3    C3 5359   1.708   0.735   0.581 -1.0784 -0.0532  0.3581
  358TMC3    C4 5360   1.667   0.792   0.839  1.0533 -0.7880 -0.0414
  358TMC3    C5 5361   1.713   0.666   0.802 -1.1907  0.0696 -0.0616
  358TMC3    C6 5362   1.745   0.638   0.671 -0.5956  0.0727 -0.4731
  358TMC3     C 5363   1.568   0.997   0.787  0.6164 -0.1685 -0.0524
  358TMC3     O 5364   1.526   1.013   0.901 -0.3641 -0.1597  0.0481
  358TMC3     H 5365   1.621   0.924   0.535  2.1060 -0.7325 -1.3160
  358TMC3    H1 5366   1.657   0.814   0.944 -0.8092 -1.6364 -0.0533
  358TMC3    H2 5367   1.768   0.534   0.648  0.9331 -0.1690  2.1579
  358TMC3    C7 5368   1.714   0.552   0.894 -0.6484 -0.6336 -0.6024
  358TMC3    C8 5369   1.750   0.715   0.450  0.4437 -0.4364  0.1343
  358TMC3    O1 5370   1.726   0.440   0.846  0.4093  0.1388  0.5112
  358TMC3    O2 5371   1.685   0.787   0.378  0.9979  0.0143 -0.1085
  359MPD2     C 5372   2.779   4.657  12.402  0.1715 -0.0900  0.0212
  359MPD2    C1 5373   2.766   4.563  12.304  0.0022  0.1859 -0.2922
  359MPD2    C2 5374   2.715   4.433  12.327 -0.0117  0.0380 -0.0940
  359MPD2    C3 5375   2.650   4.415  12.448 -0.6260 -0.0105 -0.3233
  359MPD2    C4 5376   2.664   4.514  12.549 -0.4524 -0.5473  0.2909
  359MPD2    C5 5377   2.721   4.639  12.527  0.0278  1.0112  0.7977
  359MPD2     H 5378   2.710   4.368  12.240  0.4446  0.8085 -0.6834
  359MPD2    H1 5379   2.626   4.495  12.648 -1.9959  1.1295  0.0341
  359MPD2    H2 5380   2.825   0.034  12.389  1.0251 -0.4188  0.6097
  359MPD2    H3 5381   2.746   4.708  12.608  2.2105  0.3245  0.6984
  359MPD2     N 5382   2.569   4.303  12.477 -0.4477 -0.1333 -0.1518
  359MPD2    H5 5383   2.511   4.304  12.559  0.7398  0.8364  0.6730
  359MPD2    N1 5384   2.812   4.582  12.167  0.3763  0.3149 -0.8986
  359MPD2    H7 5385   2.791   4.513  12.096 -0.1931 -0.4696  0.0259
  360TMC3    C1 5386   2.920   4.673  11.986  0.7121 -0.2354 -0.6509
  360TMC3    C2 5387   3.049   4.700  11.950 -0.5037 -0.3646  0.8373
  360TMC3    C3 5388   3.087   4.654  11.831 -0.4175  0.8041  0.1334
  360TMC3    C4 5389   2.827   4.616  11.906  0.1218  0.4726  0.5468
  360TMC3    C5 5390   2.870   4.583  11.781 -0.1554  0.1891 -0.7523
  360TMC3    C6 5391   2.997   4.600  11.743 -0.5002  0.8879  0.0629
  360TMC3     C 5392   2.887   4.692  12.127 -0.1519  0.6813 -0.7297
  360TMC3     O 5393   2.944   0.049  12.201  0.5690 -0.3523 -0.0303
  360TMC3     H 5394   3.111   0.027  12.026 -4.0035  1.9428  2.3025
  360TMC3    H1 5395   2.723   4.602  11.934 -0.9636 -1.1182 -4.1990
  360TMC3    H2 5396   3.014   4.575  11.639 -0.5557 -0.4970  0.3850
  360TMC3    C7 5397   2.786   4.520  11.686 -0.4341  0.3763  0.4139
  360TMC3    C8 5398   3.202   0.000  11.782 -0.4226  0.4592  0.3671
  360TMC3    O1 5399   2.846   4.436  11.616  0.1607 -0.3945  0.6147
  360TMC3    O2 5400   3.253   0.090  11.850 -0.1881  0.1898  0.2251
  361MPD2     C 5401   3.578   2.995  16.586  0.2542  0.0405  0.4886
  361MPD2    C1 5402   3.603   3.031  16.717 -0.2123 -0.0778  0.8357
  361MPD2    C2 5403   3.716   2.986  16.788  0.2321  0.5091 -0.2377
  361MPD2    C3 5404   3.804   2.896  16.725  0.2955  0.1459  0.0898
  361MPD2    C4 5405   3.778   2.853  16.592  0.0279  1.2874 -0.0150
  361MPD2    C5 5406   3.665   2.903  16.531  0.2821 -0.9632 -0.9630
  361MPD2     H 5407   3.738   3.018  16.889  1.9930 -0.7436 -0.2274
  361MPD2    H1 5408   3.844   2.779  16.549 -1.8672 -0.3496 -0.1164
  361MPD2    H2 5409   3.495   3.030  16.526  1.4174  2.0608  0.0625
  361MPD2    H3 5410   3.653   2.863  16.431  1.5304 -0.1665 -1.4294
  361MPD2     N 5411   3.923   2.844  16.784  0.2704  0.1178  0.0143
  361MPD2    H5 5412   3.977   2.777  16.731 -0.9586 -0.4192 -0.5524
  361MPD2    N1 5413   3.528   3.136  16.769  0.4546 -0.6678  0.2093
  361MPD2    H7 5414   3.479   3.196  16.704 -1.1890 -0.0830  2.0013
  362TMC3    C1 5415   3.433   3.272  16.941  0.2738 -0.4936 -0.0908
  362TMC3    C2 5416   3.332   3.247  17.029 -0.2743 -0.0512 -0.4374
  362TMC3    C3 5417   3.226   3.339  17.044  0.5901  1.3167  0.2900
  362TMC3    C4 5418   3.440   3.381  16.855 -0.0044 -0.0245 -0.3957
  362TMC3    C5 5419   3.331   3.467  16.874  0.5022 -0.8632 -0.0584
  362TMC3    C6 5420   3.229   3.448  16.963  1.4064 -0.1365  0.5151
  362TMC3     C 5421   3.510   3.157  16.909 -0.2106 -0.6074 -0.2163
  362TMC3     O 5422   3.546   3.094  17.009  0.3394  0.3234 -0.2783
  362TMC3     H 5423   3.339   3.158  17.091 -1.2749 -0.0354 -0.2959
  362TMC3    H1 5424   3.528   3.409  16.798  0.5806 -0.7536  0.1432
  362TMC3    H2 5425   3.145   3.515  16.970  0.8523 -0.5952 -1.7937
  362TMC3    C7 5426   3.298   3.567  16.772 -0.6673  0.4541  0.0771
  362TMC3    C8 5427   3.119   3.303  17.133 -0.3765 -0.1809 -0.2229
  362TMC3    O1 5428   3.220   3.657  16.793  0.1194  0.6102  0.6455
  362TMC3    O2 5429   3.124   3.192  17.185 -0.2471  0.3458 -0.3610
  363TMC3    C1 5430   3.338   0.734   9.835  0.1984 -0.2083  0.5308
  363TMC3    C2 5431   3.365   0.600   9.857 -0.2994  0.0821 -0.6811
  363TMC3    C3 5432   3.259   0.526   9.900 -0.5309 -1.1527  0.0250
  363TMC3    C4 5433   3.214   0.787   9.848  0.4887 -1.0041 -0.6606
  363TMC3    C5 5434   3.107   0.703   9.878 -1.2547  0.4292 -0.1576
  363TMC3    C6 5435   3.126   0.572   9.900  0.0522  0.0823  0.1151
  363TMC3     C 5436   3.448   0.804   9.764  0.3789 -0.0054 -0.2187
  363TMC3     O 5437   3.545   0.737   9.725  0.6784  0.4908  0.3596
  363TMC3     H 5438   3.470   0.573   9.859 -0.0327  0.9566 -3.2767
  363TMC3    H1 5439   3.199   0.894   9.835 -0.2018 -1.1274 -0.8689
  363TMC3    H2 5440   3.042   0.517   9.941 -0.6129  0.2268 -1.0419
  363TMC3    C7 5441   2.975   0.755   9.918 -0.3378 -1.1893  0.4013
  363TMC3    C8 5442   3.275   0.412  10.000 -0.1429 -0.0648  0.7319
  363TMC3    O1 5443   2.890   0.675   9.960  0.1069 -0.5032  0.4292
  363TMC3    O2 5444   3.177   0.387  10.069  0.7569 -0.3348 -0.6123
  364MPD2     C 5445   1.701   0.853  10.190 -0.3716 -0.5896  0.1460
  364MPD2    C1 5446   1.800   0.791  10.127  0.6068 -0.0477 -0.3663
  364MPD2    C2 5447   1.844   0.661  10.167  0.3723 -0.2724 -0.3589
  364MPD2    C3 5448   1.798   0.602  10.278 -0.8050 -0.1062  0.7470
  364MPD2    C4 5449   1.702   0.675  10.347  0.4710 -0.0558 -0.3767
  364MPD2    C5 5450   1.661   0.801  10.310 -0.6710 -0.6148 -0.9002
  364MPD2     H 5451   1.910   0.603  10.103  0.7972  2.1535 -2.1330
  364MPD2    H1 5452   1.670   0.639  10.444  2.6787 -1.4777 -0.1848
  364MPD2    H2 5453   1.676   0.955  10.163 -1.3564 -1.1358 -0.9856
  364MPD2    H3 5454   1.580   0.848  10.365  0.1270  0.7769 -0.9023
  364MPD2     N 5455   1.858   0.486  10.335  0.0762 -0.0626  0.0441
  364MPD2    H5 5456   1.809   0.456  10.419 -0.8649  0.3183 -0.3613
  364MPD2    N1 5457   1.852   0.862  10.017  1.3485 -0.3424  0.0779
  364MPD2    H7 5458   1.795   0.938   9.980  3.0468  1.1432  0.4961
  365TMC3    C1 5459   2.093   0.818  10.034 -0.1606  0.7742  0.0480
  365TMC3    C2 5460   2.201   0.783   9.957 -0.2413 -1.3661 -0.2890
  365TMC3    C3 5461   2.318   0.762  10.036  0.5381 -0.5980 -0.3207
  365TMC3    C4 5462   2.098   0.841  10.167  0.0182 -0.2427  1.1684
  365TMC3    C5 5463   2.215   0.808  10.239 -0.0926 -0.0195  0.4395
  365TMC3    C6 5464   2.331   0.777  10.175 -0.1203  0.4737 -0.0855
  365TMC3     C 5465   1.971   0.842   9.955  0.6160 -0.1316  0.8273
  365TMC3     O 5466   2.002   0.861   9.839  0.0909  0.1538  0.3469
  365TMC3     H 5467   2.188   0.754   9.854  0.7994  1.2050 -1.1389
  365TMC3    H1 5468   2.011   0.885  10.214  0.8687  0.5093  2.0327
  365TMC3    H2 5469   2.424   0.763  10.229  0.0180  0.8553 -0.2249
  365TMC3    C7 5470   2.194   0.752  10.371 -0.2421  0.5260 -0.0768
  365TMC3    C8 5471   2.430   0.689   9.987 -0.2845 -0.1456 -0.1839
  365TMC3    O1 5472   2.285   0.678  10.412  0.3242 -0.0074  0.1439
  365TMC3    O2 5473   2.529   0.689  10.057 -0.1014  0.1440  0.2318
  366MPD2     C 5474   4.139   1.256  15.278 -0.2662  0.3007 -0.3211
  366MPD2    C1 5475   4.231   1.326  15.360 -0.0878  0.1168  0.4740
  366MPD2    C2 5476   4.354   1.268  15.393  0.6465  0.1893  0.1894
  366MPD2    C3 5477   4.397   1.170  15.312  0.4540  0.2963 -0.6451
  366MPD2    C4 5478   4.317   1.100  15.227 -0.1926 -0.1236  0.2989
  366MPD2    C5 5479   4.181   1.136  15.215 -0.9816  1.0527 -0.1011
  366MPD2     H 5480   4.424   1.313  15.462 -0.1609 -0.0895  1.1759
  366MPD2    H1 5481   4.351   1.015  15.169 -0.3744  0.3950 -0.5693
  366MPD2    H2 5482   4.033   1.280  15.273  0.1344  2.3299  0.8631
  366MPD2    H3 5483   4.119   1.073  15.152 -0.7860  0.4249  0.3233
  366MPD2     N 5484   4.536   1.151  15.318 -0.3440  0.7195 -1.1123
  366MPD2    H5 5485   4.576   1.210  15.391  0.0074 -0.1495 -0.6028
  366MPD2    N1 5486   4.207   1.449  15.423 -0.1133  0.5416 -0.0334
  366MPD2    H7 5487   4.289   1.496  15.460  2.1167  0.0666 -4.3929
  367TMC3    C1 5488   4.115   1.656  15.417 -0.8374  0.4690  0.2954
  367TMC3    C2 5489   4.232   1.694  15.481  0.9756 -0.1942  0.5990
  367TMC3    C3 5490   4.300   1.802  15.433  0.5683  0.1670 -0.4143
  367TMC3    C4 5491   4.073   1.730  15.310  0.0705  0.5669 -0.0046
  367TMC3    C5 5492   4.135   1.840  15.271  0.1529 -0.0615 -0.6416
  367TMC3    C6 5493   4.255   1.875  15.332  0.1821 -0.1495 -0.3947
  367TMC3     C 5494   4.089   1.516  15.417  0.1398  0.2713 -0.4021
  367TMC3     O 5495   3.985   1.482  15.368 -0.4532  0.8450  0.2507
  367TMC3     H 5496   4.261   1.651  15.576  0.0835 -3.7878 -0.7191
  367TMC3    H1 5497   3.973   1.702  15.279 -0.1112  0.4019  0.7297
  367TMC3    H2 5498   4.311   1.960  15.293 -0.6205  0.7644  0.4370
  367TMC3    C7 5499   4.073   1.923  15.164  0.7478 -0.4688 -0.1539
  367TMC3    C8 5500   4.405   1.854  15.520  0.5947 -0.5632  0.5272
  367TMC3    O1 5501   4.123   2.035  15.160 -0.5931  0.0646 -0.0265
  367TMC3    O2 5502   4.463   1.773  15.595  0.6676  0.2995  0.1245
  368MPD2     C 5503   1.342   3.495  13.505 -0.1844 -0.1957  0.3153
  368MPD2    C1 5504   1.347   3.508  13.369 -0.3098 -0.8594  1.2452
  368MPD2    C2 5505   1.465   3.493  13.299  0.0065  0.8352  0.7870
  368MPD2    C3 5506   1.584   3.468  13.368  0.6074 -0.3963 -0.4338
  368MPD2    C4 5507   1.585   3.479  13.507  0.0920 -0.0537 -0.4269
  368MPD2    C5 5508   1.461   3.483  13.572 -0.2067  0.3346  0.3340
  368MPD2     H 5509   1.462   3.486  13.191  0.7304 -0.8811  0.8776
  368MPD2    H1 5510   1.680   3.466  13.558 -0.7017  1.9526  1.5841
  368MPD2    H2 5511   1.247   3.517  13.554  0.2950 -0.5384  1.4109
  368MPD2    H3 5512   1.456   3.484  13.680 -0.5286 -0.5575  0.3271
  368MPD2     N 5513   1.709   3.448  13.311 -0.7285  1.0906  0.2548
  368MPD2    H5 5514   1.784   3.435  13.378  0.6384  1.2305 -1.2510
  368MPD2    N1 5515   1.221   3.528  13.299 -0.3592  0.0768  0.0357
  368MPD2    H7 5516   1.133   3.512  13.346 -0.0293  1.5018  1.1418
  369TMC3    C1 5517   1.067   3.574  13.119  0.1713 -1.2770 -1.0121
  369TMC3    C2 5518   1.050   3.681  13.034 -0.2436  0.0208 -0.4209
  369TMC3    C3 5519   0.925   3.720  13.005  0.4221 -0.1386 -0.5317
  369TMC3    C4 5520   0.959   3.507  13.180  0.2681  0.4286 -0.4598
  369TMC3    C5 5521   0.841   3.548  13.128  0.3802  0.1719 -0.4860
  369TMC3    C6 5522   0.815   3.640  13.035  0.1865  0.0751  0.3060
  369TMC3     C 5523   1.205   3.562  13.166 -0.2091  0.6870 -0.3440
  369TMC3     O 5524   1.287   3.612  13.089 -0.4636 -0.0627  0.3977
  369TMC3     H 5525   1.135   3.739  12.999  0.3041 -0.3807  0.2262
  369TMC3    H1 5526   0.958   3.428  13.254  0.9806 -0.0292 -0.9454
  369TMC3    H2 5527   0.718   3.689  13.031 -0.0183 -0.4750 -1.5464
  369TMC3    C7 5528   0.725   3.476  13.185 -0.4141 -0.5769  0.7983
  369TMC3    C8 5529   0.913   3.846  12.931  0.5835  0.5643 -1.5754
  369TMC3    O1 5530   0.729   3.418  13.293 -0.5296  0.3486  0.0566
  369TMC3    O2 5531   0.803   3.873  12.884  0.0559 -0.3030  0.3317
  370TMC3    C1 5532   0.251   3.576  16.377  0.1841  1.0508  0.0196
  370TMC3    C2 5533   0.221   3.495  16.484  0.1457 -0.0343  0.0997
  370TMC3    C3 5534   0.188   3.368  16.464  0.7200  0.4639  0.2021
  370TMC3    C4 5535   0.265   3.510  16.262  0.4779 -0.2233  1.0565
  370TMC3    C5 5536   0.249   3.376  16.251 -0.6444 -0.0837  0.5557
  370TMC3    C6 5537   0.195   3.305  16.348  0.1766  0.4393 -0.5349
  370TMC3     C 5538   0.324   3.695  16.403 -0.5489 -0.1940 -0.4763
  370TMC3     O 5539   0.383   3.692  16.511 -0.0024 -0.4135 -0.7630
  370TMC3     H 5540   0.229   3.539  16.583 -0.1452 -1.9643  0.9690
  370TMC3    H1 5541   0.316   3.552  16.176 -1.6914 -2.3679 -1.2782
  370TMC3    H2 5542   0.152   3.206  16.346 -1.5849  1.1621  0.8279
  370TMC3    C7 5543   0.278   3.307  16.133  0.2240 -0.2445  0.9355
  370TMC3    C8 5544   0.170   3.274  16.576 -0.6418  0.0385  0.2911
  370TMC3    O1 5545   0.282   3.369  16.025 -0.1062 -0.5800 -0.0461
  370TMC3    O2 5546   0.181   3.156  16.553 -0.3049  0.5794  0.5343
  371TMC3    C1 5547   1.392   1.749  15.465  0.7550  0.1349 -0.2738
  371TMC3    C2 5548   1.287   1.711  15.545  0.0235  0.2651 -0.7948
  371TMC3    C3 5549   1.192   1.805  15.569  0.3144 -0.1375  0.2162
  371TMC3    C4 5550   1.404   1.868  15.410  0.3831  0.3980  0.7570
  371TMC3    C5 5551   1.304   1.953  15.428 -0.2525 -0.1856  0.2311
  371TMC3    C6 5552   1.191   1.926  15.506 -0.9907 -0.9005 -0.0456
  371TMC3     C 5553   1.506   1.661  15.441  0.1729 -0.0102 -0.0637
  371TMC3     O 5554   1.618   1.711  15.432  0.5135 -0.5291 -0.0427
  371TMC3     H 5555   1.299   1.626  15.611  1.8506  0.1798 -1.2383
  371TMC3    H1 5556   1.497   1.898  15.364  1.3972 -2.6367  0.7740
  371TMC3    H2 5557   1.116   2.003  15.519 -0.8866 -0.7466 -0.3690
  371TMC3    C7 5558   1.331   2.091  15.410 -0.4588  0.3027  0.2132
  371TMC3    C8 5559   1.132   1.793  15.692  0.8533 -0.1749 -0.0579
  371TMC3    O1 5560   1.447   2.130  15.431 -0.1405  0.0241 -0.4132
  371TMC3    O2 5561   1.100   1.687  15.744  0.3963 -0.5656  0.4391
  372MPD2     C 5562   0.933   3.870  13.348 -0.6595 -0.2812  0.6300
  372MPD2    C1 5563   1.036   3.814  13.421  0.1498 -0.2511 -0.1479
  372MPD2    C2 5564   1.007   3.702  13.492 -0.6896  0.1312  0.4793
  372MPD2    C3 5565   0.880   3.655  13.499  0.0584  0.1926  0.8831
  372MPD2    C4 5566   0.776   3.731  13.459  0.2366  0.4892  0.7263
  372MPD2    C5 5567   0.808   3.835  13.373  0.5526  0.1065  0.4654
  372MPD2     H 5568   1.090   3.654  13.542  0.4929 -0.3849 -1.9504
  372MPD2    H1 5569   0.673   3.697  13.469  0.7784 -1.6110 -0.9490
  372MPD2    H2 5570   0.956   3.949  13.277 -1.3818 -2.1085 -1.6477
  372MPD2    H3 5571   0.726   3.868  13.311  0.4227  0.1571  0.6653
  372MPD2     N 5572   0.845   3.530  13.556 -0.2961  0.5149  0.3838
  372MPD2    H5 5573   0.747   3.521  13.581 -0.7014  1.8018 -0.7482
  372MPD2    N1 5574   1.173   3.854  13.402 -0.6635  0.1088  0.8384
  372MPD2    H7 5575   1.239   3.823  13.472  2.8951  2.3282 -1.5693
  373TMC3    C1 5576   0.855   3.293  13.584 -0.5738  0.1806  0.3132
  373TMC3    C2 5577   0.787   3.291  13.701  0.4299 -0.4213  0.1184
  373TMC3    C3 5578   0.797   3.181  13.776  0.8523  0.3962  0.5912
  373TMC3    C4 5579   0.925   3.188  13.533 -0.0822 -0.0912 -0.3810
  373TMC3    C5 5580   0.938   3.079  13.623 -0.2253  0.0699 -0.1662
  373TMC3    C6 5581   0.869   3.072  13.748 -0.0756 -0.2644  0.2363
  373TMC3     C 5582   0.928   3.418  13.555 -0.5006  0.2134 -0.0521
  373TMC3     O 5583   1.042   3.420  13.504 -0.5410  0.1634 -0.0919
  373TMC3     H 5584   0.751   3.384  13.745 -1.5606 -0.5838 -1.1746
  373TMC3    H1 5585   0.993   3.212  13.451  0.1080  1.0979  0.1195
  373TMC3    H2 5586   0.907   3.000  13.820  1.9253 -1.4200 -1.9440
  373TMC3    C7 5587   1.063   3.009  13.628 -0.3628  0.0746  0.0993
  373TMC3    C8 5588   0.836   3.216  13.913  0.1599 -0.6831  0.0716
  373TMC3    O1 5589   1.064   2.900  13.677  0.3191 -0.4491  0.1438
  373TMC3    O2 5590   0.891   3.325  13.920 -0.0902  0.2437 -0.2008
  374TMC3    C1 5591   1.593   3.520   9.588  1.0398  0.3512 -0.1465
  374TMC3    C2 5592   1.636   3.626   9.664  0.2956 -0.3235  0.1549
  374TMC3    C3 5593   1.651   3.749   9.605 -0.1474 -0.0689  0.2959
  374TMC3    C4 5594   1.550   3.538   9.459  0.0146  0.3882  0.0790
  374TMC3    C5 5595   1.554   3.661   9.403  0.6343  0.8666 -0.0505
  374TMC3    C6 5596   1.608   3.766   9.472  0.6144 -0.3874 -0.5556
  374TMC3     C 5597   1.578   3.398   9.661  0.2097 -0.1763  0.6640
  374TMC3     O 5598   1.649   3.383   9.756 -0.5673 -0.6619 -0.4354
  374TMC3     H 5599   1.668   3.604   9.765 -1.2457 -1.1867  0.4576
  374TMC3    H1 5600   1.523   3.451   9.401  0.0394 -0.5654  1.4881
  374TMC3    H2 5601   1.610   3.865   9.428 -0.9087 -0.3752 -0.5966
  374TMC3    C7 5602   1.492   3.692   9.279 -0.5506  0.5137  0.4243
  374TMC3    C8 5603   1.698   3.864   9.682 -0.5508 -0.0943  0.6537
  374TMC3    O1 5604   1.523   3.800   9.227 -0.0891  0.6225  0.2487
  374TMC3    O2 5605   1.646   3.970   9.651 -0.0244 -0.6832  0.5072
  375MPD2     C 5606   1.597   4.370  17.174  0.0508 -0.4183 -0.2598
  375MPD2    C1 5607   1.512   4.349  17.063 -0.3776 -0.9006 -0.5941
  375MPD2    C2 5608   1.571   4.285  16.957  0.5614 -0.4417  0.4132
  375MPD2    C3 5609   1.711   4.246  16.955 -0.2875 -0.2016 -0.0022
  375MPD2    C4 5610   1.782   4.272  17.064  0.7539 -0.5529 -0.4756
  375MPD2    C5 5611   1.729   4.337  17.171  0.0168 -0.1979  0.7530
  375MPD2     H 5612   1.509   4.291  16.868  1.6876 -0.2977 -0.3751
  375MPD2    H1 5613   1.890   4.264  17.069  0.8503  1.2845  0.4284
  375MPD2    H2 5614   1.557   4.428  17.257 -0.0343 -0.9277  0.0545
  375MPD2    H3 5615   1.779   4.360  17.265 -1.4070  1.8286  1.0130
  375MPD2     N 5616   1.769   4.201  16.837 -0.0413  0.4968  0.0940
  375MPD2    H5 5617   1.870   4.203  16.826  0.0813 -3.0899  0.5781
  375MPD2    N1 5618   1.376   4.393  17.055  0.5933  0.3419  0.6346
  375MPD2    H7 5619   1.330   4.385  16.965  1.7275  1.5231 -0.0667
  376TMC3    C1 5620   1.775   4.103  16.613  0.2739 -0.1012 -0.1161
  376TMC3    C2 5621   1.892   4.161  16.579  0.5669 -0.7179  0.5955
  376TMC3    C3 5622   1.947   4.124  16.462 -0.3016  0.3126 -0.0529
  376TMC3    C4 5623   1.713   4.011  16.528  0.0412 -0.3760  0.1203
  376TMC3    C5 5624   1.774   3.975  16.407  0.2296  0.9542  0.1334
  376TMC3    C6 5625   1.886   4.037  16.378  0.4331 -0.4492 -0.7919
  376TMC3     C 5626   1.705   4.130  16.742  0.2034  0.0646  0.4674
  376TMC3     O 5627   1.591   4.085  16.750 -0.1970  0.4299  0.4706
  376TMC3     H 5628   1.934   4.234  16.648 -0.3028 -0.0158  0.4000
  376TMC3    H1 5629   1.622   3.964  16.564 -0.9219  0.3568 -1.3169
  376TMC3    H2 5630   1.930   4.021  16.280 -2.0501 -0.6809 -1.8661
  376TMC3    C7 5631   1.690   3.939  16.292  0.0496 -0.0676 -0.3402
  376TMC3    C8 5632   2.061   4.197  16.407  0.7259  0.6555  0.4111
  376TMC3    O1 5633   1.750   3.903  16.190  0.2473 -0.3414 -0.3433
  376TMC3    O2 5634   2.094   4.159  16.296 -0.2051 -0.0054 -0.0601
  377MPD2     C 5635   0.191   3.653  12.905 -0.3310  0.1325  0.5902
  377MPD2    C1 5636   0.153   3.637  12.769  0.6585 -0.5071  0.4437
  377MPD2    C2 5637   0.027   3.585  12.742  0.3479  0.0791 -0.1585
  377MPD2    C3 5638   4.663   3.539  12.841  0.5524  0.0168 -0.3800
  377MPD2    C4 5639   4.699   3.554  12.972 -0.2149 -0.5819  0.9271
  377MPD2    C5 5640   0.100   3.609  13.000 -0.2547 -0.3973 -0.4910
  377MPD2     H 5641   4.709   3.567  12.642 -0.9365  0.3019  0.2865
  377MPD2    H1 5642   4.631   3.513  13.046 -3.1564  0.3565 -1.2853
  377MPD2    H2 5643   0.287   3.694  12.935 -0.0434 -0.1143  0.0070
  377MPD2    H3 5644   0.131   3.622  13.103 -2.1619 -1.3005  0.2007
  377MPD2     N 5645   4.537   3.462  12.816 -0.1930 -0.1063  0.2547
  377MPD2    H5 5646   4.499   3.427  12.904 -0.6081  1.4214  0.6866
  377MPD2    N1 5647   0.244   3.677  12.668 -0.4615  0.9945 -0.6329
  377MPD2    H7 5648   0.333   3.717  12.695 -0.6325  0.2219  1.1069
  378TMC3    C1 5649   0.396   3.715  12.222 -0.6234 -0.0902 -0.3475
  378TMC3    C2 5650   0.295   3.700  12.310 -0.3169  0.7005  0.2909
  378TMC3    C3 5651   0.321   3.711  12.443  0.5186 -0.3541  0.0862
  378TMC3    C4 5652   0.530   3.737  12.261 -0.4917 -0.7489  0.3713
  378TMC3    C5 5653   0.549   3.747  12.393  0.1491 -0.4841 -0.2600
  378TMC3    C6 5654   0.448   3.740  12.492  0.8862 -0.2522  0.3540
  378TMC3     C 5655   0.369   3.678  12.087 -0.1282 -0.3510  0.1250
  378TMC3     O 5656   0.266   3.613  12.065 -0.0025  0.5864  0.2861
  378TMC3     H 5657   0.203   3.658  12.270 -0.5679 -0.0402  1.6312
  378TMC3    H1 5658   0.607   3.761  12.189 -1.4552  2.1088  0.3084
  378TMC3    H2 5659   0.477   3.760  12.595  1.2791  0.0832  0.1799
  378TMC3    C7 5660   0.682   3.758  12.451 -0.0320 -0.3932  0.3363
  378TMC3    C8 5661   0.214   3.662  12.534 -0.6072  0.0341  0.7349
  378TMC3    O1 5662   0.692   3.764  12.576 -0.2803 -0.0528  0.2539
  378TMC3    O2 5663   0.115   3.624  12.473  0.2571  0.5534 -0.2086
  379MPD2     C 5664   0.323   1.674  16.146 -0.3289 -0.0213 -0.8047
  379MPD2    C1 5665   0.407   1.615  16.062  0.0018  0.4236 -0.3746
  379MPD2    C2 5666   0.514   1.543  16.114  0.2443 -0.2526  0.0879
  379MPD2    C3 5667   0.525   1.528  16.253  0.3163 -0.7259 -0.2589
  379MPD2    C4 5668   0.433   1.591  16.331  0.1698  0.1267 -0.0515
  379MPD2    C5 5669   0.341   1.676  16.280  0.1277  0.2218 -0.2929
  379MPD2     H 5670   0.579   1.489  16.046  0.9784 -0.1468  0.7007
  379MPD2    H1 5671   0.429   1.580  16.439  0.2347 -1.1996 -0.1918
  379MPD2    H2 5672   0.245   1.738  16.105 -1.5732  0.0648  1.6657
  379MPD2    H3 5673   0.267   1.730  16.337  0.1396 -0.5918  0.4844
  379MPD2     N 5674   0.615   1.454  16.325  0.1811 -0.1259 -0.0534
  379MPD2    H5 5675   0.589   1.436  16.421  2.0491 -0.8488  0.3116
  379MPD2    N1 5676   0.383   1.638  15.921 -0.3735 -0.4181  0.4484
  379MPD2    H7 5677   0.303   1.695  15.896 -1.7987 -2.0086  1.3435
  380TMC3    C1 5678   0.421   1.634  15.682 -0.4912 -0.0230  0.0381
  380TMC3    C2 5679   0.470   1.572  15.569 -0.1723  0.1826  1.0382
  380TMC3    C3 5680   0.433   1.616  15.447 -0.3027  0.4016 -0.5303
  380TMC3    C4 5681   0.350   1.754  15.664  0.3439 -0.1537 -0.2564
  380TMC3    C5 5682   0.324   1.802  15.543 -0.1438 -0.1389  0.7047
  380TMC3    C6 5683   0.361   1.734  15.428  0.2352 -0.1810  0.1731
  380TMC3     C 5684   0.458   1.591  15.818  0.0279 -0.0566 -0.2387
  380TMC3     O 5685   0.550   1.508  15.821  0.0970 -0.3872 -0.1858
  380TMC3     H 5686   0.516   1.474  15.576  1.7755  0.9968 -0.3184
  380TMC3    H1 5687   0.311   1.801  15.754  3.3470  1.4159  0.2072
  380TMC3    H2 5688   0.334   1.782  15.335 -0.0786  0.4570  0.5917
  380TMC3    C7 5689   0.190   1.870  15.525 -0.2991  0.2136  0.0166
  380TMC3    C8 5690   0.471   1.547  15.326 -0.1511  0.6651  0.0931
  380TMC3    O1 5691   0.126   1.841  15.425 -0.6082  0.0283  0.7314
  380TMC3    O2 5692   0.537   1.446  15.338 -0.0765 -0.1374  0.3957
  381TMC3    C1 5693   0.399   2.548  16.391  0.2118  0.2675 -0.4203
  381TMC3    C2 5694   0.487   2.631  16.456 -0.5074  0.2267 -0.2946
  381TMC3    C3 5695   0.447   2.754  16.503  0.3755 -0.1429  0.4837
  381TMC3    C4 5696   0.264   2.565  16.409  0.1714 -0.1425 -0.2041
  381TMC3    C5 5697   0.221   2.687  16.459  0.0930  0.1827  0.7411
  381TMC3    C6 5698   0.307   2.787  16.497  0.2807  0.2982 -0.6236
  381TMC3     C 5699   0.449   2.436  16.313  0.0744 -0.5614  0.5633
  381TMC3     O 5700   0.569   2.416  16.321  0.2294 -0.0490 -0.4908
  381TMC3     H 5701   0.593   2.612  16.445 -0.3452  0.8587  0.1435
  381TMC3    H1 5702   0.190   2.496  16.371 -0.7971  0.6833  0.1611
  381TMC3    H2 5703   0.276   2.887  16.524 -0.9432  0.1487 -1.4833
  381TMC3    C7 5704   0.082   2.678  16.504 -0.6846 -0.1691 -0.5972
  381TMC3    C8 5705   0.538   2.860  16.483 -0.0288  0.8663  0.7242
  381TMC3    O1 5706   0.039   2.567  16.536  0.7473 -0.2980 -0.0101
  381TMC3    O2 5707   0.618   2.840  16.391 -0.2750  0.1645  0.7508
  382MPD2     C 5708   3.539   0.963  17.599  0.3491 -0.1391  0.0047
  382MPD2    C1 5709   3.596   0.983  17.477  0.9863 -0.1412 -0.6358
  382MPD2    C2 5710   3.671   0.891  17.412  0.5212  0.6390  0.3471
  382MPD2    C3 5711   3.665   0.763  17.461  0.0468 -0.3466  0.2301
  382MPD2    C4 5712   3.603   0.742  17.582  0.2521 -0.1976  0.1581
  382MPD2    C5 5713   3.546   0.843  17.648  0.1315 -0.1116 -0.6401
  382MPD2     H 5714   3.718   0.918  17.318 -0.8964  0.0918 -0.5126
  382MPD2    H1 5715   3.602   0.644  17.628 -3.3068 -0.4748 -0.5074
  382MPD2    H2 5716   3.482   1.039  17.650  0.4727 -0.1078  0.0974
  382MPD2    H3 5717   3.500   0.829   0.065  1.6121 -0.2619  0.0415
  382MPD2     N 5718   3.718   0.656  17.388 -0.1191  0.0268 -0.0235
  382MPD2    H5 5719   3.706   0.558  17.409 -2.4657  0.3563  0.1785
  382MPD2    N1 5720   3.585   1.103  17.402 -0.2014  0.0805  0.2179
  382MPD2    H7 5721   3.637   1.105  17.315 -0.4415 -2.6782 -0.0019
  383TMC3    C1 5722   3.832   0.537  17.226  0.4054  0.4744  0.1424
  383TMC3    C2 5723   3.725   0.443  17.225 -0.9094  0.3574  0.5257
  383TMC3    C3 5724   3.759   0.312  17.198  0.1074  0.3033  0.0688
  383TMC3    C4 5725   3.963   0.496  17.197  0.0449 -0.4485 -0.0625
  383TMC3    C5 5726   3.983   0.365  17.183  0.0375  0.4373 -0.1017
  383TMC3    C6 5727   3.887   0.280  17.175  0.4718  0.4650 -0.4948
  383TMC3     C 5728   3.802   0.671  17.284 -0.9517  0.3703  0.5925
  383TMC3     O 5729   3.888   0.757  17.260  0.2501  0.0362 -0.2791
  383TMC3     H 5730   3.623   0.469  17.252 -1.2461 -1.6409  1.2037
  383TMC3    H1 5731   4.043   0.562  17.229 -0.9640  1.1062 -0.7221
  383TMC3    H2 5732   3.910   0.181  17.136 -0.0688  0.8163 -1.7006
  383TMC3    C7 5733   4.123   0.324  17.153 -0.0673  0.0915  0.0776
  383TMC3    C8 5734   3.649   0.228  17.155 -0.7703  0.3417 -0.3420
  383TMC3    O1 5735   4.138   0.205  17.148 -1.0916 -0.6107 -0.8740
  383TMC3    O2 5736   3.552   0.281  17.112 -0.0517  0.3451  0.8589
  384MPD2     C 5737   1.044   2.333  11.646 -0.5399 -0.1764 -0.1691
  384MPD2    C1 5738   1.096   2.266  11.749  0.1466  0.2920 -0.4959
  384MPD2    C2 5739   1.210   2.196  11.727 -0.1278  0.6416 -0.0070
  384MPD2    C3 5740   1.272   2.188  11.604  0.2009 -0.5288 -0.3978
  384MPD2    C4 5741   1.224   2.258  11.498 -0.1513 -0.0611 -1.0458
  384MPD2    C5 5742   1.106   2.325  11.518 -0.0595  0.3712  0.3558
  384MPD2     H 5743   1.240   2.126  11.805  1.2913 -0.0652 -1.1877
  384MPD2    H1 5744   1.276   2.263  11.403  1.2410  0.9671 -0.2281
  384MPD2    H2 5745   0.958   2.399  11.651 -0.5408 -0.1184 -0.9886
  384MPD2    H3 5746   1.056   2.376  11.437 -0.1103 -0.4315 -0.1202
  384MPD2     N 5747   1.394   2.115  11.610  0.1436  0.3763 -0.1756
  384MPD2    H5 5748   1.424   2.072  11.697 -1.2624  2.3712  1.3208
  384MPD2    N1 5749   1.026   2.245  11.867  0.1445  0.3617 -0.1653
  384MPD2    H7 5750   1.076   2.202  11.944 -1.1501  3.7236  2.5544
  385TMC3    C1 5751   1.591   2.025  11.543  0.0990  0.5941  0.2541
  385TMC3    C2 5752   1.588   1.910  11.473  0.6891 -0.2305 -0.0931
  385TMC3    C3 5753   1.591   1.790  11.540 -0.2207  0.2944 -0.0828
  385TMC3    C4 5754   1.599   2.017  11.678 -0.1050  0.0633  0.7544
  385TMC3    C5 5755   1.600   1.897  11.740  0.3574  0.8766 -0.7706
  385TMC3    C6 5756   1.593   1.781  11.675  0.5731  0.1683 -0.3453
  385TMC3     C 5757   1.481   2.108  11.502 -0.1532 -0.2829  0.2719
  385TMC3     O 5758   1.477   2.151  11.388  0.3821  0.6047  0.2174
  385TMC3     H 5759   1.577   1.919  11.365  0.2626  1.0087  0.0452
  385TMC3    H1 5760   1.615   2.110  11.732 -0.4311  1.5194 -1.6400
  385TMC3    H2 5761   1.576   1.687  11.725  1.9441  0.7923  1.3106
  385TMC3    C7 5762   1.517   1.902  11.859 -0.2308 -0.3090 -0.9914
  385TMC3    C8 5763   1.683   1.701  11.481  0.2824 -0.0708 -0.4700
  385TMC3    O1 5764   1.439   1.998  11.862  0.5601  0.3360  0.2608
  385TMC3    O2 5765   1.752   1.646  11.564  0.0335  0.3059  0.3386
  386TMC3    C1 5766   1.973   3.894  11.835 -0.4639  0.2230  0.1064
  386TMC3    C2 5767   1.995   3.932  11.706 -1.0674 -1.1773 -0.2409
  386TMC3    C3 5768   1.930   4.051  11.662 -0.0133  0.7198  0.1384
  386TMC3    C4 5769   1.890   3.962  11.926  0.8739 -0.0164  0.5168
  386TMC3    C5 5770   1.828   4.073  11.876  0.8257 -0.4903  0.5988
  386TMC3    C6 5771   1.848   4.114  11.747 -0.1344 -0.6531  0.2172
  386TMC3     C 5772   2.062   3.793  11.890 -0.1296 -0.5357  0.2972
  386TMC3     O 5773   2.095   3.815  12.006  0.2505 -0.2923 -0.0458
  386TMC3     H 5774   2.070   3.874  11.654  0.5698  0.2870  0.5302
  386TMC3    H1 5775   1.883   3.931  12.030 -0.6966 -0.1461  0.3772
  386TMC3    H2 5776   1.788   4.196  11.711 -0.6134 -0.8066  0.6536
  386TMC3    C7 5777   1.684   4.077  11.907 -0.0427 -0.3339  0.5473
  386TMC3    C8 5778   1.871   4.044  11.530 -0.0301  0.3691 -0.0525
  386TMC3    O1 5779   1.644   4.048  12.018  0.0839  0.2761  0.3835
  386TMC3    O2 5780   1.751   4.057  11.535 -0.0063  0.1450  0.1737
  387MPD2     C 5781   4.657   3.951   9.400 -0.0830  0.5610 -0.0256
  387MPD2    C1 5782   4.657   3.940   9.534 -0.0705 -0.3268 -0.0304
  387MPD2    C2 5783   4.613   3.823   9.591 -0.0397  0.1205  0.5234
  387MPD2    C3 5784   4.556   3.726   9.510 -0.1854 -0.8585  0.0396
  387MPD2    C4 5785   4.559   3.731   9.376 -0.5927  0.0354 -0.1080
  387MPD2    C5 5786   4.603   3.848   9.320  0.4498 -0.2372  0.3825
  387MPD2     H 5787   4.622   3.816   9.699 -0.1948  0.6078  0.5716
  387MPD2    H1 5788   4.509   3.660   9.312  1.0769  0.8966 -2.3325
  387MPD2    H2 5789   4.689   4.035   9.339  0.7480 -1.2178 -2.0396
  387MPD2    H3 5790   4.603   3.864   9.212  3.7258 -1.3850  0.2024
  387MPD2     N 5791   4.501   3.615   9.584 -0.9953 -0.5812 -0.2921
  387MPD2    H5 5792   4.511   3.619   9.685  0.6161 -1.8248 -0.4058
  387MPD2    N1 5793   0.003   4.026   9.622 -1.0555 -0.0567  0.3401
  387MPD2    H7 5794   0.007   3.997   9.719 -1.3801  2.0390  0.9582
  388TMC3    C1 5795   0.161   4.166   9.714 -0.2331 -0.7488  0.4553
  388TMC3    C2 5796   0.197   4.296   9.746 -1.4171  0.2945 -0.6235
  388TMC3    C3 5797   0.268   4.315   9.862 -0.4282  0.5623  0.2392
  388TMC3    C4 5798   0.191   4.057   9.791  0.5295 -0.1221 -0.1504
  388TMC3    C5 5799   0.264   4.079   9.909 -0.5967 -0.3479 -0.1229
  388TMC3    C6 5800   0.302   4.206   9.948  0.2346  0.4848 -0.1659
  388TMC3     C 5801   0.084   4.135   9.598 -0.1328  0.3856  0.3067
  388TMC3     O 5802   0.094   4.194   9.491  0.6722  0.4881 -0.1447
  388TMC3     H 5803   0.169   4.387   9.694  0.2603 -0.1615 -2.3219
  388TMC3    H1 5804   0.155   3.956   9.773 -1.8036  0.9975 -1.8285
  388TMC3    H2 5805   0.341   4.217  10.049  0.1534  0.8464 -0.1723
  388TMC3    C7 5806   0.295   3.958   9.992  0.7331 -0.2448  0.1339
  388TMC3    C8 5807   0.299   4.453   9.898  0.2767  0.3178 -0.3147
  388TMC3    O1 5808   0.408   3.934  10.039  0.1290  0.0095  0.1852
  388TMC3    O2 5809   0.309   4.526   9.800  0.2443  0.5483 -0.2723
  389MPD2     C 5810   3.557   2.074  10.882 -0.7579  0.2799  0.4355
  389MPD2    C1 5811   3.445   2.004  10.841  0.0414  0.5632 -0.3586
  389MPD2    C2 5812   3.375   1.918  10.925  0.5667  0.1392  0.6005
  389MPD2    C3 5813   3.426   1.911  11.054  0.3814  0.6241  0.3791
  389MPD2    C4 5814   3.539   1.971  11.097 -0.2354 -0.5078 -0.2583
  389MPD2    C5 5815   3.603   2.056  11.014 -0.4057 -1.0781  0.0883
  389MPD2     H 5816   3.286   1.858  10.904  0.2965  0.5812  0.4902
  389MPD2    H1 5817   3.578   1.963  11.198 -1.1121 -0.0551  0.1228
  389MPD2    H2 5818   3.601   2.138  10.806 -0.4141  0.1675  0.5414
  389MPD2    H3 5819   3.694   2.102  11.050 -0.4046 -2.1256  1.4156
  389MPD2     N 5820   3.373   1.824  11.155  0.2149  0.4149  0.1826
  389MPD2    H5 5821   3.417   1.835  11.246 -0.3365  0.1718  0.4750
  389MPD2    N1 5822   3.405   2.012  10.707 -0.0745  0.7766  0.5869
  389MPD2    H7 5823   3.459   2.077  10.650 -0.8386 -0.6075 -1.7254
  390TMC3    C1 5824   3.234   1.678  11.265  0.1436 -0.2818 -0.3887
  390TMC3    C2 5825   3.158   1.562  11.273  0.5169 -0.1693  0.5668
  390TMC3    C3 5826   3.082   1.539  11.385 -0.9360 -0.9291  0.2087
  390TMC3    C4 5827   3.241   1.761  11.371 -0.4342  0.0934 -0.0581
  390TMC3    C5 5828   3.168   1.737  11.487  0.4440  0.1016  0.1916
  390TMC3    C6 5829   3.101   1.622  11.498  0.2660 -0.5462  0.0418
  390TMC3     C 5830   3.272   1.733  11.141  0.1906  0.2276  0.1678
  390TMC3     O 5831   3.230   1.680  11.039 -0.0144 -0.6340  0.0818
  390TMC3     H 5832   3.139   1.515  11.178 -2.3706  1.1075  0.5039
  390TMC3    H1 5833   3.287   1.859  11.375  1.2746 -0.6913 -0.3174
  390TMC3    H2 5834   3.064   1.596  11.596  0.8557 -0.4798  0.2814
  390TMC3    C7 5835   3.072   1.850  11.496  0.3188  0.5741  0.1379
  390TMC3    C8 5836   2.956   1.475  11.371  0.4964  0.6712  0.4230
  390TMC3    O1 5837   3.117   1.961  11.469 -0.3230 -0.2271  0.1140
  390TMC3    O2 5838   2.923   1.429  11.264 -0.1490 -0.1215  0.1404
  391MPD2     C 5839   2.423   3.475  10.863 -0.2949  0.4557  0.3010
  391MPD2    C1 5840   2.514   3.576  10.837 -0.0350  0.5612  0.4354
  391MPD2    C2 5841   2.543   3.615  10.707 -0.0794 -0.0528  0.0904
  391MPD2    C3 5842   2.484   3.545  10.604  0.0667 -0.5265  0.2531
  391MPD2    C4 5843   2.404   3.435  10.630 -0.6280 -0.0242 -0.0222
  391MPD2    C5 5844   2.371   3.403  10.763  0.0521 -0.0842  0.0692
  391MPD2     H 5845   2.599   3.705  10.685 -2.7106  1.5355 -0.2076
  391MPD2    H1 5846   2.362   3.375  10.550  1.3529 -0.9690 -0.3724
  391MPD2    H2 5847   2.396   3.452  10.965  0.8397  4.7109  1.5278
  391MPD2    H3 5848   2.296   3.328  10.786  0.3036  0.2337  1.9200
  391MPD2     N 5849   2.499   3.598  10.481  0.3621 -0.1459  0.2683
  391MPD2    H5 5850   2.576   3.664  10.473  0.6442 -0.3866  0.9371
  391MPD2    N1 5851   2.560   3.653  10.949 -0.1424 -0.1591  0.4120
  391MPD2    H7 5852   2.519   3.635  11.039 -0.8886  1.6636  0.4231
  392TMC3    C1 5853   2.465   3.623  10.243  0.4222 -0.8098  0.3736
  392TMC3    C2 5854   2.354   3.660  10.170 -0.1524 -0.5434  0.1560
  392TMC3    C3 5855   2.348   3.786  10.113 -0.2422  0.1653  0.0629
  392TMC3    C4 5856   2.579   3.708  10.254 -1.0658  0.2135 -0.3110
  392TMC3    C5 5857   2.566   3.828  10.184 -0.6168 -0.2718 -0.3972
  392TMC3    C6 5858   2.456   3.868  10.109  0.0245  0.3634  0.4581
  392TMC3     C 5859   2.435   3.550  10.369  0.1208  0.0976  0.4820
  392TMC3     O 5860   2.346   3.467  10.356  0.2460  0.1794  0.3191
  392TMC3     H 5861   2.269   3.594  10.178 -1.5815  1.3523  0.5167
  392TMC3    H1 5862   2.668   3.684  10.309  0.0195  1.0361 -1.6888
  392TMC3    H2 5863   2.458   3.964  10.058 -0.5023  1.5434  2.6809
  392TMC3    C7 5864   2.692   3.904  10.183  0.4789 -0.7244 -0.4322
  392TMC3    C8 5865   2.242   3.806  10.024 -0.5279 -0.5529  0.1319
  392TMC3    O1 5866   2.756   3.888  10.283 -0.9477  0.4977  0.8602
  392TMC3    O2 5867   2.199   3.702   9.976  0.0793 -0.1516 -0.3640
  393TMC3    C1 5868   1.082   2.313   9.986  0.0065 -0.4248 -0.3195
  393TMC3    C2 5869   0.963   2.236  10.007 -0.6043  0.7179 -0.6836
  393TMC3    C3 5870   0.971   2.143  10.107 -0.0840 -0.4110 -0.3318
  393TMC3    C4 5871   1.189   2.297  10.070  0.5892 -0.3105 -0.8383
  393TMC3    C5 5872   1.187   2.213  10.171  0.1549  0.7703 -0.5910
  393TMC3    C6 5873   1.083   2.128  10.189  0.6025  0.6858  0.3567
  393TMC3     C 5874   1.095   2.382   9.856 -0.0378 -0.1953  0.5906
  393TMC3     O 5875   1.009   2.364   9.774 -0.0743  0.0410  0.2874
  393TMC3     H 5876   0.884   2.236   9.933 -1.1785  0.5270 -0.0721
  393TMC3    H1 5877   1.282   2.352  10.055  0.9714 -0.6134  0.4933
  393TMC3    H2 5878   1.083   2.057  10.272 -3.9612 -0.0240 -0.2272
  393TMC3    C7 5879   1.304   2.204  10.258  0.1602 -0.4406 -0.6741
  393TMC3    C8 5880   0.844   2.106  10.170  0.4266 -0.2524 -0.5069
  393TMC3    O1 5881   1.383   2.295  10.254  0.3042  0.0630  0.1021
  393TMC3    O2 5882   0.855   2.048  10.274 -0.8276 -0.4662  0.0671
  394TMC3    C1 5883   3.306   1.953  10.501  0.2049  0.6366 -0.3696
  394TMC3    C2 5884   3.186   1.962  10.427  0.2821 -0.6135  0.3067
  394TMC3    C3 5885   3.206   1.976  10.288  0.0844  0.1050 -0.2386
  394TMC3    C4 5886   3.433   1.967  10.441 -0.2372  0.8909  0.4524
  394TMC3    C5 5887   3.439   1.997  10.309  0.5142  0.1308 -0.2889
  394TMC3    C6 5888   3.326   1.995  10.227 -0.0741 -0.3126 -0.3100
  394TMC3     C 5889   3.309   1.934  10.645  0.8825  0.3770 -0.1455
  394TMC3     O 5890   3.250   1.835  10.684 -0.0303 -0.1330 -0.3447
  394TMC3     H 5891   3.096   1.926  10.475 -0.5832  0.3292 -0.6069
  394TMC3    H1 5892   3.522   1.962  10.503 -1.6775 -2.5673  2.2940
  394TMC3    H2 5893   3.337   1.994  10.120 -0.9902 -2.1677 -0.3844
  394TMC3    C7 5894   3.563   2.042  10.251  0.2016  0.3088 -0.3138
  394TMC3    C8 5895   3.121   1.890  10.205  0.6056  0.3407  0.2228
  394TMC3    O1 5896   3.560   2.114  10.149 -0.1936  0.2481  0.0010
  394TMC3    O2 5897   3.185   1.835  10.118  0.6490  0.1013  0.1513
  395TMC3    C1 5898   2.891   4.044  13.908 -0.6026 -0.3661  0.4082
  395TMC3    C2 5899   2.776   4.092  13.843 -0.1395 -0.0155 -0.6574
  395TMC3    C3 5900   2.718   4.207  13.885 -0.4507  0.1472 -0.0921
  395TMC3    C4 5901   2.954   4.127  14.004  0.2821 -0.2501 -0.3345
  395TMC3    C5 5902   2.896   4.245  14.034 -0.1768  0.6757 -0.3786
  395TMC3    C6 5903   2.781   4.288  13.980  0.3585  0.2759 -0.1945
  395TMC3     C 5904   2.886   3.904  13.946  0.8180  0.2194 -0.0042
  395TMC3     O 5905   2.918   3.881  14.067 -0.0232  0.3473 -0.1768
  395TMC3     H 5906   2.715   4.028  13.780 -1.2513 -0.2531  0.6715
  395TMC3    H1 5907   3.054   4.095  14.033  1.0784  3.1250  0.6234
  395TMC3    H2 5908   2.716   4.361  14.027  0.8009  0.5239  0.0427
  395TMC3    C7 5909   2.915   4.283  14.171  0.1654  0.0497  0.0871
  395TMC3    C8 5910   2.570   4.212  13.897  0.0364 -0.6307 -0.2571
  395TMC3    O1 5911   2.875   4.397  14.200 -0.0437 -0.2521  0.0877
  395TMC3    O2 5912   2.513   4.319  13.893  0.4009  0.6281 -0.2110
  396MPD2     C 5913   2.528   0.598  17.454  0.3722 -0.1909  0.5649
  396MPD2    C1 5914   2.645   0.532  17.419  0.2597 -0.2387 -0.2382
  396MPD2    C2 5915   2.719   0.582  17.313  1.2638 -0.3528 -0.2407
  396MPD2    C3 5916   2.663   0.675  17.236  0.4605  0.6446  0.5730
  396MPD2    C4 5917   2.535   0.714  17.254  0.5612 -0.3435  0.2485
  396MPD2    C5 5918   2.470   0.685  17.368  0.1107 -0.0931  0.4250
  396MPD2     H 5919   2.820   0.549  17.289  0.6321 -0.8097 -2.2861
  396MPD2    H1 5920   2.482   0.777  17.183 -1.9679 -1.1678  1.3970
  396MPD2    H2 5921   2.453   0.560  17.522  0.3685  0.2803  0.8235
  396MPD2    H3 5922   2.367   0.718  17.375  0.3222  1.1011 -2.3520
  396MPD2     N 5923   2.742   0.724  17.130  0.4490  0.0297 -0.3190
  396MPD2    H5 5924   2.843   0.717  17.127  0.2864 -1.9311 -1.4073
  396MPD2    N1 5925   2.678   0.413  17.490 -0.1155  0.0384  0.2199
  396MPD2    H7 5926   2.608   0.384  17.558 -1.4547  0.4962 -0.9511
  397TMC3    C1 5927   2.761   0.203  17.528 -0.1872 -0.3007 -0.6620
  397TMC3    C2 5928   2.823   0.110  17.451  0.2212  0.6093 -0.0786
  397TMC3    C3 5929   2.744   0.027  17.374  0.0970 -0.2278 -0.2963
  397TMC3    C4 5930   2.627   0.180  17.567  0.1280  0.0486  1.0383
  397TMC3    C5 5931   2.564   0.063  17.516 -0.3278  0.1200 -0.5226
  397TMC3    C6 5932   2.618   4.710  17.413  0.4317  0.0145 -0.0805
  397TMC3     C 5933   2.786   0.334  17.478  0.5875 -0.5239  0.3465
  397TMC3     O 5934   2.891   0.348  17.412 -0.4095  0.3843  0.1170
  397TMC3     H 5935   2.929   0.123  17.433  0.0737 -0.6845 -1.9073
  397TMC3    H1 5936   2.579   0.245  17.639 -1.0299  1.2776 -0.8319
  397TMC3    H2 5937   2.572   4.621  17.371  0.3003  0.0891 -0.0946
  397TMC3    C7 5938   2.419   0.063  17.518 -0.2655  0.1679 -0.3103
  397TMC3    C8 5939   2.724   0.069  17.235  0.4105  0.7517  0.3893
  397TMC3    O1 5940   2.356   0.004  17.435 -0.2442 -0.3801  0.4279
  397TMC3    O2 5941   2.626   0.015  17.181  0.4006 -0.3830 -0.3912
  398MPD2     C 5942   0.155   2.250   0.049  0.5718 -0.4975 -0.5314
  398MPD2    C1 5943   0.213   2.260   0.175  0.0951 -0.2582 -0.2411
  398MPD2    C2 5944   0.211   2.389   0.234  0.2453 -0.2892  0.0459
  398MPD2    C3 5945   0.178   2.507   0.173 -0.0260  0.4872  1.0516
  398MPD2    C4 5946   0.126   2.495   0.043 -0.0574  0.1520  0.0743
  398MPD2    C5 5947   0.114   2.371  17.671 -0.3725 -0.4978 -0.1704
  398MPD2     H 5948   0.252   2.394   0.334  0.8415 -2.9723 -0.0551
  398MPD2    H1 5949   0.093   2.578  17.663  1.8566  1.3856  0.7060
  398MPD2    H2 5950   0.125   2.160  17.678  1.2122 -1.4429  0.7236
  398MPD2    H3 5951   0.072   2.362  17.571  0.0568 -0.5620 -0.3476
  398MPD2     N 5952   0.182   2.627   0.244 -0.7089  0.2321 -0.7103
  398MPD2    H5 5953   0.226   2.611   0.334 -0.1519  1.0294 -0.8328
  398MPD2    N1 5954   0.265   2.158   0.248 -0.0422 -0.4779 -0.1597
  398MPD2    H7 5955   0.294   2.180   0.342  1.7964  1.9423 -1.3191
  399TMC3    C1 5956   0.333   1.945   0.295 -0.1688  0.1962  0.6282
  399TMC3    C2 5957   0.410   1.987   0.408  0.9287  0.2272  0.0755
  399TMC3    C3 5958   0.461   1.890   0.488 -0.0431 -0.2546 -0.2331
  399TMC3    C4 5959   0.301   1.815   0.274 -0.3374 -0.2717  0.4332
  399TMC3    C5 5960   0.340   1.726   0.368 -0.2794 -0.7335 -0.1030
  399TMC3    C6 5961   0.425   1.758   0.472  0.6741 -0.0506 -0.3443
  399TMC3     C 5962   0.287   2.036   0.196 -0.9544  0.1677  0.2967
  399TMC3     O 5963   0.249   1.990   0.090 -0.0941  0.4854  0.0072
  399TMC3     H 5964   0.449   2.088   0.414  0.2745  0.3921  1.5281
  399TMC3    H1 5965   0.226   1.784   0.201 -0.2078 -0.1536  0.2489
  399TMC3    H2 5966   0.455   1.672   0.530 -1.9102 -1.1590 -0.6510
  399TMC3    C7 5967   0.265   1.601   0.382 -0.6362  0.4095 -0.0454
  399TMC3    C8 5968   0.575   1.918   0.571  0.3021  0.0884 -0.0212
  399TMC3    O1 5969   0.323   1.509   0.442 -0.0074 -0.5713  0.0690
  399TMC3    O2 5970   0.621   2.027   0.555 -0.2944 -0.0324  0.0027
  400TMC3    C1 5971   3.715   4.532  16.839 -0.5318 -0.3201 -0.0416
  400TMC3    C2 5972   3.591   4.544  16.776  0.5068  0.5091 -0.2216
  400TMC3    C3 5973   3.575   4.660  16.703 -0.1376 -0.5575 -0.1382
  400TMC3    C4 5974   3.800   4.643  16.863  0.6871  0.1790 -0.3882
  400TMC3    C5 5975   3.764   0.038  16.805  0.6525  0.5600 -0.1212
  400TMC3    C6 5976   3.656   0.052  16.721  0.3181  0.3437 -0.0779
  400TMC3     C 5977   3.754   4.400  16.890  0.9370  0.8626 -0.4620
  400TMC3     O 5978   3.696   4.292  16.870 -0.1801 -0.1683  0.1413
  400TMC3     H 5979   3.525   4.460  16.758  0.1345  0.5444  1.0301
  400TMC3    H1 5980   3.900   4.638  16.905  0.5271  1.8599  0.1722
  400TMC3    H2 5981   3.650   0.136  16.653  2.2334  2.5557  2.5660
  400TMC3    C7 5982   3.841   0.155  16.826 -0.8237 -0.1076 -0.6254
  400TMC3    C8 5983   3.446   4.694  16.649  0.2026  0.0314  0.5242
  400TMC3    O1 5984   3.963   0.143  16.846 -0.3703  0.0826  0.0563
  400TMC3    O2 5985   3.436   0.093  16.629 -0.0277  0.1632 -0.0243
  401MPD2     C 5986   1.690   3.655   0.393  0.4123  0.3181 -1.3036
  401MPD2    C1 5987   1.824   3.626   0.386  0.0383  0.3174 -0.0530
  401MPD2    C2 5988   1.875   3.535   0.298  0.1370  0.3098  0.7783
  401MPD2    C3 5989   1.787   3.478   0.205 -0.9159 -1.2186 -0.0830
  401MPD2    C4 5990   1.653   3.516   0.207  0.1021  0.3685 -0.7118
  401MPD2    C5 5991   1.601   3.601   0.298  0.2485  0.1025 -0.2507
  401MPD2     H 5992   1.979   3.503   0.290 -0.0654 -1.0836  3.5782
  401MPD2    H1 5993   1.579   3.489   0.132 -0.3603 -1.0522  0.2473
  401MPD2    H2 5994   1.652   3.724   0.467  2.4066 -0.5303  0.5103
  401MPD2    H3 5995   1.495   3.623   0.299  0.4046  0.8516 -1.9329
  401MPD2     N 5996   1.836   3.376   0.124  0.4707  0.3927 -0.1832
  401MPD2    H5 5997   1.932   3.344   0.118  0.1967 -0.4173 -0.2073
  401MPD2    N1 5998   1.915   3.673   0.488  0.1340 -0.4794  0.0628
  401MPD2    H7 5999   2.004   3.625   0.492  0.1129 -0.6155 -1.0564
  402TMC3    C1 6000   1.817   3.164   0.042  0.0847 -0.0173 -0.0594
  402TMC3    C2 6001   1.755   3.051   0.105  0.4435  0.2574  0.2150
  402TMC3    C3 6002   1.839   2.949   0.142  0.7864  0.0787  0.3207
  402TMC3    C4 6003   1.936   3.156  17.672 -0.8472 -0.3055 -0.0825
  402TMC3    C5 6004   2.005   3.043   0.009 -0.6543  0.4592  0.2546
  402TMC3    C6 6005   1.966   2.938   0.087  0.7497  0.2964  0.8007
  402TMC3     C 6006   1.749   3.287   0.063  0.9558  0.5673 -0.2134
  402TMC3     O 6007   1.630   3.278   0.070  0.1519  0.1427  0.1639
  402TMC3     H 6008   1.653   3.049   0.141  0.1400 -0.4789 -0.6818
  402TMC3    H1 6009   1.978   3.247  17.631  0.4432 -0.8489  0.0312
  402TMC3    H2 6010   2.028   2.852   0.108  0.2052 -0.6830 -1.5636
  402TMC3    C7 6011   2.145   3.072   0.029  0.6629 -0.3741 -0.0823
  402TMC3    C8 6012   1.849   2.941   0.287  0.1805  0.5493 -0.1050
  402TMC3    O1 6013   2.163   3.190   0.048  0.2308 -0.0908  0.1199
  402TMC3    O2 6014   1.952   2.883   0.320  0.0678 -0.0933  0.0902
  403MPD2     C 6015   0.229   1.863  13.344 -0.4849 -0.4465  0.4903
  403MPD2    C1 6016   0.338   1.798  13.298  0.4390 -0.3061  0.3277
  403MPD2    C2 6017   0.466   1.827  13.354 -1.4256  0.1409 -0.3079
  403MPD2    C3 6018   0.489   1.939  13.436  0.5935 -0.2224  0.1628
  403MPD2    C4 6019   0.374   2.015  13.478  0.3846 -1.0490 -0.1851
  403MPD2    C5 6020   0.249   1.973  13.426 -0.0251  0.1701  0.2653
  403MPD2     H 6021   0.552   1.765  13.333  0.2977  1.9518  1.4212
  403MPD2    H1 6022   0.378   2.095  13.550  4.0458 -1.1921 -0.2123
  403MPD2    H2 6023   0.139   1.854  13.285 -0.7319 -1.9123  1.0999
  403MPD2    H3 6024   0.160   2.033  13.446 -0.9290 -0.8699 -0.6536
  403MPD2     N 6025   0.616   1.952  13.502 -0.2342  0.5535  0.2821
  403MPD2    H5 6026   0.675   1.869  13.495 -0.2666  0.5296  0.2926
  403MPD2    N1 6027   0.311   1.703  13.194 -0.0018 -0.2812  0.3663
  403MPD2    H7 6028   0.218   1.672  13.169  0.2940 -0.6116 -0.3218
  404TMC3    C1 6029   0.353   1.545  13.037  0.2605 -0.5849 -0.0807
  404TMC3    C2 6030   0.266   1.449  13.085  0.5123 -0.0461  0.4055
  404TMC3    C3 6031   0.217   1.355  13.001 -0.6582 -0.1474 -0.3628
  404TMC3    C4 6032   0.400   1.535  12.907  0.3028  0.1414 -0.1104
  404TMC3    C5 6033   0.336   1.449  12.821  0.3691 -0.1499  0.3175
  404TMC3    C6 6034   0.247   1.356  12.863 -0.2385 -0.7524  0.8286
  404TMC3     C 6035   0.413   1.649  13.120 -0.4521 -0.2716  0.0603
  404TMC3     O 6036   0.533   1.667  13.111  0.0513  0.4878 -0.5421
  404TMC3     H 6037   0.232   1.458  13.188 -0.7881 -2.2761  0.1563
  404TMC3    H1 6038   0.482   1.595  12.872  0.9895 -0.6858  0.0610
  404TMC3    H2 6039   0.202   1.279  12.800  0.4140 -1.7689  1.5934
  404TMC3    C7 6040   0.391   1.437  12.687 -0.5668  0.2225 -0.3558
  404TMC3    C8 6041   0.179   1.230  13.054 -0.1248  0.1498 -1.0596
  404TMC3    O1 6042   0.495   1.500  12.671  0.1326 -0.0557  0.2361
  404TMC3    O2 6043   0.169   1.129  12.986  0.3255  0.7028 -0.0500
  405MPD2     C 6044   0.783   2.060  14.594  0.5766  0.0424 -1.0177
  405MPD2    C1 6045   0.779   2.026  14.456  0.1461  0.1829  0.6131
  405MPD2    C2 6046   0.677   2.073  14.384 -0.5661 -0.3453  0.1321
  405MPD2    C3 6047   0.563   2.136  14.443  0.3373 -0.4629 -0.4948
  405MPD2    C4 6048   0.572   2.166  14.575 -0.4424 -0.1624  0.1801
  405MPD2    C5 6049   0.681   2.140  14.655 -0.6942 -0.6823 -0.4180
  405MPD2     H 6050   0.678   2.051  14.278 -1.6987  1.9901 -0.3621
  405MPD2    H1 6051   0.489   2.212  14.628  0.0171  0.6623  0.1904
  405MPD2    H2 6052   0.862   2.030  14.662 -1.1791  1.3870  1.6566
  405MPD2    H3 6053   0.683   2.175  14.757  1.2441 -0.9003 -0.3862
  405MPD2     N 6054   0.446   2.173  14.365  0.2474  0.0472  0.4593
  405MPD2    H5 6055   0.377   2.237  14.402  2.1879  2.2564  0.1988
  405MPD2    N1 6056   0.878   1.944  14.408  0.6616 -0.2242 -0.2958
  405MPD2    H7 6057   0.933   1.899  14.480  0.7793 -1.7753 -1.3572
  406TMC3    C1 6058   0.192   2.266  14.069 -0.8777 -0.5899  0.5508
  406TMC3    C2 6059   0.181   2.177  13.961  0.0528  0.2954  0.4045
  406TMC3    C3 6060   0.211   2.053  13.997  0.4742  0.4495 -0.0308
  406TMC3    C4 6061   0.236   2.236  14.196 -0.0871  0.4105 -0.2785
  406TMC3    C5 6062   0.278   2.107  14.217 -0.2872  0.5562 -0.0293
  406TMC3    C6 6063   0.250   2.008  14.123  0.6278 -0.0230  0.7166
  406TMC3     C 6064   0.079   2.368  14.068 -0.6708 -0.5277  0.9034
  406TMC3     O 6065   0.018   2.392  13.960  0.3820  0.1038 -0.3417
  406TMC3     H 6066   0.134   2.198  13.866  0.1450 -1.2095  0.0189
  406TMC3    H1 6067   0.237   2.303  14.281 -0.1453  1.5646 -1.1754
  406TMC3    H2 6068   0.276   1.904  14.139 -2.1311 -0.4915  2.2456
  406TMC3    C7 6069   0.410   2.089  14.262  0.3852  0.3830  0.1074
  406TMC3    C8 6070   0.278   1.978  13.888 -0.1129 -0.5420  0.3050
  406TMC3    O1 6071   0.466   1.995  14.206  0.1320  0.1120 -0.5757
  406TMC3    O2 6072   0.217   1.951  13.785 -0.0695  0.2894 -0.1430
  407MPD2     C 6073   3.814   2.772   9.533 -0.4138 -0.4946 -0.5256
  407MPD2    C1 6074   3.901   2.883   9.535 -0.0270  0.3549  0.5996
  407MPD2    C2 6075   3.881   2.981   9.629  0.0215 -0.2812  0.5524
  407MPD2    C3 6076   3.764   2.984   9.698  0.2490 -1.6760 -0.2969
  407MPD2    C4 6077   3.672   2.886   9.679  0.6349 -0.3397 -0.6162
  407MPD2    C5 6078   3.689   2.783   9.592  0.0116 -0.7984  0.4640
  407MPD2     H 6079   3.949   3.065   9.644 -0.2411  0.1535 -0.6987
  407MPD2    H1 6080   3.581   2.891   9.738 -0.3449  0.5824 -2.2243
  407MPD2    H2 6081   3.829   2.690   9.464 -0.8730 -1.2067  0.2109
  407MPD2    H3 6082   3.620   2.700   9.580  1.3022 -2.2287  3.0115
  407MPD2     N 6083   3.729   3.098   9.773 -0.3725 -0.0408  0.0564
  407MPD2    H5 6084   3.639   3.083   9.818  0.3477 -0.0823  1.4806
  407MPD2    N1 6085   4.028   2.889   9.467 -0.3831  0.3030  0.2675
  407MPD2    H7 6086   4.084   2.973   9.471  2.3223 -1.5735  2.1560
  408TMC3    C1 6087   4.193   2.828   9.320 -1.1667 -0.5940  0.6087
  408TMC3    C2 6088   4.285   2.889   9.400  0.8926  0.1005  0.1548
  408TMC3    C3 6089   4.390   2.946   9.337  0.7227  0.3569  0.2836
  408TMC3    C4 6090   4.206   2.822   9.186  0.5172  0.1926  0.0875
  408TMC3    C5 6091   4.313   2.887   9.133 -0.0387 -0.2475  0.0999
  408TMC3    C6 6092   4.416   2.942   9.209  0.2360 -0.2204 -0.0437
  408TMC3     C 6093   4.065   2.790   9.374  0.1602  0.3490  0.2519
  408TMC3     O 6094   4.002   2.695   9.329  0.1017  0.1091  0.2400
  408TMC3     H 6095   4.275   2.893   9.508 -0.0114  0.3275  0.0661
  408TMC3    H1 6096   4.122   2.785   9.129  0.9247 -0.6072  0.0016
  408TMC3    H2 6097   4.506   2.984   9.167 -1.0834  0.2564 -2.4511
  408TMC3    C7 6098   4.323   2.905   8.990 -0.9049  1.0874  0.3650
  408TMC3    C8 6099   4.490   2.981   9.439  0.1902  0.8439  0.0386
  408TMC3    O1 6100   4.420   2.975   8.957  0.1131 -0.4102  0.8422
  408TMC3    O2 6101   4.496   2.911   9.542  0.2553  0.2078 -0.1342
  409MPD2     C 6102   2.394   4.161  17.051  0.2782 -0.6877 -0.0538
  409MPD2    C1 6103   2.482   4.209  17.143  0.2242 -0.0422 -0.0093
  409MPD2    C2 6104   2.572   4.308  17.104 -0.2659  0.4878 -0.7410
  409MPD2    C3 6105   2.586   4.352  16.974  0.2542  0.3591  0.3979
  409MPD2    C4 6106   2.507   4.289  16.881  0.4017  0.1742 -0.1109
  409MPD2    C5 6107   2.418   4.192  16.917 -0.0661 -0.7377 -0.0719
  409MPD2     H 6108   2.643   4.348  17.175 -0.9258 -1.9691  1.3211
  409MPD2    H1 6109   2.513   4.330  16.781 -0.6608 -0.4335 -0.4325
  409MPD2    H2 6110   2.323   4.081  17.069 -0.3790  0.2242  1.3587
  409MPD2    H3 6111   2.352   4.159  16.838  1.3611 -3.4876 -0.0920
  409MPD2     N 6112   2.686   4.440  16.926 -0.4725  0.1164  0.6078
  409MPD2    H5 6113   2.699   4.449  16.826 -1.4432 -0.8542  0.3872
  409MPD2    N1 6114   2.484   4.169  17.280 -0.8082 -0.5882 -0.3342
  409MPD2    H7 6115   2.537   4.225  17.345 -1.6481  0.0112 -0.1572
  410TMC3    C1 6116   2.850   4.607  16.937 -0.6295  0.1704  0.6475
  410TMC3    C2 6117   2.976   4.635  16.975  0.0199 -0.0730 -0.3549
  410TMC3    C3 6118   3.059   4.705  16.887 -0.1439 -0.6850 -0.5453
  410TMC3    C4 6119   2.786   4.668  16.835  0.3758 -0.4375  0.5046
  410TMC3    C5 6120   2.862   0.034  16.757 -0.6359 -0.5177 -0.1485
  410TMC3    C6 6121   2.998   0.051  16.784  0.1454  0.2639 -0.5907
  410TMC3     C 6122   2.783   4.500  17.004 -0.6894  0.3899 -0.1739
  410TMC3     O 6123   2.836   4.471  17.114 -0.8814 -0.2231  0.4412
  410TMC3     H 6124   3.013   4.604  17.072 -0.7720  0.1501  0.0250
  410TMC3    H1 6125   2.678   4.664  16.819  0.6549 -2.4254 -0.9058
  410TMC3    H2 6126   3.062   0.083  16.703 -0.8337  1.4626 -0.8963
  410TMC3    C7 6127   2.801   0.060  16.624 -0.3925 -0.1960  0.0989
  410TMC3    C8 6128   3.191   0.025  16.933  0.9081 -0.0907 -0.0206
  410TMC3    O1 6129   2.716   4.701  16.586  0.3273 -0.0293  0.7982
  410TMC3    O2 6130   3.237   0.135  16.901  0.2383 -0.1870 -0.5791
  411MPD2     C 6131   3.423   0.860  14.769 -0.2090  0.0022  0.3805
  411MPD2    C1 6132   3.448   0.822  14.640 -0.8250  0.0325  0.1635
  411MPD2    C2 6133   3.477   0.690  14.611 -0.0604  0.7491 -0.2298
  411MPD2    C3 6134   3.472   0.603  14.718  0.9968  0.3777 -0.0492
  411MPD2    C4 6135   3.440   0.641  14.843  0.7315  0.2672 -1.0091
  411MPD2    C5 6136   3.410   0.771  14.874  0.0036 -0.2660 -0.7949
  411MPD2     H 6137   3.501   0.659  14.510  1.2170 -0.0625  0.3265
  411MPD2    H1 6138   3.432   0.571  14.926 -1.8139  2.6318  0.7402
  411MPD2    H2 6139   3.398   0.963  14.790 -0.4085  0.3813 -1.6816
  411MPD2    H3 6140   3.385   0.806  14.973  0.4661 -1.0741 -0.3948
  411MPD2     N 6141   3.487   0.463  14.699 -0.2577  0.1022 -0.1494
  411MPD2    H5 6142   3.482   0.404  14.782  0.7349  1.7881  1.1274
  411MPD2    N1 6143   3.453   0.933  14.548 -0.7775  0.3510  0.5052
  411MPD2    H7 6144   3.443   1.024  14.592  0.6842  0.5245  0.4710
  412TMC3    C1 6145   3.493   0.261  14.609 -0.2310 -0.7709 -0.4547
  412TMC3    C2 6146   3.361   0.229  14.620  0.4537 -0.3833  0.3739
  412TMC3    C3 6147   3.314   0.132  14.534  0.3698  0.0014 -0.5257
  412TMC3    C4 6148   3.575   0.187  14.525  0.6017 -0.4590 -0.2807
  412TMC3    C5 6149   3.531   0.084  14.448  0.3811 -0.4178  0.3931
  412TMC3    C6 6150   3.398   0.055  14.461  0.4413 -0.5557 -0.0821
  412TMC3     C 6151   3.513   0.399  14.583 -0.3078 -0.9417 -0.1302
  412TMC3     O 6152   3.533   0.442  14.474 -0.7348 -0.1036 -0.7906
  412TMC3     H 6153   3.289   0.285  14.678  1.1497  0.1845  0.6957
  412TMC3    H1 6154   3.674   0.225  14.502 -0.0927  1.5479 -0.0232
  412TMC3    H2 6155   3.349   4.691  14.412  1.6693 -0.8878 -0.7426
  412TMC3    C7 6156   3.597   0.052  14.325  0.6791 -0.1738 -0.3053
  412TMC3    C8 6157   3.224   0.200  14.444  0.5946 -0.2462 -0.1113
  412TMC3    O1 6158   3.697   0.119  14.301 -0.0653  0.4728 -0.1220
  412TMC3    O2 6159   3.134   0.261  14.497 -0.0670 -0.3521 -0.2604
  413MPD2     C 6160   0.017   2.876  15.699 -0.0087 -0.4909  0.1236
  413MPD2    C1 6161   4.664   2.829  15.587 -0.0178  0.1594  0.2435
  413MPD2    C2 6162   4.695   2.713  15.519  0.0332  0.8746 -0.1360
  413MPD2    C3 6163   0.090   2.650  15.543  0.3749 -0.3259  0.5121
  413MPD2    C4 6164   0.154   2.681  15.665  0.8923  0.3697 -0.8011
  413MPD2    C5 6165   0.121   2.797  15.737  0.5955 -0.1944  0.9556
  413MPD2     H 6166   4.636   2.687  15.432 -0.4883 -2.3208  1.1757
  413MPD2    H1 6167   0.236   2.618  15.698  1.3061  0.0825 -2.3824
  413MPD2    H2 6168   4.715   2.968  15.751 -0.1688 -0.2778 -0.3206
  413MPD2    H3 6169   0.165   2.841  15.826  0.9510  1.6415 -0.1264
  413MPD2     N 6170   0.139   2.553  15.448 -0.2842 -0.1838  0.0919
  413MPD2    H5 6171   0.088   2.529  15.363  0.5065  1.4609 -0.8426
  413MPD2    N1 6172   4.549   2.907  15.563 -0.0663 -0.0248 -0.0817
  413MPD2    H7 6173   4.530   2.986  15.624 -1.3953  0.2496 -0.8591
  414TMC3    C1 6174   0.303   2.419  15.340 -0.4468  0.5163 -0.5084
  414TMC3    C2 6175   0.345   2.291  15.351 -0.0326  0.0044  0.2832
  414TMC3    C3 6176   0.424   2.235  15.250 -0.4124  0.0877 -0.1077
  414TMC3    C4 6177   0.332   2.494  15.232  1.0722  0.1755 -0.1701
  414TMC3    C5 6178   0.401   2.435  15.126 -0.2263  0.2881  0.2634
  414TMC3    C6 6179   0.448   2.302  15.130 -0.2680 -0.1667  0.9203
  414TMC3     C 6180   0.254   2.476  15.465  0.4533 -0.3474  0.8440
  414TMC3     O 6181   0.296   2.419  15.562  0.8190 -0.6861  0.0604
  414TMC3     H 6182   0.336   2.230  15.440 -0.2187 -0.3677  0.0089
  414TMC3    H1 6183   0.314   2.601  15.238 -0.9979 -0.3007  2.2498
  414TMC3    H2 6184   0.523   2.262  15.063  1.7225  0.8738  2.5216
  414TMC3    C7 6185   0.493   2.521  15.064 -0.1400  0.0004 -0.0825
  414TMC3    C8 6186   0.476   2.105  15.253  0.6944  0.9701 -0.3498
  414TMC3    O1 6187   0.526   2.623  15.115 -0.0507 -0.1867 -0.3597
  414TMC3    O2 6188   0.456   2.032  15.156  0.0057  0.7844  0.2916
  415TMC3    C1 6189   1.208   1.066   9.593 -0.7463  0.2943  0.1142
  415TMC3    C2 6190   1.305   1.111   9.508 -0.2600 -0.1232  0.1028
  415TMC3    C3 6191   1.356   1.013   9.423  0.4261  0.0128 -0.2128
  415TMC3    C4 6192   1.172   0.935   9.596 -0.1637  0.6078  0.7222
  415TMC3    C5 6193   1.214   0.847   9.499 -0.8655  0.0579 -0.4405
  415TMC3    C6 6194   1.313   0.882   9.408  0.4069 -0.2105 -0.2631
  415TMC3     C 6195   1.136   1.161   9.683  0.7351 -0.4896 -0.1610
  415TMC3     O 6196   1.016   1.138   9.698 -0.3797 -0.2062 -0.0192
  415TMC3     H 6197   1.320   1.217   9.492  1.6173 -0.2983  0.6821
  415TMC3    H1 6198   1.089   0.903   9.658 -0.4389  0.6858  0.3978
  415TMC3    H2 6199   1.362   0.811   9.342  0.6523 -0.4519  0.1852
  415TMC3    C7 6200   1.152   0.717   9.484 -0.0084 -0.4124 -0.9912
  415TMC3    C8 6201   1.445   1.054   9.320 -0.5139 -0.8271  0.0360
  415TMC3    O1 6202   1.212   0.632   9.423 -0.5266  0.7297 -0.4508
  415TMC3    O2 6203   1.463   0.979   9.221  0.1742  0.1159 -0.0244
  416MPD2     C 6204   2.877   0.135  11.453 -0.0466  0.3085  0.1000
  416MPD2    C1 6205   2.750   0.111  11.420  0.0256 -0.2938 -0.2094
  416MPD2    C2 6206   2.721   0.000  11.340  0.0297  0.6371  0.0329
  416MPD2    C3 6207   2.828   4.646  11.283 -0.0557  0.0180 -0.4532
  416MPD2    C4 6208   2.959   4.694  11.306 -0.3146  0.0447  0.1662
  416MPD2    C5 6209   2.978   0.075  11.388  0.1206 -0.2273 -0.3410
  416MPD2     H 6210   2.622   4.697  11.303 -0.1719 -2.8957  2.7129
  416MPD2    H1 6211   3.044   4.645  11.259 -0.8391  0.8215 -1.6294
  416MPD2    H2 6212   2.902   0.220  11.515 -0.3705 -0.0929  0.7862
  416MPD2    H3 6213   3.080   0.104  11.411 -0.4052  1.1912  0.2207
  416MPD2     N 6214   2.797   4.524  11.211 -0.4656 -0.5317  1.0901
  416MPD2    H5 6215   2.699   4.502  11.201 -0.4259 -0.8740  1.4193
  416MPD2    N1 6216   2.642   0.189  11.476  0.3632 -0.0855 -0.0361
  416MPD2    H7 6217   2.680   0.265  11.531 -0.6825  0.5466 -0.1868
  417TMC3    C1 6218   2.452   0.310  11.487 -0.5805 -0.2920 -0.4514
  417TMC3    C2 6219   2.465   0.348  11.621 -0.5919 -0.7669  0.3360
  417TMC3    C3 6220   2.354   0.424  11.666 -0.0929 -0.6389  0.0587
  417TMC3    C4 6221   2.343   0.342  11.412 -0.0094  0.0011  0.0507
  417TMC3    C5 6222   2.257   0.433  11.460  0.6954  0.5505  0.0940
  417TMC3    C6 6223   2.254   0.477  11.588  0.2666 -0.4073  1.2657
  417TMC3     C 6224   2.511   0.186  11.449  0.3574 -0.0510 -0.0638
  417TMC3     O 6225   2.454   0.122  11.364 -0.0469  0.0311 -0.0950
  417TMC3     H 6226   2.537   0.298  11.685 -0.5910  0.5376  1.3519
  417TMC3    H1 6227   2.327   0.329  11.306 -1.1659  2.7782 -0.1347
  417TMC3    H2 6228   2.189   0.560  11.615  0.8375  0.0185  1.3349
  417TMC3    C7 6229   2.211   0.523  11.359  0.2636  0.1224 -0.6350
  417TMC3    C8 6230   2.357   0.467  11.805  0.4245 -0.8200 -0.4648
  417TMC3    O1 6231   2.290   0.574  11.280  0.2928  0.0297 -0.6545
  417TMC3    O2 6232   2.263   0.531  11.844 -0.1092 -0.1270  0.7087
  418TMC3    C1 6233   0.419   2.922   0.346  0.5904 -0.0546 -0.0107
  418TMC3    C2 6234   0.350   2.849   0.252  0.7721 -0.3953  0.3887
  418TMC3    C3 6235   0.218   2.830   0.280 -0.4267 -0.3138  0.0550
  418TMC3    C4 6236   0.358   2.962   0.463 -0.0083  0.1835  0.1385
  418TMC3    C5 6237   0.231   2.919   0.492  0.5817  0.1460  0.9849
  418TMC3    C6 6238   0.159   2.853   0.401  0.5323 -0.1018  0.4207
  418TMC3     C 6239   0.559   2.872   0.358 -0.0076 -0.3620  0.2186
  418TMC3     O 6240   0.601   2.870   0.470 -0.2316 -0.1168 -0.1195
  418TMC3     H 6241   0.393   2.809   0.160  1.2208  1.0438 -0.0444
  418TMC3    H1 6242   0.420   3.006   0.540 -0.0594  3.1400 -1.5237
  418TMC3    H2 6243   0.056   2.823   0.418 -0.2671  1.9420 -0.7485
  418TMC3    C7 6244   0.213   2.865   0.618 -0.8465 -0.0146 -0.5865
  418TMC3    C8 6245   0.152   2.747   0.190  0.5445 -0.7128 -1.4900
  418TMC3    O1 6246   0.308   2.835   0.686 -0.0792  0.3520 -0.7387
  418TMC3    O2 6247   0.119   2.796   0.083 -0.3160  0.3040  0.2036
  419MPD2     C 6248   0.024   4.484  12.470 -0.0493 -0.2464 -0.1369
  419MPD2    C1 6249   4.718   4.610  12.436  0.8139  0.0791  0.0162
  419MPD2    C2 6250   4.677   4.694  12.531 -0.3066  0.7288  0.3393
  419MPD2    C3 6251   4.682   4.672  12.665 -0.1023 -0.3936  0.6249
  419MPD2    C4 6252   4.715   4.549  12.707  0.7023  0.3927  0.2909
  419MPD2    C5 6253   0.033   4.455  12.610 -0.0865  0.6240 -1.5133
  419MPD2     H 6254   4.658   0.078  12.505  0.3233  0.4970 -1.0622
  419MPD2    H1 6255   0.006   4.518  12.811  1.2799  1.8633  0.6751
  419MPD2    H2 6256   0.043   4.407  12.397  0.6384 -1.3595  1.2216
  419MPD2    H3 6257   0.062   4.353  12.629  0.8197  1.4639  1.6182
  419MPD2     N 6258   4.654   0.057  12.759  0.4315 -0.3021  0.3009
  419MPD2    H5 6259   4.614   0.143  12.723 -1.1246 -0.9030  0.5777
  419MPD2    N1 6260   4.711   4.650  12.305 -0.2782  0.5869  0.2479
  419MPD2    H7 6261   4.676   0.024  12.287 -3.3694 -0.5011  0.6608
  420TMC3    C1 6262   4.601   0.174  12.954  0.1192 -0.2127 -0.2789
  420TMC3    C2 6263   4.492   0.235  12.902  0.0553  0.4723  0.1644
  420TMC3    C3 6264   4.447   0.356  12.956 -0.1990  0.7829 -0.1072
  420TMC3    C4 6265   4.661   0.227  13.062 -0.2887  0.0500 -0.7066
  420TMC3    C5 6266   4.607   0.338  13.123  0.0910  0.4298 -1.0526
  420TMC3    C6 6267   4.504   0.409  13.067 -0.8986 -0.2266 -0.0728
  420TMC3     C 6268   4.649   0.050  12.896 -0.3719 -0.2499  0.1409
  420TMC3     O 6269   4.697   4.682  12.973  0.3912 -0.5801 -0.9693
  420TMC3     H 6270   4.445   0.194  12.813  0.7729 -0.7134  0.3327
  420TMC3    H1 6271   0.014   0.162  13.110 -0.6381  1.2455  1.4255
  420TMC3    H2 6272   4.476   0.508  13.103  1.3145 -0.1859  1.5169
  420TMC3    C7 6273   4.643   0.368  13.259  0.1154  0.7170  0.1318
  420TMC3    C8 6274   4.352   0.438  12.886  0.3040 -0.0199 -0.4818
  420TMC3    O1 6275   4.559   0.423  13.332 -0.4157 -0.1629  0.3531
  420TMC3    O2 6276   4.305   0.540  12.931 -0.4282  0.1502  0.1610
  421TMC3    C1 6277   0.769   2.044  13.663 -0.6311  0.2930  0.4905
  421TMC3    C2 6278   0.766   2.107  13.788 -0.2802  0.3010  0.2328
  421TMC3    C3 6279   0.876   2.132  13.847  0.5308 -0.2384  0.3111
  421TMC3    C4 6280   0.885   2.010  13.599  0.3090  0.4756 -0.3051
  421TMC3    C5 6281   0.998   2.054  13.665 -0.0328 -0.5024 -0.1479
  421TMC3    C6 6282   0.998   2.100  13.794 -0.0639  0.1577 -0.1015
  421TMC3     C 6283   0.651   2.063  13.581  0.2513 -0.3517 -0.1085
  421TMC3     O 6284   0.586   2.168  13.584 -0.3284  0.4201  0.1065
  421TMC3     H 6285   0.669   2.137  13.828  0.0824 -2.2748  3.0016
  421TMC3    H1 6286   0.883   1.961  13.503 -1.5845 -0.5603  0.2573
  421TMC3    H2 6287   1.096   2.110  13.839 -0.6945 -1.4238  1.6423
  421TMC3    C7 6288   1.130   1.996  13.629  0.5030 -0.0774  0.6519
  421TMC3    C8 6289   0.870   2.202  13.975  0.0864 -0.2585 -1.0635
  421TMC3    O1 6290   1.223   2.063  13.665  0.0385 -0.1734  0.2602
  421TMC3    O2 6291   0.754   2.210  14.020  0.6243 -0.1195 -0.0210
  422TMC3    C1 6292   3.693   2.936  12.778  0.0093 -0.0681 -0.4929
  422TMC3    C2 6293   3.670   3.073  12.764 -0.5529 -0.2439  0.0233
  422TMC3    C3 6294   3.542   3.120  12.774 -0.6849  0.6437 -0.0262
  422TMC3    C4 6295   3.589   2.855  12.797 -0.0266  0.9319 -0.1479
  422TMC3    C5 6296   3.460   2.911  12.807  0.2514  0.7554  0.9648
  422TMC3    C6 6297   3.431   3.046  12.804 -0.2822  0.0489  0.5686
  422TMC3     C 6298   3.801   2.884  12.699  0.0243 -0.2092  0.8832
  422TMC3     O 6299   3.861   2.967  12.629  0.1383  0.6310  0.5062
  422TMC3     H 6300   3.747   3.137  12.721 -0.1645 -1.0786 -0.5333
  422TMC3    H1 6301   3.607   2.748  12.806  1.9952  1.1726 -1.4056
  422TMC3    H2 6302   3.336   3.096  12.810  0.5264  1.9399 -2.0803
  422TMC3    C7 6303   3.353   2.810  12.813 -0.8769 -0.2197 -0.3729
  422TMC3    C8 6304   3.521   3.259  12.737 -0.2597 -0.2287 -0.4236
  422TMC3    O1 6305   3.385   2.699  12.857 -0.3159  0.2206 -1.1087
  422TMC3    O2 6306   3.621   3.330  12.762 -0.5603  0.2037  0.4968
  423MPD2     C 6307   4.450   4.278   0.254  0.4329  0.4623 -0.4893
  423MPD2    C1 6308   4.472   4.170   0.337 -0.1685  0.5174 -0.5737
  423MPD2    C2 6309   4.481   4.041   0.276 -0.4610 -0.2163  0.2792
  423MPD2    C3 6310   4.467   4.026   0.136 -0.0769 -0.1522  0.4705
  423MPD2    C4 6311   4.427   4.138   0.063 -0.5409  0.1790  0.3888
  423MPD2    C5 6312   4.412   4.260   0.121  0.1609  0.6516 -0.4707
  423MPD2     H 6313   4.514   3.965   0.345  0.0941 -0.1442  0.0929
  423MPD2    H1 6314   4.403   4.113  17.641 -0.2776 -1.0903  0.6356
  423MPD2    H2 6315   4.440   4.382   0.285 -0.7416  0.0020  0.6812
  423MPD2    H3 6316   4.364   4.341   0.068  0.0578  0.4208 -0.7319
  423MPD2     N 6317   4.481   3.902   0.072  0.3995  0.0605  0.3440
  423MPD2    H5 6318   4.472   3.907  17.651 -1.9955 -2.1905  0.4447
  423MPD2    N1 6319   4.490   4.184   0.475 -0.1895 -0.5378  0.0070
  423MPD2    H7 6320   4.518   4.099   0.522 -0.6814 -0.0666  1.1520
  424TMC3    C1 6321   4.480   4.278   0.699  0.0657  0.8017 -0.0312
  424TMC3    C2 6322   4.545   4.165   0.748 -0.0587  0.4658 -0.6064
  424TMC3    C3 6323   4.561   4.154   0.886  0.0653  0.6077 -0.1955
  424TMC3    C4 6324   4.437   4.378   0.780 -0.2355 -0.3531  0.2417
  424TMC3    C5 6325   4.453   4.367   0.914  0.9017  0.2965 -0.4721
  424TMC3    C6 6326   4.516   4.257   0.975  0.1636  0.4984  0.2648
  424TMC3     C 6327   4.449   4.290   0.554  0.0543 -0.0165  0.2782
  424TMC3     O 6328   4.400   4.395   0.514 -0.4252  0.8444  0.0740
  424TMC3     H 6329   4.567   4.074   0.694 -2.7067 -0.6818  0.2485
  424TMC3    H1 6330   4.395   4.466   0.731  0.9298 -1.6826 -3.1970
  424TMC3    H2 6331   4.541   4.246   1.080  2.0872 -2.9921 -0.5674
  424TMC3    C7 6332   4.395   4.471   0.998  0.0807 -0.5076 -0.2136
  424TMC3    C8 6333   4.630   4.046   0.947 -0.2277  0.5268  0.6062
  424TMC3    O1 6334   4.361   4.568   0.934  0.3369  0.1334  0.1318
  424TMC3    O2 6335   4.608   4.021   1.063  0.5380  0.4124  1.1381
  425MPD2     C 6336   3.632   3.388  17.199  0.2637 -0.0430  0.0750
  425MPD2    C1 6337   3.625   3.303  17.305 -0.7121 -0.8398  1.2253
  425MPD2    C2 6338   3.537   3.330  17.405  0.0373  0.2720  0.5750
  425MPD2    C3 6339   3.444   3.439  17.393 -0.6524  0.4676  0.2613
  425MPD2    C4 6340   3.461   3.526  17.283  0.4244  0.2073 -0.5426
  425MPD2    C5 6341   3.551   3.496  17.189 -0.0712  0.1914 -0.2322
  425MPD2     H 6342   3.528   3.260  17.488  1.4743 -0.9527 -0.2947
  425MPD2    H1 6343   3.390   3.608  17.274  1.0135  0.7668 -0.1081
  425MPD2    H2 6344   3.698   3.367  17.116  0.8474 -2.8545  1.2543
  425MPD2    H3 6345   3.556   3.564  17.105 -3.0008  0.3204 -0.2924
  425MPD2     N 6346   3.334   3.437  17.477  0.3350 -0.3708 -0.7055
  425MPD2    H5 6347   3.329   3.356  17.539  0.1204 -0.1657 -0.4545
  425MPD2    N1 6348   3.713   3.194  17.301 -0.3964  0.0107 -0.1572
  425MPD2    H7 6349   3.760   3.182  17.212  0.2070 -1.1183  0.3212
  426TMC3    C1 6350   3.837   3.000  17.352  0.5116  0.2051 -0.4094
  426TMC3    C2 6351   3.785   2.932  17.242  0.0830  0.3360 -0.4349
  426TMC3    C3 6352   3.831   2.805  17.215  0.0980  0.7179 -0.0847
  426TMC3    C4 6353   3.926   2.944  17.436 -0.0637  0.2648 -0.7577
  426TMC3    C5 6354   3.962   2.818  17.413  0.3612 -0.0546 -0.5185
  426TMC3    C6 6355   3.919   2.744  17.303 -0.2150  0.6485  0.3294
  426TMC3     C 6356   3.751   3.109  17.403  0.0530 -0.0748 -0.2847
  426TMC3     O 6357   3.732   3.122  17.524 -0.1905  0.4164 -0.0942
  426TMC3     H 6358   3.723   2.986  17.171 -0.5577  1.5648  1.0513
  426TMC3    H1 6359   3.982   3.011  17.501 -0.5155 -0.5644  0.4880
  426TMC3    H2 6360   3.951   2.641  17.294  1.5201  1.0864  1.5277
  426TMC3    C7 6361   4.050   2.761  17.511  0.2282 -0.3713 -0.0306
  426TMC3    C8 6362   3.770   2.718  17.110  0.2035 -0.1454 -0.7300
  426TMC3    O1 6363   4.101   2.652  17.479  0.4085  0.6361  0.5128
  426TMC3    O2 6364   3.833   2.620  17.086 -0.6222 -0.0456  0.1577
  427MPD2     C 6365   2.239   0.104  14.025  0.4014 -0.1857 -0.1574
  427MPD2    C1 6366   2.248   0.011  14.131 -0.8519  0.4125 -0.3866
  427MPD2    C2 6367   2.140   0.004  14.230  0.6761  0.0292  0.1550
  427MPD2    C3 6368   2.032   0.092  14.217 -0.3409 -0.2181 -0.0229
  427MPD2    C4 6369   2.032   0.178  14.110 -0.2977 -0.1037 -0.3712
  427MPD2    C5 6370   2.135   0.184  14.018 -0.3672 -0.5831 -0.0370
  427MPD2     H 6371   2.145   4.654  14.313  1.4486 -0.9788 -0.7321
  427MPD2    H1 6372   1.960   0.258  14.097 -2.1507 -1.9186 -1.1704
  427MPD2    H2 6373   2.311   0.124  13.947  2.6574 -0.4176  1.8449
  427MPD2    H3 6374   2.127   0.260  13.941 -3.5116 -1.0538 -0.1817
  427MPD2     N 6375   1.935   0.105  14.313 -0.5939  0.2885 -0.0490
  427MPD2    H5 6376   1.860   0.165  14.279 -0.3807 -0.4795 -1.8812
  427MPD2    N1 6377   2.366   4.652  14.147  0.1318 -0.3766 -0.5783
  427MPD2    H7 6378   2.374   4.601  14.234  2.3622  0.0265 -0.5574
  428TMC3    C1 6379   2.593   4.598  14.157  0.1875  0.4322  0.0779
  428TMC3    C2 6380   2.560   4.480  14.223 -0.8515  0.4077 -0.2752
  428TMC3    C3 6381   2.629   4.459  14.347  1.0099 -0.0767 -0.0787
  428TMC3    C4 6382   2.674   4.688  14.221  0.0840  0.2589  0.6895
  428TMC3    C5 6383   2.735   4.665  14.335  0.0637  0.5926 -0.1076
  428TMC3    C6 6384   2.718   4.547  14.401  0.0186 -0.3988 -0.0656
  428TMC3     C 6385   2.484   4.659  14.078 -0.0798 -0.2131  0.2727
  428TMC3     O 6386   2.522   0.018  13.991  0.0718  0.1099  0.4817
  428TMC3     H 6387   2.497   4.405  14.176 -0.9703  0.6803 -0.5557
  428TMC3    H1 6388   2.667   0.068  14.179 -3.1628 -0.0182  0.5756
  428TMC3    H2 6389   2.756   4.534  14.502  2.1057  1.7771 -0.5685
  428TMC3    C7 6390   2.779   0.063  14.414 -0.1090  0.2102  0.0046
  428TMC3    C8 6391   2.616   4.322  14.411 -0.2264  1.1190 -0.0303
  428TMC3    O1 6392   2.811   0.047  14.530  0.0748 -0.1814 -0.2578
  428TMC3    O2 6393   2.547   4.237  14.352  0.1080 -0.3519 -0.4791
  429MPD2     C 6394   3.037   0.584  17.561  0.6324  1.0383 -0.1105
  429MPD2    C1 6395   3.161   0.529  17.537  1.4675  1.0997 -0.2311
  429MPD2    C2 6396   3.251   0.608  17.470 -0.5701 -0.6862 -0.7232
  429MPD2    C3 6397   3.210   0.732  17.420 -0.2494 -0.1060 -0.3159
  429MPD2    C4 6398   3.083   0.785  17.450 -0.1286 -0.3028 -0.4860
  429MPD2    C5 6399   2.995   0.713  17.526  0.5086 -0.3723 -0.2850
  429MPD2     H 6400   3.350   0.569  17.449  0.3472 -0.0266  2.3484
  429MPD2    H1 6401   3.044   0.873  17.401 -0.8292 -0.7134 -0.6685
  429MPD2    H2 6402   2.967   0.528  17.621  1.8541  0.4910  0.7731
  429MPD2    H3 6403   2.897   0.753  17.548 -0.0232 -1.4215 -0.7243
  429MPD2     N 6404   3.301   0.794  17.329  0.5678  0.1203 -0.3628
  429MPD2    H5 6405   3.373   0.733  17.292 -0.6712 -0.0154 -2.5518
  429MPD2    N1 6406   3.192   0.396  17.582 -0.3870 -0.3744 -0.1484
  429MPD2    H7 6407   3.114   0.352  17.630 -0.2553 -0.3017  0.1273
  430TMC3    C1 6408   3.374   0.932  17.157  0.6558  0.0489  0.6174
  430TMC3    C2 6409   3.337   1.029  17.071 -0.3244 -0.2138  0.0354
  430TMC3    C3 6410   3.411   1.040  16.953 -0.0163 -0.3088 -0.3609
  430TMC3    C4 6411   3.473   0.847  17.132  0.7594 -0.3582 -0.1490
  430TMC3    C5 6412   3.550   0.864  17.016 -0.1622  0.3218  0.0245
  430TMC3    C6 6413   3.515   0.957  16.921 -0.6940 -0.3743  0.4905
  430TMC3     C 6414   3.282   0.913  17.269  0.5636 -0.2122 -0.4020
  430TMC3     O 6415   3.215   1.006  17.314  0.9399  0.1990  0.2984
  430TMC3     H 6416   3.248   1.092  17.070  0.2780  0.6582  1.4855
  430TMC3    H1 6417   3.505   0.766  17.196 -0.2691  0.1949  1.0726
  430TMC3    H2 6418   3.552   0.965  16.820  2.3764  0.3238  1.6882
  430TMC3    C7 6419   3.587   0.732  16.961 -0.6502 -0.7628 -0.1400
  430TMC3    C8 6420   3.345   1.102  16.839  0.1841  0.0604  0.4580
  430TMC3    O1 6421   3.525   0.629  16.999 -0.0307 -0.2584  0.1539
  430TMC3    O2 6422   3.223   1.112  16.840 -0.2942  0.3760 -0.0907
  431MPD2     C 6423   4.329   0.643  12.279  0.0630  1.0580 -0.3536
  431MPD2    C1 6424   4.403   0.656  12.170 -0.0390 -0.0844 -0.6440
  431MPD2    C2 6425   4.458   0.546  12.108  0.8178  0.0160  0.6211
  431MPD2    C3 6426   4.431   0.414  12.154 -0.3763 -1.3335  0.1419
  431MPD2    C4 6427   4.347   0.405  12.266  0.4940 -0.1229  0.4494
  431MPD2    C5 6428   4.300   0.519  12.325  0.3991 -0.7961 -0.4928
  431MPD2     H 6429   4.529   0.561  12.027  1.4051  2.3633  1.5750
  431MPD2    H1 6430   4.324   0.306  12.303  0.5393 -0.4158 -0.2946
  431MPD2    H2 6431   4.293   0.730  12.334 -4.7950 -0.0421 -1.7336
  431MPD2    H3 6432   4.236   0.514  12.413 -0.7028  1.6205 -1.1410
  431MPD2     N 6433   4.501   0.297  12.110 -0.0113 -0.0203 -0.2930
  431MPD2    H5 6434   4.477   0.210  12.156 -0.5023  0.4182  0.2814
  431MPD2    N1 6435   4.441   0.786  12.131 -0.6002  0.0905 -0.2923
  431MPD2    H7 6436   4.395   0.860  12.182 -1.6347 -1.3531  0.8668
  432TMC3    C1 6437   4.677   0.173  12.000 -0.3665  0.5624  0.3174
  432TMC3    C2 6438   0.042   0.170  11.889 -0.2303  0.3940 -0.1539
  432TMC3    C3 6439   0.131   0.064  11.885 -0.1258  0.8058  0.5475
  432TMC3    C4 6440   4.669   0.078  12.092 -0.0289 -0.7022 -0.5420
  432TMC3    C5 6441   0.034   4.688  12.081 -0.4044  1.5519  0.0327
  432TMC3    C6 6442   0.128   4.682  11.977  0.1392 -0.2107  0.8363
  432TMC3     C 6443   4.600   0.296  12.014 -0.4970 -0.1785  1.0545
  432TMC3     O 6444   4.635   0.389  11.943 -0.7901 -0.2941 -0.0563
  432TMC3     H 6445   0.036   0.246  11.812 -2.5554 -1.2036 -1.5660
  432TMC3    H1 6446   4.586   0.074  12.162 -0.1819  1.3480 -0.5892
  432TMC3    H2 6447   0.188   4.591  11.976  0.0194 -0.2994  2.5138
  432TMC3    C7 6448   0.052   4.595  12.194  0.1980  0.1594  0.4654
  432TMC3    C8 6449   0.246   0.072  11.792  0.6875  0.0189  0.0814
  432TMC3    O1 6450   0.120   4.495  12.180  0.2512 -0.3481 -0.1195
  432TMC3    O2 6451   0.307   4.688  11.777 -0.1519 -0.2995  0.1926
  433MPD2     C 6452   3.810   3.988  10.576  0.4194 -0.6129  0.5537
  433MPD2    C1 6453   3.755   3.910  10.674 -0.1982 -0.1483 -0.0282
  433MPD2    C2 6454   3.737   3.959  10.799 -0.1819 -0.1934  0.5771
  433MPD2    C3 6455   3.786   4.080  10.831 -0.6804  0.2121  0.7621
  433MPD2    C4 6456   3.845   4.163  10.731  0.5971  0.5878 -0.2495
  433MPD2    C5 6457   3.860   4.115  10.607 -0.3047 -0.4157  0.2548
  433MPD2     H 6458   3.689   3.901  10.878 -0.5989  1.6060  1.6534
  433MPD2    H1 6459   3.887   4.261  10.753 -1.5823  1.4132  0.2285
  433MPD2    H2 6460   3.814   3.957  10.473 -2.5051 -1.9628  0.8555
  433MPD2    H3 6461   3.901   4.175  10.526 -0.3555 -1.5056 -0.5803
  433MPD2     N 6462   3.770   4.124  10.960 -0.2966  0.1356  0.3164
  433MPD2    H5 6463   3.714   4.066  11.021 -0.3887 -0.7644 -0.6352
  433MPD2    N1 6464   3.729   3.768  10.649  0.3947  0.4139  0.0444
  433MPD2    H7 6465   3.705   3.710  10.729 -0.7804  1.8524  0.7203
  434TMC3    C1 6466   3.706   3.578  10.524  0.2343  0.0694  0.3401
  434TMC3    C2 6467   3.764   3.500  10.623 -0.3109 -0.9274  0.1785
  434TMC3    C3 6468   3.739   3.366  10.623  0.3828 -0.1328  0.3621
  434TMC3    C4 6469   3.648   3.525  10.415  0.3902 -0.1203  0.3310
  434TMC3    C5 6470   3.627   3.392  10.418  1.0772  0.1931 -0.1981
  434TMC3    C6 6471   3.669   3.309  10.520  0.2672  0.2011 -0.2721
  434TMC3     C 6472   3.722   3.720  10.521  0.3174  0.5884 -0.5155
  434TMC3     O 6473   3.698   3.780  10.416 -0.5484  0.0447  0.1197
  434TMC3     H 6474   3.817   3.549  10.704 -2.3262  2.8018 -0.7916
  434TMC3    H1 6475   3.627   3.591  10.331 -0.7238 -1.3909 -0.3855
  434TMC3    H2 6476   3.669   3.200  10.519 -0.9810  0.1930 -0.3920
  434TMC3    C7 6477   3.509   3.352  10.339 -0.6609  0.4836 -0.2637
  434TMC3    C8 6478   3.777   3.296  10.743 -0.2387 -0.1989  0.3673
  434TMC3    O1 6479   3.451   3.437  10.272  0.2790  0.3492  0.1320
  434TMC3    O2 6480   3.845   3.362  10.822  0.3755  0.3556 -0.7093
  435MPD2     C 6481   0.022   3.235  15.558  0.7821  0.0435 -0.0832
  435MPD2    C1 6482   0.018   3.296  15.681  0.0809  0.6000  0.3051
  435MPD2    C2 6483   0.137   3.321  15.739 -0.1482 -0.0306  0.6400
  435MPD2    C3 6484   0.259   3.287  15.682  0.6735  0.6987  0.3469
  435MPD2    C4 6485   0.263   3.230  15.557 -0.0916  0.1165 -1.1204
  435MPD2    C5 6486   0.144   3.205  15.496 -0.9791  0.6827 -0.5556
  435MPD2     H 6487   0.142   3.381  15.829  1.1343  0.5034  0.2095
  435MPD2    H1 6488   0.352   3.210  15.499  0.7872 -0.0900  0.2923
  435MPD2    H2 6489   4.659   3.216  15.490 -1.2539 -1.6147  2.8500
  435MPD2    H3 6490   0.145   3.165  15.395 -1.5183 -1.2997  0.2289
  435MPD2     N 6491   0.378   3.336  15.747 -0.4016 -0.0600  0.1128
  435MPD2    H5 6492   0.365   3.374  15.840 -2.1142 -0.1279 -0.1026
  435MPD2    N1 6493   4.618   3.340  15.736  0.0416  0.0485  0.3083
  435MPD2    H7 6494   4.618   3.404  15.814  2.1033  0.8958 -0.3832
  436TMC3    C1 6495   4.304   3.558  15.882 -0.4162  1.0239  0.2481
  436TMC3    C2 6496   4.413   3.505  15.821 -0.6688 -0.5225  0.2787
  436TMC3    C3 6497   4.392   3.402  15.734  0.1637  0.3328 -0.2036
  436TMC3    C4 6498   4.178   3.510  15.868  0.1713 -0.4158 -0.2264
  436TMC3    C5 6499   4.159   3.411  15.774  0.4335 -0.4774 -0.4897
  436TMC3    C6 6500   4.263   3.359  15.707  0.4247 -0.5002 -0.2368
  436TMC3     C 6501   4.332   3.647  15.997 -0.6252 -0.4114 -0.5143
  436TMC3     O 6502   4.449   3.644  16.033  0.3098  0.1742 -0.1084
  436TMC3     H 6503   4.510   3.553  15.828 -1.0800  0.4764 -0.8037
  436TMC3    H1 6504   4.093   3.542  15.928  0.9704  0.0428  0.6703
  436TMC3    H2 6505   4.248   3.268  15.649  1.1866 -0.9499  0.2663
  436TMC3    C7 6506   4.023   3.374  15.732  0.6306  0.0493  0.5878
  436TMC3    C8 6507   4.493   3.313  15.684  0.0408  0.0413 -0.9154
  436TMC3    O1 6508   4.019   3.303  15.632  0.1770  0.0595  0.1562
  436TMC3    O2 6509   4.466   3.225  15.601 -0.3194  0.3588 -0.0900
  437TMC3    C1 6510   3.952   1.019  12.096 -0.0062  0.0355  0.1001
  437TMC3    C2 6511   3.878   1.115  12.160 -0.1975  0.4452  0.3081
  437TMC3    C3 6512   3.812   1.208  12.084  0.0322  0.2136  0.1196
  437TMC3    C4 6513   3.963   1.031  11.963 -0.7917  0.0175  0.3912
  437TMC3    C5 6514   3.893   1.119  11.884 -0.0444  0.0129 -0.7161
  437TMC3    C6 6515   3.816   1.213  11.949  0.4764  0.2741  0.1023
  437TMC3     C 6516   4.073   0.974  12.161  0.2789  0.1035 -0.5089
  437TMC3     O 6517   4.172   0.990  12.090  0.3155  0.5172  0.0465
  437TMC3     H 6518   3.875   1.117  12.269  1.3824 -1.1459  0.3743
  437TMC3    H1 6519   4.014   0.951  11.910  0.6069  2.3876 -1.8625
  437TMC3    H2 6520   3.771   1.286  11.882 -0.4908  1.2223  1.7784
  437TMC3    C7 6521   3.988   1.186  11.792  0.3426  0.4188 -0.2885
  437TMC3    C8 6522   3.761   1.326  12.154  0.1209 -0.0289  0.3769
  437TMC3    O1 6523   3.945   1.279  11.727  0.3678  0.2973  0.1733
  437TMC3    O2 6524   3.665   1.384  12.104  0.1444  0.2007  0.9216
  438MPD2     C 6525   1.352   1.386  17.003  0.5849 -0.6749 -0.5286
  438MPD2    C1 6526   1.491   1.419  16.995 -0.6360 -0.0660  0.2894
  438MPD2    C2 6527   1.550   1.503  17.087  0.1163 -0.2965 -0.2582
  438MPD2    C3 6528   1.470   1.559  17.184  0.0852  0.0983 -0.3895
  438MPD2    C4 6529   1.338   1.520  17.196 -0.2555  1.3726  0.2851
  438MPD2    C5 6530   1.281   1.434  17.103  0.1858 -0.9492 -0.1101
  438MPD2     H 6531   1.656   1.523  17.088  0.0362  0.1261 -0.1229
  438MPD2    H1 6532   1.290   1.542  17.291 -1.3658  1.0634 -0.2115
  438MPD2    H2 6533   1.301   1.315  16.939 -1.9318  0.6635  0.0328
  438MPD2    H3 6534   1.178   1.400  17.114  0.5334 -2.3389 -1.2468
  438MPD2     N 6535   1.517   1.642  17.286 -0.1973 -0.1238 -0.4669
  438MPD2    H5 6536   1.444   1.661  17.354  1.2952  3.1219  0.2327
  438MPD2    N1 6537   1.572   1.367  16.892 -0.2551 -0.1059 -0.2071
  438MPD2    H7 6538   1.670   1.393  16.896 -0.3768  0.2263  0.6131
  439TMC3    C1 6539   1.636   1.241  16.691 -0.2842  0.3635 -0.3970
  439TMC3    C2 6540   1.602   1.199  16.567 -0.6820  0.7457  0.7518
  439TMC3    C3 6541   1.704   1.155  16.484  0.4248  0.1984  0.6443
  439TMC3    C4 6542   1.766   1.234  16.731 -0.1022 -0.3076 -0.2797
  439TMC3    C5 6543   1.864   1.180  16.650  0.2057  0.4649 -0.3891
  439TMC3    C6 6544   1.839   1.149  16.520  0.2616  0.1801  0.2324
  439TMC3     C 6545   1.530   1.284  16.788 -1.2258  0.3249  0.1945
  439TMC3     O 6546   1.419   1.237  16.768  0.0775  0.3186 -0.1813
  439TMC3     H 6547   1.497   1.191  16.539 -0.3056 -2.0588  0.2070
  439TMC3    H1 6548   1.771   1.257  16.837 -0.3724 -2.7795  0.2845
  439TMC3    H2 6549   1.914   1.137  16.443  1.7457  4.5435  1.0282
  439TMC3    C7 6550   2.000   1.205  16.702  0.1519  0.5578  0.7839
  439TMC3    C8 6551   1.667   1.126  16.342  0.1023 -1.1569  0.0519
  439TMC3    O1 6552   2.009   1.242  16.817  0.1655 -0.3125 -0.1672
  439TMC3    O2 6553   1.557   1.167  16.305 -0.6687  0.2101 -0.4978
  440MPD2     C 6554   0.356   1.912  14.667 -0.2291  0.2135  0.0108
  440MPD2    C1 6555   0.406   1.932  14.793 -0.3456  0.1220  0.6572
  440MPD2    C2 6556   0.536   1.901  14.821  0.3864  0.1994 -0.2673
  440MPD2    C3 6557   0.622   1.833  14.735 -0.9209 -0.1216  0.1168
  440MPD2    C4 6558   0.566   1.808  14.614  0.4145  0.5226  0.8127
  440MPD2    C5 6559   0.443   1.849  14.582  0.5121  0.3634  0.5659
  440MPD2     H 6560   0.574   1.916  14.921  4.5793 -0.8566 -1.6778
  440MPD2    H1 6561   0.626   1.766  14.534 -2.8458  0.5139 -1.6676
  440MPD2    H2 6562   0.253   1.912  14.635 -0.5088  1.3537  0.9126
  440MPD2    H3 6563   0.417   1.833  14.478  2.5708  0.4850  0.0362
  440MPD2     N 6564   0.746   1.767  14.764  0.4986 -0.1608  0.1877
  440MPD2    H5 6565   0.780   1.712  14.685  2.9498 -0.1745  1.2410
  440MPD2    N1 6566   0.322   1.977  14.906 -0.4239  0.0914  0.6217
  440MPD2    H7 6567   0.374   2.009  14.987 -0.6537  0.9320  0.4358
  441TMC3    C1 6568   0.887   1.638  14.918  0.0199 -0.3883 -0.1918
  441TMC3    C2 6569   0.941   1.652  15.045 -0.8767 -0.4963  0.4092
  441TMC3    C3 6570   0.943   1.543  15.132  0.9503  0.2035 -0.4758
  441TMC3    C4 6571   0.843   1.521  14.876  0.1479 -0.5835  0.1329
  441TMC3    C5 6572   0.833   1.419  14.963  0.0112  0.7220 -0.3432
  441TMC3    C6 6573   0.889   1.427  15.089  0.2212 -0.1960  0.6462
  441TMC3     C 6574   0.792   1.744  14.892  0.0225  0.4109 -0.9491
  441TMC3     O 6575   0.751   1.795  14.997 -0.3226 -0.0855 -0.4272
  441TMC3     H 6576   0.960   1.754  15.075 -1.5440 -0.3102  0.2038
  441TMC3    H1 6577   0.798   1.505  14.779 -2.1499  0.3439  1.0239
  441TMC3    H2 6578   0.872   1.343  15.155  0.3382 -0.3735  0.4461
  441TMC3    C7 6579   0.752   1.305  14.935  0.2020 -0.2902  0.2804
  441TMC3    C8 6580   0.891   1.590  15.261  0.2035 -0.1950 -0.5070
  441TMC3    O1 6581   0.799   1.190  14.946 -0.5367  0.2215  0.5422
  441TMC3    O2 6582   0.944   1.530  15.357 -0.0723  0.1840 -0.5106
  442MPD2     C 6583   3.146   3.021  16.776 -0.4482 -0.0343 -0.2132
  442MPD2    C1 6584   3.064   2.916  16.813 -0.4533  0.3218  0.1578
  442MPD2    C2 6585   3.073   2.796  16.744  0.4201 -0.4195 -0.5923
  442MPD2    C3 6586   3.154   2.788  16.634  0.3089 -1.1744  1.1406
  442MPD2    C4 6587   3.211   2.901  16.588  0.2588  1.0008  0.3927
  442MPD2    C5 6588   3.207   3.022  16.655  0.3497 -0.7175  0.4593
  442MPD2     H 6589   3.015   2.715  16.786  0.5751 -0.7824 -1.0834
  442MPD2    H1 6590   3.265   2.898  16.494  0.0941 -1.0564  0.3640
  442MPD2    H2 6591   3.143   3.108  16.841  2.5586 -0.6148  0.7141
  442MPD2    H3 6592   3.234   3.110  16.598  0.5773  0.2204  2.0153
  442MPD2     N 6593   3.186   2.668  16.561  0.3929  1.0169  0.3157
  442MPD2    H5 6594   3.233   2.679  16.472  2.0457 -2.5610  0.7367
  442MPD2    N1 6595   2.977   2.913  16.928 -0.1601 -0.1870 -0.1925
  442MPD2    H7 6596   2.936   2.824  16.954  0.4042  0.0841  1.6172
  443TMC3    C1 6597   2.828   3.012  17.077 -0.8096 -0.9028  0.4299
  443TMC3    C2 6598   2.711   3.087  17.062  0.5966  1.2355  0.0931
  443TMC3    C3 6599   2.593   3.041  17.110  0.3874  0.0027  0.5563
  443TMC3    C4 6600   2.823   2.896  17.145  0.1031  0.3326 -0.1989
  443TMC3    C5 6601   2.708   2.871  17.209  0.2944 -0.6694 -0.4856
  443TMC3    C6 6602   2.590   2.933  17.189  0.1259 -0.2022 -0.1155
  443TMC3     C 6603   2.932   3.031  16.980 -0.2356 -0.0266  0.0712
  443TMC3     O 6604   2.944   3.145  16.936 -0.3449 -0.2628 -0.1569
  443TMC3     H 6605   2.703   3.167  16.988  1.8315  0.3067 -1.0467
  443TMC3    H1 6606   2.913   2.844  17.177  0.5229  0.7030 -0.7829
  443TMC3    H2 6607   2.497   2.896  17.233  1.2947 -1.4364  1.3276
  443TMC3    C7 6608   2.697   2.739  17.273  0.0755  0.0998 -1.2313
  443TMC3    C8 6609   2.490   3.032  17.008  0.1287 -0.5337  0.2719
  443TMC3    O1 6610   2.764   2.641  17.243  0.7033  0.8485 -0.1409
  443TMC3    O2 6611   2.377   3.027  17.055  0.0219  0.6804 -0.3828
  444MPD2     C 6612   3.490   2.261  17.058 -0.4854 -0.4102 -0.1753
  444MPD2    C1 6613   3.402   2.157  17.076 -0.1248  0.1678 -0.8515
  444MPD2    C2 6614   3.449   2.027  17.035  0.2002 -0.3539  0.1672
  444MPD2    C3 6615   3.573   2.002  16.994 -0.8204 -0.2235 -0.8557
  444MPD2    C4 6616   3.666   2.097  16.999  0.4047 -0.1852  0.1032
  444MPD2    C5 6617   3.621   2.231  17.022 -0.4640  0.3583  0.5282
  444MPD2     H 6618   3.376   1.948  17.044 -1.2495  0.7782 -1.4276
  444MPD2    H1 6619   3.772   2.086  16.980  0.5070 -0.5396  0.8537
  444MPD2    H2 6620   3.465   2.367  17.062  1.3641 -0.1191  3.9520
  444MPD2    H3 6621   3.691   2.310  17.001 -1.4269  1.2450  0.6426
  444MPD2     N 6622   3.596   1.873  16.941  0.3696 -0.5591 -0.4011
  444MPD2    H5 6623   3.511   1.820  16.925 -0.9676  1.2855  0.4934
  444MPD2    N1 6624   3.271   2.175  17.123  0.5993 -0.0432 -0.0744
  444MPD2    H7 6625   3.221   2.088  17.139 -0.6049  0.8345  0.9180
  445TMC3    C1 6626   3.722   1.720  16.801  0.1973  0.0569 -0.4506
  445TMC3    C2 6627   3.625   1.721  16.710 -0.1655 -0.8308  1.2990
  445TMC3    C3 6628   3.616   1.621  16.618 -0.2731  0.5627 -0.3449
  445TMC3    C4 6629   3.818   1.620  16.802  0.0235 -0.4332  0.0471
  445TMC3    C5 6630   3.817   1.523  16.702  1.1024  0.1949  1.3236
  445TMC3    C6 6631   3.710   1.521  16.613  0.0260 -0.3348 -0.9281
  445TMC3     C 6632   3.717   1.834  16.894  0.4137  0.0672  0.6686
  445TMC3     O 6633   3.826   1.872  16.929  0.2057 -0.2883 -0.3522
  445TMC3     H 6634   3.559   1.807  16.709  1.6864  0.5818  0.4824
  445TMC3    H1 6635   3.905   1.638  16.865  1.0267 -0.5246 -1.3028
  445TMC3    H2 6636   3.702   1.449  16.532  4.0364  0.5340 -2.1042
  445TMC3    C7 6637   3.944   1.455  16.676  0.2033 -0.0777  0.4219
  445TMC3    C8 6638   3.503   1.627  16.522 -0.0345 -0.2563  0.0201
  445TMC3    O1 6639   3.961   1.417  16.557  0.0783 -0.4263  0.4118
  445TMC3    O2 6640   3.403   1.677  16.572 -0.0350  0.1094 -0.3540
  446MPD2     C 6641   3.494   3.273  11.267 -0.6801  0.9675 -0.8169
  446MPD2    C1 6642   3.508   3.280  11.130 -0.6174 -0.3607 -0.8207
  446MPD2    C2 6643   3.621   3.348  11.080 -0.8235  0.1518 -0.1371
  446MPD2    C3 6644   3.723   3.395  11.161 -1.0452  0.3043  0.0109
  446MPD2    C4 6645   3.699   3.391  11.293 -0.4303  0.2375  0.0157
  446MPD2    C5 6646   3.585   3.335  11.347  0.0246  0.1495  0.2749
  446MPD2     H 6647   3.639   3.351  10.974  1.9194 -1.3292  0.2856
  446MPD2    H1 6648   3.769   3.434  11.364 -0.1475 -1.2768  0.6567
  446MPD2    H2 6649   3.421   3.217  11.322 -0.8637  1.9347 -0.0771
  446MPD2    H3 6650   3.576   3.335  11.455 -0.9704 -3.0114  0.2146
  446MPD2     N 6651   3.848   3.437  11.104 -0.0631  0.1120 -0.2620
  446MPD2    H5 6652   3.853   3.436  11.003  0.5505  0.5679 -0.2339
  446MPD2    N1 6653   3.411   3.235  11.037  0.0924 -0.4603 -0.3395
  446MPD2    H7 6654   3.410   3.282  10.947 -1.9192 -0.1326 -0.1465
  447TMC3    C1 6655   4.077   3.468  11.089  0.2144  0.5332  0.0344
  447TMC3    C2 6656   4.064   3.518  10.965 -0.2326  0.2559 -0.1839
  447TMC3    C3 6657   4.177   3.517  10.894  0.4601  0.0399 -1.0809
  447TMC3    C4 6658   4.199   3.435  11.152 -0.4895 -0.3004  0.3477
  447TMC3    C5 6659   4.305   3.420  11.065  0.9231  0.1275  0.4580
  447TMC3    C6 6660   4.295   3.466  10.930 -0.6364  0.3230 -0.2125
  447TMC3     C 6661   3.963   3.461  11.168 -0.2868  0.5502  0.5402
  447TMC3     O 6662   3.984   3.460  11.288  0.2750  0.2835  0.1979
  447TMC3     H 6663   3.970   3.543  10.917 -0.3078 -1.9428 -1.1838
  447TMC3    H1 6664   4.195   3.386  11.248 -2.9188 -1.3387 -0.2810
  447TMC3    H2 6665   4.375   3.458  10.858  0.1742  0.3351  0.6891
  447TMC3    C7 6666   4.424   3.342  11.093 -1.0201 -0.2951  0.6292
  447TMC3    C8 6667   4.145   3.499  10.751 -0.4675  0.1685 -0.1137
  447TMC3    O1 6668   4.484   3.305  10.995  0.1771 -0.2569 -0.6221
  447TMC3    O2 6669   4.084   3.580  10.684  0.1371  0.7741  0.0167
  448TMC3    C1 6670   2.413   2.977  16.271  0.1925 -0.7062  0.6314
  448TMC3    C2 6671   2.309   2.898  16.238  0.8100 -0.1704 -0.0400
  448TMC3    C3 6672   2.193   2.915  16.312  0.8158  0.5787 -0.4983
  448TMC3    C4 6673   2.415   3.056  16.379  0.6125 -0.4028 -0.2028
  448TMC3    C5 6674   2.300   3.068  16.453 -0.1008  0.0281 -0.2417
  448TMC3    C6 6675   2.183   3.008  16.414  1.1555 -0.3890  0.7059
  448TMC3     C 6676   2.543   2.942  16.209  0.4417  0.6759  0.0054
  448TMC3     O 6677   2.553   2.826  16.171  0.1075  0.5302  0.0860
  448TMC3     H 6678   2.316   2.829  16.155 -1.2357  1.2792 -1.4031
  448TMC3    H1 6679   2.495   3.126  16.400  1.5777 -1.6707  0.2931
  448TMC3    H2 6680   2.096   3.003  16.477  1.3247 -1.0614  0.8837
  448TMC3    C7 6681   2.294   3.154  16.576  0.7135 -0.2088 -0.2965
  448TMC3    C8 6682   2.095   2.802  16.318 -0.4188  0.1572 -0.5360
  448TMC3    O1 6683   2.398   3.195  16.627 -0.5381 -0.2494 -0.6164
  448TMC3    O2 6684   2.034   2.793  16.428 -0.0665  0.6256 -0.5277
  449MPD2     C 6685   2.973   1.675  14.073  0.1685 -0.2008 -0.4587
  449MPD2    C1 6686   2.871   1.617  14.005  0.5291 -0.1521  0.2230
  449MPD2    C2 6687   2.750   1.600  14.063  0.3008  0.2025 -0.4113
  449MPD2    C3 6688   2.735   1.647  14.192  0.2589 -0.1885  0.3323
  449MPD2    C4 6689   2.837   1.696  14.269 -0.0711 -0.0020 -0.1357
  449MPD2    C5 6690   2.958   1.711  14.204 -0.5074 -0.2080 -0.1872
  449MPD2     H 6691   2.661   1.563  14.014  1.8073 -2.0023 -1.4745
  449MPD2    H1 6692   2.827   1.733  14.371 -0.1364  1.8692 -0.8158
  449MPD2    H2 6693   3.066   1.695  14.021  0.3882  0.6667  0.2786
  449MPD2    H3 6694   3.028   1.773  14.258 -1.4266  0.6809 -0.0117
  449MPD2     N 6695   2.613   1.617  14.251  0.3120 -0.0474 -0.2404
  449MPD2    H5 6696   2.543   1.577  14.190 -2.7898 -0.7726  3.7642
  449MPD2    N1 6697   2.881   1.574  13.869  0.9206  0.0297 -0.0883
  449MPD2    H7 6698   2.799   1.536  13.823  1.4659  0.1773 -1.1787
  450TMC3    C1 6699   2.932   1.518  13.664  1.0855 -0.0381  0.0178
  450TMC3    C2 6700   2.938   1.607  13.559  1.0554  0.7448 -0.0122
  450TMC3    C3 6701   2.825   1.621  13.474 -0.6736  0.9251 -0.1376
  450TMC3    C4 6702   2.816   1.442  13.666 -0.4248  0.2612  0.2940
  450TMC3    C5 6703   2.701   1.463  13.598  0.9670 -0.3908 -0.4363
  450TMC3    C6 6704   2.706   1.555  13.493  0.4133 -0.2212  0.5591
  450TMC3     C 6705   2.988   1.571  13.785 -0.4178  0.0129 -0.3788
  450TMC3     O 6706   3.095   1.626  13.790  0.0236 -0.3932 -0.2534
  450TMC3     H 6707   3.027   1.667  13.547  0.4041  1.2675 -2.2894
  450TMC3    H1 6708   2.811   1.373  13.750  3.9935 -0.9753 -0.4062
  450TMC3    H2 6709   2.622   1.577  13.428  0.6474  0.0687  0.3547
  450TMC3    C7 6710   2.585   1.465  13.683  0.1482 -0.5168  0.0922
  450TMC3    C8 6711   2.840   1.682  13.341 -0.2779  0.1286 -0.1588
  450TMC3    O1 6712   2.613   1.486  13.803  0.5363  0.1436 -0.2240
  450TMC3    O2 6713   2.774   1.637  13.246  0.4552 -0.2462 -0.8266
  451MPD2     C 6714   3.743   0.213   1.582  0.0807 -0.1048 -0.2966
  451MPD2    C1 6715   3.779   0.251   1.450 -0.2445  0.1361 -0.1708
  451MPD2    C2 6716   3.909   0.291   1.419 -0.4278  0.0846 -0.0335
  451MPD2    C3 6717   4.003   0.277   1.520  0.0560  0.4343  0.6090
  451MPD2    C4 6718   3.958   0.244   1.646  1.0396  0.7587  0.2756
  451MPD2    C5 6719   3.833   0.202   1.675 -0.3395 -0.0863  0.2587
  451MPD2     H 6720   3.938   0.313   1.317 -1.5632 -0.5238 -0.4934
  451MPD2    H1 6721   4.026   0.225   1.729  1.6653  2.8814  0.2628
  451MPD2    H2 6722   3.642   0.187   1.611 -0.1506  0.3444 -0.6886
  451MPD2    H3 6723   3.814   0.168   1.776  1.2057 -0.6338  0.3534
  451MPD2     N 6724   4.141   0.315   1.509  0.5506 -0.2310 -0.1175
  451MPD2    H5 6725   4.197   0.298   1.592  1.3313 -0.9351 -0.7845
  451MPD2    N1 6726   3.675   0.266   1.362 -0.2570  0.0184 -0.3381
  451MPD2    H7 6727   3.587   0.228   1.395  0.3685  1.4777  2.9282
  452TMC3    C1 6728   4.332   0.419   1.406  0.0559  0.1727 -0.2365
  452TMC3    C2 6729   4.374   0.472   1.524  0.5223  0.7582 -0.6212
  452TMC3    C3 6730   4.486   0.555   1.531  0.1081  0.0487 -0.8264
  452TMC3    C4 6731   4.395   0.461   1.287 -0.0780  0.3557 -0.6413
  452TMC3    C5 6732   4.515   0.529   1.301  0.0448  0.1097 -0.1986
  452TMC3    C6 6733   4.556   0.572   1.421  0.0765  0.0492 -0.2731
  452TMC3     C 6734   4.204   0.344   1.393 -0.1619 -0.6682  0.1951
  452TMC3     O 6735   4.168   0.328   1.275  0.2666  0.3029  0.1749
  452TMC3     H 6736   4.317   0.440   1.610  2.1974  0.2687  0.3038
  452TMC3    H1 6737   4.369   0.415   1.192  2.0397  0.5991 -1.3264
  452TMC3    H2 6738   4.654   0.617   1.432  0.6624 -1.4188  0.5226
  452TMC3    C7 6739   4.582   0.577   1.184  0.3707  0.5000 -0.1255
  452TMC3    C8 6740   4.541   0.597   1.658 -0.3702  0.4962 -0.6271
  452TMC3    O1 6741   4.515   0.593   1.082  0.3115  0.5683  0.2472
  452TMC3    O2 6742   4.502   0.538   1.757  0.4644 -0.1086 -0.4859
  453TMC3    C1 6743   0.796   2.542  11.436  0.3220 -0.1955  0.4544
  453TMC3    C2 6744   0.726   2.430  11.483 -0.5596 -0.3512 -0.2784
  453TMC3    C3 6745   0.699   2.336  11.385 -0.3801  0.5316 -0.4041
  453TMC3    C4 6746   0.847   2.545  11.312  0.2870 -0.1240  0.1844
  453TMC3    C5 6747   0.841   2.441  11.227  0.4810 -0.2071  0.3938
  453TMC3    C6 6748   0.760   2.337  11.256  0.0652 -0.7646  0.1069
  453TMC3     C 6749   0.866   2.627  11.529  0.1910 -0.9760 -1.0862
  453TMC3     O 6750   0.978   2.660  11.494  0.1609  0.0553 -0.7494
  453TMC3     H 6751   0.674   2.427  11.578 -0.2289 -1.4527 -0.1349
  453TMC3    H1 6752   0.898   2.633  11.276 -0.8491  0.1574 -0.7480
  453TMC3    H2 6753   0.743   2.264  11.178  1.3495  1.1607 -1.9567
  453TMC3    C7 6754   0.877   2.468  11.094  0.2079 -0.2431  0.2691
  453TMC3    C8 6755   0.623   2.211  11.419 -0.7386 -0.0021 -0.9504
  453TMC3    O1 6756   0.808   2.426  11.002 -0.5037 -0.0215 -0.4447
  453TMC3    O2 6757   0.578   2.134  11.336 -0.4555  0.5784 -0.4777
  454MPD2     C 6758   4.306   1.811  16.642 -0.1121 -0.1910  0.4360
  454MPD2    C1 6759   4.255   1.932  16.610 -0.2815 -0.7365 -0.3420
  454MPD2    C2 6760   4.176   1.995  16.699  0.7720 -0.2893  0.2453
  454MPD2    C3 6761   4.144   1.945  16.826 -0.1252 -0.0182  0.1529
  454MPD2    C4 6762   4.202   1.826  16.862  0.6195 -0.3175  0.0503
  454MPD2    C5 6763   4.278   1.761  16.770  0.0224 -0.3521 -0.7594
  454MPD2     H 6764   4.148   2.093  16.661  1.3894 -0.6857 -1.2108
  454MPD2    H1 6765   4.169   1.778  16.953 -0.3745 -0.9332 -0.6399
  454MPD2    H2 6766   4.369   1.760  16.570 -2.0098 -2.3160  0.2621
  454MPD2    H3 6767   4.311   1.663  16.801 -0.5951 -0.6252 -0.9679
  454MPD2     N 6768   4.076   2.026  16.918  0.4151  0.4484 -0.0992
  454MPD2    H5 6769   4.074   2.002  17.016 -2.0769 -0.6263 -0.4166
  454MPD2    N1 6770   4.270   1.993  16.482  0.0753  0.2639  0.0261
  454MPD2    H7 6771   4.242   2.090  16.471  2.4084  1.0747  1.3871
  455TMC3    C1 6772   3.949   2.171  16.754 -0.0115 -0.0992  0.3852
  455TMC3    C2 6773   3.912   2.300  16.731 -0.3965  0.1547  0.0047
  455TMC3    C3 6774   3.809   2.322  16.640 -0.0298  0.7386 -0.6094
  455TMC3    C4 6775   3.890   2.073  16.681 -0.1511  0.0641 -0.2274
  455TMC3    C5 6776   3.786   2.097  16.603 -0.7118 -0.2499  0.2202
  455TMC3    C6 6777   3.739   2.223  16.577  0.0923  0.4200 -0.4842
  455TMC3     C 6778   4.021   2.151  16.888  0.0131 -0.3532 -0.6075
  455TMC3     O 6779   4.013   2.234  16.979 -0.2383  0.1397 -0.1401
  455TMC3     H 6780   3.954   2.380  16.792  0.0465 -0.4851  0.5337
  455TMC3    H1 6781   3.906   1.972  16.716  0.6469  0.4373  0.4785
  455TMC3    H2 6782   3.690   2.247  16.483 -1.9359  1.8165  0.9396
  455TMC3    C7 6783   3.785   2.013  16.478 -0.5418 -0.1831  0.6859
  455TMC3    C8 6784   3.754   2.457  16.666  0.0668 -0.7776  0.6145
  455TMC3    O1 6785   3.699   2.028  16.395  0.5478  0.0066  0.0603
  455TMC3    O2 6786   3.837   2.541  16.685  0.2012  0.4863 -0.2667
  456MPD2     C 6787   1.877   1.467  16.406  0.1613 -0.3661  0.2261
  456MPD2    C1 6788   1.986   1.533  16.443  0.2129  0.4146  0.2122
  456MPD2    C2 6789   1.976   1.664  16.481  0.6775  0.3548  0.4413
  456MPD2    C3 6790   1.852   1.718  16.511  0.1462 -0.1514 -0.5150
  456MPD2    C4 6791   1.738   1.650  16.476 -0.5278  0.0049 -0.3345
  456MPD2    C5 6792   1.752   1.525  16.424  0.9711  0.3062  0.4812
  456MPD2     H 6793   2.062   1.725  16.505  0.0663  1.1488  0.6072
  456MPD2    H1 6794   1.638   1.690  16.482 -0.7247 -0.9948  3.2743
  456MPD2    H2 6795   1.879   1.368  16.362 -1.8729 -0.4390  0.2784
  456MPD2    H3 6796   1.663   1.471  16.395  1.6906 -0.8247  0.4081
  456MPD2     N 6797   1.841   1.854  16.554  0.2775  0.1672  0.6651
  456MPD2    H5 6798   1.923   1.913  16.553 -0.8312  1.6999  1.0479
  456MPD2    N1 6799   2.108   1.475  16.412 -0.1981 -0.0653  0.1360
  456MPD2    H7 6800   2.110   1.386  16.364  5.1568 -0.3218  0.7867
  457TMC3    C1 6801   1.763   2.042  16.657 -0.5035 -0.9147  0.7195
  457TMC3    C2 6802   1.816   2.128  16.570  0.0135 -0.3972  0.0429
  457TMC3    C3 6803   1.889   2.232  16.612 -0.5784  0.0981 -0.7695
  457TMC3    C4 6804   1.769   2.054  16.789 -0.1905 -0.2051  0.8158
  457TMC3    C5 6805   1.841   2.168  16.832 -0.3981 -0.2266 -0.4990
  457TMC3    C6 6806   1.908   2.256  16.745  0.0925 -0.3589  0.1794
  457TMC3     C 6807   1.730   1.908  16.608 -0.0335 -0.0476  0.1903
  457TMC3     O 6808   1.614   1.871  16.606 -0.3393  0.1958 -1.3731
  457TMC3     H 6809   1.808   2.092  16.468  1.6582 -1.3602  0.2403
  457TMC3    H1 6810   1.732   1.977  16.855 -1.0045 -0.5939 -0.0975
  457TMC3    H2 6811   1.951   2.350  16.776  0.4334 -0.7290  0.8372
  457TMC3    C7 6812   1.860   2.176  16.975  0.7799  0.1808 -0.3692
  457TMC3    C8 6813   1.936   2.339  16.519  0.2604  0.2498 -0.1654
  457TMC3    O1 6814   1.847   2.075  17.043 -0.2136 -0.1465  0.4286
  457TMC3    O2 6815   1.949   2.448  16.567 -0.1360 -0.1506 -0.4946
  458MPD2     C 6816   4.441   1.438  11.804 -0.4885  0.4373 -0.8954
  458MPD2    C1 6817   4.422   1.366  11.919  0.0689 -0.3102  0.5439
  458MPD2    C2 6818   4.317   1.276  11.930 -0.1663 -0.7496 -0.4151
  458MPD2    C3 6819   4.220   1.255  11.828  0.6685 -0.5038 -0.3496
  458MPD2    C4 6820   4.238   1.336  11.719  0.2419 -0.2977  0.4583
  458MPD2    C5 6821   4.343   1.426  11.714  0.1375 -0.8059  0.4648
  458MPD2     H 6822   4.294   1.218  12.018 -1.5551  0.2759 -0.1007
  458MPD2    H1 6823   4.170   1.327  11.636  0.4475 -0.5528  0.3145
  458MPD2    H2 6824   4.525   1.502  11.779  0.6005 -0.7709 -0.3191
  458MPD2    H3 6825   4.347   1.475  11.617  2.0695 -1.2195  0.3511
  458MPD2     N 6826   4.116   1.164  11.848 -0.2254 -0.5769  0.4722
  458MPD2    H5 6827   4.128   1.110  11.933  0.4042 -0.2436  0.5939
  458MPD2    N1 6828   4.519   1.398  12.024  0.1327 -0.0562  0.0155
  458MPD2    H7 6829   4.573   1.481  12.002 -2.1257  1.2062 -0.7883
  459TMC3    C1 6830   4.583   1.438  12.245 -0.9253  0.7008  0.3450
  459TMC3    C2 6831   4.689   1.504  12.196  0.5274  0.4479 -0.5563
  459TMC3    C3 6832   0.064   1.554  12.283  0.1383 -0.1437  0.4342
  459TMC3    C4 6833   4.572   1.402  12.374 -0.2630  0.2353  0.4795
  459TMC3    C5 6834   4.673   1.441  12.455 -0.5837 -0.1165  0.4221
  459TMC3    C6 6835   0.053   1.523  12.417 -0.8996 -0.0786 -0.2758
  459TMC3     C 6836   4.496   1.373  12.158 -0.0887 -0.1457 -0.1209
  459TMC3     O 6837   4.400   1.315  12.213 -0.5935  0.7371  0.3458
  459TMC3     H 6838   4.709   1.521  12.091 -2.4308 -0.0315 -1.2006
  459TMC3    H1 6839   4.515   1.321  12.418 -0.4583 -1.1053 -2.2148
  459TMC3    H2 6840   0.124   1.560  12.491 -0.6391  2.5812 -1.8548
  459TMC3    C7 6841   4.662   1.405  12.589 -0.2245 -0.2989 -0.0221
  459TMC3    C8 6842   0.159   1.658  12.243 -0.4177 -0.0550 -0.0709
  459TMC3    O1 6843   0.038   1.341  12.635 -0.2842 -0.3909 -0.0619
  459TMC3    O2 6844   0.262   1.664  12.310 -0.7019 -0.9920 -0.0509
  460MPD2     C 6845   4.167   3.170  10.597  0.3600  0.2079 -0.1344
  460MPD2    C1 6846   4.135   3.306  10.599  0.3240  0.2293  0.0063
  460MPD2    C2 6847   4.066   3.362  10.493 -0.3548  0.0229  0.1139
  460MPD2    C3 6848   4.018   3.279  10.391 -0.1896  0.2683 -0.5763
  460MPD2    C4 6849   4.051   3.142  10.389  0.3942  0.2147 -0.0678
  460MPD2    C5 6850   4.129   3.090  10.489  0.9895  0.6748 -0.4083
  460MPD2     H 6851   4.042   3.467  10.481  1.2061  0.3456 -0.1831
  460MPD2    H1 6852   4.023   3.072  10.310 -1.2459 -0.5661  1.2107
  460MPD2    H2 6853   4.222   3.125  10.679 -1.8312 -0.2375  1.0838
  460MPD2    H3 6854   4.143   2.983  10.480  2.9218  0.8252  0.8517
  460MPD2     N 6855   3.949   3.339  10.285 -0.3229  0.7067  0.6256
  460MPD2    H5 6856   3.965   3.439  10.281  2.4394  0.3084  1.8162
  460MPD2    N1 6857   4.175   3.370  10.718 -0.7270 -0.3333  1.0153
  460MPD2    H7 6858   4.216   3.309  10.788  2.1112 -0.3888 -0.6844
  461TMC3    C1 6859   3.822   3.342  10.079 -0.0719 -0.9114 -0.0596
  461TMC3    C2 6860   3.767   3.266   9.983 -0.6052  0.1225  0.0636
  461TMC3    C3 6861   3.759   3.318   9.855 -0.7190  0.4755 -0.0086
  461TMC3    C4 6862   3.857   3.471  10.065  0.3297 -0.4421  0.0232
  461TMC3    C5 6863   3.852   3.517   9.940  0.7362  0.0188 -0.1381
  461TMC3    C6 6864   3.823   3.439   9.835 -0.0786 -1.0832  0.4305
  461TMC3     C 6865   3.878   3.266  10.192  0.7283  0.2812 -0.9869
  461TMC3     O 6866   3.846   3.147  10.201  0.0895  0.2109  0.1547
  461TMC3     H 6867   3.736   3.164  10.003  1.2908 -1.2548 -3.9911
  461TMC3    H1 6868   3.892   3.543  10.138  0.6341  1.5695 -2.0864
  461TMC3    H2 6869   3.800   3.490   9.743  1.1613 -0.8586  0.2494
  461TMC3    C7 6870   3.904   3.651   9.916  0.1409 -0.1162  0.5025
  461TMC3    C8 6871   3.775   3.224   9.751  0.2756 -0.3164  0.2130
  461TMC3    O1 6872   3.868   3.732   9.995  0.3083  0.0786 -0.4542
  461TMC3    O2 6873   3.845   3.268   9.658  0.5407  0.0541  0.1438
  462TMC3    C1 6874   3.831   3.987   0.604  0.0572  0.4763 -0.3532
  462TMC3    C2 6875   3.858   3.865   0.547 -0.1091  0.0288  0.2766
  462TMC3    C3 6876   3.846   3.856   0.410  0.4575  0.2844 -0.3814
  462TMC3    C4 6877   3.794   4.097   0.528 -0.0028 -0.7482 -0.0343
  462TMC3    C5 6878   3.757   4.069   0.400 -0.2823  0.7210  0.9858
  462TMC3    C6 6879   3.787   3.954   0.334  0.3130  0.3212  0.2906
  462TMC3     C 6880   3.852   4.004   0.748  0.0094  0.4774  0.1122
  462TMC3     O 6881   3.917   3.914   0.799  0.4329  0.2514  0.0175
  462TMC3     H 6882   3.905   3.790   0.610  0.8781  0.2450 -0.2009
  462TMC3    H1 6883   3.764   4.192   0.571 -0.7350 -0.8544 -0.3136
  462TMC3    H2 6884   3.731   3.925   0.246  3.2365  0.4558 -1.5764
  462TMC3    C7 6885   3.647   4.145   0.349  0.0108 -0.0880 -0.4103
  462TMC3    C8 6886   3.883   3.724   0.359  0.0590  0.3142 -1.0211
  462TMC3    O1 6887   3.550   4.090   0.297 -0.5969 -0.3760 -0.0684
  462TMC3    O2 6888   3.907   3.632   0.434 -0.4024 -0.4741  0.1451
  463MPD2     C 6889   4.566   3.735   1.662  0.0960  0.3253 -0.7896
  463MPD2    C1 6890   4.515   3.847   1.725  0.5544  0.1461  0.7134
  463MPD2    C2 6891   4.592   3.929   1.803 -0.3672 -0.5505  0.7740
  463MPD2    C3 6892   0.004   3.895   1.811 -0.0799  0.8285 -0.4196
  463MPD2    C4 6893   0.061   3.786   1.753 -0.2036 -0.1764  0.3888
  463MPD2    C5 6894   4.702   3.714   1.667 -0.5388  0.0750 -0.4921
  463MPD2     H 6895   4.559   4.019   1.853 -2.2203 -1.0344  0.4195
  463MPD2    H1 6896   0.168   3.770   1.765 -0.0984  0.7530  0.7354
  463MPD2    H2 6897   4.501   3.680   1.595 -0.2250 -0.2165 -0.0352
  463MPD2    H3 6898   0.032   3.640   1.606  1.6638  0.8934  0.3061
  463MPD2     N 6899   0.092   3.968   1.890 -0.0286 -0.8716 -0.1330
  463MPD2    H5 6900   0.183   3.929   1.910  0.4429 -0.1149 -0.8203
  463MPD2    N1 6901   4.379   3.880   1.715  0.4314  0.1938  0.3288
  463MPD2    H7 6902   4.351   3.962   1.768 -0.8934 -0.9343  1.3802
  464TMC3    C1 6903   4.151   3.872   1.680  0.0283  0.2436 -0.9648
  464TMC3    C2 6904   4.160   3.998   1.622 -0.6992 -0.6743  0.0006
  464TMC3    C3 6905   4.049   4.077   1.619  0.1415 -1.0815  0.3555
  464TMC3    C4 6906   4.033   3.835   1.739  0.1843 -0.0328 -0.5080
  464TMC3    C5 6907   3.923   3.913   1.722  0.8768  0.1527 -0.2862
  464TMC3    C6 6908   3.924   4.040   1.672 -0.0745 -0.4728  0.1859
  464TMC3     C 6909   4.274   3.798   1.678 -0.3480 -0.4593  0.1314
  464TMC3     O 6910   4.276   3.676   1.669  0.1300  0.1629 -0.0941
  464TMC3     H 6911   4.253   4.031   1.578 -0.8399 -0.5910 -0.2370
  464TMC3    H1 6912   4.027   3.739   1.789 -1.0538  0.5964  0.5371
  464TMC3    H2 6913   3.837   4.103   1.665  0.2091 -0.0523  0.4173
  464TMC3    C7 6914   3.795   3.864   1.758 -0.8057  0.8221  0.7674
  464TMC3    C8 6915   4.062   4.211   1.563 -0.6676  0.4188  0.0417
  464TMC3    O1 6916   3.733   3.948   1.819  0.3757 -0.0221  0.1490
  464TMC3    O2 6917   4.167   4.240   1.508 -0.0065  0.1291  0.7630
  465MPD2     C 6918   1.401   1.626  16.389 -0.0322 -0.9054  0.2454
  465MPD2    C1 6919   1.358   1.748  16.436 -0.6496  1.2323  0.1002
  465MPD2    C2 6920   1.249   1.751  16.524 -0.0907 -0.2994 -0.3114
  465MPD2    C3 6921   1.186   1.637  16.571  0.3400  0.0625  0.1182
  465MPD2    C4 6922   1.245   1.517  16.539 -0.0309 -0.3070 -0.3602
  465MPD2    C5 6923   1.341   1.513  16.442  0.6034 -0.2394 -0.3385
  465MPD2     H 6924   1.230   1.850  16.564 -0.3157 -0.6611  0.4671
  465MPD2    H1 6925   1.228   1.420  16.583  0.0289  0.1214  0.6077
  465MPD2    H2 6926   1.475   1.611  16.311 -0.5369  2.0009 -0.7771
  465MPD2    H3 6927   1.391   1.422  16.412  0.9422 -0.7180  1.6934
  465MPD2     N 6928   1.066   1.652  16.641 -0.1672  0.4486 -0.7028
  465MPD2    H5 6929   1.023   1.742  16.659 -0.1810  0.2199  0.3958
  465MPD2    N1 6930   1.420   1.870  16.390  0.5819  0.0674  0.7779
  465MPD2    H7 6931   1.388   1.958  16.430  1.2531 -0.0167  1.5138
  466TMC3    C1 6932   0.738   1.614  16.961 -0.5145 -0.5961  0.5874
  466TMC3    C2 6933   0.655   1.689  16.885 -0.1095  0.1285 -0.6971
  466TMC3    C3 6934   0.681   1.712  16.756  0.2869  0.3687  0.0224
  466TMC3    C4 6935   0.862   1.579  16.918  0.5209  0.1091  0.0359
  466TMC3    C5 6936   0.881   1.599  16.776 -0.5845 -0.4829 -0.3636
  466TMC3    C6 6937   0.795   1.659  16.694 -0.3877 -0.3722 -0.7694
  466TMC3     C 6938   0.736   1.638  17.103  0.6422  0.2472 -0.6581
  466TMC3     O 6939   0.831   1.611  17.173 -0.5584  0.5163 -0.1490
  466TMC3     H 6940   0.560   1.716  16.929 -0.3128  0.3876 -1.2871
  466TMC3    H1 6941   0.933   1.519  16.973  1.7816  1.8196  0.2623
  466TMC3    H2 6942   0.817   1.675  16.589 -0.7492  0.3454 -0.7337
  466TMC3    C7 6943   1.013   1.556  16.725  0.1888  0.4697 -0.2400
  466TMC3    C8 6944   0.615   1.818  16.693  0.1407 -0.9039  0.0071
  466TMC3    O1 6945   1.057   1.447  16.765  0.1273 -0.8984  0.0195
  466TMC3    O2 6946   0.598   1.798  16.573  0.0588  0.1003 -0.0023
  467TMC3    C1 6947   1.675   0.711  13.629  0.3143  0.0814 -0.8520
  467TMC3    C2 6948   1.606   0.752  13.517  0.2007 -0.2568  0.0491
  467TMC3    C3 6949   1.484   0.711  13.498  0.2349  0.1129  0.7678
  467TMC3    C4 6950   1.614   0.638  13.728  0.6616 -0.2897  0.4737
  467TMC3    C5 6951   1.490   0.595  13.706 -0.1346  0.2084 -0.2548
  467TMC3    C6 6952   1.424   0.633  13.595 -0.4735 -0.1272  0.2679
  467TMC3     C 6953   1.803   0.770  13.656  0.4618 -0.8748  0.8100
  467TMC3     O 6954   1.882   0.797  13.567  0.9838 -0.2225  0.4258
  467TMC3     H 6955   1.652   0.829  13.455 -3.9421  1.6400 -0.6379
  467TMC3    H1 6956   1.671   0.603  13.814  1.3816  0.5055  0.3326
  467TMC3    H2 6957   1.319   0.605  13.588 -0.1359 -1.1802 -0.6268
  467TMC3    C7 6958   1.436   0.512  13.812  0.1197 -0.2095  0.5748
  467TMC3    C8 6959   1.401   0.811  13.437  0.3481 -0.6506 -0.5318
  467TMC3    O1 6960   1.508   0.497  13.908  0.1474 -0.4094 -0.0460
  467TMC3    O2 6961   1.423   0.848  13.322 -0.5345 -0.1001  0.0007
  468MPD2     C 6962   1.032   3.765  10.543 -0.4572 -0.0735 -0.1242
  468MPD2    C1 6963   1.126   3.745  10.634  0.1331  0.4918  0.8232
  468MPD2    C2 6964   1.147   3.610  10.678 -0.9995  0.4892 -0.3418
  468MPD2    C3 6965   1.090   3.500  10.613  0.3221  0.2754 -0.1136
  468MPD2    C4 6966   0.996   3.527  10.513 -0.0688 -0.1899 -0.1199
  468MPD2    C5 6967   0.966   3.660  10.481 -0.1159 -0.9974 -0.3376
  468MPD2     H 6968   1.207   3.594  10.767 -0.5713  0.3515 -0.6552
  468MPD2    H1 6969   0.953   3.447  10.454 -0.3861 -0.6054  0.6721
  468MPD2    H2 6970   1.008   3.860  10.495 -0.4891 -0.0836 -0.1283
  468MPD2    H3 6971   0.894   3.682  10.403 -0.3254 -0.1465  0.0949
  468MPD2     N 6972   1.113   3.366  10.655 -0.1040  0.1207 -0.5987
  468MPD2    H5 6973   1.056   3.294  10.612 -0.7560 -0.5962  1.4847
  468MPD2    N1 6974   1.214   3.830  10.689 -0.0002  0.2954  0.2916
  468MPD2    H7 6975   1.283   3.791  10.752 -1.0573 -0.3268  1.0644
  469TMC3    C1 6976   1.290   4.026  10.764  0.2578 -0.0284  0.7083
  469TMC3    C2 6977   1.405   3.965  10.807 -0.5668  0.0043  0.6550
  469TMC3    C3 6978   1.469   4.014  10.920 -0.4792 -0.3587 -0.0745
  469TMC3    C4 6979   1.246   4.142  10.827 -0.2671  0.4086  0.0490
  469TMC3    C5 6980   1.302   4.169  10.951  0.1384 -0.2069  0.2111
  469TMC3    C6 6981   1.407   4.101  11.007 -0.3669 -0.5390 -0.4976
  469TMC3     C 6982   1.204   3.966  10.676 -0.6094  0.0599 -0.4686
  469TMC3     O 6983   1.117   4.028  10.621  0.4962 -0.1038  0.8836
  469TMC3     H 6984   1.444   3.879  10.754  2.5986  1.3630  0.7940
  469TMC3    H1 6985   1.159   4.191  10.786 -1.7571 -0.7014  1.8246
  469TMC3    H2 6986   1.446   4.112  11.108  2.2120 -0.4797 -1.4988
  469TMC3    C7 6987   1.222   4.248  11.040  0.0626  0.1064  0.2619
  469TMC3    C8 6988   1.596   3.963  10.950  1.1720 -0.0329 -0.3152
  469TMC3    O1 6989   1.114   4.280  10.996  0.5048 -0.0440  0.0988
  469TMC3    O2 6990   1.650   3.889  10.864  0.1460 -0.3750  0.6575
  470TMC3    C1 6991   2.281   4.697   0.669  0.4561  0.3501 -0.2906
  470TMC3    C2 6992   2.361   0.085   0.692  0.4018  0.1498  0.5451
  470TMC3    C3 6993   2.365   0.139   0.812  0.5784 -0.6120  0.6159
  470TMC3    C4 6994   2.197   4.648   0.771  0.3634  0.3545 -0.0326
  470TMC3    C5 6995   2.206   4.706   0.897  0.2738 -0.5605 -0.3269
  470TMC3    C6 6996   2.298   0.089   0.917 -0.2306  0.3317  0.2974
  470TMC3     C 6997   2.276   4.651   0.532  0.1002 -0.1929 -0.4388
  470TMC3     O 6998   2.361   4.685   0.446 -0.0905  0.0502  0.4812
  470TMC3     H 6999   2.431   0.130   0.623 -0.5211 -2.0019 -1.7945
  470TMC3    H1 7000   2.143   4.555   0.762 -0.6616  0.9207  0.2859
  470TMC3    H2 7001   2.314   0.145   1.008  0.5774  2.1422 -0.9510
  470TMC3    C7 7002   2.161   4.632   1.013  0.3342  0.9079  0.8292
  470TMC3    C8 7003   2.427   0.266   0.829 -0.5113 -0.0666  0.4572
  470TMC3    O1 7004   2.118   4.520   0.991 -0.2282 -0.2230  0.2502
  470TMC3    O2 7005   2.508   0.284   0.920 -0.2592 -0.4080 -0.0062
  471MPD2     C 7006   3.357   1.213  16.344 -0.0591  0.2429 -0.2078
  471MPD2    C1 7007   3.263   1.146  16.421 -0.6071 -0.0412  0.2996
  471MPD2    C2 7008   3.285   1.139  16.554 -0.2747  0.2832  0.9147
  471MPD2    C3 7009   3.406   1.175  16.617  0.5117  0.0746 -0.5902
  471MPD2    C4 7010   3.498   1.242  16.540 -0.5564 -0.1222 -0.0937
  471MPD2    C5 7011   3.468   1.261  16.408  0.1649  0.0293  0.1400
  471MPD2     H 7012   3.217   1.086  16.620 -0.0189  1.0713  1.8204
  471MPD2    H1 7013   3.593   1.272  16.584 -0.8910 -1.3076  1.4046
  471MPD2    H2 7014   3.345   1.239  16.239  1.7754 -0.5967 -0.6294
  471MPD2    H3 7015   3.535   1.318  16.345  0.2489  0.0361  0.2347
  471MPD2     N 7016   3.436   1.144  16.751 -0.5448  0.3521 -0.1007
  471MPD2    H5 7017   3.533   1.168  16.768 -0.0740 -1.0067 -0.9069
  471MPD2    N1 7018   3.170   1.058  16.361 -0.5120 -0.3408 -0.4636
  471MPD2    H7 7019   3.116   1.009  16.432 -1.9748 -1.4760 -2.3606
  472TMC3    C1 7020   3.056   0.933  16.193 -0.6617 -0.7035 -0.7619
  472TMC3    C2 7021   2.992   0.938  16.074 -0.1943 -0.1990 -0.0498
  472TMC3    C3 7022   2.948   0.825  16.008  0.3354 -0.0448 -0.8587
  472TMC3    C4 7023   3.077   0.815  16.254 -0.6095  0.3856 -0.6145
  472TMC3    C5 7024   3.036   0.700  16.184  0.7613 -0.0260  0.0389
  472TMC3    C6 7025   2.972   0.702  16.064  0.2607 -0.0120  0.4495
  472TMC3     C 7026   3.148   1.042  16.230  0.3348 -0.3068  0.6007
  472TMC3     O 7027   3.190   1.115  16.141 -0.1667  0.0215  0.0655
  472TMC3     H 7028   2.979   1.039  16.037  0.0788 -0.3144 -0.4540
  472TMC3    H1 7029   3.135   0.802  16.344  0.6591 -0.8930 -1.6154
  472TMC3    H2 7030   2.932   0.618  16.007 -0.9732 -0.9492  2.7209
  472TMC3    C7 7031   3.009   0.582  16.268  0.0655 -0.1553  0.4613
  472TMC3    C8 7032   2.812   0.832  15.968 -0.8892 -0.5593  0.2482
  472TMC3    O1 7033   3.068   0.569  16.377  0.2017 -0.3191 -0.3145
  472TMC3    O2 7034   2.794   0.869  15.852  0.0135  0.3623 -0.2759
  473MPD2     C 7035   3.122   2.762  13.775 -0.2956 -0.6420 -0.1612
  473MPD2    C1 7036   3.151   2.844  13.671  0.3833  0.1034  0.4479
  473MPD2    C2 7037   3.183   2.975  13.700 -0.7893 -0.2923  0.1052
  473MPD2    C3 7038   3.207   3.010  13.827 -0.2071 -0.1101 -0.1012
  473MPD2    C4 7039   3.171   2.931  13.927  0.7702 -0.5278  0.3974
  473MPD2    C5 7040   3.128   2.805  13.905  0.3398  0.0725  0.2489
  473MPD2     H 7041   3.215   3.040  13.618 -1.0124 -1.1267 -0.6442
  473MPD2    H1 7042   3.184   2.966  14.029 -1.1065  2.8552 -0.4975
  473MPD2    H2 7043   3.076   2.664  13.766 -1.1607 -0.4042  1.5502
  473MPD2    H3 7044   3.088   2.747  13.988  2.8511 -1.5038  0.3811
  473MPD2     N 7045   3.278   3.123  13.870  0.2924  0.0174  0.0231
  473MPD2    H5 7046   3.290   3.134  13.970  0.6813  0.2256 -0.0462
  473MPD2    N1 7047   3.144   2.803  13.534 -0.4813 -0.5727 -0.2290
  473MPD2    H7 7048   3.147   2.877  13.464 -2.3190  2.2150  2.6371
  474TMC3    C1 7049   3.415   3.314  13.851 -0.1856  0.8844 -0.2061
  474TMC3    C2 7050   3.469   3.418  13.783  0.7376  1.3751 -0.7219
  474TMC3    C3 7051   3.565   3.490  13.850  0.4227 -0.8017  0.2209
  474TMC3    C4 7052   3.461   3.285  13.984 -0.4734  0.2869  0.1260
  474TMC3    C5 7053   3.572   3.347  14.032 -0.4387 -0.2198 -0.3941
  474TMC3    C6 7054   3.605   3.464  13.976  0.2015  0.1092  0.4150
  474TMC3     C 7055   3.337   3.214  13.781  0.5425 -0.3796  0.0937
  474TMC3     O 7056   3.334   3.232  13.661  0.0580 -0.5185 -0.2026
  474TMC3     H 7057   3.439   3.453  13.685 -1.0807  1.2870 -0.1952
  474TMC3    H1 7058   3.415   3.203  14.038  0.0773  0.2865  0.5931
  474TMC3    H2 7059   3.689   3.520  14.019  0.8641 -1.8461  1.6549
  474TMC3    C7 7060   3.580   3.329  14.178 -0.3723  0.4892 -0.9232
  474TMC3    C8 7061   3.645   3.586  13.777 -0.4341 -0.3870  0.0965
  474TMC3    O1 7062   3.572   3.213  14.210 -0.1142 -0.0204 -0.5351
  474TMC3    O2 7063   3.631   3.593  13.657  0.3256 -0.3228  0.1507
  475MPD2     C 7064   1.700   1.980  10.484 -0.2761  0.4379  0.1366
  475MPD2    C1 7065   1.627   1.882  10.418 -0.3225 -0.1642 -0.4364
  475MPD2    C2 7066   1.501   1.911  10.377 -0.3578 -0.0938 -0.3387
  475MPD2    C3 7067   1.455   2.042  10.377  0.5618 -0.4906  0.6393
  475MPD2    C4 7068   1.531   2.136  10.440  0.6951 -0.4520 -0.0952
  475MPD2    C5 7069   1.648   2.106  10.503 -0.8587 -0.0175  0.3799
  475MPD2     H 7070   1.448   1.832  10.325  0.4067  0.4302 -1.9231
  475MPD2    H1 7071   1.492   2.236  10.456  1.7440 -0.2171  1.0578
  475MPD2    H2 7072   1.796   1.943  10.520 -0.5804 -0.6533 -0.1846
  475MPD2    H3 7073   1.686   2.177  10.576  2.0202 -0.6365 -0.5177
  475MPD2     N 7074   1.332   2.075  10.300 -0.4790 -0.1792  0.0333
  475MPD2    H5 7075   1.277   1.993  10.277  0.4685 -0.8866  0.2817
  475MPD2    N1 7076   1.695   1.762  10.384  0.1954 -0.1060 -0.1748
  475MPD2    H7 7077   1.794   1.758  10.405  0.0990 -1.8926 -0.0849
  476TMC3    C1 7078   1.743   1.560  10.282 -0.0018 -0.2142 -0.5801
  476TMC3    C2 7079   1.728   1.477  10.171  0.3853  0.1767  0.0065
  476TMC3    C3 7080   1.823   1.385  10.151  0.7458  0.3461  0.0867
  476TMC3    C4 7081   1.851   1.546  10.365  0.1829 -0.2307  0.3077
  476TMC3    C5 7082   1.947   1.458  10.329 -0.1284  0.8199  0.2561
  476TMC3    C6 7083   1.933   1.365  10.225  0.1734  0.0251 -0.3467
  476TMC3     C 7084   1.636   1.653  10.309 -0.3707  0.4437 -0.3963
  476TMC3     O 7085   1.522   1.639  10.265 -0.2148  0.2049 -0.3069
  476TMC3     H 7086   1.634   1.475  10.116  0.6672 -2.8150 -0.3456
  476TMC3    H1 7087   1.858   1.597  10.460  0.6011 -1.3398  0.8715
  476TMC3    H2 7088   2.006   1.287  10.204 -0.1511 -0.3524 -0.0651
  476TMC3    C7 7089   2.073   1.456  10.400  0.2234 -0.6572  0.7540
  476TMC3    C8 7090   1.810   1.284  10.048 -0.5243 -0.2764 -0.7005
  476TMC3    O1 7091   2.112   1.343  10.427  0.2060 -0.1447 -0.6437
  476TMC3    O2 7092   1.910   1.231   9.999 -0.3898  0.6303  0.3866
  477MPD2     C 7093   4.584   3.033  11.816  0.6615 -0.1456 -0.9516
  477MPD2    C1 7094   4.488   2.960  11.744 -0.3140  0.9799  0.1338
  477MPD2    C2 7095   4.492   2.824  11.764  0.2014 -0.6105 -0.6004
  477MPD2    C3 7096   4.582   2.760  11.848  0.5225 -0.5701 -0.9897
  477MPD2    C4 7097   4.681   2.832  11.912  0.3164  0.1392 -0.4666
  477MPD2    C5 7098   4.680   2.970  11.891  0.3959 -0.6318  0.2425
  477MPD2     H 7099   4.419   2.766  11.707 -2.6423  1.0209  1.3805
  477MPD2    H1 7100   0.046   2.785  11.961 -1.9689 -0.2703  3.0199
  477MPD2    H2 7101   4.581   3.141  11.810 -1.0726 -0.2427 -1.9955
  477MPD2    H3 7102   0.041   3.024  11.939  0.3585 -0.6476  0.3230
  477MPD2     N 7103   4.561   2.619  11.872  0.0064  0.0833  0.1429
  477MPD2    H5 7104   4.495   2.570  11.813  1.0065 -1.3437  0.2039
  477MPD2    N1 7105   4.396   3.036  11.662  0.2676  0.0650 -0.3397
  477MPD2    H7 7106   4.394   3.136  11.678  1.2364  0.0707 -0.2607
  478TMC3    C1 7107   4.188   3.057  11.548 -0.2195 -0.5740  0.9371
  478TMC3    C2 7108   4.164   3.174  11.616  0.4095  0.0952  0.5837
  478TMC3    C3 7109   4.056   3.251  11.586 -0.2563  0.5488  0.3206
  478TMC3    C4 7110   4.101   3.015  11.456 -0.1694  0.2285  0.0716
  478TMC3    C5 7111   4.002   3.106  11.409  0.1647  0.2814 -0.4798
  478TMC3    C6 7112   3.978   3.219  11.477 -0.4338  1.1963 -0.1986
  478TMC3     C 7113   4.302   2.978  11.580 -0.4670  0.1364  0.1856
  478TMC3     O 7114   4.303   2.864  11.538  0.3730  0.1768 -1.0648
  478TMC3     H 7115   4.234   3.204  11.693  0.3362  1.0246  0.2838
  478TMC3    H1 7116   4.107   2.916  11.414 -0.6061 -1.0616  3.0850
  478TMC3    H2 7117   3.883   3.267  11.458 -0.9860  1.0912  2.3354
  478TMC3    C7 7118   3.892   3.047  11.329  0.2547  0.8088 -0.6699
  478TMC3    C8 7119   4.043   3.378  11.662 -0.0705  0.0325 -0.1819
  478TMC3    O1 7120   3.811   2.983  11.395  0.9092  0.0665  0.1804
  478TMC3    O2 7121   4.095   3.381  11.769 -0.8150 -0.6059 -0.3951
  479MPD2     C 7122   2.790   0.413  14.302  0.2893  0.3848  0.0684
  479MPD2    C1 7123   2.793   0.310  14.394  0.5918  0.6523  0.0243
  479MPD2    C2 7124   2.804   0.348  14.525 -1.0565  0.3989  0.8850
  479MPD2    C3 7125   2.822   0.479  14.566  0.3227 -0.0290  0.0810
  479MPD2    C4 7126   2.842   0.571  14.466 -0.0332 -1.0209  0.2842
  479MPD2    C5 7127   2.814   0.542  14.338 -0.3146  0.2125 -0.1163
  479MPD2     H 7128   2.799   0.268  14.598 -0.7104 -1.1418 -0.7825
  479MPD2    H1 7129   2.858   0.675  14.492 -1.3364 -0.8930  0.5806
  479MPD2    H2 7130   2.769   0.403  14.197 -2.7105  0.6291  0.6458
  479MPD2    H3 7131   2.822   0.624  14.267 -0.0581  0.1672 -0.1397
  479MPD2     N 7132   2.831   0.505  14.706 -0.2095  0.3193  0.5271
  479MPD2    H5 7133   2.863   0.597  14.734 -1.0976  0.5356  0.8422
  479MPD2    N1 7134   2.772   0.183  14.337  0.2043  0.0645  0.1039
  479MPD2    H7 7135   2.764   0.177  14.236 -4.0397 -1.1790  0.5050
  480TMC3    C1 7136   2.796   0.483  15.172 -0.1863 -0.0717  0.2216
  480TMC3    C2 7137   2.884   0.591  15.191  0.9726  0.2091 -0.2742
  480TMC3    C3 7138   2.928   0.655  15.078 -0.0643  0.2254 -0.0634
  480TMC3    C4 7139   2.767   0.434  15.046  0.4113  0.9475 -1.2713
  480TMC3    C5 7140   2.826   0.490  14.940 -0.0187 -0.2215  0.2159
  480TMC3    C6 7141   2.912   0.597  14.953  0.0859 -0.2729  0.6724
  480TMC3     C 7142   2.766   0.388  15.285  0.0233  0.2041  0.0767
  480TMC3     O 7143   2.718   0.274  15.270  0.1273  0.7940 -0.1567
  480TMC3     H 7144   2.904   0.635  15.288  3.2452 -0.8335 -0.2540
  480TMC3    H1 7145   2.692   0.356  15.041  0.9454  0.3923 -0.5752
  480TMC3    H2 7146   2.974   0.628  14.870  1.5165 -0.6986  1.5998
  480TMC3    C7 7147   2.800   0.420  14.814 -0.2970  0.3380  0.3833
  480TMC3    C8 7148   2.999   0.777  15.100 -0.2616  0.0855 -0.2311
  480TMC3    O1 7149   2.748   0.308  14.814 -0.6638 -0.9217  0.2155
  480TMC3    O2 7150   3.034   0.809  15.215  0.4969 -0.1946  0.0305
  481MPD2     C 7151   4.649   0.319  14.499 -0.3582  0.2974  0.3496
  481MPD2    C1 7152   4.635   0.188  14.470  0.2544  0.4552  0.4756
  481MPD2    C2 7153   4.578   0.110  14.572 -0.5003 -0.3894  0.1012
  481MPD2    C3 7154   4.516   0.165  14.687  0.2302  0.2913 -0.6462
  481MPD2    C4 7155   4.533   0.299  14.701 -0.2451 -1.2903 -0.2263
  481MPD2    C5 7156   4.600   0.372  14.611 -0.0831  0.0494 -1.0365
  481MPD2     H 7157   4.569   0.004  14.552 -0.0688 -0.5047  0.5315
  481MPD2    H1 7158   4.489   0.353  14.784  1.7609 -1.0568  0.7121
  481MPD2    H2 7159   4.684   0.387  14.421  1.5801 -1.5227 -0.3662
  481MPD2    H3 7160   4.614   0.477  14.631 -0.7605 -0.0192 -0.1526
  481MPD2     N 7161   4.443   0.097  14.788  0.4766  0.3730 -0.0472
  481MPD2    H5 7162   4.412   0.152  14.868  0.8422  1.2388 -0.5032
  481MPD2    N1 7163   4.669   0.140  14.343 -0.3589  0.1948 -0.2814
  481MPD2    H7 7164   4.717   0.205  14.282  1.1190  0.2508  0.9310
  482TMC3    C1 7165   4.664   0.014  14.146  1.0554 -0.5639  0.3093
  482TMC3    C2 7166   4.586   4.656  14.063 -0.1310 -0.6943  0.5576
  482TMC3    C3 7167   4.586   4.673  13.929  0.4073 -0.9938 -0.3687
  482TMC3    C4 7168   0.026   0.113  14.091 -0.3350 -0.1297  0.5614
  482TMC3    C5 7169   0.024   0.123  13.954  0.4660 -0.4022 -0.0160
  482TMC3    C6 7170   4.652   0.057  13.874 -0.3097  1.1553  0.4392
  482TMC3     C 7171   4.625   0.022  14.287  0.5865  0.4608  0.3307
  482TMC3     O 7172   4.534   4.665  14.324 -0.2729 -0.4148 -0.3333
  482TMC3     H 7173   4.535   4.572  14.109 -0.3648 -2.2508 -2.5391
  482TMC3    H1 7174   0.120   0.129  14.143  0.5781  0.9358 -1.4317
  482TMC3    H2 7175   4.640   0.064  13.767 -1.0155 -1.9073  0.3049
  482TMC3    C7 7176   0.104   0.230  13.889 -0.2414  0.0401 -0.3858
  482TMC3    C8 7177   4.470   4.630  13.855  0.1579  0.2257  0.7895
  482TMC3    O1 7178   0.205   0.268  13.949 -0.3288 -0.6298  0.2364
  482TMC3    O2 7179   4.434   4.708  13.769 -0.4149 -0.2765 -0.8358
  483TMC3    C1 7180   2.003   3.806   0.670 -0.1702  0.2383 -0.6005
  483TMC3    C2 7181   2.019   3.936   0.715  0.1653 -0.2606  0.4121
  483TMC3    C3 7182   2.127   3.965   0.794 -1.0184  0.6207  0.5679
  483TMC3    C4 7183   2.080   3.700   0.720 -0.6326 -0.3075 -0.3547
  483TMC3    C5 7184   2.183   3.744   0.799  0.3538 -0.3711 -0.1501
  483TMC3    C6 7185   2.208   3.865   0.849  0.3169  1.1005  0.7057
  483TMC3     C 7186   1.890   3.775   0.573 -0.1134 -0.3927  0.6523
  483TMC3     O 7187   1.795   3.851   0.582  0.1312  0.3898  0.0131
  483TMC3     H 7188   1.956   4.015   0.677  3.1442  2.7358  1.7585
  483TMC3    H1 7189   2.064   3.595   0.697  1.8789 -0.4355 -1.5320
  483TMC3    H2 7190   2.287   3.896   0.916 -0.1630  2.9719  0.4090
  483TMC3    C7 7191   2.291   3.654   0.821  0.2552 -0.0866  0.7319
  483TMC3    C8 7192   2.205   4.073   0.739  0.3526 -0.7493 -0.5567
  483TMC3    O1 7193   2.373   3.688   0.909 -0.2207 -0.9742  0.0104
  483TMC3    O2 7194   2.217   4.076   0.619 -0.0419  0.4792 -0.0038
  484MPD2     C 7195   0.097   1.953  12.032 -0.0076 -0.2466  0.5899
  484MPD2    C1 7196   0.176   1.860  12.097 -0.2968  0.5185 -1.0463
  484MPD2    C2 7197   0.313   1.892  12.104  0.4516  0.1347 -0.4795
  484MPD2    C3 7198   0.373   2.001  12.054  0.5718  0.5347  0.5311
  484MPD2    C4 7199   0.286   2.097  12.004 -0.0971  0.8709 -0.2562
  484MPD2    C5 7200   0.152   2.065  11.979  0.3520 -0.7250 -0.3187
  484MPD2     H 7201   0.378   1.820  12.152  0.8777  1.4045  0.8465
  484MPD2    H1 7202   0.324   2.191  11.966  1.4158 -0.2649 -1.5727
  484MPD2    H2 7203   4.711   1.935  12.015  0.1348 -0.6882  0.1816
  484MPD2    H3 7204   0.085   2.135  11.930  0.3651  0.7975  1.8258
  484MPD2     N 7205   0.513   2.036  12.052  0.5792  0.7130  0.0481
  484MPD2    H5 7206   0.538   2.130  12.024 -1.4340  1.6212  1.3414
  484MPD2    N1 7207   0.108   1.747  12.150 -0.3939 -0.4958 -0.8949
  484MPD2    H7 7208   0.015   1.732  12.111 -0.7671  0.6536 -0.4388
  485TMC3    C1 7209   0.735   2.043  12.097  0.4415 -0.1372 -0.0835
  485TMC3    C2 7210   0.836   1.993  12.175 -0.0607  0.7144 -0.4703
  485TMC3    C3 7211   0.949   2.074  12.177  0.8412 -0.6795  0.6770
  485TMC3    C4 7212   0.742   2.158  12.018  0.0966 -0.8990  0.1383
  485TMC3    C5 7213   0.857   2.230  12.022 -0.1264  0.7032 -0.2384
  485TMC3    C6 7214   0.953   2.189  12.112  0.8869 -0.1056  0.9093
  485TMC3     C 7215   0.610   1.969  12.118 -0.3766  0.6920 -0.0564
  485TMC3     O 7216   0.604   1.870  12.189  0.1565 -0.1050 -0.2345
  485TMC3     H 7217   0.826   1.900  12.229 -0.7124  0.3346 -1.2417
  485TMC3    H1 7218   0.665   2.185  11.947  1.8216  1.7247 -0.7618
  485TMC3    H2 7219   1.027   2.264  12.138  1.2715 -0.0966 -0.2231
  485TMC3    C7 7220   0.900   2.287  11.894 -0.0234 -0.2284 -0.4691
  485TMC3    C8 7221   1.083   2.012  12.159 -0.0066  0.7421 -0.2542
  485TMC3    O1 7222   0.813   2.319  11.810  0.0684  0.0449 -0.2777
  485TMC3    O2 7223   1.149   2.087  12.092  0.5553 -0.0691 -0.3647
  486MPD2     C 7224   2.996   1.084  12.750  0.6708 -0.6144 -0.4247
  486MPD2    C1 7225   2.899   0.990  12.716 -1.2500  0.0531  0.7554
  486MPD2    C2 7226   2.783   1.038  12.654 -0.0119  0.2903  0.4055
  486MPD2    C3 7227   2.753   1.171  12.649 -0.1985 -0.5773  0.4329
  486MPD2    C4 7228   2.852   1.263  12.688  0.0637 -0.4317  0.7063
  486MPD2    C5 7229   2.973   1.221  12.735  0.8256 -0.4885  0.1999
  486MPD2     H 7230   2.704   0.972  12.619 -0.3346  1.2942 -0.7549
  486MPD2    H1 7231   2.835   1.369  12.677 -1.1009 -0.6630  0.2022
  486MPD2    H2 7232   3.090   1.052  12.792  0.1969 -0.0134  1.1246
  486MPD2    H3 7233   3.053   1.284  12.772 -0.1140  1.4603 -1.0722
  486MPD2     N 7234   2.624   1.212  12.595  0.6777  0.2664 -0.3240
  486MPD2    H5 7235   2.566   1.140  12.554  0.3388  1.0689 -1.2751
  486MPD2    N1 7236   2.929   0.855  12.740  0.1615 -0.0511 -0.2285
  486MPD2    H7 7237   3.025   0.845  12.772 -0.2336  0.3451  1.0845
  487TMC3    C1 7238   2.911   0.624  12.722  0.5455  0.1474  0.0027
  487TMC3    C2 7239   2.842   0.504  12.706 -0.5465 -0.4988 -0.3726
  487TMC3    C3 7240   2.911   0.386  12.704  0.0570  0.0168  0.2441
  487TMC3    C4 7241   3.042   0.612  12.757 -0.4342 -0.8576  0.2379
  487TMC3    C5 7242   3.109   0.493  12.759  0.0913 -0.4484 -0.3406
  487TMC3    C6 7243   3.045   0.378  12.716 -0.2186  0.0957  0.0070
  487TMC3     C 7244   2.848   0.747  12.707 -0.6467 -0.4033 -0.4384
  487TMC3     O 7245   2.729   0.748  12.675 -1.1480 -0.3470  0.2242
  487TMC3     H 7246   2.735   0.503  12.687 -0.4874 -0.5957 -0.6935
  487TMC3    H1 7247   3.113   0.693  12.769 -1.1482  0.0571 -1.7963
  487TMC3    H2 7248   3.085   0.282  12.745 -0.3123 -0.3035 -1.2047
  487TMC3    C7 7249   3.206   0.479  12.866 -0.7517  0.5019  0.2874
  487TMC3    C8 7250   2.837   0.266  12.732 -0.7436 -0.5114 -0.7162
  487TMC3    O1 7251   3.213   0.567  12.950 -0.0703 -0.7996  0.7824
  487TMC3    O2 7252   2.898   0.168  12.685  0.2720  0.4674  0.6512
  488MPD2     C 7253   2.595   2.021  16.415 -0.0053 -0.2261 -0.4878
  488MPD2    C1 7254   2.626   2.133  16.488  0.3056 -0.9126  0.0411
  488MPD2    C2 7255   2.599   2.136  16.627  0.5176 -0.0311  0.2785
  488MPD2    C3 7256   2.550   2.022  16.691  0.0063  0.2460 -0.0719
  488MPD2    C4 7257   2.533   1.913  16.619 -0.5199  0.0866  0.1500
  488MPD2    C5 7258   2.550   1.912  16.484 -0.2849  0.0726 -0.4346
  488MPD2     H 7259   2.625   2.227  16.680  3.2844  0.3019 -1.6593
  488MPD2    H1 7260   2.505   1.817  16.662 -2.0500 -0.1013 -1.2285
  488MPD2    H2 7261   2.618   2.012  16.310 -0.9924 -1.1894 -0.6341
  488MPD2    H3 7262   2.520   1.822  16.431 -1.3083  0.3225 -0.2806
  488MPD2     N 7263   2.518   2.025  16.827 -0.5157  0.0880  0.0226
  488MPD2    H5 7264   2.533   2.119  16.862 -1.2173  0.9154 -1.9041
  488MPD2    N1 7265   2.682   2.243  16.431  0.2250 -0.4993 -0.1606
  488MPD2    H7 7266   2.706   2.311  16.503  0.1135 -1.3888  0.7146
  489TMC3    C1 7267   2.452   1.955  17.045  0.0360  0.0999 -0.1418
  489TMC3    C2 7268   2.495   2.077  17.087  0.0268 -0.2304  0.1733
  489TMC3    C3 7269   2.462   2.114  17.218 -0.3963 -1.1594 -0.2190
  489TMC3    C4 7270   2.385   1.866  17.118 -0.3719 -0.7826 -0.0916
  489TMC3    C5 7271   2.365   1.900  17.253 -0.1177 -0.6717 -0.2625
  489TMC3    C6 7272   2.398   2.025  17.302  1.1013  0.1395  0.3932
  489TMC3     C 7273   2.461   1.923  16.903 -0.0415 -0.4358  0.0309
  489TMC3     O 7274   2.420   1.810  16.868 -0.1751 -0.2095 -0.2653
  489TMC3     H 7275   2.557   2.142  17.027  0.0358 -0.1974  0.2183
  489TMC3    H1 7276   2.350   1.770  17.083  0.2032 -0.5517 -1.3063
  489TMC3    H2 7277   2.382   2.052  17.405 -0.6262 -1.4065  0.5251
  489TMC3    C7 7278   2.291   1.816  17.343  0.8301  0.2898  0.0085
  489TMC3    C8 7279   2.502   2.246  17.266  0.2363  0.1183 -0.5415
  489TMC3    O1 7280   2.280   1.862  17.453  0.3709 -0.0390  0.2318
  489TMC3    O2 7281   2.574   2.300  17.184  0.0339 -0.1957 -0.2068
  490MPD2     C 7282   2.710   1.941   0.318  0.6069  0.5479 -0.0940
  490MPD2    C1 7283   2.798   1.892   0.221  0.1538 -0.2672 -0.0471
  490MPD2    C2 7284   2.904   1.973   0.178 -0.6786  0.1989 -0.3676
  490MPD2    C3 7285   2.915   2.106   0.215 -0.5718 -0.2573  0.7905
  490MPD2    C4 7286   2.830   2.143   0.316 -0.1085 -0.4106  0.3959
  490MPD2    C5 7287   2.732   2.065   0.376 -0.2803 -0.6661 -0.1237
  490MPD2     H 7288   2.974   1.919   0.116 -1.5115 -1.2141 -0.0687
  490MPD2    H1 7289   2.835   2.243   0.358 -0.2801 -0.2300 -0.0110
  490MPD2    H2 7290   2.638   1.873   0.363  1.2365 -1.2671 -1.8150
  490MPD2    H3 7291   2.684   2.117   0.458 -1.0227  1.0285 -1.6333
  490MPD2     N 7292   3.002   2.188   0.138  0.4876  0.0805 -0.7317
  490MPD2    H5 7293   3.009   2.282   0.176  1.4120 -0.5983  0.8113
  490MPD2    N1 7294   2.792   1.767   0.159 -0.2863 -0.3179 -0.1191
  490MPD2    H7 7295   2.859   1.738   0.089 -0.5496 -2.2621  0.4396
  491TMC3    C1 7296   2.747   1.534   0.139  0.6465 -0.4850  1.0863
  491TMC3    C2 7297   2.769   1.439   0.240 -0.7679  0.0773 -0.5273
  491TMC3    C3 7298   2.859   1.347   0.220 -0.5641  0.3190 -0.1321
  491TMC3    C4 7299   2.832   1.548   0.036 -0.4471  0.0487 -0.0706
  491TMC3    C5 7300   2.915   1.437   0.015 -0.5333  0.2978 -0.2285
  491TMC3    C6 7301   2.936   1.340   0.109  0.1914  1.1739 -0.2046
  491TMC3     C 7302   2.709   1.662   0.189  0.0458  0.1378  0.7332
  491TMC3     O 7303   2.621   1.659   0.274  0.0804 -0.2838 -0.1137
  491TMC3     H 7304   2.715   1.448   0.333  0.2618 -2.1974  0.2714
  491TMC3    H1 7305   2.782   1.607  17.641 -0.7360 -1.5906 -1.1553
  491TMC3    H2 7306   3.011   1.264   0.095  0.2244  1.0266  0.7338
  491TMC3    C7 7307   2.957   1.414  17.553  0.2193  0.2101  0.1694
  491TMC3    C8 7308   2.897   1.271   0.340 -0.1566  0.2043 -0.1836
  491TMC3    O1 7309   2.986   1.299  17.545 -0.0905 -0.0464  1.0322
  491TMC3    O2 7310   2.861   1.318   0.447 -0.2102  0.0047  0.4859
  492MPD2     C 7311   4.149   1.563  11.195 -0.5333  0.1064  0.3724
  492MPD2    C1 7312   4.142   1.435  11.134  0.1260  1.2451  0.1015
  492MPD2    C2 7313   4.061   1.332  11.183 -0.7616 -0.5484 -0.0424
  492MPD2    C3 7314   3.999   1.352  11.308 -0.2698 -0.1445  0.5646
  492MPD2    C4 7315   4.022   1.473  11.373 -0.3365 -0.3151 -0.2067
  492MPD2    C5 7316   4.091   1.577  11.314 -0.1358  0.2318  0.3332
  492MPD2     H 7317   4.040   1.240  11.130 -0.5249 -0.9088  0.4840
  492MPD2    H1 7318   3.963   1.495  11.461 -1.9749 -1.1885 -1.0861
  492MPD2    H2 7319   4.207   1.650  11.166 -0.1305 -0.8159 -1.5852
  492MPD2    H3 7320   4.077   1.674  11.360 -1.6485 -0.0907  0.5416
  492MPD2     N 7321   3.904   1.264  11.364 -0.4219  0.0385  0.2587
  492MPD2    H5 7322   3.866   1.288  11.455 -0.2989 -1.6119  0.7391
  492MPD2    N1 7323   4.204   1.433  11.008 -0.0734  0.1421  0.0877
  492MPD2    H7 7324   4.228   1.525  10.973 -0.9128  0.0761 -0.6629
  493TMC3    C1 7325   4.281   1.355  10.797 -0.2675 -0.1032  0.9359
  493TMC3    C2 7326   4.345   1.470  10.799  0.4468 -0.0351  0.5609
  493TMC3    C3 7327   4.317   1.558  10.703 -0.3869 -0.0771  0.1297
  493TMC3    C4 7328   4.198   1.309  10.694 -0.5951 -0.5871  0.6849
  493TMC3    C5 7329   4.179   1.393  10.592  0.0206 -1.2332  0.0644
  493TMC3    C6 7330   4.241   1.518  10.589 -0.0745  0.1025 -0.4086
  493TMC3     C 7331   4.225   1.322  10.928 -0.1820 -0.2804  0.0749
  493TMC3     O 7332   4.199   1.208  10.953  0.0951  0.2732  0.6049
  493TMC3     H 7333   4.411   1.505  10.877 -1.3385  2.0612  1.1270
  493TMC3    H1 7334   4.148   1.213  10.703 -2.7085  0.7604  3.5992
  493TMC3    H2 7335   4.212   1.601  10.526  1.2245  0.5816 -0.3589
  493TMC3    C7 7336   4.087   1.347  10.489 -0.1222  0.1468 -0.5439
  493TMC3    C8 7337   4.290   1.686  10.764  1.1962 -0.2540 -0.2254
  493TMC3    O1 7338   4.018   1.256  10.533  0.6071 -0.3627 -1.0132
  493TMC3    O2 7339   4.247   1.677  10.880 -0.3166  0.0945  0.4823
  494TMC3    C1 7340   4.287   3.665   0.381 -0.4786 -0.1545  0.0285
  494TMC3    C2 7341   4.341   3.547   0.424 -0.2333  0.5326  0.3138
  494TMC3    C3 7342   4.341   3.446   0.339  0.8107 -0.5309 -0.0661
  494TMC3    C4 7343   4.234   3.685   0.257 -0.6180  0.1797 -0.7563
  494TMC3    C5 7344   4.235   3.578   0.173  0.5101  0.4738 -0.5451
  494TMC3    C6 7345   4.297   3.458   0.210  0.4221  0.0462  0.5973
  494TMC3     C 7346   4.277   3.779   0.475 -0.3112 -0.3294 -0.4789
  494TMC3     O 7347   4.214   3.872   0.439 -0.1446  0.5060 -0.1179
  494TMC3     H 7348   4.369   3.539   0.528  0.6666  1.5451  0.1598
  494TMC3    H1 7349   4.166   3.767   0.240 -2.6695 -1.0482  1.4667
  494TMC3    H2 7350   4.296   3.368   0.150 -1.4962  0.2045  0.3944
  494TMC3    C7 7351   4.209   3.583   0.033 -0.7709 -0.6538  0.1764
  494TMC3    C8 7352   4.368   3.312   0.401 -0.1661 -0.0374  0.4542
  494TMC3    O1 7353   4.231   3.477  17.653  0.8660 -0.0831 -0.0630
  494TMC3    O2 7354   4.375   3.311   0.523 -0.5217  0.1118 -0.0127
  495TMC3    C1 7355   3.428   1.045  14.354  0.8977  1.1100  0.0694
  495TMC3    C2 7356   3.322   1.006  14.276 -0.0619  1.4028 -0.7088
  495TMC3    C3 7357   3.193   1.050  14.310  0.5012 -0.1361  0.1192
  495TMC3    C4 7358   3.408   1.151  14.436  0.2698 -0.1184 -0.0553
  495TMC3    C5 7359   3.283   1.192  14.473  0.0751  0.2695 -0.5156
  495TMC3    C6 7360   3.173   1.146  14.409 -0.2337  0.7425  0.4096
  495TMC3     C 7361   3.479   0.923  14.417  0.3763  0.1478 -0.9034
  495TMC3     O 7362   3.487   0.822  14.352  0.4787 -0.1390 -0.2636
  495TMC3     H 7363   3.339   0.932  14.199 -1.2383  1.7295 -1.2903
  495TMC3    H1 7364   3.490   1.207  14.480  0.8853 -0.3070 -0.9743
  495TMC3    H2 7365   3.077   1.195  14.422  1.2120  3.3503  1.0817
  495TMC3    C7 7366   3.267   1.224  14.610 -0.0173 -0.3014 -0.0771
  495TMC3    C8 7367   3.079   1.001  14.229  0.9213  0.7173  0.5818
  495TMC3    O1 7368   3.359   1.274  14.670  0.4035  0.2101  0.3006
  495TMC3    O2 7369   2.971   1.034  14.275  0.1876 -0.7732  0.4337
  496MPD2     C 7370   0.237   0.601  15.010  0.0748  0.0782  0.1568
  496MPD2    C1 7371   0.132   0.520  15.050 -0.1998  0.1300  0.4450
  496MPD2    C2 7372   0.055   0.559  15.152  0.0037  0.0454 -0.0091
  496MPD2    C3 7373   0.057   0.687  15.204 -0.0142 -0.1344 -0.0934
  496MPD2    C4 7374   0.167   0.765  15.170 -0.3053 -0.7928 -0.2329
  496MPD2    C5 7375   0.248   0.725  15.069  0.0390  0.3997 -0.1652
  496MPD2     H 7376   4.692   0.499  15.188 -1.6856  1.2821 -1.8006
  496MPD2    H1 7377   0.182   0.859  15.222  1.8866 -1.4922  0.3844
  496MPD2    H2 7378   0.303   0.564  14.932  2.1404  1.6144  1.1821
  496MPD2    H3 7379   0.327   0.792  15.038 -0.9553  1.1082 -1.1784
  496MPD2     N 7380   4.697   0.727  15.314 -0.3654  0.6764  0.2769
  496MPD2    H5 7381   0.016   0.798  15.375 -4.0456  2.0016  1.0107
  496MPD2    N1 7382   0.117   0.384  15.006  0.0266  0.1982  0.2730
  496MPD2    H7 7383   0.184   0.354  14.936  1.1056 -0.6938  1.6775
  497TMC3    C1 7384   4.528   0.748  15.482  0.2202  0.5472  0.1551
  497TMC3    C2 7385   4.403   0.799  15.491  0.8457 -0.0277 -0.9184
  497TMC3    C3 7386   4.371   0.899  15.582 -0.8280 -0.2612  0.2356
  497TMC3    C4 7387   4.625   0.800  15.565 -0.3497  0.5322  0.8485
  497TMC3    C5 7388   4.599   0.908  15.651 -0.2073  1.2221  0.0116
  497TMC3    C6 7389   4.469   0.959  15.662  0.5775  0.0409  0.4278
  497TMC3     C 7390   4.569   0.684  15.356  0.4830  0.3061 -0.2456
  497TMC3     O 7391   4.490   0.616  15.292  0.0777 -0.4372 -0.9156
  497TMC3     H 7392   4.325   0.746  15.437  1.3327  1.1692 -2.7730
  497TMC3    H1 7393   4.714   0.740  15.576 -0.5489  0.2319  0.8423
  497TMC3    H2 7394   4.451   1.046  15.723  1.9947  1.2705 -0.8831
  497TMC3    C7 7395   4.682   0.937  15.760  0.3340  0.1191 -0.2240
  497TMC3    C8 7396   4.242   0.948  15.612  0.3530  0.8355 -0.6877
  497TMC3    O1 7397   4.671   1.057  15.790 -0.3780  0.2893  0.2524
  497TMC3    O2 7398   4.222   1.013  15.717  0.8251 -0.0329  0.5967
  498MPD2     C 7399   1.854   1.275   9.141 -1.0875  0.3424  0.1178
  498MPD2    C1 7400   1.863   1.294   9.274 -0.3053  0.2743 -0.3095
  498MPD2    C2 7401   1.750   1.262   9.353  0.4867  0.1818 -0.4204
  498MPD2    C3 7402   1.639   1.203   9.290  0.2970 -0.0967 -0.4583
  498MPD2    C4 7403   1.639   1.189   9.154  0.0131 -1.0099 -0.3755
  498MPD2    C5 7404   1.743   1.236   9.080  0.1382  0.7949 -0.0178
  498MPD2     H 7405   1.746   1.269   9.461  1.2547  0.8341 -0.4285
  498MPD2    H1 7406   1.566   1.132   9.098  0.0447 -1.5175  0.1044
  498MPD2    H2 7407   1.943   1.270   9.080 -0.9480  1.5437  0.2260
  498MPD2    H3 7408   1.748   1.208   8.975 -2.0783 -2.1595  0.6558
  498MPD2     N 7409   1.535   1.143   9.372 -0.1791  0.1992 -0.4928
  498MPD2    H5 7410   1.528   1.170   9.470  1.1510  1.3801 -0.7157
  498MPD2    N1 7411   1.990   1.326   9.326  0.2165 -0.2442 -0.1794
  498MPD2    H7 7412   2.060   1.350   9.257  1.5279  0.0067  1.2399
  499TMC3    C1 7413   2.156   1.370   9.497 -0.2042 -0.2189 -0.1228
  499TMC3    C2 7414   2.204   1.344   9.621 -0.9840  0.6354 -0.1728
  499TMC3    C3 7415   2.326   1.392   9.656 -0.8907  0.1081  0.4366
  499TMC3    C4 7416   2.231   1.446   9.405  0.0786  0.1433 -0.6452
  499TMC3    C5 7417   2.362   1.481   9.438  0.1985  0.0874 -0.5902
  499TMC3    C6 7418   2.408   1.446   9.562  0.2818  1.2158  0.2136
  499TMC3     C 7419   2.023   1.318   9.463 -0.3886 -0.3735 -0.6063
  499TMC3     O 7420   1.954   1.267   9.549 -0.3621  0.6396  0.1683
  499TMC3     H 7421   2.131   1.321   9.698 -0.0466  0.3367  0.6301
  499TMC3    H1 7422   2.183   1.492   9.319  1.1053 -0.4095 -1.5120
  499TMC3    H2 7423   2.508   1.480   9.589  0.8943 -0.5125  0.1271
  499TMC3    C7 7424   2.425   1.592   9.363 -0.6367 -0.6664  0.6595
  499TMC3    C8 7425   2.369   1.385   9.796  0.3839 -0.0922  0.0863
  499TMC3    O1 7426   2.357   1.644   9.273 -0.5863  0.2129  0.4677
  499TMC3    O2 7427   2.475   1.442   9.820  0.2573 -0.5018 -0.4444
  500MPD2     C 7428   3.038   2.302   9.937  0.0824  0.4511  0.1251
  500MPD2    C1 7429   3.003   2.398  10.029  0.1206  0.5644  0.3492
  500MPD2    C2 7430   2.887   2.477  10.010  0.4090  0.3953  0.2841
  500MPD2    C3 7431   2.803   2.447   9.904 -0.8366  0.1594 -0.9076
  500MPD2    C4 7432   2.841   2.353   9.805 -0.3742  0.5892 -0.3183
  500MPD2    C5 7433   2.958   2.286   9.825  0.5151 -0.0788  0.7009
  500MPD2     H 7434   2.869   2.545  10.093  3.1079  2.0836 -0.5126
  500MPD2    H1 7435   2.782   2.327   9.718 -1.0281  2.1291 -0.3268
  500MPD2    H2 7436   3.132   2.248   9.946  0.6486  1.3501 -0.3425
  500MPD2    H3 7437   2.981   2.208   9.753 -0.5315 -0.5594  0.8852
  500MPD2     N 7438   2.683   2.527   9.878  0.3373  0.2689  0.2530
  500MPD2    H5 7439   2.637   2.497   9.793  1.0452 -0.2728  0.0555
  500MPD2    N1 7440   3.086   2.432  10.137 -0.2055  0.2196  0.4555
  500MPD2    H7 7441   3.058   2.505  10.201 -0.9599  1.1901 -0.9675
  501TMC3    C1 7442   3.248   2.422  10.296  0.1131 -0.3818  0.2374
  501TMC3    C2 7443   3.224   2.557  10.332 -0.4880  0.1417  0.5079
  501TMC3    C3 7444   3.296   2.597  10.436  0.3491  0.3232 -0.2853
  501TMC3    C4 7445   3.324   2.338  10.372 -0.3204  0.2398  0.2124
  501TMC3    C5 7446   3.392   2.389  10.475  0.2297  0.4905 -0.9198
  501TMC3    C6 7447   3.386   2.519  10.502 -0.3962  0.2168 -0.1884
  501TMC3     C 7448   3.190   2.364  10.178  0.2983 -0.1713  1.2090
  501TMC3     O 7449   3.232   2.253  10.145 -0.0197 -0.1465  0.7543
  501TMC3     H 7450   3.183   2.625  10.258 -1.2117 -0.3776  0.4394
  501TMC3    H1 7451   3.359   2.242  10.335  2.2626  0.3494  2.3474
  501TMC3    H2 7452   3.438   2.562  10.587 -0.0575 -1.0910  0.2607
  501TMC3    C7 7453   3.513   2.317  10.511  0.2726  0.1853  0.6054
  501TMC3    C8 7454   3.316   2.742  10.448 -0.1537 -0.3308 -0.6495
  501TMC3    O1 7455   3.508   2.203  10.559  0.2353  0.0441  0.6914
  501TMC3    O2 7456   3.420   2.776  10.497 -0.3513 -0.0409  0.0861
  502TMC3    C1 7457   2.304   1.508  15.120 -0.5871 -0.1507 -0.2785
  502TMC3    C2 7458   2.264   1.636  15.134  0.2490  0.3078 -0.3366
  502TMC3    C3 7459   2.134   1.659  15.104 -0.3932 -0.2832  0.0131
  502TMC3    C4 7460   2.228   1.412  15.062 -0.3466  0.2532  0.4657
  502TMC3    C5 7461   2.097   1.436  15.038 -0.5215 -0.3442 -0.1738
  502TMC3    C6 7462   2.055   1.561  15.045  0.1507 -0.3794 -0.5601
  502TMC3     C 7463   2.425   1.471  15.177  0.1421  0.5285  0.0358
  502TMC3     O 7464   2.514   1.557  15.169  0.0987  0.2296  0.2689
  502TMC3     H 7465   2.318   1.714  15.187 -1.1112  0.9619  0.0829
  502TMC3    H1 7466   2.286   1.320  15.059 -1.6758 -0.5667  0.0292
  502TMC3    H2 7467   1.955   1.593  15.019 -0.5479  0.5337  3.2841
  502TMC3    C7 7468   2.022   1.322  14.993  0.0478 -0.2094 -0.5907
  502TMC3    C8 7469   2.083   1.793  15.102 -0.0936 -0.9327 -0.7511
  502TMC3    O1 7470   2.094   1.225  14.969  0.3646 -0.5197  0.4317
  502TMC3    O2 7471   2.010   1.825  15.009  0.3184  0.5869 -0.2327
  503MPD2     C 7472   4.405   2.306  16.707 -0.2637 -0.5659  0.0566
  503MPD2    C1 7473   4.363   2.280  16.834 -0.4779 -0.4042  0.0881
  503MPD2    C2 7474   4.406   2.164  16.898 -0.1473 -0.0157 -0.4238
  503MPD2    C3 7475   4.487   2.077  16.825  0.2750  0.9110  0.9480
  503MPD2    C4 7476   4.526   2.105  16.692 -0.4457  0.5692 -0.1349
  503MPD2    C5 7477   4.476   2.213  16.636 -0.2777  0.3635  0.1956
  503MPD2     H 7478   4.366   2.126  16.991  1.8555  0.0473  0.4544
  503MPD2    H1 7479   4.592   2.038  16.638  0.7822  0.2775  1.6794
  503MPD2    H2 7480   4.364   2.391  16.654  0.4200 -0.4074 -0.2249
  503MPD2    H3 7481   4.508   2.232  16.534 -0.3890  1.9432  0.4467
  503MPD2     N 7482   4.531   1.957  16.893 -0.1799  0.0287 -0.2403
  503MPD2    H5 7483   4.511   1.955  16.992  1.4309  2.4479  0.1280
  503MPD2    N1 7484   4.289   2.365  16.912 -0.2582 -0.2103  1.1745
  503MPD2    H7 7485   4.280   2.343  17.010 -1.4010 -1.2830  0.8278
  504TMC3    C1 7486   4.650   1.761  16.940 -0.4239 -0.7190 -0.6308
  504TMC3    C2 7487   4.570   1.720  17.040 -0.8005 -0.3794 -0.1023
  504TMC3    C3 7488   4.616   1.610  17.108  0.3450 -0.2366  0.0483
  504TMC3    C4 7489   0.050   1.697  16.912 -0.3641 -0.1252 -0.3713
  504TMC3    C5 7490   0.093   1.590  16.990 -0.0748 -0.1649 -0.1778
  504TMC3    C6 7491   0.020   1.551  17.097  0.1485  0.2892 -0.8583
  504TMC3     C 7492   4.614   1.858  16.843 -0.3459  0.9638  0.3989
  504TMC3     O 7493   4.663   1.857  16.730  0.1111  0.0911  0.1430
  504TMC3     H 7494   4.471   1.762  17.056 -0.5326 -0.6058  2.1943
  504TMC3    H1 7495   0.103   1.717  16.820  0.7020 -4.7413 -0.7479
  504TMC3    H2 7496   0.041   1.456  17.146 -2.6226  0.0703 -0.1003
  504TMC3    C7 7497   0.223   1.531  16.962  0.5165  0.0746  0.3094
  504TMC3    C8 7498   4.539   1.564  17.211 -0.1001  0.1639 -0.0939
  504TMC3    O1 7499   0.250   1.525  16.841  0.1149  0.3273  0.3838
  504TMC3    O2 7500   4.541   1.443  17.232 -0.8548  0.4047 -0.7967
  505MPD2     C 7501   0.227   1.010   9.643 -0.3368  0.4775 -0.0712
  505MPD2    C1 7502   0.248   0.946   9.765 -0.1080 -0.1995  0.3118
  505MPD2    C2 7503   0.284   1.025   9.876 -0.3964  0.2275  0.4181
  505MPD2    C3 7504   0.297   1.162   9.857  0.1495  0.1990  0.4115
  505MPD2    C4 7505   0.289   1.213   9.727 -0.5381 -0.0613 -0.4062
  505MPD2    C5 7506   0.249   1.143   9.622 -0.4646  0.1466 -0.3525
  505MPD2     H 7507   0.308   0.970   9.966 -0.5239 -0.0250  0.3012
  505MPD2    H1 7508   0.310   1.318   9.714 -2.7538  0.3880 -0.3342
  505MPD2    H2 7509   0.168   0.955   9.571  0.6576 -0.5313 -0.1076
  505MPD2    H3 7510   0.234   1.184   9.522  2.2287  0.0696 -0.8026
  505MPD2     N 7511   0.339   1.247   9.960  0.2406  0.2065  0.3786
  505MPD2    H5 7512   0.360   1.342   9.930 -1.8694  0.6977  0.4762
  505MPD2    N1 7513   0.220   0.808   9.768 -0.0357 -0.7399  0.0183
  505MPD2    H7 7514   0.200   0.753   9.685  0.6003 -0.2133 -0.4864
  506TMC3    C1 7515   0.249   0.589   9.860 -0.1318 -0.4072  0.4390
  506TMC3    C2 7516   0.331   0.570   9.752  0.2325 -0.4322 -0.3669
  506TMC3    C3 7517   0.438   0.489   9.763 -0.0468  0.1083 -0.5515
  506TMC3    C4 7518   0.281   0.537   9.989  0.4250  0.0129  0.6457
  506TMC3    C5 7519   0.395   0.456   9.997  0.5123 -0.1757  0.6028
  506TMC3    C6 7520   0.473   0.430   9.884 -0.1684  0.0708  0.6352
  506TMC3     C 7521   0.230   0.732   9.883 -0.1295  0.2716 -0.5395
  506TMC3     O 7522   0.234   0.759  10.003  0.6044  0.3260 -0.6890
  506TMC3     H 7523   0.318   0.614   9.654 -1.9327 -0.2450  0.0024
  506TMC3    H1 7524   0.213   0.545  10.073  3.6897  1.3158  3.1714
  506TMC3    H2 7525   0.570   0.382   9.894  0.1152 -0.0082 -2.4627
  506TMC3    C7 7526   0.472   0.486  10.115 -0.3571 -0.0489 -0.1477
  506TMC3    C8 7527   0.548   0.532   9.682 -0.4272  0.0629  0.1682
  506TMC3    O1 7528   0.561   0.410  10.152 -0.3494 -0.1719  0.4749
  506TMC3    O2 7529   0.542   0.647   9.642  0.0139  0.3782  0.1278
  507TMC3    C1 7530   0.955   1.594  14.326  0.8821  1.2053 -0.0675
  507TMC3    C2 7531   0.947   1.561  14.194  0.2442 -0.1336  0.4271
  507TMC3    C3 7532   0.988   1.655  14.103 -0.4234 -0.1418  0.1709
  507TMC3    C4 7533   1.003   1.720  14.365 -0.0923 -0.1003  0.0140
  507TMC3    C5 7534   1.014   1.820  14.269  1.1914 -0.4036 -0.1976
  507TMC3    C6 7535   1.023   1.780  14.142 -0.5631  0.6253 -0.1200
  507TMC3     C 7536   0.852   1.548  14.422 -0.3283  0.0134 -0.2486
  507TMC3     O 7537   0.805   1.621  14.515 -0.2197 -0.0507  0.1397
  507TMC3     H 7538   0.887   1.479  14.156 -0.3352  1.4652 -2.1520
  507TMC3    H1 7539   1.008   1.736  14.472  0.5006 -1.6241  0.2070
  507TMC3    H2 7540   1.038   1.860  14.071 -0.1256 -0.8210 -1.6657
  507TMC3    C7 7541   0.914   1.924  14.276 -0.0063  0.2760 -0.0661
  507TMC3    C8 7542   0.909   1.650  13.984  0.0967 -0.7523 -0.1868
  507TMC3    O1 7543   0.855   1.947  14.170 -0.6972 -0.0241  0.0275
  507TMC3    O2 7544   0.876   1.544  13.933  0.0965  0.3713  0.5825
  508MPD2     C 7545   1.328   3.944  16.226 -0.0249  0.4764  0.2332
  508MPD2    C1 7546   1.463   3.962  16.201  0.0311  0.2854 -0.1330
  508MPD2    C2 7547   1.500   4.004  16.076  0.7392 -0.3860 -0.3248
  508MPD2    C3 7548   1.420   4.011  15.966  1.5112 -0.6172 -1.0713
  508MPD2    C4 7549   1.290   3.971  15.986 -0.3498 -0.5783 -0.3592
  508MPD2    C5 7550   1.248   3.940  16.116  0.5292 -0.3319 -0.4118
  508MPD2     H 7551   1.604   4.034  16.062  0.7129 -0.5993 -0.9642
  508MPD2    H1 7552   1.218   3.961  15.906 -0.0388 -1.5849 -0.5142
  508MPD2    H2 7553   1.276   3.922  16.318 -0.1371  3.6338  0.8965
  508MPD2    H3 7554   1.142   3.931  16.135  0.2889  0.4658 -1.3940
  508MPD2     N 7555   1.482   4.060  15.849  0.0019 -0.0237  0.4889
  508MPD2    H5 7556   1.583   4.069  15.846 -0.0872  0.6812 -0.4486
  508MPD2    N1 7557   1.553   3.956  16.310 -0.4799  0.9548  0.2840
  508MPD2    H7 7558   1.517   3.983  16.401 -1.7254 -1.0424  0.3852
  509TMC3    C1 7559   1.477   4.226  15.413 -0.7718 -0.2310  1.7227
  509TMC3    C2 7560   1.617   4.234  15.403 -0.0870 -0.4117 -0.5574
  509TMC3    C3 7561   1.691   4.194  15.517  0.5783  0.3399 -0.4190
  509TMC3    C4 7562   1.419   4.158  15.516  0.0796  0.0357  0.4973
  509TMC3    C5 7563   1.497   4.116  15.618  0.1501 -0.1384 -0.4738
  509TMC3    C6 7564   1.635   4.138  15.628 -0.0602  0.0095 -0.1397
  509TMC3     C 7565   1.389   4.253  15.300  0.5873 -0.2898 -0.0926
  509TMC3     O 7566   1.274   4.212  15.311  0.3433 -0.0649  0.0396
  509TMC3     H 7567   1.662   4.283  15.318 -1.3920  0.0126 -1.0137
  509TMC3    H1 7568   1.310   4.151  15.521  0.1670 -2.5871 -1.2261
  509TMC3    H2 7569   1.696   4.090  15.704 -0.6794 -1.5747 -0.6463
  509TMC3    C7 7570   1.414   4.077  15.735  0.9176 -0.5926  0.2170
  509TMC3    C8 7571   1.836   4.201  15.526  1.3074 -0.1999  0.5448
  509TMC3    O1 7572   1.304   4.034  15.709 -0.2592 -0.0810  0.1253
  509TMC3    O2 7573   1.897   4.125  15.605 -0.4992  0.2017 -0.2109
  510MPD2     C 7574   4.224   0.799  14.368  0.2398 -0.3344  1.0953
  510MPD2    C1 7575   4.233   0.928  14.417 -0.7001 -0.8196  0.1230
  510MPD2    C2 7576   4.286   1.023  14.329  0.1621 -0.1339 -1.0108
  510MPD2    C3 7577   4.346   0.987  14.212 -0.3386 -0.1599  0.0741
  510MPD2    C4 7578   4.343   0.852  14.172  0.3305  0.1661 -0.1395
  510MPD2    C5 7579   4.277   0.764  14.250 -0.1860 -0.5043 -0.0792
  510MPD2     H 7580   4.292   1.129  14.351  0.7086  0.0820 -2.2327
  510MPD2    H1 7581   4.396   0.804  14.090  2.6994  1.8712  0.4154
  510MPD2    H2 7582   4.187   0.715  14.427 -0.6004 -0.9495 -0.2889
  510MPD2    H3 7583   4.285   0.662  14.215 -3.2563 -0.3975 -1.0829
  510MPD2     N 7584   4.410   1.090  14.142 -0.1186 -0.8328  0.4139
  510MPD2    H5 7585   4.411   1.178  14.193  3.0182 -1.6986  1.8705
  510MPD2    N1 7586   4.208   0.950  14.555 -0.2024 -0.0521  0.3332
  510MPD2    H7 7587   4.206   0.868  14.615  0.1019  0.5097  1.1184
  511TMC3    C1 7588   4.184   1.062  14.761  0.5298 -0.5189  1.0274
  511TMC3    C2 7589   4.093   1.150  14.802  0.3016 -0.0831 -0.3955
  511TMC3    C3 7590   4.006   1.099  14.888 -0.5988  0.0339  0.3391
  511TMC3    C4 7591   4.196   0.935  14.809  1.1239  0.2380 -0.3945
  511TMC3    C5 7592   4.111   0.886  14.900  0.7287  0.1320  0.5852
  511TMC3    C6 7593   4.013   0.971  14.941 -0.1303 -0.5634  0.5167
  511TMC3     C 7594   4.193   1.073  14.613  0.1295 -0.2763  0.5231
  511TMC3     O 7595   4.164   1.177  14.557 -0.6866  0.0923 -0.1411
  511TMC3     H 7596   4.097   1.258  14.786  1.4743 -0.0502  0.0841
  511TMC3    H1 7597   4.286   0.877  14.792  0.7912 -0.7463  1.1853
  511TMC3    H2 7598   3.939   0.933  15.011 -1.6937  0.5898 -0.4938
  511TMC3    C7 7599   4.149   0.783  14.990 -0.4493 -0.3577  0.1424
  511TMC3    C8 7600   3.923   1.198  14.963 -0.4304 -0.6683  0.3797
  511TMC3    O1 7601   4.267   0.790  15.029 -0.2992 -0.7810  0.0052
  511TMC3    O2 7602   3.970   1.308  14.987  0.7136  0.6241  0.3357
  512TMC3    C1 7603   3.884   0.279  13.032  0.2072 -0.7881  0.1287
  512TMC3    C2 7604   3.826   0.397  13.082 -0.1939 -0.1088 -0.6751
  512TMC3    C3 7605   3.726   0.468  13.018  0.7197 -0.0133 -0.4896
  512TMC3    C4 7606   3.845   0.240  12.906  0.3366  0.1570 -0.7343
  512TMC3    C5 7607   3.733   0.302  12.848 -0.3684  0.4910 -0.2505
  512TMC3    C6 7608   3.671   0.415  12.901  0.2432  0.1481 -0.0114
  512TMC3     C 7609   4.018   0.225  13.070 -0.3118 -0.2835 -0.0315
  512TMC3     O 7610   4.081   0.166  12.984  0.0527  0.3375  0.6319
  512TMC3     H 7611   3.863   0.419  13.182 -0.4163 -1.6981 -0.2398
  512TMC3    H1 7612   3.883   0.143  12.875  2.1153  0.6026  0.0528
  512TMC3    H2 7613   3.582   0.450  12.850  0.8658  0.6370 -0.7582
  512TMC3    C7 7614   3.670   0.236  12.734 -0.5553  0.0680 -0.0292
  512TMC3    C8 7615   3.637   0.562  13.084 -0.3497 -0.0644 -0.4165
  512TMC3    O1 7616   3.601   0.294  12.648  0.2641 -0.4000 -0.0360
  512TMC3    O2 7617   3.549   0.613  13.017 -0.0722 -0.1331 -0.0117
  513MPD2     C 7618   0.459   0.810  12.991 -0.7210  0.4540 -0.4320
  513MPD2    C1 7619   0.552   0.886  12.935 -0.3097  0.4413 -0.1764
  513MPD2    C2 7620   0.677   0.889  12.997  0.1663  0.0581  0.0893
  513MPD2    C3 7621   0.712   0.802  13.104 -0.6828 -0.4105 -0.0296
  513MPD2    C4 7622   0.620   0.712  13.143  0.7279 -0.2778 -0.3732
  513MPD2    C5 7623   0.491   0.715  13.088  0.1495 -0.2686  0.0201
  513MPD2     H 7624   0.757   0.953  12.960  2.5068 -0.7889  3.6170
  513MPD2    H1 7625   0.638   0.630  13.212  1.8548 -1.2664 -1.8239
  513MPD2    H2 7626   0.362   0.798  12.943 -0.0692 -0.4017 -1.5546
  513MPD2    H3 7627   0.414   0.643  13.111  1.1382 -1.1147  0.7048
  513MPD2     N 7628   0.844   0.803  13.155  0.0619  0.3417  0.0137
  513MPD2    H5 7629   0.907   0.875  13.121 -0.9052  0.5700 -1.2862
  513MPD2    N1 7630   0.517   0.962  12.818  0.3468  0.3190 -0.2248
  513MPD2    H7 7631   0.435   0.938  12.764  0.0085 -1.3551  1.0338
  514TMC3    C1 7632   0.553   1.116  12.648 -0.0118  0.1389 -0.2403
  514TMC3    C2 7633   0.469   1.043  12.567 -0.0547 -0.1466 -0.5647
  514TMC3    C3 7634   0.504   1.010  12.437  0.0548 -0.2566  0.1511
  514TMC3    C4 7635   0.667   1.157  12.585 -0.5964 -0.2248  0.1337
  514TMC3    C5 7636   0.706   1.111  12.456  0.2809  0.1791 -0.5281
  514TMC3    C6 7637   0.623   1.035  12.380  1.1069 -0.9245 -0.8427
  514TMC3     C 7638   0.586   1.071  12.785  0.2336 -0.0150 -0.8029
  514TMC3     O 7639   0.688   1.118  12.826 -0.0467 -0.3540 -0.2494
  514TMC3     H 7640   0.371   1.013  12.603 -0.6207  2.2642 -0.1290
  514TMC3    H1 7641   0.736   1.220  12.639  0.8379 -0.0051 -1.9595
  514TMC3    H2 7642   0.658   0.986  12.289  0.7183 -1.3570 -0.7626
  514TMC3    C7 7643   0.843   1.079  12.444 -0.1509  0.3914 -0.2714
  514TMC3    C8 7644   0.400   0.945  12.352  1.0216 -0.1115 -0.1312
  514TMC3    O1 7645   0.900   1.052  12.336 -0.1068 -0.4291  0.1974
  514TMC3    O2 7646   0.304   0.901  12.413  0.0431 -0.3396  0.0427
  515MPD2     C 7647   2.909   2.208  15.406  0.1263  0.4140 -0.5717
  515MPD2    C1 7648   2.929   2.228  15.269  0.4648 -0.2153  0.4249
  515MPD2    C2 7649   3.053   2.276  15.229 -0.2769  0.2438 -0.1313
  515MPD2    C3 7650   3.153   2.294  15.331 -0.3639  0.0432  0.3468
  515MPD2    C4 7651   3.131   2.259  15.462 -0.6584 -0.1784  0.6437
  515MPD2    C5 7652   3.008   2.220  15.499 -0.1661 -0.0521 -0.1943
  515MPD2     H 7653   3.075   2.288  15.124  0.7697 -1.2107 -0.0938
  515MPD2    H1 7654   3.207   2.265  15.540  0.8423 -2.7677 -0.6189
  515MPD2    H2 7655   2.819   2.166  15.450 -1.3716  0.5619 -3.4476
  515MPD2    H3 7656   2.983   2.203  15.603  3.8079 -1.0903  0.5818
  515MPD2     N 7657   3.287   2.338  15.294  0.4335  0.1569 -0.2714
  515MPD2    H5 7658   3.353   2.334  15.371 -1.0189  0.2035  0.9620
  515MPD2    N1 7659   2.831   2.222  15.165  0.2888  0.2058 -0.3787
  515MPD2    H7 7660   2.869   2.244  15.074  0.8961  2.4106  0.4031
  516TMC3    C1 7661   2.633   2.176  15.057 -0.1423 -0.6182 -0.3032
  516TMC3    C2 7662   2.687   2.218  14.941 -1.0431  0.6052  0.5977
  516TMC3    C3 7663   2.623   2.186  14.824 -0.1181 -0.3766 -0.0832
  516TMC3    C4 7664   2.518   2.114  15.055 -0.5232  0.2131 -0.4301
  516TMC3    C5 7665   2.453   2.086  14.938  0.3173 -0.0594 -0.4777
  516TMC3    C6 7666   2.504   2.117  14.819  0.1357  0.3722  0.1199
  516TMC3     C 7667   2.709   2.167  15.178 -0.4341 -0.2964  0.0766
  516TMC3     O 7668   2.668   2.095  15.265 -0.1018  0.2457  0.4815
  516TMC3     H 7669   2.768   2.290  14.946  1.2500 -2.0596  2.1217
  516TMC3    H1 7670   2.473   2.077  15.147 -0.8441 -0.2886 -0.7944
  516TMC3    H2 7671   2.449   2.090  14.730  1.7821 -1.0782 -0.4475
  516TMC3    C7 7672   2.402   1.949  14.946 -0.1833 -0.3249  0.0178
  516TMC3    C8 7673   2.692   2.177  14.697  0.3672 -0.0157  0.3337
  516TMC3    O1 7674   2.465   1.875  15.024 -0.5078 -0.3488  0.1586
  516TMC3    O2 7675   2.633   2.108  14.613  0.5707  0.3267 -0.0790
  517MPD2     C 7676   2.612   3.690   0.139 -0.4336  0.5023 -0.4664
  517MPD2    C1 7677   2.745   3.720   0.133  0.2873  0.4463 -0.1663
  517MPD2    C2 7678   2.785   3.851   0.173 -0.2044 -0.0007 -0.5817
  517MPD2    C3 7679   2.685   3.948   0.201  0.1953  0.0644 -0.4287
  517MPD2    C4 7680   2.550   3.921   0.187  0.0683  0.3423  0.5305
  517MPD2    C5 7681   2.522   3.787   0.167  0.4238  0.6553 -0.1787
  517MPD2     H 7682   2.889   3.876   0.192 -0.5820 -1.2351  3.1520
  517MPD2    H1 7683   2.479   4.002   0.197 -2.7667 -2.1062  0.1647
  517MPD2    H2 7684   2.571   3.602   0.091 -0.0895 -0.5854  1.2072
  517MPD2    H3 7685   2.420   3.758   0.149  0.2611  1.1031  0.0306
  517MPD2     N 7686   2.708   4.072   0.257 -0.0268 -0.4020 -0.1677
  517MPD2    H5 7687   2.628   4.128   0.283  0.9627  0.9736 -0.0973
  517MPD2    N1 7688   2.847   3.633   0.094  0.1701  0.5194 -0.7769
  517MPD2    H7 7689   2.944   3.661   0.108  0.0461 -0.5385  2.0872
  518TMC3    C1 7690   2.964   3.440   0.031 -0.4282  0.0188 -0.4740
  518TMC3    C2 7691   2.959   3.300   0.022 -0.0969  0.4378  0.2189
  518TMC3    C3 7692   3.044   3.233  17.619 -0.3064  0.3644  0.4497
  518TMC3    C4 7693   3.039   3.513  17.625 -0.2721 -0.4233 -0.2036
  518TMC3    C5 7694   3.121   3.440  17.547 -0.4839  0.3955 -0.2974
  518TMC3    C6 7695   3.122   3.307  17.535  0.5608 -0.3100 -0.3418
  518TMC3     C 7696   2.840   3.502   0.078 -0.0490 -0.3671  0.3639
  518TMC3     O 7697   2.732   3.444   0.092  0.1058 -0.0472  0.6032
  518TMC3     H 7698   2.875   3.253   0.072  0.0444  0.3861  0.4097
  518TMC3    H1 7699   3.045   3.622  17.623  0.7878 -0.5029 -1.3326
  518TMC3    H2 7700   3.159   3.253  17.449  1.8201 -0.6313  0.4086
  518TMC3    C7 7701   3.225   3.511  17.472  0.7969 -0.1903 -0.1589
  518TMC3    C8 7702   3.006   3.098  17.575 -0.0773 -0.2259  0.2843
  518TMC3    O1 7703   3.210   3.623  17.425  0.3919 -0.2626 -0.8273
  518TMC3    O2 7704   3.066   3.047  17.476 -0.1977  0.1025  0.1733
  519MPD2     C 7705   0.048   1.820  14.407 -0.0286 -0.2348  0.0937
  519MPD2    C1 7706   4.698   1.856  14.289 -0.1018 -0.6370  0.1329
  519MPD2    C2 7707   0.014   1.797  14.172 -0.0758 -0.4737  0.3047
  519MPD2    C3 7708   0.117   1.708  14.165 -0.2734  0.4235  0.2989
  519MPD2    C4 7709   0.179   1.662  14.281  0.4099 -0.2531 -0.1256
  519MPD2    C5 7710   0.148   1.726  14.401 -0.3350  0.7868 -0.2690
  519MPD2     H 7711   4.695   1.830  14.076  0.1296  3.0216  1.4135
  519MPD2    H1 7712   0.262   1.592  14.284 -0.9140 -1.8006  0.6471
  519MPD2    H2 7713   0.014   1.862  14.501  3.7469  2.0232  0.4659
  519MPD2    H3 7714   0.189   1.697  14.497  2.1426 -0.9322 -1.8277
  519MPD2     N 7715   0.166   1.647  14.044 -0.5087  0.3359 -0.0602
  519MPD2    H5 7716   0.240   1.578  14.050  1.5197  2.3960 -1.1662
  519MPD2    N1 7717   4.603   1.959  14.301 -0.3764  0.4820 -0.0337
  519MPD2    H7 7718   4.575   1.983  14.395 -1.0108  1.4088 -0.4666
  520TMC3    C1 7719   0.173   1.591  13.817 -0.8791  0.0459 -0.6035
  520TMC3    C2 7720   0.138   1.636  13.692 -0.0179 -0.1045 -0.5891
  520TMC3    C3 7721   0.177   1.569  13.582  0.0360 -0.0203 -0.1543
  520TMC3    C4 7722   0.264   1.489  13.829 -0.6168  0.3653 -0.2633
  520TMC3    C5 7723   0.301   1.421  13.713 -0.4786  0.3267 -0.0022
  520TMC3    C6 7724   0.254   1.460  13.592  0.1306 -0.4398 -0.0420
  520TMC3     C 7725   0.102   1.652  13.925  0.0761 -0.2054 -0.6551
  520TMC3     O 7726   4.716   1.701  13.897  0.1591 -0.1814 -0.5144
  520TMC3     H 7727   0.064   1.716  13.683 -0.6275 -0.2493  3.0285
  520TMC3    H1 7728   0.285   1.468  13.933  1.6070  0.2885 -0.7194
  520TMC3    H2 7729   0.252   1.395  13.505 -0.4624 -1.5532  0.8053
  520TMC3    C7 7730   0.381   1.302  13.730 -0.8194 -0.5597 -0.0221
  520TMC3    C8 7731   0.094   1.569  13.462 -0.0548  0.5576 -0.1758
  520TMC3    O1 7732   0.400   1.268  13.846  0.5783  0.1069  0.1436
  520TMC3    O2 7733   0.121   1.503  13.365 -0.0786 -0.4926  0.4126
  521MPD2     C 7734   0.383   0.064  17.313  0.1033 -0.2993 -0.9209
  521MPD2    C1 7735   0.385   4.680  17.224  0.5184  0.1266  0.4598
  521MPD2    C2 7736   0.509   4.623  17.191 -0.1499 -0.5771  0.0893
  521MPD2    C3 7737   0.627   4.656  17.259 -0.6438  0.5266  0.1974
  521MPD2    C4 7738   0.621   0.032  17.356  0.5414  0.6397 -0.2797
  521MPD2    C5 7739   0.494   0.091  17.389  0.1302  0.6757 -0.5263
  521MPD2     H 7740   0.517   4.557  17.106  0.8783 -0.4852  0.1170
  521MPD2    H1 7741   0.713   0.069  17.399  0.8055  0.7278 -0.9236
  521MPD2    H2 7742   0.286   0.107  17.335  2.0693  3.7686 -0.0928
  521MPD2    H3 7743   0.480   0.169  17.463  1.4108  0.5849 -0.1919
  521MPD2     N 7744   0.751   4.599  17.221 -0.0398  0.1171  0.4476
  521MPD2    H5 7745   0.741   4.528  17.150  1.0026  1.3474 -0.9313
  521MPD2    N1 7746   0.265   4.653  17.155 -0.1615  0.4080 -0.1065
  521MPD2    H7 7747   0.183   4.708  17.176  1.3767  2.3680  0.7684
  522TMC3    C1 7748   0.970   4.587  17.158  0.5035  0.5218  0.1469
  522TMC3    C2 7749   1.088   4.538  17.196  0.5044  0.8317 -0.2262
  522TMC3    C3 7750   1.182   4.502  17.106 -0.3386  0.0557 -0.0837
  522TMC3    C4 7751   0.941   4.597  17.022  0.4563 -0.0847 -0.0467
  522TMC3    C5 7752   1.043   4.575  16.934 -0.3219  0.4008 -0.1793
  522TMC3    C6 7753   1.164   4.527  16.972  0.0962 -0.4686  0.2253
  522TMC3     C 7754   0.882   4.633  17.265 -0.5946  0.1595 -0.5962
  522TMC3     O 7755   0.920   4.696  17.366  0.4094  0.0259  0.3823
  522TMC3     H 7756   1.111   4.538  17.302  2.5439  0.1356 -0.6583
  522TMC3    H1 7757   0.861   4.665  16.996  0.5042 -0.8179 -2.0826
  522TMC3    H2 7758   1.245   4.534  16.901  0.8559  1.4774  1.2499
  522TMC3    C7 7759   1.019   4.609  16.794 -0.3160  0.8061  0.1254
  522TMC3    C8 7760   1.311   4.457  17.154 -0.2491 -0.0717 -0.7240
  522TMC3    O1 7761   1.121   4.603  16.731 -0.5260 -0.0860 -0.4288
  522TMC3    O2 7762   1.336   4.486  17.269 -0.1806 -0.0568  0.3008
  523MPD2     C 7763   4.163   3.738   9.668 -0.0173 -0.3997 -0.6528
  523MPD2    C1 7764   4.063   3.761   9.763  0.2043 -0.2296 -0.3157
  523MPD2    C2 7765   4.025   3.887   9.792  0.2878 -0.1817 -0.0736
  523MPD2    C3 7766   4.101   3.994   9.751 -0.3038  0.1848 -0.1634
  523MPD2    C4 7767   4.200   3.973   9.660  0.3348  0.4087 -0.0955
  523MPD2    C5 7768   4.235   3.847   9.619 -0.7121  0.2433 -0.5595
  523MPD2     H 7769   3.949   3.906   9.866  0.5341 -0.0414  0.1468
  523MPD2    H1 7770   4.242   4.059   9.609 -2.2370  3.1418  2.4040
  523MPD2    H2 7771   4.189   3.639   9.632 -0.8475 -0.0983 -2.0536
  523MPD2    H3 7772   4.310   3.833   9.541  1.6976  0.0921  1.8088
  523MPD2     N 7773   4.065   4.128   9.783 -0.2017  0.5936 -0.3021
  523MPD2    H5 7774   4.119   4.207   9.749 -0.8323  1.0360 -0.2628
  523MPD2    N1 7775   3.999   3.651   9.815 -0.0263 -0.4857 -0.1283
  523MPD2    H7 7776   4.014   3.564   9.765  1.8579 -1.2432  1.7642
  524TMC3    C1 7777   3.960   4.315   9.890 -0.1022 -1.0652 -0.7380
  524TMC3    C2 7778   4.070   4.389   9.857  0.3845 -0.1977  0.1267
  524TMC3    C3 7779   4.053   4.526   9.865 -0.0128  0.0707 -0.3227
  524TMC3    C4 7780   3.853   4.361   9.951  0.6276 -0.4084 -0.4169
  524TMC3    C5 7781   3.837   4.499   9.958 -0.3970  0.1366  0.0501
  524TMC3    C6 7782   3.938   4.585   9.913  1.0198 -0.4058  0.6105
  524TMC3     C 7783   3.968   4.169   9.875  0.3341 -0.1735  0.3306
  524TMC3     O 7784   3.885   4.099   9.930 -0.7538  0.2895  0.1549
  524TMC3     H 7785   4.169   4.345   9.853  0.7870  0.4824  2.3445
  524TMC3    H1 7786   3.794   4.299  10.017  1.3208  1.1252  1.6492
  524TMC3    H2 7787   3.938   4.689   9.945 -0.0730 -1.0028  2.5667
  524TMC3    C7 7788   3.709   4.544  10.010 -0.2026  0.6387 -0.1378
  524TMC3    C8 7789   4.181   4.593   9.881 -0.2784 -0.2430 -0.1456
  524TMC3    O1 7790   3.625   4.459  10.039  0.2147  0.2264 -0.5317
  524TMC3    O2 7791   4.287   4.532   9.863  0.7230 -0.3670  0.0187
  525MPD2     C 7792   1.334   1.587  14.058  0.5386  0.5261 -0.8672
  525MPD2    C1 7793   1.345   1.616  14.193  0.0619 -0.0738 -0.1870
  525MPD2    C2 7794   1.347   1.744  14.233 -1.1364  0.4291 -0.6321
  525MPD2    C3 7795   1.331   1.848  14.144 -0.0368  0.3205 -0.8265
  525MPD2    C4 7796   1.328   1.823  14.010  0.7091 -0.7311 -0.0842
  525MPD2    C5 7797   1.324   1.691  13.968 -0.0101 -0.2406  0.5634
  525MPD2     H 7798   1.351   1.770  14.338 -2.4315 -0.0592 -0.4551
  525MPD2    H1 7799   1.313   1.903  13.937  0.8496 -1.0729 -0.4871
  525MPD2    H2 7800   1.314   1.487  14.021 -0.2673  0.0652  0.8306
  525MPD2    H3 7801   1.295   1.671  13.865  0.8490 -1.0382  0.4788
  525MPD2     N 7802   1.309   1.977  14.195 -0.3207  0.3944 -0.1686
  525MPD2    H5 7803   1.338   1.984  14.292 -0.8325  0.4649 -0.0213
  525MPD2    N1 7804   1.361   1.524  14.294  0.1046 -0.1295 -0.1540
  525MPD2    H7 7805   1.404   1.555  14.381  0.2408 -3.8083  1.0842
  526TMC3    C1 7806   1.402   1.308  14.388  0.0291  0.1313  0.4879
  526TMC3    C2 7807   1.355   1.184  14.421  0.0293 -0.2656 -0.4423
  526TMC3    C3 7808   1.427   1.111  14.509  0.3323  0.0612  0.6914
  526TMC3    C4 7809   1.523   1.354  14.433  0.3829  0.7549 -0.5319
  526TMC3    C5 7810   1.602   1.280  14.513  0.5956  0.3327 -0.4948
  526TMC3    C6 7811   1.547   1.160  14.558 -0.3978 -0.6169 -0.5515
  526TMC3     C 7812   1.343   1.385  14.281 -0.0483 -0.5359  0.0465
  526TMC3     O 7813   1.270   1.320  14.211  0.1150  0.7089  0.4877
  526TMC3     H 7814   1.256   1.156  14.385  0.6737 -0.5459 -1.9627
  526TMC3    H1 7815   1.565   1.439  14.381 -0.9779  2.5539  1.2784
  526TMC3    H2 7816   1.602   1.108  14.635 -1.3977 -0.4995  0.2330
  526TMC3    C7 7817   1.747   1.308  14.509  0.1349 -0.1216 -0.1748
  526TMC3    C8 7818   1.399   0.980  14.551  0.0076  0.1105  0.4891
  526TMC3    O1 7819   1.785   1.422  14.474 -0.5249  0.3594 -0.5176
  526TMC3    O2 7820   1.488   0.923  14.619 -0.0646  0.1674  0.1561
  527MPD2     C 7821   4.222   4.697   1.420  0.1179 -0.6509  0.1153
  527MPD2    C1 7822   4.270   4.572   1.459  0.0274 -0.2271 -0.1618
  527MPD2    C2 7823   4.333   4.488   1.363  0.1673  0.0152 -0.2869
  527MPD2    C3 7824   4.343   4.530   1.232  0.4536 -0.3568 -0.1437
  527MPD2    C4 7825   4.296   4.653   1.203 -0.3914 -0.0516  0.2098
  527MPD2    C5 7826   4.228   0.009   1.287  0.4163 -0.3138 -0.3670
  527MPD2     H 7827   4.367   4.391   1.395  0.9546  0.2132 -0.5278
  527MPD2    H1 7828   4.266   4.666   1.100  2.2194  0.4290 -0.4913
  527MPD2    H2 7829   4.181   0.055   1.484 -0.4269 -0.7705 -0.0897
  527MPD2    H3 7830   4.157   0.085   1.259  0.1857  0.8491  3.3284
  527MPD2     N 7831   4.397   4.439   1.135 -0.3684 -0.5620  0.7578
  527MPD2    H5 7832   4.425   4.342   1.150  2.3287  0.6167  3.1822
  527MPD2    N1 7833   4.251   4.524   1.587 -0.2251 -0.2110  0.8174
  527MPD2    H7 7834   4.273   4.425   1.596  1.1236  0.0511  0.5356
  528TMC3    C1 7835   4.230   4.518   1.828 -0.6079  0.2264  0.3111
  528TMC3    C2 7836   4.244   4.590   1.949  1.2409 -0.1775 -0.2892
  528TMC3    C3 7837   4.249   4.524   2.062 -0.3009  0.6913 -0.4078
  528TMC3    C4 7838   4.241   4.382   1.831  0.5476  0.3340 -0.4756
  528TMC3    C5 7839   4.243   4.321   1.954  0.7655  0.0430 -0.3910
  528TMC3    C6 7840   4.231   4.388   2.077  1.0649  0.6272  0.9252
  528TMC3     C 7841   4.230   4.598   1.697  0.6656 -0.1236  0.5638
  528TMC3     O 7842   4.212   0.001   1.710  0.5255 -0.0086 -0.0228
  528TMC3     H 7843   4.241   4.699   1.950 -1.3485 -0.2547  0.2296
  528TMC3    H1 7844   4.227   4.326   1.739  0.8766  0.0884 -0.3758
  528TMC3    H2 7845   4.218   4.344   2.175  3.1724 -0.4172  0.7458
  528TMC3    C7 7846   4.242   4.172   1.955 -0.7240  0.4742 -0.0820
  528TMC3    C8 7847   4.342   4.591   2.156 -0.1513 -0.0789 -0.0673
  528TMC3    O1 7848   4.313   4.113   1.870  0.2709  0.1282 -0.2516
  528TMC3    O2 7849   4.344   4.710   2.154 -0.3582 -0.1079  0.2614
  529MPD2     C 7850   1.393   2.764   0.240  0.7716  0.1349  0.8329
  529MPD2    C1 7851   1.516   2.738   0.192 -0.4325 -0.0708 -0.2281
  529MPD2    C2 7852   1.547   2.793   0.070 -0.8200 -0.8847 -0.3652
  529MPD2    C3 7853   1.460   2.871  17.681 -0.1092 -0.3824 -0.0698
  529MPD2    C4 7854   1.326   2.891   0.049 -0.4794 -0.3817 -0.7792
  529MPD2    C5 7855   1.302   2.838   0.168 -0.2793  0.2262 -0.9515
  529MPD2     H 7856   1.649   2.771   0.040 -0.7194  0.0168 -0.6845
  529MPD2    H1 7857   1.251   2.940  17.669  1.0897  2.6540 -0.3381
  529MPD2    H2 7858   1.357   2.726   0.335 -1.7337  2.0736  0.6474
  529MPD2    H3 7859   1.202   2.848   0.210  0.3028 -0.7353  0.6434
  529MPD2     N 7860   1.494   2.931  17.554  0.1193 -0.2204 -0.5587
  529MPD2    H5 7861   1.417   2.981  17.510  0.6381  1.2602  0.2321
  529MPD2    N1 7862   1.616   2.674   0.265  0.8603 -0.4417 -0.0474
  529MPD2    H7 7863   1.706   2.667   0.219  0.2281 -0.3722 -1.2913
  530TMC3    C1 7864   1.735   2.568   0.439  0.3864  0.7477  0.0514
  530TMC3    C2 7865   1.821   2.638   0.509 -0.2614  0.1484 -0.0186
  530TMC3    C3 7866   1.908   2.574   0.597  0.2528  0.9098 -0.4001
  530TMC3    C4 7867   1.724   2.432   0.460 -0.1386 -0.4051 -0.4195
  530TMC3    C5 7868   1.815   2.369   0.543 -1.1727 -0.5201 -0.9528
  530TMC3    C6 7869   1.913   2.436   0.606 -0.0573  0.1049  0.1275
  530TMC3     C 7870   1.612   2.632   0.398  0.0460 -0.3178  0.0676
  530TMC3     O 7871   1.519   2.637   0.477 -0.0578  0.2050  0.2071
  530TMC3     H 7872   1.826   2.746   0.501  0.6116  0.0189 -1.3244
  530TMC3    H1 7873   1.647   2.379   0.405 -2.1479  0.0239  2.0311
  530TMC3    H2 7874   1.980   2.388   0.676 -1.2985 -1.5914  0.1492
  530TMC3    C7 7875   1.776   2.234   0.587  0.2638 -0.2795  0.1708
  530TMC3    C8 7876   1.965   2.662   0.698  0.7571  0.1663 -0.7675
  530TMC3    O1 7877   1.730   2.151   0.507  0.4863  0.0704 -0.1053
  530TMC3    O2 7878   1.943   2.786   0.693  0.0770  0.1018  0.2908
  531MPD2     C 7879   1.288   0.949  12.684 -0.0825 -0.2619  0.4339
  531MPD2    C1 7880   1.194   0.974  12.780  0.4823 -0.7414  0.1228
  531MPD2    C2 7881   1.071   1.018  12.741 -0.0135  0.1194  0.0551
  531MPD2    C3 7882   1.035   1.035  12.604  0.4051 -0.3368  0.1101
  531MPD2    C4 7883   1.137   1.020  12.510  0.3085  0.1697  0.9054
  531MPD2    C5 7884   1.262   0.980  12.553 -0.5617  0.4058  0.1520
  531MPD2     H 7885   0.994   1.047  12.812  0.8011  0.1964  0.9089
  531MPD2    H1 7886   1.126   1.030  12.403 -0.8700 -1.1763  0.9000
  531MPD2    H2 7887   1.383   0.904  12.710 -0.2892  0.2070  2.0156
  531MPD2    H3 7888   1.338   0.955  12.480 -0.7999  0.3854 -0.0914
  531MPD2     N 7889   0.898   1.070  12.572 -0.2069 -0.4120 -1.0039
  531MPD2    H5 7890   0.841   1.090  12.654  0.6697  1.2937 -0.8085
  531MPD2    N1 7891   1.230   0.924  12.909  0.2230 -0.1824 -0.1931
  531MPD2    H7 7892   1.319   0.878  12.923  1.0041  1.0264 -1.2985
  532TMC3    C1 7893   1.178   0.870  13.130  0.5939 -0.3113  0.2371
  532TMC3    C2 7894   1.081   0.867  13.226  0.2486 -0.0499 -0.3567
  532TMC3    C3 7895   1.040   0.745  13.269  0.0119  0.1305  0.2688
  532TMC3    C4 7896   1.251   0.754  13.093  0.4612  0.1133 -0.7841
  532TMC3    C5 7897   1.224   0.642  13.163  0.4628  0.0243  0.0062
  532TMC3    C6 7898   1.111   0.633  13.247  0.6900 -0.6980 -0.1022
  532TMC3     C 7899   1.146   0.945  13.021 -0.1875 -0.0471  0.1437
  532TMC3     O 7900   1.040   1.008  13.022  0.4816  0.1117 -0.0869
  532TMC3     H 7901   1.020   0.955  13.239  0.1708 -0.3769  1.5444
  532TMC3    H1 7902   1.348   0.754  13.044  0.4532 -1.2374 -0.7943
  532TMC3    H2 7903   1.084   0.541  13.298  1.6027 -1.3795 -0.8466
  532TMC3    C7 7904   1.340   0.550  13.166  0.3827  0.4797 -0.1410
  532TMC3    C8 7905   0.897   0.720  13.255 -0.0751 -0.3445  0.5702
  532TMC3    O1 7906   1.453   0.598  13.161  0.5007  0.1423 -0.2942
  532TMC3    O2 7907   0.857   0.617  13.299  0.7043 -0.0894  0.4336
  533TMC3    C1 7908   1.292   2.200  14.226  0.5004  0.4035 -1.1847
  533TMC3    C2 7909   1.413   2.257  14.240 -0.1392  0.2392 -0.1333
  533TMC3    C3 7910   1.450   2.273  14.374  0.0282 -0.4683 -0.6416
  533TMC3    C4 7911   1.215   2.157  14.332  0.1389 -0.5653  0.2328
  533TMC3    C5 7912   1.249   2.180  14.462 -0.3079  0.1765 -0.0002
  533TMC3    C6 7913   1.371   2.238  14.482 -0.3833 -0.3582 -0.2145
  533TMC3     C 7914   1.290   2.089  14.128  0.8608  0.0197  0.0344
  533TMC3     O 7915   1.316   2.120  14.013  0.1875 -0.3055  0.2567
  533TMC3     H 7916   1.478   2.269  14.154  0.7644  0.0623  0.5360
  533TMC3    H1 7917   1.121   2.108  14.310 -0.0870 -0.1630  0.3099
  533TMC3    H2 7918   1.408   2.243  14.584  2.4498  4.5857 -1.4512
  533TMC3    C7 7919   1.211   2.072  14.548 -0.3433  0.6560 -0.1455
  533TMC3    C8 7920   1.589   2.301  14.408 -0.1882  0.0086  0.0995
  533TMC3    O1 7921   1.177   1.971  14.490  0.6589 -0.5377 -0.1374
  533TMC3    O2 7922   1.613   2.355  14.519 -0.0521 -0.1563  0.2442
  534MPD2     C 7923   3.568   3.692   1.851 -0.4337  0.2202 -0.3705
  534MPD2    C1 7924   3.645   3.669   1.733 -0.1267  0.7585  0.3473
  534MPD2    C2 7925   3.612   3.559   1.653 -0.3883  0.3341  0.1542
  534MPD2    C3 7926   3.497   3.480   1.680 -0.1219 -0.5875 -0.6709
  534MPD2    C4 7927   3.416   3.512   1.790  0.0340 -0.3143 -0.3304
  534MPD2    C5 7928   3.450   3.621   1.872  0.3482  0.0853 -0.6359
  534MPD2     H 7929   3.681   3.539   1.572  0.4990  3.0784  0.2175
  534MPD2    H1 7930   3.334   3.444   1.811 -0.0827 -0.4118 -1.0790
  534MPD2    H2 7931   3.600   3.770   1.919  2.5117 -1.5297  0.2765
  534MPD2    H3 7932   3.381   3.653   1.948 -0.1203  0.4919 -1.2314
  534MPD2     N 7933   3.454   3.377   1.587 -0.6602  0.0555 -0.4298
  534MPD2    H5 7934   3.363   3.333   1.600  0.0128 -0.3165  3.1455
  534MPD2    N1 7935   3.762   3.742   1.705  0.6703  0.1030 -0.0999
  534MPD2    H7 7936   3.823   3.718   1.627  0.7098  0.1176 -0.0732
  535TMC3    C1 7937   3.471   3.231   1.406  0.6052  1.0583 -0.3234
  535TMC3    C2 7938   3.326   3.230   1.400 -0.2308 -0.2207 -0.3638
  535TMC3    C3 7939   3.266   3.121   1.343 -0.4661  0.0309  0.5387
  535TMC3    C4 7940   3.545   3.127   1.351 -0.7839  0.4658 -0.1779
  535TMC3    C5 7941   3.479   3.021   1.293 -0.2396  0.3662 -1.1068
  535TMC3    C6 7942   3.342   3.021   1.285 -0.1050  0.3280 -0.6566
  535TMC3     C 7943   3.542   3.321   1.496  0.2098 -0.1149 -0.2941
  535TMC3     O 7944   3.661   3.341   1.473  0.1886  0.3287 -0.1025
  535TMC3     H 7945   3.270   3.317   1.433 -0.9277 -0.4641 -0.9082
  535TMC3    H1 7946   3.653   3.131   1.361 -1.0064  0.8989  2.0303
  535TMC3    H2 7947   3.294   2.941   1.229  0.6005 -0.2237 -0.4706
  535TMC3    C7 7948   3.550   2.897   1.258  0.4469  0.0682 -0.0334
  535TMC3    C8 7949   3.125   3.121   1.321  0.0008  0.4704 -0.1892
  535TMC3    O1 7950   3.499   2.806   1.196  0.7612 -0.1591  0.2540
  535TMC3    O2 7951   3.084   3.053   1.226 -0.6262  0.4597  0.1250
  536MPD2     C 7952   2.953   1.288  16.408 -0.6316  0.3198 -0.8765
  536MPD2    C1 7953   2.859   1.189  16.448 -0.7843 -0.0587 -1.1387
  536MPD2    C2 7954   2.774   1.138  16.352 -0.2318  0.3521 -0.0532
  536MPD2    C3 7955   2.768   1.182  16.221  0.3103  0.3635  0.2140
  536MPD2    C4 7956   2.858   1.283  16.186  1.0204 -0.4415  0.2757
  536MPD2    C5 7957   2.946   1.336  16.281  0.0668  0.1403 -0.3935
  536MPD2     H 7958   2.711   1.058  16.388  2.3579 -2.1487 -0.9834
  536MPD2    H1 7959   2.858   1.323  16.085  0.6379 -1.1453 -0.0055
  536MPD2    H2 7960   3.013   1.345  16.479 -0.0169 -1.7383  0.2562
  536MPD2    H3 7961   3.017   1.413  16.253  0.0969  1.3823  3.1543
  536MPD2     N 7962   2.666   1.140  16.125 -0.2962  0.2521 -0.5379
  536MPD2    H5 7963   2.671   1.182  16.033 -1.9415  1.0613 -0.2547
  536MPD2    N1 7964   2.871   1.144  16.584  0.3056  0.5436 -0.6561
  536MPD2    H7 7965   2.943   1.195  16.635  0.4886 -0.8699  0.4899
  537TMC3    C1 7966   2.832   1.007  16.784 -0.8403  0.3124 -0.4215
  537TMC3    C2 7967   2.906   1.093  16.855 -0.0389 -0.1900  0.3062
  537TMC3    C3 7968   2.922   1.057  16.986 -0.0555  0.2157  0.5154
  537TMC3    C4 7969   2.792   0.884  16.825 -0.0493  0.5007 -0.0096
  537TMC3    C5 7970   2.802   0.862  16.958 -0.1097 -0.8088 -0.5932
  537TMC3    C6 7971   2.868   0.943  17.041  0.1393 -0.4618  0.7797
  537TMC3     C 7972   2.805   1.030  16.641  0.4801  0.1020 -0.6286
  537TMC3     O 7973   2.737   0.951  16.577  0.1631 -0.2402  0.6560
  537TMC3     H 7974   2.921   1.191  16.812  1.7318 -0.6039 -0.0092
  537TMC3    H1 7975   2.721   0.825  16.770 -1.7864  1.6759  0.9878
  537TMC3    H2 7976   2.863   0.935  17.149 -1.8508 -1.9499  0.5927
  537TMC3    C7 7977   2.696   0.789  17.020 -0.3801  0.1042 -0.0005
  537TMC3    C8 7978   2.963   1.153  17.088  0.2235  0.0265  0.2822
  537TMC3    O1 7979   2.585   0.798  16.967 -0.0596 -0.2260 -0.2062
  537TMC3    O2 7980   2.947   1.115  17.202 -0.0333  0.2338 -0.4413
  538TMC3    C1 7981   4.377   3.943  10.520  0.4747  0.9695  0.6580
  538TMC3    C2 7982   4.482   4.027  10.535  0.4012  1.0068 -0.6141
  538TMC3    C3 7983   4.501   4.119  10.437  0.3478 -0.1649 -0.0606
  538TMC3    C4 7984   4.291   3.966  10.410  0.3976 -0.6194 -0.7978
  538TMC3    C5 7985   4.325   4.060  10.310 -0.3534 -0.2787  0.0287
  538TMC3    C6 7986   4.432   4.143  10.323  0.3585  0.0128  0.7113
  538TMC3     C 7987   4.299   3.923  10.633  0.2152 -0.7231  0.1327
  538TMC3     O 7988   4.182   3.951  10.621  0.1129 -0.6565 -0.1079
  538TMC3     H 7989   4.551   4.007  10.616 -0.8713  1.1119  0.4863
  538TMC3    H1 7990   4.194   3.920  10.403 -0.4402  0.7378  1.9750
  538TMC3    H2 7991   4.453   4.226  10.256  2.7583 -0.0400  1.4196
  538TMC3    C7 7992   4.205   4.108  10.249  0.6040  0.0898 -0.2679
  538TMC3    C8 7993   4.622   4.207  10.458 -0.7387  0.0548 -0.1785
  538TMC3    O1 7994   4.109   4.033  10.250  0.8942 -0.3543 -0.7825
  538TMC3    O2 7995   4.674   4.272  10.365 -0.0867  0.4642  0.2904
  539MPD2     C 7996   3.944   3.626  11.778  0.3099  0.5552  0.7723
  539MPD2    C1 7997   3.957   3.604  11.640 -0.3078 -0.0365  0.1617
  539MPD2    C2 7998   3.911   3.701  11.550  0.1608 -0.6433 -0.4543
  539MPD2    C3 7999   3.850   3.817  11.598  0.4082  0.3515 -0.0993
  539MPD2    C4 8000   3.862   3.843  11.735 -0.8713 -0.3646 -0.5492
  539MPD2    C5 8001   3.897   3.747  11.827  0.0743 -0.0325 -0.1469
  539MPD2     H 8002   3.920   3.683  11.443  1.9903 -1.9662 -0.0919
  539MPD2    H1 8003   3.832   3.934  11.787 -0.8973 -0.3351 -0.6165
  539MPD2    H2 8004   3.976   3.556  11.855  1.1000 -1.8386 -1.7255
  539MPD2    H3 8005   3.883   3.767  11.932 -0.1621  0.0614 -0.1968
  539MPD2     N 8006   3.809   3.928  11.520 -0.3970  0.5455 -0.4937
  539MPD2    H5 8007   3.766   4.003  11.572  0.1090 -1.2215  2.5130
  539MPD2    N1 8008   4.003   3.486  11.586  0.4005  0.0574  0.3777
  539MPD2    H7 8009   3.986   3.487  11.486 -0.4171  1.0698  0.5278
  540TMC3    C1 8010   3.773   4.061  11.329 -0.3184 -0.1554 -0.7690
  540TMC3    C2 8011   3.809   4.091  11.192  0.1542  0.0728  0.6427
  540TMC3    C3 8012   3.809   4.225  11.159  0.1668  0.0650  0.2571
  540TMC3    C4 8013   3.735   4.156  11.416 -0.7765  0.4717  0.8465
  540TMC3    C5 8014   3.732   4.295  11.369 -0.3729  0.1059  0.4061
  540TMC3    C6 8015   3.776   4.328  11.247  0.5884  0.2347  0.3522
  540TMC3     C 8016   3.812   3.934  11.386 -0.4476 -0.4265 -0.2249
  540TMC3     O 8017   3.844   3.842  11.309 -0.3271  0.2538  0.1769
  540TMC3     H 8018   3.858   4.012  11.137  2.9896 -1.0607  4.7780
  540TMC3    H1 8019   3.689   4.127  11.510  1.0448  0.0504  1.6169
  540TMC3    H2 8020   3.762   4.429  11.210  0.2108 -0.4863 -1.4887
  540TMC3    C7 8021   3.646   4.383  11.449  0.3250 -0.0405  0.3769
  540TMC3    C8 8022   3.809   4.242  11.013  0.2536 -0.4989  0.0739
  540TMC3    O1 8023   3.591   4.330  11.542  0.1267  0.5399 -0.2523
  540TMC3    O2 8024   3.856   4.344  10.970  0.0696  0.1660 -0.1788
  541MPD2     C 8025   1.837   0.580  13.171 -0.0884 -0.3179 -0.0739
  541MPD2    C1 8026   1.944   0.520  13.112 -0.2338  0.3318  0.3093
  541MPD2    C2 8027   2.010   0.587  13.010  0.2845  0.9005 -0.2524
  541MPD2    C3 8028   1.964   0.706  12.958 -0.1312 -0.4246  0.8598
  541MPD2    C4 8029   1.854   0.763  13.017 -0.2540 -0.0452 -0.6528
  541MPD2    C5 8030   1.790   0.698  13.117  0.5488 -0.8252  0.0055
  541MPD2     H 8031   2.095   0.534  12.968 -1.0409 -0.4962 -1.1586
  541MPD2    H1 8032   1.811   0.856  12.981 -2.1667 -0.9489 -0.7244
  541MPD2    H2 8033   1.781   0.534  13.252 -1.3725  0.8177 -0.3168
  541MPD2    H3 8034   1.705   0.753  13.156  1.1214  0.7672 -1.0119
  541MPD2     N 8035   2.009   0.768  12.846 -0.6570 -0.3439  0.7755
  541MPD2    H5 8036   1.959   0.854  12.826  1.6792  0.4362 -1.6285
  541MPD2    N1 8037   1.996   0.394  13.161 -0.5284  0.5786  0.2242
  541MPD2    H7 8038   2.086   0.367  13.123 -0.0883  0.4162  1.3627
  542TMC3    C1 8039   2.136   0.789  12.633 -0.8655  0.6472  0.6651
  542TMC3    C2 8040   2.190   0.720  12.525  0.0024 -0.0053 -0.7718
  542TMC3    C3 8041   2.197   0.779  12.401 -0.0231 -0.2883  0.4242
  542TMC3    C4 8042   2.076   0.912  12.611  0.1099 -0.8924 -0.6359
  542TMC3    C5 8043   2.089   0.967  12.490 -0.2648  0.0928  0.3795
  542TMC3    C6 8044   2.134   0.901  12.382  1.1096 -0.2921 -0.1617
  542TMC3     C 8045   2.119   0.721  12.768 -0.3054  0.0359 -0.4015
  542TMC3     O 8046   2.195   0.629  12.786  0.4730  0.4261  0.0174
  542TMC3     H 8047   2.222   0.618  12.543  2.5313  0.8743 -0.2743
  542TMC3    H1 8048   2.023   0.975  12.682  2.0180 -0.2207  0.2060
  542TMC3    H2 8049   2.147   0.950  12.286  1.2044 -0.1127 -0.0596
  542TMC3    C7 8050   2.030   1.094  12.475 -0.2806 -0.7298  0.0609
  542TMC3    C8 8051   2.251   0.709  12.285 -0.4900  0.3290  1.1171
  542TMC3    O1 8052   2.045   1.175  12.570  0.0968  0.0004  0.2096
  542TMC3    O2 8053   2.207   0.741  12.178 -0.7303 -0.0530  0.4521
  543TMC3    C1 8054   1.644   1.808  17.397 -0.8498 -0.0072  0.9596
  543TMC3    C2 8055   1.598   1.756  17.517  0.1982 -0.5268  0.0218
  543TMC3    C3 8056   1.531   1.836  17.607  0.3371 -0.4534 -0.4364
  543TMC3    C4 8057   1.642   1.943  17.376 -0.2507  0.6614  0.3618
  543TMC3    C5 8058   1.585   2.022  17.475 -0.4862  0.3920  0.0285
  543TMC3    C6 8059   1.526   1.972  17.588 -0.2705 -0.1966 -0.0608
  543TMC3     C 8060   1.633   1.724  17.278 -0.2381 -0.0551  0.3859
  543TMC3     O 8061   1.712   1.744  17.187  0.4220  0.0655  0.4931
  543TMC3     H 8062   1.585   1.649  17.529 -2.2681 -0.2374 -0.0754
  543TMC3    H1 8063   1.658   1.980  17.275  0.4844 -1.4152 -0.2821
  543TMC3    H2 8064   1.466   2.038  17.649  0.0366  1.2987 -1.3722
  543TMC3    C7 8065   1.539   2.155  17.439 -0.4007 -0.2858  0.7259
  543TMC3    C8 8066   1.420   1.776   0.000  0.6509  0.0209  0.1221
  543TMC3    O1 8067   1.430   2.196  17.480 -0.3525  0.2231  0.0569
  543TMC3    O2 8068   1.381   1.661  17.655 -0.3843 -0.3628  0.3219
  544MPD2     C 8069   0.990   1.832   0.298 -0.6216 -0.5103 -0.1790
  544MPD2    C1 8070   1.040   1.720   0.233  0.5192  0.8114  0.5051
  544MPD2    C2 8071   1.163   1.722   0.169 -0.2784  0.0917 -0.1234
  544MPD2    C3 8072   1.251   1.831   0.179  0.4847  0.0275  0.3528
  544MPD2    C4 8073   1.206   1.939   0.255  0.2645 -0.1239  0.7537
  544MPD2    C5 8074   1.075   1.941   0.301 -0.5193  0.1247  0.5501
  544MPD2     H 8075   1.198   1.635   0.115 -1.1268  0.6884 -1.6136
  544MPD2    H1 8076   1.269   2.026   0.264 -0.1318  0.0847  1.4995
  544MPD2    H2 8077   0.896   1.824   0.349 -0.3647 -1.4210  0.1494
  544MPD2    H3 8078   1.047   2.030   0.355 -0.4190  1.0874 -0.9703
  544MPD2     N 8079   1.367   1.851   0.097 -0.2971 -0.1222 -0.7383
  544MPD2    H5 8080   1.406   1.943   0.114  1.6869 -0.6528 -2.4147
  544MPD2    N1 8081   0.944   1.613   0.223  0.4072 -0.1051 -0.1260
  544MPD2    H7 8082   0.849   1.627   0.255 -0.7568 -0.9651 -3.1936
  545TMC3    C1 8083   0.846   1.431   0.131  0.6133 -0.3809  0.2311
  545TMC3    C2 8084   0.736   1.504   0.106 -0.1980 -0.4272 -0.2155
  545TMC3    C3 8085   0.622   1.432   0.087  0.5929  0.2553 -0.0722
  545TMC3    C4 8086   0.845   1.291   0.132  0.0383  0.3324 -0.0069
  545TMC3    C5 8087   0.732   1.225   0.104  0.1589 -0.4582 -0.1728
  545TMC3    C6 8088   0.619   1.295   0.069  0.3454 -0.0998  0.6201
  545TMC3     C 8089   0.969   1.501   0.153  0.2209 -0.8670  0.3221
  545TMC3     O 8090   1.073   1.441   0.132  0.1148 -0.1834 -0.6187
  545TMC3     H 8091   0.735   1.612   0.101 -0.0306 -0.5692 -2.9599
  545TMC3    H1 8092   0.924   1.227   0.170 -0.6410  0.3678  1.4511
  545TMC3    H2 8093   0.535   1.237   0.034  0.9032  0.1998 -1.2046
  545TMC3    C7 8094   0.734   1.083   0.062 -0.1838  0.6843 -0.0077
  545TMC3    C8 8095   0.502   1.510   0.075  0.9985 -0.1996 -0.4353
  545TMC3    O1 8096   0.629   1.024   0.063  0.7627 -0.3241  0.0579
  545TMC3    O2 8097   0.502   1.631   0.098 -0.5584  0.4700  0.4132
  546MPD2     C 8098   2.539   1.730  17.598  0.6062 -0.3618 -0.8559
  546MPD2    C1 8099   2.596   1.712  17.471  0.4495 -0.0342  0.3552
  546MPD2    C2 8100   2.671   1.811  17.413 -0.2547 -0.3771 -0.7198
  546MPD2    C3 8101   2.685   1.936  17.470  0.9221  0.0502  0.4558
  546MPD2    C4 8102   2.622   1.961  17.590  0.5811 -0.1319 -0.1709
  546MPD2    C5 8103   2.552   1.855  17.651  0.3564  0.1258  0.4045
  546MPD2     H 8104   2.720   1.799  17.317 -0.9798  0.2137 -1.1585
  546MPD2    H1 8105   2.634   2.053  17.648 -0.9978  0.7452 -1.2216
  546MPD2    H2 8106   2.475   1.654  17.642  0.1640  0.1429 -0.6341
  546MPD2    H3 8107   2.522   1.882   0.071 -0.8115  2.8819 -0.6851
  546MPD2     N 8108   2.759   2.044  17.416 -0.5211 -0.1539  0.0896
  546MPD2    H5 8109   2.758   2.130  17.469  1.8253  1.4259 -2.4517
  546MPD2    N1 8110   2.589   1.582  17.422 -0.3242  0.0304 -0.6097
  546MPD2    H7 8111   2.547   1.507  17.477  0.9442  1.1683  1.8978
  547TMC3    C1 8112   2.602   1.395  17.265 -0.1024 -0.1540 -0.7447
  547TMC3    C2 8113   2.584   1.364  17.132 -0.5510  0.0649  0.2257
  547TMC3    C3 8114   2.571   1.231  17.095 -0.1136 -0.5893 -0.5460
  547TMC3    C4 8115   2.614   1.300  17.359  0.4060  0.3055 -0.2511
  547TMC3    C5 8116   2.581   1.168  17.327  0.0698  0.1562  0.0443
  547TMC3    C6 8117   2.568   1.130  17.198  0.0883 -0.5696 -0.4591
  547TMC3     C 8118   2.623   1.538  17.294  0.3610 -0.0047  0.3535
  547TMC3     O 8119   2.648   1.618  17.210 -0.2060 -0.3143 -0.5139
  547TMC3     H 8120   2.594   1.439  17.055  2.1828 -3.0074 -2.4169
  547TMC3    H1 8121   2.630   1.327  17.462  0.9092 -2.7559  0.4783
  547TMC3    H2 8122   2.563   1.025  17.168 -0.6614 -0.2932 -1.3133
  547TMC3    C7 8123   2.487   1.107  17.416 -0.0138 -0.0447 -0.0444
  547TMC3    C8 8124   2.476   1.210  16.993  1.0504 -0.6956 -0.6447
  547TMC3    O1 8125   2.499   1.144  17.528  0.0657 -0.2771 -0.1572
  547TMC3    O2 8126   2.375   1.142  17.031  0.0031 -0.6390  0.5543
  548MPD2     C 8127   1.850   2.217  11.989 -1.0989  0.0764  0.0277
  548MPD2    C1 8128   1.927   2.183  12.096  0.8937 -0.5200  0.1742
  548MPD2    C2 8129   2.051   2.115  12.077  0.9748  0.4278 -0.6453
  548MPD2    C3 8130   2.095   2.096  11.946  0.4246  0.4085  0.1026
  548MPD2    C4 8131   2.011   2.124  11.838 -1.0234 -0.1578 -0.2641
  548MPD2    C5 8132   1.894   2.191  11.863  0.2773  0.0360 -0.2658
  548MPD2     H 8133   2.122   2.091  12.155  0.4637  4.0524  0.9523
  548MPD2    H1 8134   2.039   2.104  11.735 -0.4062  0.2821 -0.1842
  548MPD2    H2 8135   1.749   2.256  11.994 -0.8667  0.7009 -0.2249
  548MPD2    H3 8136   1.836   2.221  11.777 -0.6172 -1.9155 -0.3497
  548MPD2     N 8137   2.219   2.035  11.928 -0.4142  0.0258 -0.5376
  548MPD2    H5 8138   2.262   2.004  12.014  1.3605  2.2336 -0.6337
  548MPD2    N1 8139   1.876   2.231  12.217  0.2407 -0.0661 -0.3154
  548MPD2    H7 8140   1.783   2.272  12.219  0.9363  1.4719  0.7475
  549TMC3    C1 8141   1.886   2.309  12.438  0.1767  0.1533 -0.4945
  549TMC3    C2 8142   1.859   2.423  12.371 -0.0251  0.3740  0.8819
  549TMC3    C3 8143   1.944   2.531  12.378 -0.0768 -0.0626 -0.0689
  549TMC3    C4 8144   1.985   2.306  12.530  0.0009 -0.2457  0.3465
  549TMC3    C5 8145   2.070   2.412  12.531  0.1540  0.0270 -0.5415
  549TMC3    C6 8146   2.058   2.518  12.447 -0.9518  1.4410 -0.4032
  549TMC3     C 8147   1.929   2.210  12.338  0.1087 -0.3195 -0.1911
  549TMC3     O 8148   2.029   2.141  12.361  0.1426  0.0798  0.1966
  549TMC3     H 8149   1.771   2.420  12.308 -0.8948  1.7356  2.0213
  549TMC3    H1 8150   2.001   2.217  12.590  0.8887 -1.1173 -1.1782
  549TMC3    H2 8151   2.135   2.592  12.429 -0.8040  1.6433  1.1234
  549TMC3    C7 8152   2.206   2.371  12.564  0.5766 -0.1032  0.2321
  549TMC3    C8 8153   1.915   2.651  12.301  0.4661  0.1677 -0.5183
  549TMC3    O1 8154   2.300   2.451  12.579  0.2913 -0.1081  0.2404
  549TMC3    O2 8155   1.810   2.637  12.239  0.2119 -0.2310  0.0734
  550TMC3    C1 8156   1.536   0.394  12.081  0.4481 -1.1859 -0.0936
  550TMC3    C2 8157   1.585   0.463  12.193 -0.6924  0.2308  0.2891
  550TMC3    C3 8158   1.530   0.586  12.221 -0.2117 -0.6486 -0.1368
  550TMC3    C4 8159   1.455   0.460  12.004 -0.1076  0.7299 -0.3081
  550TMC3    C5 8160   1.416   0.590  12.029 -0.0642 -0.5396  0.3823
  550TMC3    C6 8161   1.449   0.654  12.141  0.3949 -0.0329 -0.3538
  550TMC3     C 8162   1.622   0.291  12.029  0.3885 -0.1722  0.5390
  550TMC3     O 8163   1.695   0.232  12.111  0.9861  0.0996  0.3413
  550TMC3     H 8164   1.659   0.417  12.258  0.0692 -0.5871 -1.1571
  550TMC3    H1 8165   1.404   0.413  11.921 -0.2261  0.4128 -0.0588
  550TMC3    H2 8166   1.400   0.743  12.178 -2.3444 -1.8735  0.3885
  550TMC3    C7 8167   1.319   0.651  11.945 -0.0159 -0.0064 -0.2670
  550TMC3    C8 8168   1.557   0.647  12.346 -0.6511 -0.5345 -0.0279
  550TMC3    O1 8169   1.245   0.581  11.872 -0.5742  0.1065  0.0267
  550TMC3    O2 8170   1.549   0.770  12.341 -0.4381  1.0866 -0.8145
  551TMC3    C1 8171   3.532   2.904  13.450 -0.5104  0.5194  0.7676
  551TMC3    C2 8172   3.597   2.996  13.386  0.4631  0.2294  0.1527
  551TMC3    C3 8173   3.631   3.100  13.467 -0.2156  0.2966  0.2979
  551TMC3    C4 8174   3.509   2.893  13.587 -0.8181  0.6497  0.2207
  551TMC3    C5 8175   3.559   2.993  13.667 -0.0741 -1.0029 -0.5917
  551TMC3    C6 8176   3.629   3.095  13.604 -0.2911 -0.0207  0.3499
  551TMC3     C 8177   3.476   2.801  13.358  0.3772 -1.0998  0.2531
  551TMC3     O 8178   3.433   2.847  13.251 -0.3337  0.4359 -0.2278
  551TMC3     H 8179   3.609   3.004  13.279 -0.6655  0.9558  0.0821
  551TMC3    H1 8180   3.437   2.818  13.619 -0.6880  0.0303 -0.9490
  551TMC3    H2 8181   3.666   3.181  13.659  0.6505  1.3631 -2.4044
  551TMC3    C7 8182   3.588   2.976  13.815 -0.1517 -0.2065 -0.3941
  551TMC3    C8 8183   3.678   3.226  13.403  0.3400 -0.7993 -0.4545
  551TMC3    O1 8184   3.640   3.071  13.870  0.1821 -0.1510  0.0655
  551TMC3    O2 8185   3.664   3.331  13.463  0.2764 -0.3575 -0.1267
  552MPD2     C 8186   0.954   0.220  13.504 -0.5142 -0.0474 -0.1803
  552MPD2    C1 8187   0.927   0.113  13.590  0.3304  0.3276  0.3825
  552MPD2    C2 8188   1.032   0.071  13.666 -0.1449  0.0684  0.6824
  552MPD2    C3 8189   1.161   0.120  13.665  0.6047  0.7856 -0.1064
  552MPD2    C4 8190   1.185   0.220  13.574 -0.1840  0.8515 -0.0282
  552MPD2    C5 8191   1.084   0.272  13.488 -0.6141 -0.5463 -0.4801
  552MPD2     H 8192   1.021   4.709  13.736  0.1570 -0.0647  0.5723
  552MPD2    H1 8193   1.284   0.262  13.559  0.9739 -1.2869  1.6796
  552MPD2    H2 8194   0.873   0.245  13.436 -0.4442 -0.8781 -0.5805
  552MPD2    H3 8195   1.100   0.341  13.405 -2.3243 -2.5739 -2.4831
  552MPD2     N 8196   1.258   0.093  13.765  0.8203  0.2732  0.1131
  552MPD2    H5 8197   1.348   0.132  13.741  0.9026 -1.5407 -2.5306
  552MPD2    N1 8198   0.797   0.053  13.621 -0.3536  0.2328  0.4066
  552MPD2    H7 8199   0.804   4.690  13.679 -0.6248 -0.7786 -0.9736
  553TMC3    C1 8200   0.559   0.001  13.595  0.2760  0.1099  0.8216
  553TMC3    C2 8201   0.480   4.703  13.479  0.6382  0.5436 -1.4117
  553TMC3    C3 8202   0.448   4.575  13.448  0.6328  0.9324  0.1582
  553TMC3    C4 8203   0.580   4.616  13.684  0.4516  0.2966 -0.7851
  553TMC3    C5 8204   0.541   4.488  13.647 -0.7656 -0.5669  0.1187
  553TMC3    C6 8205   0.453   4.475  13.544  0.3460  0.3657 -0.1959
  553TMC3     C 8206   0.675   0.093  13.570 -0.4395  0.5546 -0.3232
  553TMC3     O 8207   0.656   0.181  13.490 -0.4712 -0.6151 -0.2665
  553TMC3     H 8208   0.475   0.061  13.404  1.4277  2.4740  0.5132
  553TMC3    H1 8209   0.627   4.633  13.781  1.3119 -0.2042 -1.1092
  553TMC3    H2 8210   0.404   4.380  13.527  0.7521  0.1463 -0.1615
  553TMC3    C7 8211   0.661   4.401  13.628  0.3159  0.1800 -0.0500
  553TMC3    C8 8212   0.533   4.534  13.330  0.0436 -0.2266  0.2222
  553TMC3    O1 8213   0.667   4.335  13.529 -0.0149  0.1322 -0.3685
  553TMC3    O2 8214   0.617   4.615  13.299 -0.1494 -0.1190  0.1291
  554TMC3    C1 8215   2.820   3.647  11.258  0.4121 -0.4242  0.1720
  554TMC3    C2 8216   2.721   3.653  11.166  0.9740 -0.0241 -0.3886
  554TMC3    C3 8217   2.726   3.754  11.075 -0.3656  0.2332 -0.3529
  554TMC3    C4 8218   2.917   3.753  11.257  0.0773  0.0558 -0.0111
  554TMC3    C5 8219   2.909   3.858  11.174 -0.3541  0.2771  1.0346
  554TMC3    C6 8220   2.812   3.856  11.080  0.2675 -0.2783  0.0221
  554TMC3     C 8221   2.804   3.580  11.390  0.3600  1.3401  0.4058
  554TMC3     O 8222   2.887   3.593  11.477  0.0187 -0.3589 -0.5618
  554TMC3     H 8223   2.658   3.564  11.159  0.1296  0.5194  0.3690
  554TMC3    H1 8224   2.979   3.764  11.345 -0.6142 -1.5315  0.6755
  554TMC3    H2 8225   2.810   3.940  11.011  1.2923  2.1685  2.9341
  554TMC3    C7 8226   3.039   3.890  11.104 -0.1789 -1.3492  0.6414
  554TMC3    C8 8227   2.674   3.723  10.943 -0.2365 -0.0845  0.3007
  554TMC3    O1 8228   3.022   3.874  10.980 -0.6965 -0.3537 -0.5263
  554TMC3    O2 8229   2.747   3.750  10.847  0.0070 -0.0649 -0.3819
  555TMC3    C1 8230   1.693   2.917  15.506 -0.2686  0.1035  0.2153
  555TMC3    C2 8231   1.686   2.964  15.634  0.1556  0.3174 -0.3016
  555TMC3    C3 8232   1.605   2.893  15.722 -0.9228  0.3158 -0.0009
  555TMC3    C4 8233   1.630   2.798  15.471 -0.5289 -0.1620  0.2155
  555TMC3    C5 8234   1.555   2.735  15.565  0.1594  0.2157 -0.5522
  555TMC3    C6 8235   1.548   2.769  15.696 -0.3814 -0.0249  0.8131
  555TMC3     C 8236   1.684   3.016  15.395 -0.1436  0.5489  0.0703
  555TMC3     O 8237   1.591   3.003  15.319 -0.1480 -0.3033  0.1548
  555TMC3     H 8238   1.719   3.066  15.651  0.3081 -0.2728  2.7678
  555TMC3    H1 8239   1.644   2.757  15.372  0.6521  0.4665  0.1218
  555TMC3    H2 8240   1.485   2.716  15.767 -0.0484 -3.2390 -1.2459
  555TMC3    C7 8241   1.482   2.616  15.514  0.0155  0.2562  0.3080
  555TMC3    C8 8242   1.560   2.955  15.846 -0.4858  0.0488 -0.4571
  555TMC3    O1 8243   1.538   2.549  15.427 -0.1460  0.2742 -0.4313
  555TMC3    O2 8244   1.453   2.916  15.891  0.6954  0.2833  0.5292
  556MPD2     C 8245   0.661   0.405  10.638 -0.1768  0.9385  0.5541
  556MPD2    C1 8246   0.581   0.308  10.702  0.1900  0.8512 -0.5436
  556MPD2    C2 8247   0.577   0.187  10.639 -0.0413  0.1752  0.5970
  556MPD2    C3 8248   0.658   0.139  10.540 -0.0481  0.1071  0.9009
  556MPD2    C4 8249   0.741   0.230  10.482 -0.0864  0.2342 -1.3784
  556MPD2    C5 8250   0.738   0.361  10.529  0.4108  1.1275  0.5571
  556MPD2     H 8251   0.505   0.117  10.680 -2.2682  2.1172  0.0471
  556MPD2    H1 8252   0.812   0.214  10.402  0.2359  0.4555 -1.1387
  556MPD2    H2 8253   0.666   0.508  10.671  0.4811  1.5816 -1.5339
  556MPD2    H3 8254   0.805   0.428  10.478 -0.4091  0.4219 -1.4314
  556MPD2     N 8255   0.647   0.006  10.497 -0.1188 -0.3106  0.3899
  556MPD2    H5 8256   0.568   4.673  10.532 -0.1173 -0.1722  0.6003
  556MPD2    N1 8257   0.497   0.330  10.808  0.7004 -0.6101  0.4907
  556MPD2    H7 8258   0.415   0.272  10.826  0.2518  0.6899  2.6304
  557TMC3    C1 8259   0.690   4.535  10.355  0.1429  0.0488 -0.8316
  557TMC3    C2 8260   0.738   4.502  10.232  0.3116  0.3131 -0.3158
  557TMC3    C3 8261   0.677   4.400  10.163  0.0602 -0.1475  0.0811
  557TMC3    C4 8262   0.594   4.451  10.420 -0.3814 -0.3865  0.7153
  557TMC3    C5 8263   0.537   4.355  10.347  0.2511 -0.2039 -0.3642
  557TMC3    C6 8264   0.577   4.323  10.220  0.3232 -0.5675  0.0254
  557TMC3     C 8265   0.730   4.664  10.408  0.3309  0.0564 -0.7056
  557TMC3     O 8266   0.844   4.700  10.369  0.7888 -0.0800 -0.0370
  557TMC3     H 8267   0.806   4.570  10.182 -2.5913  2.7605 -0.9431
  557TMC3    H1 8268   0.551   4.479  10.516  0.3287  2.3815  0.2214
  557TMC3    H2 8269   0.525   4.248  10.161 -2.0292  1.8606 -0.9760
  557TMC3    C7 8270   0.421   4.289  10.398 -0.3858  0.4165 -0.1853
  557TMC3    C8 8271   0.686   4.419  10.016  0.3669  0.5310 -0.2186
  557TMC3    O1 8272   0.343   4.240  10.316  0.3118  0.2286  0.5470
  557TMC3    O2 8273   0.742   4.521   9.977  0.1665 -0.5446 -0.1060
  558TMC3    C1 8274   2.496   2.655   9.953  0.3370 -0.4886  0.0815
  558TMC3    C2 8275   2.426   2.691  10.066 -0.0492  0.0954 -0.2264
  558TMC3    C3 8276   2.299   2.735  10.040  0.0346  0.1967  0.3742
  558TMC3    C4 8277   2.450   2.670   9.823 -0.7105  0.5773 -0.3960
  558TMC3    C5 8278   2.324   2.716   9.806 -0.7153  0.2058  0.2936
  558TMC3    C6 8279   2.245   2.756   9.918  0.9639  0.0780  0.7250
  558TMC3     C 8280   2.629   2.611   9.976  0.1420  0.4160  0.9430
  558TMC3     O 8281   2.671   2.648  10.087  0.5647  0.7530 -0.0259
  558TMC3     H 8282   2.462   2.676  10.167 -0.6937  0.5585  0.0737
  558TMC3    H1 8283   2.513   2.651   9.737  0.7370  0.9979  0.5715
  558TMC3    H2 8284   2.145   2.797   9.911  0.9911 -0.1476 -0.9333
  558TMC3    C7 8285   2.254   2.727   9.675 -0.0075  0.4465 -0.5146
  558TMC3    C8 8286   2.197   2.724  10.145 -0.4038 -0.1383  0.4573
  558TMC3    O1 8287   2.161   2.807   9.670  0.3799 -0.3143  0.2889
  558TMC3    O2 8288   2.098   2.796  10.138 -0.3244  0.4696 -0.0965
  559MPD2     C 8289   2.713   3.379  10.326 -0.4755 -0.4987 -0.0115
  559MPD2    C1 8290   2.683   3.266  10.405 -0.8858  0.1062 -0.6014
  559MPD2    C2 8291   2.780   3.218  10.491  0.1926 -0.0504 -0.0885
  559MPD2    C3 8292   2.903   3.273  10.500 -0.3716  0.6517 -0.3217
  559MPD2    C4 8293   2.936   3.390  10.439 -0.5304  0.5808  0.5566
  559MPD2    C5 8294   2.836   3.439  10.360 -1.0805  0.2209 -0.1169
  559MPD2     H 8295   2.777   3.131  10.555  2.4311  0.0552  0.1626
  559MPD2    H1 8296   3.029   3.441  10.458 -0.2826  0.6699 -0.9204
  559MPD2    H2 8297   2.642   3.420  10.256  0.1820  0.1363 -0.3039
  559MPD2    H3 8298   2.851   3.531  10.306 -2.0006  0.1312 -0.5343
  559MPD2     N 8299   2.987   3.206  10.590 -0.4655  0.4107  0.0126
  559MPD2    H5 8300   2.938   3.126  10.629 -0.5735  0.4210 -0.1014
  559MPD2    N1 8301   2.552   3.212  10.385 -0.4849 -0.1203  0.3516
  559MPD2    H7 8302   2.484   3.253  10.321 -0.4961  1.7792  1.5697
  560TMC3    C1 8303   3.158   3.138  10.734  0.2336  0.6455  0.0238
  560TMC3    C2 8304   3.090   3.018  10.719  0.1747 -0.5260 -0.4795
  560TMC3    C3 8305   3.122   2.929  10.820  0.4373  0.0928  0.5274
  560TMC3    C4 8306   3.234   3.177  10.837 -0.0256 -0.3416  0.2559
  560TMC3    C5 8307   3.257   3.085  10.933  0.2865 -0.0936 -0.2656
  560TMC3    C6 8308   3.200   2.962  10.931 -1.0217  0.8221 -0.9443
  560TMC3     C 8309   3.107   3.243  10.648  0.2747  0.6299  1.1880
  560TMC3     O 8310   3.174   3.348  10.636 -0.2002 -0.2092  0.2849
  560TMC3     H 8311   3.042   2.984  10.627 -0.4967 -0.8937  0.0062
  560TMC3    H1 8312   3.265   3.281  10.845  0.0794 -0.4205  0.8586
  560TMC3    H2 8313   3.212   2.882  11.003  0.4032  1.5722 -0.3551
  560TMC3    C7 8314   3.333   3.117  11.051 -0.3147 -0.0302  0.2052
  560TMC3    C8 8315   3.077   2.797  10.818 -0.2264 -0.1909  0.4943
  560TMC3    O1 8316   3.325   3.038  11.145 -0.2515 -0.4658 -0.1048
  560TMC3    O2 8317   2.964   2.791  10.762 -0.0331  1.2320  0.1407
  561TMC3    C1 8318   0.482   2.351  10.953 -1.4266 -0.1125  0.0381
  561TMC3    C2 8319   0.399   2.257  11.012  0.8452 -0.1129 -0.6222
  561TMC3    C3 8320   0.346   2.286  11.132 -0.0930  0.4871 -0.6664
  561TMC3    C4 8321   0.494   2.478  11.005  0.3465 -0.0306  0.1989
  561TMC3    C5 8322   0.439   2.506  11.129  0.8785  0.6573  0.1048
  561TMC3    C6 8323   0.373   2.406  11.195 -0.8059  0.0013  0.1144
  561TMC3     C 8324   0.507   2.326  10.810  0.2246 -0.4572 -0.3828
  561TMC3     O 8325   0.424   2.257  10.753 -0.3367  0.0026 -0.7230
  561TMC3     H 8326   0.394   2.159  10.965  2.0364 -0.0871 -0.8014
  561TMC3    H1 8327   0.544   2.554  10.946 -0.2920  2.5485  2.9282
  561TMC3    H2 8328   0.319   2.430  11.286  2.3812 -2.5717  2.6536
  561TMC3    C7 8329   0.484   2.617  11.204  0.2795  0.3984  0.3929
  561TMC3    C8 8330   0.281   2.172  11.199  0.9960  0.2112  0.2389
  561TMC3    O1 8331   0.465   2.622  11.325 -0.0585  0.1739  0.0465
  561TMC3    O2 8332   0.284   2.064  11.139  0.0985 -0.0269  0.0421
  562TMC3    C1 8333   1.039   3.670  15.848 -1.0194  0.1549 -0.0981
  562TMC3    C2 8334   1.142   3.684  15.754 -0.0225 -0.1386 -0.4537
  562TMC3    C3 8335   1.263   3.640  15.796 -0.9433 -0.0011  1.0573
  562TMC3    C4 8336   1.046   3.633  15.978  0.1553 -0.8359  0.8700
  562TMC3    C5 8337   1.174   3.598  16.014  0.5492 -0.4873 -0.7461
  562TMC3    C6 8338   1.280   3.590  15.924 -0.5139  0.5207  0.3505
  562TMC3     C 8339   0.914   3.679  15.794  0.4701  0.3883  0.0778
  562TMC3     O 8340   0.904   3.653  15.675 -0.1960  0.3366 -0.5822
  562TMC3     H 8341   1.118   3.723  15.656 -1.9012 -1.0256 -0.3427
  562TMC3    H1 8342   0.962   3.627  16.047  1.6630 -2.8780  2.5385
  562TMC3    H2 8343   1.381   3.563  15.952 -1.1426 -1.9049  0.2991
  562TMC3    C7 8344   1.191   3.575  16.157 -0.5330  0.4800 -0.6784
  562TMC3    C8 8345   1.377   3.665  15.712 -0.3302 -0.0064 -1.1636
  562TMC3    O1 8346   1.088   3.536  16.213  0.1757  0.2742 -0.2352
  562TMC3    O2 8347   1.486   3.655  15.766  0.1400  0.1041  0.2294
  563MPD2     C 8348   3.322   4.636  15.653  0.6507 -0.6267  0.2883
  563MPD2    C1 8349   3.370   0.041  15.697 -0.1382 -0.2369 -0.9883
  563MPD2    C2 8350   3.507   0.049  15.712  0.3980  0.7858 -0.2183
  563MPD2    C3 8351   3.595   4.661  15.694 -1.1682 -0.3866 -0.5483
  563MPD2    C4 8352   3.545   4.536  15.657  0.2376  0.5222 -0.2676
  563MPD2    C5 8353   3.413   4.526  15.635  0.4504 -0.6157  1.2456
  563MPD2     H 8354   3.549   0.146  15.735  1.2986  0.0358  1.3095
  563MPD2    H1 8355   3.607   4.454  15.624 -0.1239 -0.5412  1.6613
  563MPD2    H2 8356   3.216   4.621  15.639  0.3845  2.1606 -0.6265
  563MPD2    H3 8357   3.379   4.430  15.598  2.1239 -1.0722  0.8765
  563MPD2     N 8358   3.729   4.682  15.716  0.6825 -0.2566  0.1427
  563MPD2    H5 8359   3.752   0.059  15.739  0.0229  0.5432 -2.4696
  563MPD2    N1 8360   3.274   0.146  15.720  0.1107 -0.2966 -0.0937
  563MPD2    H7 8361   3.182   0.123  15.685 -1.1343  2.7835  1.2472
  564TMC3    C1 8362   3.190   0.313  15.863 -0.1279  0.2096 -0.3106
  564TMC3    C2 8363   3.080   0.238  15.831  0.1750  0.2552  0.9475
  564TMC3    C3 8364   3.004   0.188  15.933  0.2701 -0.4532  0.1695
  564TMC3    C4 8365   3.235   0.329  15.994  0.4729  0.4778 -0.2283
  564TMC3    C5 8366   3.163   0.253  16.096 -0.4132 -0.2099 -0.7427
  564TMC3    C6 8367   3.041   0.202  16.065  0.3012  0.7902 -0.9698
  564TMC3     C 8368   3.301   0.264  15.785 -0.2933 -0.1836 -0.2937
  564TMC3     O 8369   3.410   0.309  15.815 -0.5827  0.3564 -0.2709
  564TMC3     H 8370   3.034   0.260  15.735  1.0011  1.2587  0.7793
  564TMC3    H1 8371   3.333   0.375  16.004  2.4886 -3.8482  0.1705
  564TMC3    H2 8372   2.984   0.159  16.146  0.3900  0.5751 -1.0217
  564TMC3    C7 8373   3.269   0.172  16.148  0.0599  0.3681  0.4979
  564TMC3    C8 8374   2.933   0.067  15.915 -0.3250 -0.4462  0.4808
  564TMC3    O1 8375   3.388   0.213  16.153 -0.4118  0.2981 -0.4742
  564TMC3    O2 8376   2.897   0.012  16.019  0.6287  0.2170  0.5875
  565TMC3    C1 8377   0.002   2.212   9.796 -0.1186  0.2380 -0.7348
  565TMC3    C2 8378   0.028   2.088   9.835 -0.5219 -0.4772  0.1680
  565TMC3    C3 8379   4.649   2.030   9.920 -0.3829  0.0355  0.0896
  565TMC3    C4 8380   4.602   2.277   9.807 -0.0202 -0.5987  0.0073
  565TMC3    C5 8381   4.508   2.210   9.870 -0.1215  0.0831  0.0959
  565TMC3    C6 8382   4.523   2.091   9.938 -0.3683 -0.7213 -0.6663
  565TMC3     C 8383   0.097   2.264   9.697 -0.1091  0.0603  0.2679
  565TMC3     O 8384   0.215   2.272   9.733 -0.3662  0.5048  0.4582
  565TMC3     H 8385   0.123   2.040   9.815  0.7792  2.5690 -0.8808
  565TMC3    H1 8386   4.575   2.372   9.761  0.8767  0.3631  1.4575
  565TMC3    H2 8387   4.441   2.026   9.967 -1.0316  0.6123  0.3778
  565TMC3    C7 8388   4.378   2.244   9.814 -0.0457  0.2352  0.1612
  565TMC3    C8 8389   4.649   1.883   9.932 -0.2629 -0.0083 -0.3071
  565TMC3    O1 8390   4.375   2.305   9.713 -0.4211 -0.3606  0.4988
  565TMC3    O2 8391   4.578   1.839  10.023  0.2392  0.0426 -0.0048
  566MPD2     C 8392   1.079   3.093  14.352  0.6935 -0.8808  0.5238
  566MPD2    C1 8393   1.071   3.210  14.291  0.0107 -0.5738  0.1892
  566MPD2    C2 8394   0.992   3.223  14.173  0.5846 -0.3737 -0.0380
  566MPD2    C3 8395   0.920   3.113  14.125  0.5501  0.7772 -0.0331
  566MPD2    C4 8396   0.927   2.991  14.196 -0.4978 -0.4086  0.5778
  566MPD2    C5 8397   1.005   2.982  14.312  0.1887 -0.0471  0.7042
  566MPD2     H 8398   0.986   3.319  14.122 -1.5834 -0.9907 -0.9591
  566MPD2    H1 8399   0.884   2.896  14.166  1.3054 -0.7341 -0.9779
  566MPD2    H2 8400   1.136   3.075  14.442 -0.5522  1.4023  1.7702
  566MPD2    H3 8401   0.995   2.888  14.366 -1.1937 -1.0732 -1.3240
  566MPD2     N 8402   0.838   3.114  14.006 -0.2469 -0.2213 -0.3651
  566MPD2    H5 8403   0.798   3.028  13.972 -0.5403 -0.1396 -0.2295
  566MPD2    N1 8404   1.145   3.314  14.343 -0.2902  0.0587  0.3312
  566MPD2    H7 8405   1.226   3.294  14.402  0.6592  0.0055 -0.9911
  567TMC3    C1 8406   1.243   3.529  14.357  0.5862  0.6115  0.4929
  567TMC3    C2 8407   1.281   3.627  14.266 -0.1691 -0.5540 -0.5456
  567TMC3    C3 8408   1.416   3.661  14.260  0.1875 -0.2324 -0.2831
  567TMC3    C4 8409   1.339   3.471  14.430  0.6556 -0.5673  0.2469
  567TMC3    C5 8410   1.471   3.508  14.422  0.0541  0.3264 -0.6466
  567TMC3    C6 8411   1.510   3.611  14.345  0.7201 -0.5888 -0.3766
  567TMC3     C 8412   1.140   3.444  14.298  1.1204 -0.2807  0.2518
  567TMC3     O 8413   1.056   3.497  14.226 -1.0066  0.2012 -0.1711
  567TMC3     H 8414   1.200   3.676  14.214 -0.3137 -1.7334 -1.4365
  567TMC3    H1 8415   1.309   3.413  14.516 -0.3732  1.0464  0.9724
  567TMC3    H2 8416   1.616   3.631  14.344  0.5491  0.3308 -0.7619
  567TMC3    C7 8417   1.557   3.480  14.543  0.4542 -0.4856  0.3557
  567TMC3    C8 8418   1.457   3.727  14.130  0.6078 -0.0451 -0.5959
  567TMC3    O1 8419   1.645   3.560  14.572 -0.2855  0.1178 -0.5149
  567TMC3    O2 8420   1.361   3.742  14.059 -0.0046 -0.5886 -0.1936
  568MPD2     C 8421   3.474   3.613  16.457  0.2588 -0.5170  0.1381
  568MPD2    C1 8422   3.367   3.633  16.544  0.1811 -0.3171 -0.9508
  568MPD2    C2 8423   3.259   3.715  16.512 -0.3392 -0.2685 -0.6148
  568MPD2    C3 8424   3.270   3.786  16.391 -0.1110 -0.0082  0.2144
  568MPD2    C4 8425   3.383   3.768  16.311 -0.1419 -0.1270  0.4125
  568MPD2    C5 8426   3.484   3.681  16.340 -0.0503 -0.2136 -0.0993
  568MPD2     H 8427   3.171   3.736  16.572  1.0769 -0.7826  1.6055
  568MPD2    H1 8428   3.397   3.845  16.236 -0.5523  1.2443  1.7291
  568MPD2    H2 8429   3.556   3.545  16.476  0.8568 -0.7266 -3.1779
  568MPD2    H3 8430   3.565   3.666  16.270  1.2369  2.9750  0.6676
  568MPD2     N 8431   3.171   3.878  16.357 -0.1992  0.1725 -0.1360
  568MPD2    H5 8432   3.094   3.891  16.421  0.6916 -2.3566  1.4625
  568MPD2    N1 8433   3.374   3.552  16.658  0.0844 -0.4228 -0.4941
  568MPD2    H7 8434   3.442   3.477  16.648 -0.6621 -0.9826 -1.2804
  569TMC3    C1 8435   3.019   3.989  16.244  0.4240  0.8585  0.2048
  569TMC3    C2 8436   2.997   4.092  16.328  0.2906  0.4655 -0.1366
  569TMC3    C3 8437   2.894   4.177  16.293  0.4602  0.2536  0.1203
  569TMC3    C4 8438   2.958   3.979  16.127  0.0040  0.0987 -0.2281
  569TMC3    C5 8439   2.873   4.074  16.089 -0.1211 -0.1717 -0.0344
  569TMC3    C6 8440   2.832   4.169  16.173 -1.0879  0.7050  0.4787
  569TMC3     C 8441   3.155   3.939  16.238  0.1684 -0.2799  0.0377
  569TMC3     O 8442   3.203   3.926  16.128  0.3676  0.3023 -0.0692
  569TMC3     H 8443   3.050   4.086  16.422  0.8061 -1.0614 -0.5177
  569TMC3    H1 8444   2.984   3.907  16.050 -0.4196 -0.3468  0.0477
  569TMC3    H2 8445   2.745   4.230  16.151 -1.6362 -0.3830 -0.3134
  569TMC3    C7 8446   2.887   4.131  15.957 -0.0187 -0.1084 -0.2160
  569TMC3    C8 8447   2.921   4.321  16.313  0.9509  0.4471 -0.2556
  569TMC3    O1 8448   2.917   4.056  15.867 -0.5455 -0.2142  0.1871
  569TMC3    O2 8449   2.889   4.395  16.217 -0.2034  0.2332 -0.5205
  570TMC3    C1 8450   2.758   2.396  16.302 -0.3544 -0.0635 -0.7901
  570TMC3    C2 8451   2.860   2.422  16.220  0.2129 -0.8325  0.3573
  570TMC3    C3 8452   2.914   2.550  16.221 -0.8302 -0.4285 -1.0621
  570TMC3    C4 8453   2.706   2.491  16.391 -0.0024  0.0341  0.0309
  570TMC3    C5 8454   2.762   2.614  16.383  0.0655  0.3163 -0.9339
  570TMC3    C6 8455   2.873   2.645  16.305 -0.1856 -0.1808 -0.0875
  570TMC3     C 8456   2.725   2.261  16.309 -0.4542  0.2862 -0.0634
  570TMC3     O 8457   2.727   2.187  16.211 -0.1558 -0.2205  0.3131
  570TMC3     H 8458   2.895   2.337  16.161  2.1052 -0.9705  1.6680
  570TMC3    H1 8459   2.621   2.467  16.453  1.1532 -0.0594  1.5709
  570TMC3    H2 8460   2.909   2.747  16.301  1.2205 -0.7622 -2.0556
  570TMC3    C7 8461   2.698   2.722  16.460  0.0699 -0.0919  0.1362
  570TMC3    C8 8462   3.033   2.578  16.143 -0.5063  0.2187  0.1392
  570TMC3    O1 8463   2.783   2.793  16.512 -0.1818  0.2608 -0.7851
  570TMC3    O2 8464   3.069   2.693  16.148 -0.3254 -0.1126 -0.2323
  571MPD2     C 8465   0.065   4.221   0.202  0.3658  0.1290 -0.1162
  571MPD2    C1 8466   0.071   4.182   0.331  0.3721 -0.6974 -0.3050
  571MPD2    C2 8467   0.081   4.279   0.432 -0.3181 -0.0614 -0.2232
  571MPD2    C3 8468   0.063   4.415   0.403  0.3110 -0.6266  0.6496
  571MPD2    C4 8469   0.043   4.452   0.275 -0.0068 -0.1751  0.4127
  571MPD2    C5 8470   0.034   4.353   0.174  0.1134 -0.4571 -0.1049
  571MPD2     H 8471   0.094   4.248   0.535  0.1624 -0.7628 -0.4969
  571MPD2    H1 8472   0.020   4.555   0.250 -2.3172 -0.6223  0.7090
  571MPD2    H2 8473   0.073   4.158   0.114 -0.8312 -1.1694  0.7255
  571MPD2    H3 8474   0.012   4.385   0.073 -0.4358 -1.1631 -0.2068
  571MPD2     N 8475   0.051   4.522   0.495  0.0183 -0.2126  0.2438
  571MPD2    H5 8476   0.037   4.611   0.449 -4.0133 -0.0322  1.7593
  571MPD2    N1 8477   0.077   4.039   0.348 -0.2384  0.1245 -0.6050
  571MPD2    H7 8478   0.079   3.991   0.259  0.9870  1.7856 -1.4944
  572TMC3    C1 8479   0.008   4.626   0.711  0.1070 -0.0304  0.0718
  572TMC3    C2 8480   0.029   4.617   0.842  0.5152  0.7774  0.1030
  572TMC3    C3 8481   0.018   0.010   0.921 -0.0079 -0.1468  0.0691
  572TMC3    C4 8482   4.708   0.025   0.644  0.4863 -0.5396  0.3318
  572TMC3    C5 8483   4.718   0.138   0.726 -0.3425 -0.5862  0.2009
  572TMC3    C6 8484   0.014   0.132   0.862  0.9644  0.2379 -0.4871
  572TMC3     C 8485   0.033   4.509   0.631  0.7046 -0.2080 -0.3253
  572TMC3     O 8486   0.038   4.407   0.700  0.2202 -0.0730 -1.0210
  572TMC3     H 8487   0.021   4.522   0.894  1.8550  0.9329  0.6033
  572TMC3    H1 8488   4.695   0.037   0.537 -4.5328 -0.0234  0.9963
  572TMC3    H2 8489   0.004   0.224   0.920 -3.6640 -0.7768  0.3015
  572TMC3    C7 8490   0.060   0.248   0.655 -0.0948  0.0174  0.9173
  572TMC3    C8 8491   0.008   4.713   1.067  0.2065 -0.3227  0.0632
  572TMC3    O1 8492   0.058   0.248   0.534  0.2445  0.0311  0.1508
  572TMC3    O2 8493   4.713   4.593   1.104  0.2137 -0.5430  0.3962
  573MPD2     C 8494   2.030   0.553   0.279  0.3374  0.0358 -0.3102
  573MPD2    C1 8495   1.901   0.603   0.291 -0.1232 -0.5521  0.0880
  573MPD2    C2 8496   1.821   0.634   0.180  0.0972  0.3043  0.0415
  573MPD2    C3 8497   1.858   0.607   0.052  0.0668  0.6591 -0.3072
  573MPD2    C4 8498   1.986   0.562   0.034 -0.2366 -0.2620  0.5519
  573MPD2    C5 8499   2.070   0.535   0.145  0.1892  0.3477 -0.3141
  573MPD2     H 8500   1.721   0.674   0.193  0.3286  1.1640 -0.8396
  573MPD2    H1 8501   2.030   0.554  17.616  0.5244  1.2727  0.7594
  573MPD2    H2 8502   2.091   0.530   0.366 -0.1236 -1.3146 -0.3468
  573MPD2    H3 8503   2.170   0.504   0.118 -0.0854  0.9351 -2.0099
  573MPD2     N 8504   1.775   0.626  17.617 -0.3189 -0.6675 -0.2076
  573MPD2    H5 8505   1.815   0.605  17.526 -1.3176  0.9006 -1.0175
  573MPD2    N1 8506   1.847   0.623   0.422  0.3876  0.3421  0.0904
  573MPD2    H7 8507   1.905   0.591   0.498 -0.4474  0.4170  0.7599
  574TMC3    C1 8508   1.586   0.688  17.495 -0.2526 -0.1361  0.5569
  574TMC3    C2 8509   1.455   0.683  17.506  0.1503 -1.0253 -0.1707
  574TMC3    C3 8510   1.383   0.694  17.389  0.3333 -0.6690 -0.2738
  574TMC3    C4 8511   1.652   0.690  17.380 -0.1622  0.0675 -0.1702
  574TMC3    C5 8512   1.582   0.694  17.263 -0.1597 -0.4019 -0.0480
  574TMC3    C6 8513   1.445   0.689  17.264  0.8795  0.2657  0.4378
  574TMC3     C 8514   1.652   0.695  17.620 -0.4200  1.0644 -0.5299
  574TMC3     O 8515   1.582   0.731   0.032 -0.2127  0.1449  0.1595
  574TMC3     H 8516   1.406   0.701  17.601 -1.9683  0.3587 -1.5213
  574TMC3    H1 8517   1.759   0.706  17.375 -0.4934  2.2191 -0.6723
  574TMC3    H2 8518   1.382   0.700  17.177 -0.7033 -1.0208  1.3932
  574TMC3    C7 8519   1.654   0.663  17.143 -0.2999  0.4855  0.0941
  574TMC3    C8 8520   1.237   0.690  17.387 -0.7251 -0.3505 -0.7209
  574TMC3    O1 8521   1.773   0.686  17.147 -0.1722 -0.0268 -0.1026
  574TMC3    O2 8522   1.185   0.614  17.306  0.6151  0.0556  0.5026
  575TMC3    C1 8523   0.076   1.130  10.361  0.2148 -0.4516 -0.1886
  575TMC3    C2 8524   0.000   1.025  10.313 -0.5802 -0.5624  0.8141
  575TMC3    C3 8525   4.644   1.052  10.201  0.2478 -0.5908 -0.0408
  575TMC3    C4 8526   0.084   1.250  10.298  0.2075  0.2725 -0.1890
  575TMC3    C5 8527   0.004   1.263  10.189 -0.6726 -0.0901 -0.3134
  575TMC3    C6 8528   4.642   1.172  10.140 -0.0283 -0.1998  0.2389
  575TMC3     C 8529   0.163   1.113  10.474 -0.3819 -0.5228 -0.5443
  575TMC3     O 8530   0.198   1.216  10.537  0.0437 -0.3130 -0.2076
  575TMC3     H 8531   0.001   0.929  10.363 -0.2919 -0.5286  0.8741
  575TMC3    H1 8532   0.138   1.337  10.334  0.5633  0.5901 -1.5148
  575TMC3    H2 8533   4.563   1.189  10.068  0.8186  0.3184 -0.5663
  575TMC3    C7 8534   0.032   1.383  10.105 -0.0261 -0.0744 -0.2755
  575TMC3    C8 8535   4.539   0.953  10.178 -0.0565  0.5214 -0.0794
  575TMC3    O1 8536   0.073   1.486  10.159 -0.2742 -0.4684  0.2649
  575TMC3    O2 8537   4.527   0.871  10.267 -0.5502 -0.9452  0.2515
  576MPD2     C 8538   4.386   2.133  12.544 -0.2302 -0.2330  1.0293
  576MPD2    C1 8539   4.366   2.254  12.477  0.1305  0.2562 -0.0058
  576MPD2    C2 8540   4.347   2.363  12.555 -0.4223  0.0219  0.4319
  576MPD2    C3 8541   4.339   2.357  12.693  0.2331  0.2845  0.0472
  576MPD2    C4 8542   4.333   2.235  12.751  0.4111 -0.0885 -0.0239
  576MPD2    C5 8543   4.367   2.123  12.682  0.1113 -0.4477 -0.0760
  576MPD2     H 8544   4.343   2.463  12.514 -3.1776 -0.0135  0.5796
  576MPD2    H1 8545   4.314   2.216  12.856 -1.9635 -2.9615 -0.9730
  576MPD2    H2 8546   4.403   2.040  12.491  0.7816  0.4631  0.1214
  576MPD2    H3 8547   4.368   2.026  12.730 -2.4114  0.5878  2.0397
  576MPD2     N 8548   4.336   2.476  12.772  0.1347  0.0677  0.4577
  576MPD2    H5 8549   4.313   2.559  12.719 -2.8365  0.4395  2.3375
  576MPD2    N1 8550   4.388   2.277  12.339  0.3016 -0.3163 -0.1558
  576MPD2    H7 8551   4.361   2.372  12.314  2.0162  0.3825  0.6915
  577TMC3    C1 8552   4.450   2.240  12.114  0.3650  0.7279  0.1477
  577TMC3    C2 8553   4.454   2.157  12.002 -0.0331  0.6147  0.0132
  577TMC3    C3 8554   4.494   2.209  11.881  0.2054 -0.1075  0.0465
  577TMC3    C4 8555   4.503   2.366  12.108  0.0513  0.1566 -0.2414
  577TMC3    C5 8556   4.546   2.417  11.985  0.4113 -0.2294  0.6093
  577TMC3    C6 8557   4.533   2.342  11.871  0.6004  0.1063  0.2306
  577TMC3     C 8558   4.420   2.180  12.242  0.1955  0.3169  0.4765
  577TMC3     O 8559   4.457   2.063  12.259 -0.3421  0.0803 -0.1065
  577TMC3     H 8560   4.427   2.052  12.014  1.4069  0.0158 -2.0303
  577TMC3    H1 8561   4.505   2.425  12.199  0.2369  0.3065 -0.3423
  577TMC3    H2 8562   4.576   2.378  11.778 -0.7002 -0.7742 -0.7095
  577TMC3    C7 8563   4.612   2.547  11.976 -0.5644  0.5642 -0.1871
  577TMC3    C8 8564   4.550   2.115  11.779  0.8841 -0.0398 -0.2655
  577TMC3    O1 8565   4.671   2.589  12.075 -0.4847 -0.2854  0.2228
  577TMC3    O2 8566   4.500   2.005  11.773  0.3684  0.0119 -0.9553
  578MPD2     C 8567   1.732   3.185   0.542  0.5629 -0.3813 -0.0177
  578MPD2    C1 8568   1.819   3.103   0.476  0.1166 -0.9545 -0.8402
  578MPD2    C2 8569   1.944   3.087   0.539  0.1521 -0.5108  0.0093
  578MPD2    C3 8570   1.984   3.157   0.656 -0.4701 -0.1800  0.6552
  578MPD2    C4 8571   1.893   3.240   0.717  0.6143 -0.0765 -0.0208
  578MPD2    C5 8572   1.767   3.250   0.662 -0.3676  0.1202 -0.2044
  578MPD2     H 8573   2.013   3.019   0.490  1.5221  1.0721 -0.2367
  578MPD2    H1 8574   1.919   3.308   0.798  2.5236 -2.8324  1.6685
  578MPD2    H2 8575   1.629   3.201   0.512  1.6829  2.3831 -2.3789
  578MPD2    H3 8576   1.695   3.320   0.703 -0.2019 -0.7904  1.6603
  578MPD2     N 8577   2.115   3.130   0.716 -0.2870  0.9866  0.0103
  578MPD2    H5 8578   2.180   3.077   0.659 -0.4919  1.4890 -0.6888
  578MPD2    N1 8579   1.775   3.039   0.359 -0.1840  0.0901  0.1658
  578MPD2    H7 8580   1.678   3.047   0.332 -0.6568 -1.5131  1.3982
  579TMC3    C1 8581   2.273   3.119   0.884  0.8592  0.4347 -0.0229
  579TMC3    C2 8582   2.319   3.169   1.009  0.6074  0.7010  0.2495
  579TMC3    C3 8583   2.441   3.127   1.060 -0.0792 -0.1852 -0.1364
  579TMC3    C4 8584   2.341   3.027   0.812 -0.2371  0.2377 -0.3075
  579TMC3    C5 8585   2.466   2.994   0.864  0.1526  0.5885  0.0303
  579TMC3    C6 8586   2.519   3.044   0.990 -0.4783 -0.0577  0.4921
  579TMC3     C 8587   2.144   3.168   0.842 -0.5024 -0.2451  0.4370
  579TMC3     O 8588   2.080   3.218   0.933 -0.2824 -0.5236  0.1785
  579TMC3     H 8589   2.269   3.251   1.059 -5.0103 -3.3409  1.3020
  579TMC3    H1 8590   2.310   3.000   0.711  0.4303 -1.6420 -0.0114
  579TMC3    H2 8591   2.616   3.007   1.020 -0.3557  0.7112  1.0483
  579TMC3    C7 8592   2.548   2.906   0.785  0.1490  0.5186 -0.0856
  579TMC3    C8 8593   2.492   3.210   1.167  0.0637  0.3126  0.2830
  579TMC3    O1 8594   2.669   2.928   0.773  0.5406 -0.2407  0.4106
  579TMC3    O2 8595   2.419   3.292   1.229  0.2303  1.0842  0.1351
  580TMC3    C1 8596   2.008   1.866  11.464 -0.2083 -0.6673 -0.5141
  580TMC3    C2 8597   2.113   1.853  11.377 -0.0459 -0.2609 -0.4220
  580TMC3    C3 8598   2.231   1.782  11.407  0.2986 -0.3197  0.2487
  580TMC3    C4 8599   2.020   1.806  11.585 -0.0258  0.0900  0.9653
  580TMC3    C5 8600   2.130   1.733  11.612 -0.1508  0.2846  0.1156
  580TMC3    C6 8601   2.233   1.715  11.523  0.8984 -0.7021  0.4459
  580TMC3     C 8602   1.976   2.005  11.491 -0.3586 -0.0191  0.3743
  580TMC3     O 8603   1.877   2.023  11.565  0.1305 -0.4873 -0.6098
  580TMC3     H 8604   2.110   1.909  11.284 -0.3971  0.5447  0.0641
  580TMC3    H1 8605   1.940   1.811  11.658 -0.0412  2.5866  0.7647
  580TMC3    H2 8606   2.318   1.660  11.562  0.0525 -1.6423  0.9696
  580TMC3    C7 8607   2.107   1.647  11.728 -0.1771  0.0269  0.0052
  580TMC3    C8 8608   2.343   1.868  11.389  0.7818  0.1220 -0.1297
  580TMC3    O1 8609   2.069   1.711  11.830 -0.3027 -0.6172 -0.3313
  580TMC3    O2 8610   2.315   1.979  11.346  0.1355  0.3192 -0.6197
  581MPD2     C 8611   0.066   1.421  14.686 -0.4455 -0.1067  0.0904
  581MPD2    C1 8612   0.039   1.475  14.811  0.1666 -0.4738 -0.2150
  581MPD2    C2 8613   4.662   1.578  14.825 -0.3831 -0.6757  0.2866
  581MPD2    C3 8614   4.600   1.628  14.713 -0.0261  0.5780 -0.0247
  581MPD2    C4 8615   4.650   1.587  14.588 -0.5470  0.2727 -0.0068
  581MPD2    C5 8616   0.007   1.478  14.574 -0.9815  0.4673  0.4772
  581MPD2     H 8617   4.647   1.628  14.919  2.4213  0.9294 -0.1018
  581MPD2    H1 8618   4.615   1.629  14.494  1.7436  2.2682  0.0425
  581MPD2    H2 8619   0.137   1.340  14.679 -2.0849 -1.4957 -0.4772
  581MPD2    H3 8620   0.028   1.453  14.471  1.7345 -0.2578  1.2012
  581MPD2     N 8621   4.477   1.689  14.729  0.0957 -0.6502  0.2651
  581MPD2    H5 8622   4.433   1.673  14.820 -0.3356 -0.1361  0.1471
  581MPD2    N1 8623   0.099   1.417  14.925 -0.0647  0.3493  0.0367
  581MPD2    H7 8624   0.153   1.332  14.909  0.7481  0.6360  1.3319
  582TMC3    C1 8625   0.112   1.342  15.142 -0.3566 -0.2556  0.1834
  582TMC3    C2 8626   0.158   1.381  15.259 -0.7086 -0.1612 -0.1666
  582TMC3    C3 8627   0.147   1.289  15.357 -0.3694 -0.0612 -1.1301
  582TMC3    C4 8628   0.052   1.218  15.120  0.6602 -0.3694  0.2020
  582TMC3    C5 8629   0.027   1.138  15.226  0.6227  0.2667 -0.5316
  582TMC3    C6 8630   0.084   1.173  15.345  0.0036  0.0848 -0.4646
  582TMC3     C 8631   0.083   1.454  15.052 -0.3530 -0.2227 -0.0651
  582TMC3     O 8632   0.050   1.558  15.109  0.0523  0.5285 -0.0323
  582TMC3     H 8633   0.172   1.487  15.274  0.5013 -0.3154 -0.1696
  582TMC3    H1 8634   0.005   1.192  15.026  1.0419  1.0165 -0.3742
  582TMC3    H2 8635   0.057   1.113  15.432  1.5484 -0.6737 -0.5091
  582TMC3    C7 8636   4.610   1.092  15.220  0.1062 -0.5169  0.7626
  582TMC3    C8 8637   0.195   1.324  15.489  0.6149  0.3151  0.0786
  582TMC3    O1 8638   4.572   1.049  15.111 -0.8629  0.7828  0.6795
  582TMC3    O2 8639   0.169   1.437  15.520 -0.8506 -0.2531 -0.1446
  583MPD2     C 8640   4.565   2.732  16.675  0.4532 -0.5904 -0.2455
  583MPD2    C1 8641   4.647   2.834  16.631 -1.0309  0.5016 -0.1664
  583MPD2    C2 8642   4.628   2.963  16.674  0.2652 -0.3068 -1.0483
  583MPD2    C3 8643   4.533   2.986  16.772 -0.5615  0.0083  0.3455
  583MPD2    C4 8644   4.456   2.882  16.826  1.2411  0.3118  0.2888
  583MPD2    C5 8645   4.467   2.757  16.767 -0.1823 -0.1500  0.0259
  583MPD2     H 8646   4.680   3.055  16.649  1.3118 -0.9744 -1.3262
  583MPD2    H1 8647   4.374   2.895  16.896  0.4623  0.4286 -0.6329
  583MPD2    H2 8648   4.570   2.629  16.644 -0.5384 -1.0846  1.2295
  583MPD2    H3 8649   4.402   2.680  16.808 -0.0456  0.3386  1.1709
  583MPD2     N 8650   4.519   3.120  16.823 -0.3281 -0.1258 -0.0641
  583MPD2    H5 8651   4.564   3.190  16.764  1.0987 -0.2030  0.9299
  583MPD2    N1 8652   0.038   2.804  16.545 -0.6203  0.5317 -0.2759
  583MPD2    H7 8653   0.103   2.875  16.511  0.1571 -0.0422  0.0210
  584TMC3    C1 8654   4.445   3.292  16.941 -1.0071  0.4113  1.0074
  584TMC3    C2 8655   4.519   3.371  16.857  0.6876  0.0971  0.0332
  584TMC3    C3 8656   4.508   3.504  16.872  0.2917 -0.1025 -0.4125
  584TMC3    C4 8657   4.376   3.341  17.054 -0.7354  0.3334 -0.7418
  584TMC3    C5 8658   4.391   3.470  17.076 -0.3282  0.9071  0.2231
  584TMC3    C6 8659   4.461   3.552  16.991  0.2380  0.5831 -0.9921
  584TMC3     C 8660   4.459   3.154  16.933  0.4270  0.7234 -0.4827
  584TMC3     O 8661   4.414   3.085  17.024  0.6000 -0.1985 -0.2127
  584TMC3     H 8662   4.566   3.339  16.765 -1.7430 -0.2107 -1.1065
  584TMC3    H1 8663   4.307   3.275  17.106 -1.6233  2.6274  1.0025
  584TMC3    H2 8664   4.468   3.657  17.018 -0.0423  0.3599 -0.0508
  584TMC3    C7 8665   4.336   3.516  17.198  0.6096 -0.2331  0.5459
  584TMC3    C8 8666   4.571   3.596  16.780  0.5176  0.4060 -0.8044
  584TMC3    O1 8667   4.341   3.439  17.292  0.1687 -0.9106 -0.2801
  584TMC3    O2 8668   4.656   3.543  16.709  0.2304 -0.2809  0.3462
  585MPD2     C 8669   3.482   2.691   0.578 -0.1243  0.4528  0.4964
  585MPD2    C1 8670   3.554   2.586   0.531  0.3982 -0.4132  0.6486
  585MPD2    C2 8671   3.510   2.512   0.418 -0.0563  0.5134 -0.4902
  585MPD2    C3 8672   3.399   2.561   0.347  1.0585 -0.3719 -0.4455
  585MPD2    C4 8673   3.330   2.667   0.398  0.0808  0.2704  0.6190
  585MPD2    C5 8674   3.370   2.728   0.515 -0.3654 -0.2109  0.1084
  585MPD2     H 8675   3.551   2.415   0.391  0.2134  0.7673 -1.0047
  585MPD2    H1 8676   3.241   2.705   0.349 -0.8728 -0.8426  1.4707
  585MPD2    H2 8677   3.517   2.752   0.659 -0.7622  1.6750 -0.1480
  585MPD2    H3 8678   3.316   2.815   0.551  0.9373  1.0756 -1.0368
  585MPD2     N 8679   3.356   2.500   0.225  0.1725  1.0030  0.5174
  585MPD2    H5 8680   3.273   2.538   0.181 -0.8905 -3.0443 -0.9468
  585MPD2    N1 8681   3.669   2.547   0.605  0.2313 -0.1251 -0.3721
  585MPD2    H7 8682   3.676   2.595   0.695 -0.6410 -0.2370 -0.2420
  586TMC3    C1 8683   3.357   2.350   0.044  0.0866 -0.1778  0.0270
  586TMC3    C2 8684   3.432   2.296  17.619  0.6681  0.7768 -0.3657
  586TMC3    C3 8685   3.359   2.221  17.536 -0.4106  0.1376 -0.3824
  586TMC3    C4 8686   3.225   2.317   0.065 -0.6546 -0.1321 -0.8572
  586TMC3    C5 8687   3.160   2.240  17.653  0.1315 -0.0521 -0.7093
  586TMC3    C6 8688   3.224   2.199  17.541  0.1993 -0.2736 -0.5403
  586TMC3     C 8689   3.426   2.408   0.158 -0.6074  0.2719 -0.0070
  586TMC3     O 8690   3.549   2.384   0.168 -0.0503 -0.1381  0.4209
  586TMC3     H 8691   3.539   2.307  17.606  1.1972 -3.5072  0.5309
  586TMC3    H1 8692   3.176   2.341   0.159  0.2320  1.1988 -0.7296
  586TMC3    H2 8693   3.166   2.160  17.458  0.1566 -0.5624 -0.3737
  586TMC3    C7 8694   3.051   2.161   0.016 -0.0326  0.0682 -0.9973
  586TMC3    C8 8695   3.414   2.111  17.452  0.3903 -0.1853  0.2656
  586TMC3    O1 8696   3.019   2.065  17.627 -0.1000 -0.0885 -0.7113
  586TMC3    O2 8697   3.336   2.023  17.420  0.5370 -1.3367 -0.1039
  587TMC3    C1 8698   1.499   0.532  15.907 -0.1342  0.1652  0.4384
  587TMC3    C2 8699   1.477   0.572  16.034  0.3606  0.0493 -0.6327
  587TMC3    C3 8700   1.580   0.638  16.090 -0.4193 -0.6872  0.1125
  587TMC3    C4 8701   1.615   0.551  15.834 -0.5480  0.2829  0.2918
  587TMC3    C5 8702   1.719   0.611  15.899  0.7155  0.3057 -0.3881
  587TMC3    C6 8703   1.695   0.663  16.022  0.2306 -0.1456  0.1541
  587TMC3     C 8704   1.411   0.438  15.851  0.0772  0.8457 -0.2600
  587TMC3     O 8705   1.455   0.355  15.776 -0.3277 -0.1848 -0.2064
  587TMC3     H 8706   1.391   0.548  16.095  0.0793 -1.3141 -1.5740
  587TMC3    H1 8707   1.618   0.522  15.729 -1.5620 -2.9743  1.1817
  587TMC3    H2 8708   1.773   0.713  16.078  0.4571 -0.0110 -0.2790
  587TMC3    C7 8709   1.853   0.625  15.850 -0.1710  0.2092 -0.8022
  587TMC3    C8 8710   1.568   0.679  16.227 -0.5608  0.9646  0.1560
  587TMC3    O1 8711   1.939   0.617  15.934  0.2096 -0.2110  0.5069
  587TMC3    O2 8712   1.672   0.668  16.294  0.4518 -0.0562 -0.2071
  588TMC3    C1 8713   4.436   3.411   9.643  0.3476 -0.0432  0.2810
  588TMC3    C2 8714   4.359   3.303   9.639 -0.1804 -0.0870 -0.2877
  588TMC3    C3 8715   4.374   3.202   9.732  1.1839  0.0056 -0.9421
  588TMC3    C4 8716   4.524   3.431   9.747  0.4072 -0.1226  0.0944
  588TMC3    C5 8717   4.532   3.329   9.838 -0.2089  0.3031  0.0047
  588TMC3    C6 8718   4.456   3.218   9.839 -0.1755  0.5226 -0.3711
  588TMC3     C 8719   4.445   3.501   9.533 -0.7792 -0.4146  0.2751
  588TMC3     O 8720   4.422   3.456   9.420  0.0193  0.3040  0.2874
  588TMC3     H 8721   4.282   3.293   9.564  0.3854 -0.0461 -0.8738
  588TMC3    H1 8722   4.596   3.512   9.741  0.0727  0.2627  1.2895
  588TMC3    H2 8723   4.462   3.142   9.916 -1.3476 -0.8441 -1.6194
  588TMC3    C7 8724   4.633   3.342   9.936  0.7091  0.5222 -0.2779
  588TMC3    C8 8725   4.291   3.084   9.728  0.0514 -0.2118  0.0481
  588TMC3    O1 8726   4.677   3.237   9.990 -0.4664 -0.2031 -0.3373
  588TMC3    O2 8727   4.209   3.070   9.639 -0.4012 -0.1604  0.6584
  589TMC3    C1 8728   2.352   0.967   1.367 -0.1273 -0.4887 -0.1947
  589TMC3    C2 8729   2.430   0.945   1.475  0.1440 -0.2259 -0.8906
  589TMC3    C3 8730   2.505   0.834   1.471  1.0099  0.1537  0.4318
  589TMC3    C4 8731   2.352   0.880   1.261 -0.2521  0.5177  0.5850
  589TMC3    C5 8732   2.426   0.770   1.267  0.4379  0.4945 -0.3397
  589TMC3    C6 8733   2.507   0.736   1.376  0.7646 -0.5319  0.0006
  589TMC3     C 8734   2.266   1.083   1.361  0.4437  0.1562  0.5190
  589TMC3     O 8735   2.168   1.077   1.284  0.1956 -0.0873 -0.0055
  589TMC3     H 8736   2.438   1.021   1.552 -0.1506 -0.9999 -0.0979
  589TMC3    H1 8737   2.296   0.905   1.171  1.5037  2.3132 -0.0280
  589TMC3    H2 8738   2.553   0.638   1.382 -0.3927 -1.0059  1.4102
  589TMC3    C7 8739   2.442   0.690   1.138  0.7512 -0.2880  0.0005
  589TMC3    C8 8740   2.625   0.830   1.545  0.1899  0.2115  0.8890
  589TMC3    O1 8741   2.456   0.573   1.157  0.5141 -0.2382 -0.2420
  589TMC3    O2 8742   2.636   0.899   1.646 -0.0808  0.3711 -0.1913
  590MPD2     C 8743   2.299   4.407  16.574 -0.6916 -0.2748  0.0878
  590MPD2    C1 8744   2.250   4.340  16.467  0.2852 -0.7873 -0.0858
  590MPD2    C2 8745   2.306   4.355  16.342 -0.4271 -0.0171  0.4944
  590MPD2    C3 8746   2.420   4.431  16.320  1.0459  0.1432 -0.2523
  590MPD2    C4 8747   2.464   4.501  16.426 -0.3250 -0.1277  0.5657
  590MPD2    C5 8748   2.411   4.487  16.555  0.1036 -0.1829 -0.4918
  590MPD2     H 8749   2.256   4.306  16.259  0.5398 -1.2694  0.6500
  590MPD2    H1 8750   2.554   4.560  16.418 -1.5216  1.6348  0.1197
  590MPD2    H2 8751   2.249   4.403  16.670 -2.3208  2.0332 -0.6472
  590MPD2    H3 8752   2.454   4.546  16.635  1.1857 -0.6166 -0.7611
  590MPD2     N 8753   2.477   4.448  16.188  1.0245 -0.2980  0.4628
  590MPD2    H5 8754   2.551   4.517  16.175 -0.9337  1.4389 -1.3097
  590MPD2    N1 8755   2.127   4.274  16.495 -0.5437 -0.0067 -0.8030
  590MPD2    H7 8756   2.105   4.269  16.594  0.8039  0.4243 -0.4792
  591TMC3    C1 8757   2.487   4.446  15.954  0.0166 -0.0962  0.2729
  591TMC3    C2 8758   2.517   4.360  15.852 -0.0723 -0.3317  0.1974
  591TMC3    C3 8759   2.586   4.415  15.748 -0.8049 -0.0293 -0.1451
  591TMC3    C4 8760   2.505   4.579  15.947 -0.2277 -0.1099  0.6209
  591TMC3    C5 8761   2.572   4.627  15.839  0.3404  0.2045  0.5217
  591TMC3    C6 8762   2.613   4.550  15.737  0.4305 -0.3835  0.1859
  591TMC3     C 8763   2.432   4.390  16.070 -0.1055  0.9675  0.1746
  591TMC3     O 8764   2.364   4.290  16.057 -0.1699  0.0144  0.2609
  591TMC3     H 8765   2.507   4.253  15.868  1.6836 -0.5096  0.0644
  591TMC3    H1 8766   2.474   4.646  16.026 -0.8724  1.8200 -1.2955
  591TMC3    H2 8767   2.658   4.591  15.646  0.7129  0.2357  0.6018
  591TMC3    C7 8768   2.605   0.053  15.847  0.2658  0.0691  0.1925
  591TMC3    C8 8769   2.629   4.325  15.640  0.6150 -0.0005  0.5551
  591TMC3    O1 8770   2.589   0.114  15.953  0.0262  0.3120  1.0747
  591TMC3    O2 8771   2.634   4.203  15.664 -0.1707 -0.3367 -0.2237
  592MPD2     C 8772   3.220   0.917  11.651  0.3813  0.5329  0.1904
  592MPD2    C1 8773   3.164   1.030  11.715  0.2372 -0.5265 -0.5713
  592MPD2    C2 8774   3.073   1.002  11.819 -0.8475  0.5444  0.0861
  592MPD2    C3 8775   3.032   0.875  11.853  0.9063  0.6293 -0.4906
  592MPD2    C4 8776   3.087   0.762  11.785 -0.4244 -0.4435 -0.1209
  592MPD2    C5 8777   3.186   0.787  11.687  0.5610  1.0778 -0.7243
  592MPD2     H 8778   3.026   1.086  11.869  0.0627  0.4025  1.1844
  592MPD2    H1 8779   3.062   0.658  11.803 -0.9639 -0.5422 -1.4287
  592MPD2    H2 8780   3.305   0.921  11.584  1.6074 -0.3359  1.6966
  592MPD2    H3 8781   3.238   0.706  11.636 -0.5846  1.2133 -2.0967
  592MPD2     N 8782   2.907   0.857  11.924  0.3474  0.2496  0.2546
  592MPD2    H5 8783   2.851   0.942  11.928 -0.2170 -0.0526 -1.0755
  592MPD2    N1 8784   3.212   1.159  11.676  0.1995  0.2177  0.2368
  592MPD2    H7 8785   3.290   1.164  11.612  0.6483 -0.5613  0.7207
  593TMC3    C1 8786   3.246   1.394  11.691  0.3699 -0.2050 -0.2500
  593TMC3    C2 8787   3.243   1.504  11.772 -0.0510 -0.4068 -0.4068
  593TMC3    C3 8788   3.343   1.598  11.761  0.0886  0.8881  0.4188
  593TMC3    C4 8789   3.349   1.389  11.597  0.0588 -0.6782 -0.3719
  593TMC3    C5 8790   3.451   1.481  11.597 -0.1437 -0.0118 -1.0099
  593TMC3    C6 8791   3.445   1.592  11.680 -0.1888 -0.0854 -0.8970
  593TMC3     C 8792   3.162   1.280  11.721  0.5525 -0.8420 -0.0726
  593TMC3     O 8793   3.073   1.297  11.805  0.4384 -0.0819  0.6340
  593TMC3     H 8794   3.167   1.511  11.849  1.8715  2.1021  1.2511
  593TMC3    H1 8795   3.365   1.295  11.547 -1.0538 -2.1688  2.0612
  593TMC3    H2 8796   3.523   1.668  11.676 -1.1533  0.9284 -0.3888
  593TMC3    C7 8797   3.557   1.493  11.500 -0.1940 -0.2349 -0.0023
  593TMC3    C8 8798   3.305   1.724  11.812 -0.6123  0.7199 -0.3019
  593TMC3    O1 8799   3.650   1.571  11.521 -0.8627 -0.4149 -0.1069
  593TMC3    O2 8800   3.182   1.735  11.827 -0.2345  0.2410 -0.1917
  594MPD2     C 8801   1.824   0.323  13.694 -0.1594  0.4840  1.0585
  594MPD2    C1 8802   1.797   0.328  13.831  0.4120 -0.3888  0.0222
  594MPD2    C2 8803   1.879   0.413  13.907  0.2190  0.3471 -0.0334
  594MPD2    C3 8804   1.980   0.486  13.848 -0.1606  0.0180 -0.5090
  594MPD2    C4 8805   2.001   0.471  13.713 -0.2290  0.1696 -0.4029
  594MPD2    C5 8806   1.927   0.386  13.631  0.2363  0.9546 -0.0016
  594MPD2     H 8807   1.855   0.434  14.011  0.3448  1.8608 -0.3198
  594MPD2    H1 8808   2.080   0.525  13.661 -0.9050 -0.4689 -2.0958
  594MPD2    H2 8809   1.767   0.253  13.634  3.6038 -1.9797  0.3146
  594MPD2    H3 8810   1.946   0.382  13.524  1.8612  4.0734  0.1724
  594MPD2     N 8811   2.068   0.564  13.937  0.0407 -0.1527 -0.5449
  594MPD2    H5 8812   2.050   0.540  14.034 -0.2005  0.2835 -0.4797
  594MPD2    N1 8813   1.695   0.243  13.883 -0.6826 -0.2030  0.0299
  594MPD2    H7 8814   1.647   0.190  13.812 -0.1885 -1.0282  0.3160
  595TMC3    C1 8815   2.459   0.762  14.109 -0.0371 -0.4956  0.0344
  595TMC3    C2 8816   2.395   0.702  14.003 -0.2208 -0.3719 -0.2736
  595TMC3    C3 8817   2.259   0.672  14.014 -0.1480  0.6250 -0.4634
  595TMC3    C4 8818   2.379   0.806  14.216 -1.2993  0.2157  0.2035
  595TMC3    C5 8819   2.249   0.770  14.228  0.7481  0.2265  0.7809
  595TMC3    C6 8820   2.190   0.701  14.131  0.0306  0.4031  0.7755
  595TMC3     C 8821   2.597   0.797  14.117  0.1804  0.6531 -0.5527
  595TMC3     O 8822   2.631   0.872  14.207 -0.2310 -0.2320  0.5430
  595TMC3     H 8823   2.448   0.664  13.917  0.9095  1.1355 -0.2436
  595TMC3    H1 8824   2.425   0.861  14.297 -2.0952  1.5516 -0.2437
  595TMC3    H2 8825   2.082   0.697  14.131 -0.0751  3.1425  1.5926
  595TMC3    C7 8826   2.159   0.854  14.302  0.6139  0.5837 -0.5082
  595TMC3    C8 8827   2.186   0.621  13.896  0.5433  0.4061 -0.4960
  595TMC3    O1 8828   2.040   0.822  14.312  0.2654  0.0580  0.4584
  595TMC3    O2 8829   2.242   0.640  13.785  0.3987 -0.0652  0.1722
  596MPD2     C 8830   0.768   2.773  16.943  1.1032 -0.5009 -0.0459
  596MPD2    C1 8831   0.783   2.854  16.834 -0.0854 -0.0448  0.4240
  596MPD2    C2 8832   0.814   2.806  16.706 -0.7442 -0.2106  0.7703
  596MPD2    C3 8833   0.832   2.673  16.675  0.2571  0.5025  0.1745
  596MPD2    C4 8834   0.824   2.588  16.778  0.3716  0.2572  0.3735
  596MPD2    C5 8835   0.796   2.639  16.906  0.2338  0.0138 -0.3140
  596MPD2     H 8836   0.813   2.875  16.622 -2.4261 -0.1184  0.8510
  596MPD2    H1 8837   0.839   2.481  16.765  1.0304 -0.1422  4.2511
  596MPD2    H2 8838   0.732   2.797  17.042 -0.7544  0.2544 -0.8935
  596MPD2    H3 8839   0.800   2.576  16.995  0.6651  1.0126  0.3804
  596MPD2     N 8840   0.865   2.621  16.543 -0.0183 -0.0648 -0.7337
  596MPD2    H5 8841   0.849   2.521  16.533  0.7461 -0.3965  1.2961
  596MPD2    N1 8842   0.745   2.992  16.841 -0.4877  0.7604 -0.2748
  596MPD2    H7 8843   0.764   3.043  16.755 -0.7422 -0.8861 -1.3030
  597TMC3    C1 8844   0.664   3.198  16.929  0.1312 -0.1981  0.4739
  597TMC3    C2 8845   0.767   3.271  16.871  0.2565  0.0773 -0.9784
  597TMC3    C3 8846   0.762   3.406  16.880 -0.0299 -0.8148  0.3027
  597TMC3    C4 8847   0.561   3.264  16.991 -0.0264  0.2917  0.2462
  597TMC3    C5 8848   0.572   3.400  17.007 -0.2788 -0.6305  0.2934
  597TMC3    C6 8849   0.660   3.472  16.941 -0.0425 -0.3544  0.8310
  597TMC3     C 8850   0.672   3.056  16.938 -0.1441  0.1877  0.2288
  597TMC3     O 8851   0.637   3.011  17.048 -0.0546  0.0059  0.2051
  597TMC3     H 8852   0.859   3.221  16.842 -0.5505 -2.0362  0.1414
  597TMC3    H1 8853   0.488   3.207  17.047 -0.7999 -0.1508 -1.2307
  597TMC3    H2 8854   0.664   3.579  16.958  0.5244 -0.3972  0.9539
  597TMC3    C7 8855   0.457   3.466  17.084 -0.4676 -0.0204  0.2300
  597TMC3    C8 8856   0.864   3.494  16.821 -0.0778  0.7388  0.2181
  597TMC3    O1 8857   0.400   3.401  17.172  0.1863 -0.6884 -0.3372
  597TMC3    O2 8858   0.931   3.441  16.729 -0.2967 -0.5387  0.9025
  598TMC3    C1 8859   3.405   0.317  15.408  0.4317 -0.5578  0.1881
  598TMC3    C2 8860   3.373   0.193  15.360  0.6358 -0.2510 -0.0141
  598TMC3    C3 8861   3.478   0.108  15.339 -0.0938 -0.4934  0.1117
  598TMC3    C4 8862   3.536   0.358  15.436 -0.6745 -0.1772 -0.0748
  598TMC3    C5 8863   3.633   0.268  15.408  0.2906 -0.3520 -0.5077
  598TMC3    C6 8864   3.609   0.145  15.357 -0.2306 -0.1686 -0.3777
  598TMC3     C 8865   3.288   0.401  15.441  0.3109  0.6409 -0.3388
  598TMC3     O 8866   3.173   0.365  15.414  0.0039  0.4227 -0.0262
  598TMC3     H 8867   3.269   0.177  15.334  0.6808  0.2856 -0.5467
  598TMC3    H1 8868   3.563   0.456  15.473 -1.2543  0.4768 -1.4017
  598TMC3    H2 8869   3.695   0.083  15.337  0.1299  0.5332 -0.9946
  598TMC3    C7 8870   3.769   0.301  15.404  0.3834 -0.0721  0.0508
  598TMC3    C8 8871   3.451   4.694  15.293 -1.0899  0.4392  0.2321
  598TMC3    O1 8872   3.851   0.240  15.472 -0.5754 -0.0205 -0.2752
  598TMC3    O2 8873   3.550   4.628  15.258 -0.6399 -0.0780  0.1898
  599MPD2     C 8874   3.946   2.516  16.289 -0.1806  0.5125  0.6675
  599MPD2    C1 8875   3.892   2.391  16.259 -0.6227  0.6211 -0.1931
  599MPD2    C2 8876   3.752   2.385  16.260  0.3401 -0.8193  0.4124
  599MPD2    C3 8877   3.665   2.489  16.279 -0.3105 -0.6986 -0.1409
  599MPD2    C4 8878   3.723   2.613  16.291  0.5562 -0.8891 -0.8073
  599MPD2    C5 8879   3.861   2.626  16.301  0.0165 -0.9334  0.5085
  599MPD2     H 8880   3.712   2.285  16.243 -2.7182  0.8349 -2.0896
  599MPD2    H1 8881   3.659   2.700  16.293  0.9780 -0.6470  1.7164
  599MPD2    H2 8882   4.052   2.535  16.275 -0.2351  1.2356  1.2516
  599MPD2    H3 8883   3.918   2.718  16.298 -1.2205 -0.0854  3.4299
  599MPD2     N 8884   3.526   2.473  16.272  0.3892  0.6420  0.5547
  599MPD2    H5 8885   3.479   2.563  16.271 -0.7898  0.0577  3.0543
  599MPD2    N1 8886   3.983   2.283  16.250  0.2161  0.5488  0.1174
  599MPD2    H7 8887   4.083   2.298  16.260  0.6424 -2.7315  0.9223
  600TMC3    C1 8888   3.309   2.364  16.315 -0.3575 -0.4181 -0.2126
  600TMC3    C2 8889   3.230   2.255  16.301 -0.1271  0.1831  0.0617
  600TMC3    C3 8890   3.117   2.237  16.375 -0.3280  0.3261 -0.5010
  600TMC3    C4 8891   3.288   2.466  16.403 -0.0115 -0.3142  0.2629
  600TMC3    C5 8892   3.167   2.454  16.472 -0.4412  0.0041  1.2942
  600TMC3    C6 8893   3.093   2.335  16.469  0.0749 -0.9857 -0.5944
  600TMC3     C 8894   3.446   2.355  16.262  0.8474  0.4149 -0.0092
  600TMC3     O 8895   3.476   2.249  16.207 -0.5415 -0.4371  0.0658
  600TMC3     H 8896   3.263   2.163  16.254  0.2963 -0.0552  0.8341
  600TMC3    H1 8897   3.359   2.547  16.415 -0.9717  0.3636  1.3226
  600TMC3    H2 8898   3.025   2.314  16.551 -1.8208 -1.6112 -2.3136
  600TMC3    C7 8899   3.132   2.544  16.576 -0.3147  0.3073  0.1350
  600TMC3    C8 8900   3.125   2.113  16.445  0.3581  0.4971  0.3377
  600TMC3    O1 8901   3.058   2.505  16.670 -0.3186  0.3567  0.1624
  600TMC3    O2 8902   3.215   2.119  16.531 -0.3887  0.5335 -0.0595
  601MPD2     C 8903   0.392   0.643   0.613 -0.1159  0.1200 -0.4047
  601MPD2    C1 8904   0.306   0.589   0.519  0.0932 -0.3250 -0.4127
  601MPD2    C2 8905   0.223   0.482   0.551  0.1061  0.0757 -0.3806
  601MPD2    C3 8906   0.221   0.434   0.681 -0.1542  0.5737  0.6364
  601MPD2    C4 8907   0.298   0.489   0.769 -1.1012 -0.0579 -0.1208
  601MPD2    C5 8908   0.393   0.583   0.736  0.2460  0.5373  0.0365
  601MPD2     H 8909   0.157   0.439   0.477  1.2633 -0.6415 -1.0064
  601MPD2    H1 8910   0.296   0.461   0.874  2.1255 -0.5463 -0.2000
  601MPD2    H2 8911   0.461   0.723   0.591 -0.1366  0.1929 -0.1971
  601MPD2    H3 8912   0.472   0.607   0.806 -0.9720  0.6702  1.3738
  601MPD2     N 8913   0.133   0.335   0.734  0.0050 -0.0560  0.4520
  601MPD2    H5 8914   0.133   0.313   0.833 -1.0200 -3.1719 -0.2506
  601MPD2    N1 8915   0.310   0.641   0.386 -0.0644  0.4274 -0.0528
  601MPD2    H7 8916   0.259   0.582   0.321  2.2445 -2.0797  0.4234
  602TMC3    C1 8917   0.380   0.766   0.204 -0.4367 -0.2250 -0.3084
  602TMC3    C2 8918   0.324   0.885   0.150 -0.1530 -0.2920 -0.3386
  602TMC3    C3 8919   0.316   0.887   0.013 -0.0850 -0.0715 -0.1991
  602TMC3    C4 8920   0.415   0.667   0.121 -0.5190  0.3769  0.1946
  602TMC3    C5 8921   0.397   0.672  17.673  0.9673 -0.2326 -0.3535
  602TMC3    C6 8922   0.350   0.782  17.612 -0.1148  0.2291 -0.4723
  602TMC3     C 8923   0.380   0.754   0.349 -0.3286  0.4955 -0.0057
  602TMC3     O 8924   0.394   0.851   0.419 -0.0182  0.5265  0.4568
  602TMC3     H 8925   0.290   0.961   0.219 -0.9971  0.2716 -1.3891
  602TMC3    H1 8926   0.458   0.581   0.172  0.5307  0.9718  0.3171
  602TMC3    H2 8927   0.303   0.770  17.515  1.4276 -2.2702 -0.9153
  602TMC3    C7 8928   0.455   0.566  17.587  0.5565  0.2981  0.5115
  602TMC3    C8 8929   0.245   0.993  17.627 -0.7364  0.6975  0.2330
  602TMC3    O1 8930   0.464   0.447  17.627  0.0294  0.3044  0.0841
  602TMC3    O2 8931   0.143   1.043  17.668 -0.2433 -0.5476  0.3148
  603TMC3    C1 8932   0.037   0.815  10.869  0.5987 -0.3980 -0.4343
  603TMC3    C2 8933   0.028   0.832  11.006  0.3897 -0.7981 -0.4970
  603TMC3    C3 8934   4.691   0.948  11.057  0.1567 -0.4498 -0.2269
  603TMC3    C4 8935   4.712   0.915  10.788  0.3080  0.4639 -0.6280
  603TMC3    C5 8936   4.650   1.020  10.849 -0.8788  0.2075  0.3914
  603TMC3    C6 8937   4.627   1.038  10.982  0.4136 -0.5110  0.0815
  603TMC3     C 8938   0.061   0.680  10.822 -0.0624  0.9578 -0.5165
  603TMC3     O 8939   0.087   0.592  10.903  0.0538 -0.2226 -0.3725
  603TMC3     H 8940   0.051   0.750  11.072  0.9349 -1.5253 -1.5922
  603TMC3    H1 8941   0.012   0.905  10.682 -2.0372 -1.1484 -0.9236
  603TMC3    H2 8942   4.602   1.139  11.012  1.8054 -0.2362  0.2936
  603TMC3    C7 8943   4.628   1.144  10.765  0.0687  0.1922 -0.0451
  603TMC3    C8 8944   4.625   0.924  11.182 -0.4538  0.3892  0.3373
  603TMC3    O1 8945   4.654   1.250  10.817  0.0434  0.6169 -0.2457
  603TMC3    O2 8946   4.684   0.857  11.270  0.1832 -0.7881  0.0229
  604MPD2     C 8947   4.260   3.984  16.357 -0.2567 -0.2287 -0.1708
  604MPD2    C1 8948   4.178   4.013  16.267  0.0150 -0.1675  0.6616
  604MPD2    C2 8949   4.162   3.925  16.159  0.4532  0.0154  0.4986
  604MPD2    C3 8950   4.239   3.809  16.147 -0.3582  0.2591  0.2724
  604MPD2    C4 8951   4.336   3.796  16.243  0.4792 -0.1282 -0.2923
  604MPD2    C5 8952   4.349   3.882  16.342 -0.2439 -0.3355  0.0926
  604MPD2     H 8953   4.088   3.933  16.080 -1.0118  0.8690  1.9576
  604MPD2    H1 8954   4.408   3.715  16.252 -0.1031 -0.8158 -1.9518
  604MPD2    H2 8955   4.278   4.055  16.437  2.1832  0.0342 -0.9543
  604MPD2    H3 8956   4.436   3.876  16.406  0.9825 -4.3576 -1.9642
  604MPD2     N 8957   4.225   3.723  16.037  0.3183 -0.4258 -0.2357
  604MPD2    H5 8958   4.144   3.722  15.976  0.4760 -0.0237 -0.4538
  604MPD2    N1 8959   4.108   4.132  16.280  0.2873 -0.1223 -0.2753
  604MPD2    H7 8960   4.131   4.191  16.360  0.6570  0.3475 -0.7274
  605TMC3    C1 8961   3.988   4.318  16.208 -0.5670 -0.2907  0.5632
  605TMC3    C2 8962   4.087   4.403  16.253 -0.1497  0.5371 -0.3468
  605TMC3    C3 8963   4.065   4.532  16.265  0.7838  0.7681  0.4210
  605TMC3    C4 8964   3.861   4.361  16.177  0.8240  0.8308  0.1413
  605TMC3    C5 8965   3.845   4.497  16.193  0.3714  0.0739 -0.2937
  605TMC3    C6 8966   3.943   4.588  16.244  0.0362 -0.0268  0.5208
  605TMC3     C 8967   4.020   4.178  16.188  0.9625  0.2312 -0.0004
  605TMC3     O 8968   3.950   4.125  16.103 -0.4009  0.3863 -0.2119
  605TMC3     H 8969   4.189   4.369  16.265 -0.4706 -0.2771  0.0955
  605TMC3    H1 8970   3.787   4.303  16.123  0.9739  0.3238  0.4795
  605TMC3    H2 8971   3.926   4.695  16.253 -2.1979 -0.2323 -1.3909
  605TMC3    C7 8972   3.711   4.566  16.191 -0.1945  0.3652  0.6864
  605TMC3    C8 8973   4.167   4.607  16.335 -0.1869  0.1787  0.0884
  605TMC3    O1 8974   3.702   4.686  16.224 -0.0318  0.4329  0.7099
  605TMC3    O2 8975   4.272   4.546  16.359  0.1736 -0.4239  1.0135
  606TMC3    C1 8976   1.246   2.418  16.415 -0.1361 -0.6798 -0.4372
  606TMC3    C2 8977   1.229   2.536  16.483  0.1480 -0.5428  0.1688
  606TMC3    C3 8978   1.190   2.520  16.607 -1.0831 -0.3245 -0.2596
  606TMC3    C4 8979   1.237   2.294  16.470 -0.4206  0.3543  0.2308
  606TMC3    C5 8980   1.199   2.287  16.600 -0.2488  0.0421 -0.1540
  606TMC3    C6 8981   1.169   2.397  16.669  0.7106  0.4574 -0.2923
  606TMC3     C 8982   1.268   2.439  16.272 -0.4713  0.3955 -0.5676
  606TMC3     O 8983   1.278   2.557  16.236  0.2902 -0.1191 -0.2870
  606TMC3     H 8984   1.249   2.633  16.439 -2.5765 -0.3649 -0.6749
  606TMC3    H1 8985   1.245   2.201  16.414 -1.2652  0.8373 -0.6882
  606TMC3    H2 8986   1.139   2.391  16.773 -1.6577 -1.0572 -1.0670
  606TMC3    C7 8987   1.256   2.167  16.664 -0.0258  0.3129  0.1017
  606TMC3    C8 8988   1.201   2.637  16.699 -0.3609 -0.2019  0.4724
  606TMC3    O1 8989   1.342   2.112  16.600  0.3939  0.5547  0.6887
  606TMC3    O2 8990   1.209   2.606  16.818  0.0617 -0.7389 -0.0483
  607MPD2     C 8991   3.391   0.542  11.448  0.5610  0.0966  0.7073
  607MPD2    C1 8992   3.498   0.561  11.534 -0.4188 -0.0526 -0.2756
  607MPD2    C2 8993   3.485   0.516  11.664  0.1343  0.2836  0.3160
  607MPD2    C3 8994   3.370   0.453  11.703  0.3879  0.2346  0.0220
  607MPD2    C4 8995   3.275   0.415  11.605  0.0335 -0.3198 -0.5376
  607MPD2    C5 8996   3.291   0.457  11.477 -0.7053 -0.3013  0.3536
  607MPD2     H 8997   3.555   0.547  11.742  0.8455  2.1100 -1.0317
  607MPD2    H1 8998   3.185   0.358  11.628  0.4271 -1.9375 -2.9409
  607MPD2    H2 8999   3.388   0.581  11.347 -0.9079 -0.5144  0.5103
  607MPD2    H3 9000   3.221   0.433  11.398 -0.5375 -1.0125  0.4143
  607MPD2     N 9001   3.350   0.429  11.836 -0.1114 -0.3732 -0.2167
  607MPD2    H5 9002   3.429   0.453  11.895 -0.5212  2.5016 -0.7915
  607MPD2    N1 9003   3.595   0.666  11.521 -0.1248  0.1682 -0.2867
  607MPD2    H7 9004   3.632   0.699  11.610  0.9340  1.5454 -1.2421
  608TMC3    C1 9005   3.649   0.887  11.451  0.2849  0.0158 -0.5305
  608TMC3    C2 9006   3.618   0.928  11.579 -0.3186  0.1203 -0.0750
  608TMC3    C3 9007   3.650   1.062  11.597 -0.2562  0.4210  0.6175
  608TMC3    C4 9008   3.708   0.965  11.355  0.4089  0.5576  0.1940
  608TMC3    C5 9009   3.752   1.089  11.390  0.3240  0.4131  0.1580
  608TMC3    C6 9010   3.724   1.139  11.513 -0.3546  0.3933 -0.2010
  608TMC3     C 9011   3.604   0.754  11.413 -0.2019 -0.9739  0.5305
  608TMC3     O 9012   3.550   0.740  11.304  0.6739 -0.0381  0.1297
  608TMC3     H 9013   3.551   0.873  11.644 -1.7621  0.1856 -1.5047
  608TMC3    H1 9014   3.727   0.918  11.260 -0.9146  1.1367 -0.3546
  608TMC3    H2 9015   3.756   1.238  11.541  0.4377  0.0635  0.0615
  608TMC3    C7 9016   3.855   1.146  11.308  0.4277 -0.0137  0.7761
  608TMC3    C8 9017   3.599   1.120  11.718 -0.3667 -0.7365 -0.3549
  608TMC3    O1 9018   3.875   1.094  11.196  0.3967  0.0181 -0.1629
  608TMC3    O2 9019   3.579   1.243  11.720  0.1855  0.4457 -0.3106
  609TMC3    C1 9020   1.692   0.426   9.077 -0.1865  0.0658 -0.0761
  609TMC3    C2 9021   1.571   0.454   9.027 -0.4394 -0.0555 -0.1304
  609TMC3    C3 9022   1.509   0.357   8.945 -0.3298 -0.0311 -0.4507
  609TMC3    C4 9023   1.756   0.308   9.056  0.2178 -0.1362  0.0471
  609TMC3    C5 9024   1.695   0.214   8.981  0.2646  1.0050 -0.1022
  609TMC3    C6 9025   1.579   0.240   8.912 -0.0269  0.0272  0.1260
  609TMC3     C 9026   1.723   0.499   9.202  0.3022 -0.1399 -0.3246
  609TMC3     O 9027   1.636   0.543   9.274  0.5593 -0.0531  0.0572
  609TMC3     H 9028   1.524   0.551   9.039 -0.1012  0.0968 -0.0381
  609TMC3    H1 9029   1.838   0.279   9.120  0.9236  0.7856 -0.4499
  609TMC3    H2 9030   1.529   0.180   8.836 -0.4282  1.7414 -0.9772
  609TMC3    C7 9031   1.769   0.087   8.963 -0.3999 -0.0892  0.5258
  609TMC3    C8 9032   1.382   0.369   8.882 -0.1642  0.5133  0.4008
  609TMC3    O1 9033   1.881   0.074   9.016 -0.2435  0.5472  0.5781
  609TMC3    O2 9034   1.344   0.284   8.804 -0.1326  0.1347 -0.5633
  610TMC3    C1 9035   3.515   0.727  12.652 -0.9677  0.1568 -0.5786
  610TMC3    C2 9036   3.479   0.822  12.745 -0.6599 -0.2867  0.0671
  610TMC3    C3 9037   3.579   0.865  12.834  0.5282  0.2212 -0.0903
  610TMC3    C4 9038   3.649   0.686  12.632  0.0730  0.0773 -0.3724
  610TMC3    C5 9039   3.733   0.731  12.719 -0.2372  0.5244  0.0281
  610TMC3    C6 9040   3.705   0.827  12.818 -0.2573 -0.3900  0.3210
  610TMC3     C 9041   3.412   0.686  12.556  0.8247 -0.1599  0.4360
  610TMC3     O 9042   3.422   0.579  12.497 -0.1686  1.1777  0.1775
  610TMC3     H 9043   3.379   0.860  12.761 -0.5581  0.2726 -0.6535
  610TMC3    H1 9044   3.665   0.610  12.556 -1.3924  1.5791 -2.1749
  610TMC3    H2 9045   3.789   0.879  12.863  0.1112  1.2985 -2.3466
  610TMC3    C7 9046   3.865   0.675  12.731  0.2768  0.0639  0.5778
  610TMC3    C8 9047   3.543   0.938  12.950 -0.3766  1.2050 -0.4085
  610TMC3    O1 9048   3.927   0.688  12.835 -0.5927  0.1252  0.1462
  610TMC3    O2 9049   3.432   0.987  12.955 -0.1293 -0.0177  0.7069
  611MPD2     C 9050   3.539   0.589  10.269  0.3509 -0.2503 -0.1258
  611MPD2    C1 9051   3.491   0.705  10.215 -0.0220 -0.5442  0.1049
  611MPD2    C2 9052   3.574   0.807  10.170 -0.1066  0.5635 -0.1919
  611MPD2    C3 9053   3.712   0.790  10.180 -0.3264  0.5342 -0.2087
  611MPD2    C4 9054   3.762   0.674  10.239 -0.4627 -0.2152 -0.2053
  611MPD2    C5 9055   3.674   0.575  10.278  0.4684 -0.6890 -0.5531
  611MPD2     H 9056   3.538   0.905  10.141  0.4212  0.9276  0.3746
  611MPD2    H1 9057   3.867   0.650  10.255  0.2442  1.8863 -1.6692
  611MPD2    H2 9058   3.477   0.511  10.311 -0.2552 -0.0945 -0.7491
  611MPD2    H3 9059   3.717   0.484  10.318  0.4905 -0.3647  0.1718
  611MPD2     N 9060   3.786   0.905  10.142 -0.0429  0.0974  0.3489
  611MPD2    H5 9061   3.740   0.972  10.082  0.7130  0.4845  0.1963
  611MPD2    N1 9062   3.354   0.708  10.213 -0.4701  0.4703  0.9188
  611MPD2    H7 9063   3.310   0.633  10.265 -0.3851  0.2779  0.7147
  612TMC3    C1 9064   3.976   1.043  10.099 -0.4671 -0.5154  0.6836
  612TMC3    C2 9065   4.079   1.102  10.164 -0.2266  0.0861 -0.4395
  612TMC3    C3 9066   4.166   1.178  10.088 -0.1178  0.3012  0.0047
  612TMC3    C4 9067   3.946   1.058   9.965  0.3179  0.4077 -0.0129
  612TMC3    C5 9068   4.034   1.136   9.897  0.0298 -0.0925  0.1909
  612TMC3    C6 9069   4.142   1.197   9.955 -0.4655  0.2826  0.2750
  612TMC3     C 9070   3.923   0.927  10.169  0.1727 -0.1111  0.0843
  612TMC3     O 9071   3.991   0.874  10.255 -0.2166  0.1308  0.9292
  612TMC3     H 9072   4.083   1.102  10.273 -2.2243 -2.4714 -0.3612
  612TMC3    H1 9073   3.860   1.007   9.922  1.2469 -1.6741  0.5805
  612TMC3    H2 9074   4.218   1.238   9.890  0.7973 -0.7234  1.1085
  612TMC3    C7 9075   3.990   1.185   9.764 -0.1882  0.0486 -0.1383
  612TMC3    C8 9076   4.285   1.242  10.144 -0.1185  0.4253  0.2348
  612TMC3    O1 9077   3.941   1.103   9.689  0.1957  0.2346  0.4326
  612TMC3    O2 9078   4.351   1.319  10.077 -0.1543  0.1808  0.3103
  613MPD2     C 9079   2.472   3.831  16.565  0.7670  0.3417  0.2526
  613MPD2    C1 9080   2.338   3.812  16.546 -0.1321  0.1560  0.2075
  613MPD2    C2 9081   2.265   3.782  16.654 -0.1650  0.1980  0.8945
  613MPD2    C3 9082   2.322   3.744  16.777  0.1636  0.0908 -0.6466
  613MPD2    C4 9083   2.459   3.757  16.790 -0.5597 -0.6444  0.2483
  613MPD2    C5 9084   2.531   3.812  16.689  0.5964 -0.2767 -0.5321
  613MPD2     H 9085   2.157   3.789  16.650  0.1526  2.9100 -2.9365
  613MPD2    H1 9086   2.513   3.715  16.874  0.5267 -1.1517 -0.7002
  613MPD2    H2 9087   2.539   3.845  16.481  0.7802 -1.1346  0.0102
  613MPD2    H3 9088   2.638   3.826  16.695  0.6218 -0.0328 -1.5809
  613MPD2     N 9089   2.246   3.703  16.893  0.0511 -0.4541 -0.2900
  613MPD2    H5 9090   2.298   3.729  16.976  1.7107 -0.2986 -1.3617
  613MPD2    N1 9091   2.287   3.814  16.413 -0.5730  0.5454  0.0459
  613MPD2    H7 9092   2.348   3.843  16.337 -1.0651  1.1277 -0.1284
  614TMC3    C1 9093   2.141   3.748  16.243 -0.1077 -1.0441  0.0441
  614TMC3    C2 9094   2.245   3.697  16.173  0.3152 -0.4700 -0.1021
  614TMC3    C3 9095   2.213   3.621  16.067 -0.1744  0.1733  0.6608
  614TMC3    C4 9096   2.013   3.721  16.210  0.2728  0.5706  0.8774
  614TMC3    C5 9097   1.987   3.637  16.111  0.2955 -0.3701  0.4809
  614TMC3    C6 9098   2.088   3.594  16.025  0.1246  1.0257  0.0138
  614TMC3     C 9099   2.157   3.787  16.383  0.3453 -0.4627 -0.5064
  614TMC3     O 9100   2.063   3.784  16.455 -0.2861  0.1127  0.1052
  614TMC3     H 9101   2.348   3.702  16.206  0.2735  1.5386 -0.2447
  614TMC3    H1 9102   1.934   3.764  16.270 -0.2055 -1.6232  1.8276
  614TMC3    H2 9103   2.073   3.527  15.941  0.3576  2.2575 -0.9992
  614TMC3    C7 9104   1.865   3.559  16.142  0.4870  0.6139 -0.2415
  614TMC3    C8 9105   2.327   3.546  16.020  0.1046 -0.2552  0.7392
  614TMC3    O1 9106   1.807   3.590  16.243 -0.2491 -0.1146 -0.4888
  614TMC3    O2 9107   2.426   3.611  15.976 -0.1308 -0.6151  0.8343
  615MPD2     C 9108   0.923   4.237  16.176  0.6813 -0.4698 -0.5883
  615MPD2    C1 9109   1.005   4.229  16.071 -0.7246 -0.5650 -0.5222
  615MPD2    C2 9110   0.968   4.173  15.949 -0.4740 -0.6961 -0.8718
  615MPD2    C3 9111   0.838   4.126  15.937 -0.5114 -0.1901  0.3624
  615MPD2    C4 9112   0.750   4.129  16.044 -0.0714 -0.3871  0.9874
  615MPD2    C5 9113   0.791   4.189  16.167 -0.6017 -0.2870 -0.7413
  615MPD2     H 9114   1.039   4.169  15.867  3.1425  1.1809  2.1673
  615MPD2    H1 9115   0.648   4.093  16.052 -0.3606  0.3080  0.5094
  615MPD2    H2 9116   0.958   4.277  16.271  1.1446  0.2045 -1.0426
  615MPD2    H3 9117   0.723   4.186  16.251 -0.3721 -3.2677 -0.6542
  615MPD2     N 9118   0.803   4.080  15.809  0.2092  0.7698 -0.1504
  615MPD2    H5 9119   0.887   4.052  15.759 -1.3539 -3.8394 -0.2175
  615MPD2    N1 9120   1.137   4.275  16.089 -0.0648  0.0531  0.3953
  615MPD2    H7 9121   1.205   4.239  16.022 -0.6985 -1.8807  0.7971
  616TMC3    C1 9122   1.341   4.344  16.182 -0.1788 -0.3337  0.0963
  616TMC3    C2 9123   1.407   4.366  16.291 -0.1882 -0.7421  0.1903
  616TMC3    C3 9124   1.537   4.387  16.279 -0.0649 -0.1298  0.0815
  616TMC3    C4 9125   1.385   4.360  16.059 -0.3034  0.5694  0.8810
  616TMC3    C5 9126   1.507   4.426  16.053 -0.1107  0.9205  0.0775
  616TMC3    C6 9127   1.595   4.418  16.159  0.7411 -0.1502 -0.0587
  616TMC3     C 9128   1.196   4.330  16.203 -0.3018  0.7994 -0.5890
  616TMC3     O 9129   1.154   4.373  16.309 -0.3611 -0.1682  0.3453
  616TMC3     H 9130   1.368   4.353  16.392  1.5866  0.0792  0.9887
  616TMC3    H1 9131   1.312   4.368  15.979  0.3720  1.2790  0.3375
  616TMC3    H2 9132   1.702   4.414  16.146  0.8660  2.7579 -0.0644
  616TMC3    C7 9133   1.551   4.450  15.920 -0.1133  0.1408  0.5641
  616TMC3    C8 9134   1.612   4.389  16.407 -0.4647 -0.5835 -1.0362
  616TMC3    O1 9135   1.479   4.399  15.832 -0.3052 -0.0701 -0.1330
  616TMC3    O2 9136   1.560   4.334  16.500 -0.1364  0.0459 -0.3091
  617MPD2     C 9137   4.472   2.934  13.616 -0.3252 -0.3766 -0.3381
  617MPD2    C1 9138   4.512   2.895  13.746  0.9739  0.1042  0.7778
  617MPD2    C2 9139   4.409   2.873  13.838 -0.6750 -0.0429  0.0346
  617MPD2    C3 9140   4.279   2.908  13.799 -0.0359 -0.2379  0.2633
  617MPD2    C4 9141   4.248   2.960  13.673  0.5049  0.0588  0.1184
  617MPD2    C5 9142   4.343   2.969  13.577  0.3504 -0.1596 -0.5073
  617MPD2     H 9143   4.423   2.834  13.939 -0.1600  3.8443  1.4803
  617MPD2    H1 9144   4.146   2.986  13.645  0.5216 -1.0956 -1.0142
  617MPD2    H2 9145   4.553   2.956  13.548 -1.6595 -0.8995 -2.0797
  617MPD2    H3 9146   4.327   2.992  13.473  2.8697 -1.0946 -1.1044
  617MPD2     N 9147   4.172   2.887  13.887  0.5111 -0.1194 -0.8567
  617MPD2    H5 9148   4.083   2.901  13.839  0.1661  2.6644  0.5782
  617MPD2    N1 9149   4.645   2.852  13.769 -0.2099 -0.7870 -0.2138
  617MPD2    H7 9150   4.708   2.848  13.690 -0.7260  1.1295 -0.7286
  618TMC3    C1 9151   0.095   2.732  13.862  0.5550  0.7675 -0.5706
  618TMC3    C2 9152   0.072   2.633  13.775 -0.2443 -0.2369 -0.2662
  618TMC3    C3 9153   0.182   2.590  13.700 -0.2578 -0.2069  0.1357
  618TMC3    C4 9154   0.210   2.788  13.881 -0.1401 -0.2643 -0.1092
  618TMC3    C5 9155   0.312   2.749  13.802  0.3300  0.7748  0.6606
  618TMC3    C6 9156   0.302   2.645  13.717 -0.3231  0.1017  0.5439
  618TMC3     C 9157   4.700   2.816  13.886 -0.2931 -0.2620 -0.6327
  618TMC3     O 9158   4.670   2.848  14.004 -0.2677 -0.4640 -0.0562
  618TMC3     H 9159   4.696   2.581  13.779  0.0887 -0.7896  0.4730
  618TMC3    H1 9160   0.227   2.858  13.961 -0.1290 -0.7983  0.3594
  618TMC3    H2 9161   0.384   2.619  13.651 -0.4493 -1.3678  0.9619
  618TMC3    C7 9162   0.441   2.805  13.846  0.7126  0.0218  0.3414
  618TMC3    C8 9163   0.159   2.512  13.581  0.3163  0.1376 -0.6704
  618TMC3    O1 9164   0.471   2.787  13.963  0.4716 -0.0083  0.5369
  618TMC3    O2 9165   0.054   2.450  13.587  0.2817  0.1207 -0.5882
  619MPD2     C 9166   1.245   4.045  13.765  0.2606  0.1529 -0.1759
  619MPD2    C1 9167   1.140   4.079  13.684 -0.9760 -0.1739  0.5034
  619MPD2    C2 9168   1.013   4.056  13.739  0.0578  0.2807 -0.4536
  619MPD2    C3 9169   0.991   4.002  13.864 -0.4019  0.0911  0.2868
  619MPD2    C4 9170   1.101   3.960  13.930  0.2668 -0.1634 -0.8377
  619MPD2    C5 9171   1.230   3.982  13.883 -0.2314  0.6123 -0.0914
  619MPD2     H 9172   0.926   4.096  13.688 -0.3528  0.5465  0.4384
  619MPD2    H1 9173   1.099   3.906  14.024 -1.1995  2.2401  0.4846
  619MPD2    H2 9174   1.350   4.059  13.741  0.7778 -3.2694  0.0314
  619MPD2    H3 9175   1.317   3.954  13.941 -1.2109 -0.9561  0.6099
  619MPD2     N 9176   0.866   4.005  13.925 -0.9560 -0.2210  0.0315
  619MPD2    H5 9177   0.881   3.992  14.025  1.2873 -0.7045 -0.3821
  619MPD2    N1 9178   1.150   4.146  13.564  0.0527  0.0352 -0.0322
  619MPD2    H7 9179   1.066   4.170  13.511 -0.3890 -0.8182  0.2929
  620TMC3    C1 9180   1.261   4.255  13.385 -0.0873  0.3192 -0.1009
  620TMC3    C2 9181   1.145   4.251  13.306 -0.1674 -0.1498 -0.2235
  620TMC3    C3 9182   1.125   4.350  13.209 -0.2659  0.0219 -0.3382
  620TMC3    C4 9183   1.352   4.359  13.381 -1.1365 -0.2371  0.3699
  620TMC3    C5 9184   1.315   4.458  13.298 -0.4567  0.0470 -0.0493
  620TMC3    C6 9185   1.207   4.450  13.213 -0.1223  0.2655  0.5845
  620TMC3     C 9186   1.267   4.180  13.504 -0.2291 -0.3981  0.0342
  620TMC3     O 9187   1.383   4.172  13.552  0.2843 -0.7344  0.6879
  620TMC3     H 9188   1.068   4.176  13.315  2.3394 -2.9962 -2.4686
  620TMC3    H1 9189   1.429   4.364  13.457 -1.3471 -2.0838  0.7147
  620TMC3    H2 9190   1.207   4.530  13.139 -1.0305 -1.5566 -1.3949
  620TMC3    C7 9191   1.411   4.559  13.279 -0.4492 -0.0097  0.9192
  620TMC3    C8 9192   0.994   4.372  13.149  0.0528 -0.0688 -0.6813
  620TMC3    O1 9193   1.531   4.542  13.307  0.2154  0.3174  0.4230
  620TMC3    O2 9194   0.950   4.484  13.120 -0.4991 -0.4321  0.2193
  621MPD2     C 9195   1.459   4.437   9.541 -0.3675  0.0189 -0.1399
  621MPD2    C1 9196   1.528   4.317   9.568  0.4030 -0.0779 -0.1137
  621MPD2    C2 9197   1.657   4.329   9.617  0.3601 -0.4657  0.5001
  621MPD2    C3 9198   1.717   4.461   9.648 -0.0035 -0.2055  0.2558
  621MPD2    C4 9199   1.635   4.568   9.626 -0.3060 -0.5960 -0.4485
  621MPD2    C5 9200   1.512   4.559   9.574  0.2526  1.1590  0.0530
  621MPD2     H 9201   1.717   4.240   9.628  1.6697  0.2056 -1.2285
  621MPD2    H1 9202   1.667   4.668   9.651 -1.1324 -0.4921  0.1857
  621MPD2    H2 9203   1.370   4.441   9.480 -2.0523 -0.2858  2.2738
  621MPD2    H3 9204   1.457   4.647   9.545 -0.2922  1.0687  0.8311
  621MPD2     N 9205   1.854   4.467   9.675 -0.2196  0.4364  0.4332
  621MPD2    H5 9206   1.919   4.389   9.667  1.6837  1.8355  2.4565
  621MPD2    N1 9207   1.485   4.183   9.530  0.1376  0.1510 -0.1215
  621MPD2    H7 9208   1.536   4.103   9.566 -2.6454 -0.9724  1.3492
  622TMC3    C1 9209   1.341   4.019   9.451 -0.2027 -0.5380 -0.0254
  622TMC3    C2 9210   1.341   3.956   9.571  0.6187 -0.4845 -0.8432
  622TMC3    C3 9211   1.262   3.840   9.578  0.0810 -0.2678  0.0099
  622TMC3    C4 9212   1.264   3.982   9.342  0.4240 -0.2125 -0.6649
  622TMC3    C5 9213   1.191   3.867   9.350 -0.0344  0.0798  0.5879
  622TMC3    C6 9214   1.194   3.794   9.469 -0.9492 -0.0306  0.5599
  622TMC3     C 9215   1.376   4.156   9.457  0.0137  0.4965  0.8439
  622TMC3     O 9216   1.317   4.237   9.386 -0.0494  0.2403  0.6355
  622TMC3     H 9217   1.404   3.994   9.650 -1.5449 -1.8024  1.5030
  622TMC3    H1 9218   1.267   4.039   9.250  0.6377 -0.9537 -1.1108
  622TMC3    H2 9219   1.125   3.712   9.486 -0.4977 -0.2348  1.4284
  622TMC3    C7 9220   1.107   3.823   9.244 -0.4608 -0.5311 -0.5192
  622TMC3    C8 9221   1.274   3.749   9.692 -0.6925  0.0285 -0.5450
  622TMC3    O1 9222   1.056   3.715   9.267 -0.0635  0.2559  0.0248
  622TMC3    O2 9223   1.230   3.634   9.677  0.7197  0.3416  0.1104
  623MPD2     C 9224   4.367   4.239  16.046 -0.1964 -0.0823  0.4742
  623MPD2    C1 9225   4.356   4.377  16.044 -0.3263  0.1747 -0.1464
  623MPD2    C2 9226   4.444   4.442  16.130 -0.5659 -0.4317 -0.2705
  623MPD2    C3 9227   4.536   4.381  16.208 -0.0411  0.5932  0.6834
  623MPD2    C4 9228   4.550   4.243  16.204 -0.3655  0.5529 -0.7593
  623MPD2    C5 9229   4.456   4.173  16.129 -0.5332 -0.0440  0.0938
  623MPD2     H 9230   4.448   4.549  16.140  1.5817 -0.5855  0.5469
  623MPD2    H1 9231   4.614   4.187  16.271 -1.1786  0.4182 -0.0965
  623MPD2    H2 9232   4.299   4.181  15.985  0.2292  2.1558 -2.1471
  623MPD2    H3 9233   4.464   4.065  16.133  1.6642  0.0499 -1.7405
  623MPD2     N 9234   4.629   4.461  16.279  0.1763 -0.4177 -0.4974
  623MPD2    H5 9235   4.611   4.561  16.281 -0.1187 -0.4447 -1.7748
  623MPD2    N1 9236   4.267   4.438  15.961  0.1538  0.0092  0.1270
  623MPD2    H7 9237   4.223   4.374  15.896  0.3020 -2.1916  2.1822
  624TMC3    C1 9238   0.247   4.617  16.564 -0.5970  0.0020 -0.0472
  624TMC3    C2 9239   0.162   4.714  16.618  0.3781 -0.6846  0.8763
  624TMC3    C3 9240   0.032   4.712  16.569  0.0345  0.2213  0.5838
  624TMC3    C4 9241   0.203   4.532  16.469  0.0723 -0.5436  0.4885
  624TMC3    C5 9242   0.075   4.529  16.437 -0.2460  0.2336 -0.0699
  624TMC3    C6 9243   4.707   4.625  16.472 -0.3690  0.2126 -0.0144
  624TMC3     C 9244   0.384   4.624  16.607  0.5476 -0.0162  0.4321
  624TMC3     O 9245   0.395   4.672  16.721 -0.1229 -0.2370  0.5600
  624TMC3     H 9246   0.191   0.080  16.679 -0.3859  0.4542 -0.3639
  624TMC3    H1 9247   0.264   4.447  16.441  0.2218  0.7266 -2.9774
  624TMC3    H2 9248   4.601   4.602  16.477  0.3540 -3.1818 -0.2681
  624TMC3    C7 9249   0.024   4.423  16.350 -0.3279 -0.5533 -0.1864
  624TMC3    C8 9250   4.669   0.112  16.598 -0.3521  0.0300 -0.6514
  624TMC3    O1 9251   0.079   4.310  16.354  0.2190 -0.2665 -0.1303
  624TMC3    O2 9252   4.691   0.177  16.699  0.9558 -0.0538 -0.1853
  625MPD2     C 9253   0.208   1.892   0.717  0.5713  0.3108 -0.1692
  625MPD2    C1 9254   0.136   2.005   0.705  0.2537 -0.2237 -0.1973
  625MPD2    C2 9255   0.151   2.100   0.805 -0.5362  0.0915  0.4725
  625MPD2    C3 9256   0.249   2.080   0.906 -0.2725 -0.8346  0.5005
  625MPD2    C4 9257   0.318   1.961   0.909 -0.0942  0.2232  0.1996
  625MPD2    C5 9258   0.290   1.863   0.826 -0.3175 -0.1305  0.4017
  625MPD2     H 9259   0.099   2.195   0.810 -0.7939 -0.1094  1.7401
  625MPD2    H1 9260   0.393   1.935   0.983 -1.2771 -0.8934  1.0109
  625MPD2    H2 9261   0.201   1.804   0.655 -2.2003  0.1575  0.3717
  625MPD2    H3 9262   0.333   1.765   0.838  0.8299  0.3254 -0.0496
  625MPD2     N 9263   0.248   2.180   1.005  0.1465  0.2771 -0.4476
  625MPD2    H5 9264   0.199   2.264   0.974 -2.8050 -1.3399 -0.1918
  625MPD2    N1 9265   0.032   2.031   0.606 -0.0883  0.1705 -0.4760
  625MPD2    H7 9266   4.696   2.114   0.624 -0.9097  0.2148 -3.1522
  626TMC3    C1 9267   4.615   1.993   0.415  0.0472  0.4430 -0.3436
  626TMC3    C2 9268   4.610   1.955   0.284  0.3462  0.4343 -0.0227
  626TMC3    C3 9269   4.487   1.938   0.224  0.5059  0.6720  0.2484
  626TMC3    C4 9270   4.503   1.998   0.491 -0.1355 -0.8426  0.7245
  626TMC3    C5 9271   4.379   1.990   0.431 -0.4221 -0.1227 -0.0001
  626TMC3    C6 9272   4.369   1.956   0.295 -0.7357 -0.2304 -0.4523
  626TMC3     C 9273   0.021   1.968   0.484  0.3685  0.4268  0.1619
  626TMC3     O 9274   0.083   1.873   0.439 -0.6701  0.2815  0.7297
  626TMC3     H 9275   4.700   1.955   0.225  1.5859  0.3729  1.8694
  626TMC3    H1 9276   4.511   2.011   0.598  3.3034  0.7434  0.2854
  626TMC3    H2 9277   4.274   1.957   0.243 -0.1589  1.0845 -1.4991
  626TMC3    C7 9278   4.260   2.003   0.517 -1.1174 -0.1615 -0.4870
  626TMC3    C8 9279   4.478   1.888   0.086  0.0706  0.8426  0.2124
  626TMC3    O1 9280   4.281   2.072   0.615 -0.6420  0.4255  0.5099
  626TMC3    O2 9281   4.584   1.892   0.024 -0.6165 -0.2275 -0.3044
  627MPD2     C 9282   3.770   1.536  14.382  0.2653 -0.0005  0.5521
  627MPD2    C1 9283   3.880   1.500  14.465  0.2713  0.1232  0.4942
  627MPD2    C2 9284   3.934   1.374  14.454 -0.1797 -0.0643 -0.2413
  627MPD2    C3 9285   3.876   1.278  14.382 -0.4889  0.2221 -0.2123
  627MPD2    C4 9286   3.755   1.300  14.325  0.1868 -0.0392  0.6607
  627MPD2    C5 9287   3.710   1.426  14.318 -0.4451 -0.0745  0.1233
  627MPD2     H 9288   4.020   1.356  14.517  1.9326 -0.5055 -3.2588
  627MPD2    H1 9289   3.699   1.223  14.273  0.8353  1.4343 -2.2370
  627MPD2    H2 9290   3.742   1.640  14.376 -4.2975 -1.3556 -1.4486
  627MPD2    H3 9291   3.619   1.438  14.260 -0.2355 -0.0466 -0.1994
  627MPD2     N 9292   3.912   1.142  14.409  0.5844  0.3145  0.1327
  627MPD2    H5 9293   3.976   1.134  14.487  1.5585 -0.4527 -0.7369
  627MPD2    N1 9294   3.960   1.586  14.542  0.1607 -0.3803  0.1205
  627MPD2    H7 9295   4.038   1.546  14.593 -0.0594 -1.5111 -0.4167
  628TMC3    C1 9296   4.050   1.794  14.606  0.3112  0.5864 -0.2883
  628TMC3    C2 9297   4.170   1.734  14.612 -0.3977 -0.6336  0.3938
  628TMC3    C3 9298   4.277   1.805  14.666 -0.6399 -0.7990  0.1983
  628TMC3    C4 9299   4.034   1.920  14.656 -0.1438 -0.5061  0.3982
  628TMC3    C5 9300   4.140   1.985  14.721 -0.2894 -0.0337  0.2031
  628TMC3    C6 9301   4.263   1.922  14.730  0.4747  0.1659  0.1266
  628TMC3     C 9302   3.943   1.720  14.552  0.0786  0.0180  0.5327
  628TMC3     O 9303   3.833   1.776  14.544 -0.4616  0.2274 -0.4501
  628TMC3     H 9304   4.197   1.651  14.547 -0.0359  0.5543 -0.9737
  628TMC3    H1 9305   3.933   1.958  14.655  0.9502  2.2522 -4.0755
  628TMC3    H2 9306   4.352   1.978  14.758  1.8368 -1.0886 -1.7165
  628TMC3    C7 9307   4.130   2.124  14.757 -0.0508 -0.3158 -0.0379
  628TMC3    C8 9308   4.410   1.762  14.635 -0.1159 -0.6152  0.0086
  628TMC3    O1 9309   4.185   2.146  14.863  0.1196  0.2869  0.0199
  628TMC3    O2 9310   4.451   1.805  14.529 -0.7898 -0.1313  0.2319
  629MPD2     C 9311   1.990   4.573  16.693  0.0871  0.1791 -0.8371
  629MPD2    C1 9312   2.016   4.608  16.560 -0.6144 -0.0688  0.5115
  629MPD2    C2 9313   1.930   4.576  16.455 -0.4337 -0.0165  0.0732
  629MPD2    C3 9314   1.811   4.512  16.494 -0.0306  0.0976 -0.3198
  629MPD2    C4 9315   1.788   4.483  16.629  0.0430  0.2662  0.2837
  629MPD2    C5 9316   1.876   4.514  16.730 -0.4295 -0.6114 -0.4503
  629MPD2     H 9317   1.966   4.593  16.355  0.0799  0.7621  0.3906
  629MPD2    H1 9318   1.691   4.442  16.653 -0.2111  0.5869 -0.2103
  629MPD2    H2 9319   2.059   4.610  16.767  2.4446  0.0163 -2.9679
  629MPD2    H3 9320   1.851   4.494  16.833 -0.1688  1.9823  0.1195
  629MPD2     N 9321   1.730   4.459  16.392 -0.1943  0.2629  0.3845
  629MPD2    H5 9322   1.757   4.492  16.299  1.8946 -0.0542  0.8655
  629MPD2    N1 9323   2.121   4.694  16.548  0.5056  0.8650 -0.6394
  629MPD2    H7 9324   2.175   4.711  16.631  0.6056 -1.0424 -0.3051
  630TMC3    C1 9325   2.287   0.123  16.451  0.2849  0.8909  0.3476
  630TMC3    C2 9326   2.298   0.229  16.363  0.6675  0.5620 -0.2994
  630TMC3    C3 9327   2.375   0.333  16.408 -0.0296  0.1658 -0.8017
  630TMC3    C4 9328   2.345   0.123  16.575  0.2703  0.2945 -0.1139
  630TMC3    C5 9329   2.432   0.221  16.610 -0.4195  0.0268  0.0435
  630TMC3    C6 9330   2.434   0.331  16.538  0.0780  0.0023 -0.2138
  630TMC3     C 9331   2.166   0.039  16.435  0.7208 -0.3303 -0.2035
  630TMC3     O 9332   2.115   0.040  16.324  0.0795  0.1938  0.2430
  630TMC3     H 9333   2.251   0.231  16.265 -0.4005  1.2689  0.2266
  630TMC3    H1 9334   2.349   0.035  16.639 -1.4223 -0.5229 -1.1444
  630TMC3    H2 9335   2.507   0.410  16.550 -0.0710  0.7087 -3.9758
  630TMC3    C7 9336   2.483   0.218  16.751  0.4436  0.0416  0.1540
  630TMC3    C8 9337   2.417   0.449  16.335  0.4279 -0.3620 -0.4051
  630TMC3    O1 9338   2.464   0.113  16.815  0.1404  0.1132 -0.6070
  630TMC3    O2 9339   2.475   0.541  16.395  0.7273 -0.7831 -0.0828
  631MPD2     C 9340   0.058   4.478  15.417  0.6661 -0.2675 -0.0976
  631MPD2    C1 9341   0.122   4.453  15.303 -0.9940 -0.2734 -0.6716
  631MPD2    C2 9342   0.196   4.340  15.287 -0.5843 -0.2491 -0.5740
  631MPD2    C3 9343   0.209   4.261  15.395  0.1952 -0.0155 -0.4130
  631MPD2    C4 9344   0.142   4.278  15.517  0.4715  0.3251  0.2850
  631MPD2    C5 9345   0.068   4.396  15.526  1.1177  0.1965  0.0020
  631MPD2     H 9346   0.245   4.322  15.191 -1.6470  1.0426 -1.3614
  631MPD2    H1 9347   0.143   4.205  15.597  0.1263 -0.9516 -0.8903
  631MPD2    H2 9348   4.713   4.564  15.425  1.1253 -0.1240  2.0536
  631MPD2    H3 9349   0.004   4.416  15.611  0.0175 -0.5380 -0.6584
  631MPD2     N 9350   0.291   4.146  15.380  0.5504  0.5464  0.7069
  631MPD2    H5 9351   0.338   4.130  15.292  0.9233  1.9252  0.6471
  631MPD2    N1 9352   0.105   4.545  15.199 -0.2661  0.4018 -1.0584
  631MPD2    H7 9353   0.042   4.621  15.224  0.2787  1.1480 -1.9234
  632TMC3    C1 9354   0.124   4.667  14.998 -0.3081 -0.4921 -0.0419
  632TMC3    C2 9355   0.067   0.056  15.061  0.8050  0.2890  0.1229
  632TMC3    C3 9356   0.037   0.168  14.981 -0.1865  0.7218  0.2721
  632TMC3    C4 9357   0.148   4.663  14.862  0.0251 -0.2828 -0.8434
  632TMC3    C5 9358   0.115   0.055  14.785  0.0752  1.1404 -0.2516
  632TMC3    C6 9359   0.063   0.168  14.846 -0.4787 -0.1289 -0.2169
  632TMC3     C 9360   0.162   4.547  15.075  0.0692 -0.3028 -0.4207
  632TMC3     O 9361   0.246   4.469  15.026  0.1550  0.1400 -0.1677
  632TMC3     H 9362   0.053   0.066  15.168  1.2586 -0.5054  0.2551
  632TMC3    H1 9363   0.198   4.576  14.820 -0.0332 -0.0155 -1.4597
  632TMC3    H2 9364   0.045   0.253  14.782  2.6786 -0.0670 -0.9912
  632TMC3    C7 9365   0.177   0.064  14.654  0.6885 -0.1456  0.3403
  632TMC3    C8 9366   0.028   0.292  15.051  0.0655  0.3798  0.2669
  632TMC3    O1 9367   0.217   0.173  14.625 -0.3084  0.1083  0.3113
  632TMC3    O2 9368   4.686   0.283  15.157 -0.0369 -0.5293 -0.1410
  633MPD2     C 9369   0.526   2.546  17.596 -0.3264 -0.3752  0.3770
  633MPD2    C1 9370   0.617   2.531  17.491 -0.7026  0.4922 -0.0699
  633MPD2    C2 9371   0.726   2.449  17.508 -0.3363 -0.2426 -0.0691
  633MPD2    C3 9372   0.750   2.383  17.628 -0.8193 -0.0361  0.0595
  633MPD2    C4 9373   0.664   2.407   0.053  0.1178  0.1734 -0.0723
  633MPD2    C5 9374   0.555   2.488   0.039 -0.3363 -0.4980  0.1305
  633MPD2     H 9375   0.795   2.436  17.426 -1.3634 -0.5935 -0.8736
  633MPD2    H1 9376   0.673   2.357   0.149 -0.3776 -0.0992 -0.1665
  633MPD2    H2 9377   0.439   2.609  17.584  0.1010  0.4596  1.6470
  633MPD2    H3 9378   0.494   2.507   0.127  1.0972 -0.1532  1.0569
  633MPD2     N 9379   0.855   2.289  17.644  0.0425  0.2099  0.0107
  633MPD2    H5 9380   0.857   2.236   0.050 -1.0089  0.4639  0.1913
  633MPD2    N1 9381   0.593   2.587  17.363 -0.2349 -0.8350  0.2628
  633MPD2    H7 9382   0.660   2.567  17.289 -1.0552 -1.6024 -0.2644
  634TMC3    C1 9383   0.469   2.674  17.183 -0.1146  0.3383 -0.4532
  634TMC3    C2 9384   0.493   2.556  17.127  0.7077  0.0900  0.1945
  634TMC3    C3 9385   0.456   2.543  16.998 -0.3832 -0.1761  0.5350
  634TMC3    C4 9386   0.400   2.781  17.126 -0.2390  0.1351 -0.6377
  634TMC3    C5 9387   0.359   2.755  16.989 -0.0244 -0.0231  0.8042
  634TMC3    C6 9388   0.399   2.644  16.923  0.2240  0.5426 -0.0761
  634TMC3     C 9389   0.501   2.682  17.323 -0.1850  0.1345  0.0259
  634TMC3     O 9390   0.430   2.752  17.395  0.3612 -0.5736  0.3167
  634TMC3     H 9391   0.544   2.477  17.180  1.1739 -0.5712 -1.2682
  634TMC3    H1 9392   0.378   2.872  17.180 -2.9547 -0.0963 -1.3787
  634TMC3    H2 9393   0.375   2.636  16.818  0.6712 -0.7504 -0.0902
  634TMC3    C7 9394   0.320   2.875  16.917 -0.7327  0.0305  0.0432
  634TMC3    C8 9395   0.491   2.411  16.944  0.2508  0.1437 -0.2752
  634TMC3    O1 9396   0.339   2.875  16.795 -0.0418 -0.2321  0.3372
  634TMC3    O2 9397   0.575   2.340  16.999  0.8564  0.2868 -0.1219
  635TMC3    C1 9398   0.098   3.838   0.460 -0.5380  0.7863 -0.0083
  635TMC3    C2 9399   0.145   3.774   0.352  0.1114  0.1337 -0.4310
  635TMC3    C3 9400   0.146   3.640   0.356 -0.5353  0.4143  1.0146
  635TMC3    C4 9401   0.042   3.770   0.565 -0.3027 -0.3510 -0.1734
  635TMC3    C5 9402   0.051   3.637   0.568  0.6684 -0.3284 -0.6568
  635TMC3    C6 9403   0.106   3.568   0.463 -0.1117 -0.0745 -0.5225
  635TMC3     C 9404   0.096   3.982   0.474 -0.1625  0.4690  0.2974
  635TMC3     O 9405   0.093   4.033   0.586 -0.4391  0.1811  0.0711
  635TMC3     H 9406   0.209   3.818   0.276  1.4655  3.5041  2.6521
  635TMC3    H1 9407   4.705   3.816   0.645 -4.0674  0.3988 -3.1950
  635TMC3    H2 9408   0.107   3.460   0.466  0.5185  0.0091  2.5928
  635TMC3    C7 9409   4.679   3.574   0.659 -0.6633  0.1771 -0.2811
  635TMC3    C8 9410   0.198   3.564   0.238 -0.1227  0.0974 -0.5873
  635TMC3    O1 9411   4.567   3.622   0.668 -0.6367  0.1089  0.4976
  635TMC3    O2 9412   0.213   3.446   0.267 -0.1955 -0.1460 -0.7917
  636MPD2     C 9413   1.288   3.525  16.431 -0.2308  0.4320  1.2278
  636MPD2    C1 9414   1.367   3.578  16.332  0.2783  0.2372 -0.3586
  636MPD2    C2 9415   1.496   3.623  16.361  0.7200 -0.0013 -0.4501
  636MPD2    C3 9416   1.535   3.617  16.491 -0.6280 -0.1128  0.1981
  636MPD2    C4 9417   1.455   3.557  16.592 -0.8325 -0.4587  0.5068
  636MPD2    C5 9418   1.331   3.514  16.562 -0.5125  0.2569  0.1357
  636MPD2     H 9419   1.570   3.658  16.289  1.2076  1.9396  1.0009
  636MPD2    H1 9420   1.491   3.541  16.693  2.4807 -2.9770 -1.0524
  636MPD2    H2 9421   1.187   3.490  16.412 -0.1499  0.4991  0.6874
  636MPD2    H3 9422   1.274   3.459  16.636 -1.4821  2.5701  1.1088
  636MPD2     N 9423   1.670   3.657  16.511 -0.9551  0.0972  0.0337
  636MPD2    H5 9424   1.725   3.647  16.427 -1.0940 -0.8265  0.0522
  636MPD2    N1 9425   1.320   3.597  16.197  0.2389 -0.4416 -0.3132
  636MPD2    H7 9426   1.390   3.633  16.134  1.4890  0.4040  1.5474
  637TMC3    C1 9427   1.860   3.636  16.650 -0.2190 -0.0888 -0.4680
  637TMC3    C2 9428   1.927   3.682  16.757 -0.6995  0.0666  0.0552
  637TMC3    C3 9429   2.045   3.625  16.784 -0.4453  0.6712 -0.1489
  637TMC3    C4 9430   1.907   3.533  16.569  0.2346  0.4580 -0.6447
  637TMC3    C5 9431   2.032   3.486  16.596 -0.5740 -0.4010 -0.3408
  637TMC3    C6 9432   2.103   3.529  16.705 -0.0137 -0.1984  0.6917
  637TMC3     C 9433   1.722   3.675  16.637 -0.2828 -0.4231  0.9176
  637TMC3     O 9434   1.661   3.724  16.734 -0.0674  0.2073 -1.1625
  637TMC3     H 9435   1.888   3.759  16.823  0.5588  0.5549  0.2383
  637TMC3    H1 9436   1.849   3.489  16.489 -1.6286 -0.9419  1.4731
  637TMC3    H2 9437   2.205   3.499  16.726  0.4342  2.5710  2.5651
  637TMC3    C7 9438   2.109   3.426  16.487 -0.3814  0.6544  0.3137
  637TMC3    C8 9439   2.114   3.669  16.902 -0.3471 -0.4125  0.4590
  637TMC3    O1 9440   2.227   3.447  16.484  0.1601  0.4601 -0.7077
  637TMC3    O2 9441   2.047   3.683  17.004  0.1442  0.7469  0.0143
  638MPD2     C 9442   1.215   2.067  14.912  0.1253  0.3013  0.2573
  638MPD2    C1 9443   1.202   2.015  14.788  0.3484 -0.1002  0.4544
  638MPD2    C2 9444   1.193   1.877  14.770  0.2180  0.1104 -0.2473
  638MPD2    C3 9445   1.204   1.791  14.878 -0.8442 -0.0711  0.4638
  638MPD2    C4 9446   1.205   1.850  15.002 -0.2653  0.3237  0.2449
  638MPD2    C5 9447   1.206   1.986  15.021 -0.1907 -0.3120 -0.3058
  638MPD2     H 9448   1.197   1.839  14.668  0.1270  1.1630 -0.6458
  638MPD2    H1 9449   1.216   1.792  15.093 -0.1112  0.2055  0.1506
  638MPD2    H2 9450   1.211   2.173  14.933 -3.8737  0.4289 -1.1388
  638MPD2    H3 9451   1.227   2.027  15.119 -1.7258 -1.5684  0.5555
  638MPD2     N 9452   1.212   1.647  14.882  0.2634  0.5745  0.2876
  638MPD2    H5 9453   1.217   1.609  14.976  0.2017  1.1750  0.5285
  638MPD2    N1 9454   1.210   2.102  14.682  0.0575  0.2734 -0.3049
  638MPD2    H7 9455   1.213   2.201  14.703 -1.6739  0.3077 -0.1833
  639TMC3    C1 9456   1.178   1.438  14.786 -0.5585 -0.2310  0.1625
  639TMC3    C2 9457   1.122   1.370  14.683 -0.7993  0.0175  0.0486
  639TMC3    C3 9458   1.085   1.238  14.700  0.4527  0.0375  0.1508
  639TMC3    C4 9459   1.228   1.375  14.903  1.5350  0.2454 -0.4151
  639TMC3    C5 9460   1.209   1.236  14.895  0.0461  1.0410 -0.6197
  639TMC3    C6 9461   1.127   1.172  14.807 -0.8520  0.0521 -0.5182
  639TMC3     C 9462   1.199   1.577  14.767  0.1648 -0.6841 -0.3001
  639TMC3     O 9463   1.184   1.613  14.652 -0.8189 -0.2177  0.3378
  639TMC3     H 9464   1.088   1.423  14.595 -1.2300  0.1228  0.2752
  639TMC3    H1 9465   1.291   1.424  14.975  0.3971  0.7810  0.2143
  639TMC3    H2 9466   1.111   1.067  14.827  0.5163  0.1457  1.1009
  639TMC3    C7 9467   1.324   1.160  14.921  0.3905 -0.4193  0.4014
  639TMC3    C8 9468   0.999   1.177  14.605  0.1116  0.0540 -0.2364
  639TMC3    O1 9469   1.312   1.055  14.979 -0.2494 -0.2848 -0.6013
  639TMC3    O2 9470   1.023   1.192  14.488 -0.2173  0.1020 -0.4651
  640MPD2     C 9471   2.595   0.839   9.715  0.6694  0.3205 -0.6281
  640MPD2    C1 9472   2.552   0.777   9.602 -0.7713 -0.0414 -0.3083
  640MPD2    C2 9473   2.434   0.816   9.540 -0.2920 -0.5329  0.0928
  640MPD2    C3 9474   2.354   0.905   9.607  0.5525 -1.5243  0.3902
  640MPD2    C4 9475   2.398   0.970   9.722  0.2826 -0.1653 -0.5072
  640MPD2    C5 9476   2.520   0.933   9.769 -0.2495 -0.7747 -0.1281
  640MPD2     H 9477   2.403   0.764   9.450 -0.3740 -0.9405  0.3549
  640MPD2    H1 9478   2.339   1.045   9.772 -1.2409 -0.3836 -1.9935
  640MPD2    H2 9479   2.691   0.821   9.763  0.9383  2.8582 -0.2469
  640MPD2    H3 9480   2.559   0.990   9.852 -1.8077  1.4339 -0.8945
  640MPD2     N 9481   2.225   0.944   9.553 -0.0295  0.1986 -0.2074
  640MPD2    H5 9482   2.169   1.012   9.604  1.3578  0.7844  0.5517
  640MPD2    N1 9483   2.632   0.667   9.557 -0.9616 -0.2015 -0.5606
  640MPD2    H7 9484   2.703   0.633   9.621  0.2014  0.3348 -1.5645
  641TMC3    C1 9485   2.687   0.460   9.449  0.7794 -0.1397 -0.0777
  641TMC3    C2 9486   2.643   0.330   9.416 -0.2909 -0.2466  0.8472
  641TMC3    C3 9487   2.734   0.230   9.429 -0.5746 -0.5046 -0.3136
  641TMC3    C4 9488   2.811   0.474   9.495  0.5703 -0.3776  0.4148
  641TMC3    C5 9489   2.896   0.368   9.511  0.1233  0.6366 -0.5912
  641TMC3    C6 9490   2.864   0.242   9.477  0.6891  0.2433 -0.2142
  641TMC3     C 9491   2.601   0.578   9.451  0.5568  0.2167  0.3109
  641TMC3     O 9492   2.508   0.574   9.369  0.1703  0.8156 -0.8896
  641TMC3     H 9493   2.547   0.318   9.367  0.1314  0.7302 -0.2279
  641TMC3    H1 9494   2.866   0.567   9.508  1.1436 -0.9529  2.1435
  641TMC3    H2 9495   2.939   0.165   9.469 -0.4951 -0.9124 -0.1783
  641TMC3    C7 9496   3.019   0.394   9.579  0.3229 -0.3228  0.0166
  641TMC3    C8 9497   2.685   0.092   9.418  0.1926  0.4157 -0.2507
  641TMC3    O1 9498   3.056   0.511   9.585 -0.5540  0.0242 -0.6059
  641TMC3    O2 9499   2.588   0.077   9.339 -0.2525  0.3722  0.6996
  642TMC3    C1 9500   2.407   1.941  11.811 -0.1074  0.5977  0.2250
  642TMC3    C2 9501   2.524   1.993  11.751 -0.3071  0.5176  0.0817
  642TMC3    C3 9502   2.641   1.947  11.801 -0.0271 -0.2946  0.2200
  642TMC3    C4 9503   2.412   1.849  11.906 -0.5995  0.3467  0.1601
  642TMC3    C5 9504   2.531   1.798  11.949  0.3604 -0.7506  0.4601
  642TMC3    C6 9505   2.652   1.853  11.909  0.7893  0.1523 -0.4536
  642TMC3     C 9506   2.283   2.016  11.807  1.0488 -0.8870  0.3364
  642TMC3     O 9507   2.274   2.086  11.708 -0.0887 -0.2673 -0.0413
  642TMC3     H 9508   2.512   2.059  11.667  0.0754  0.4567 -0.0182
  642TMC3    H1 9509   2.318   1.807  11.941 -0.0058 -0.3980  0.8529
  642TMC3    H2 9510   2.750   1.812  11.930  0.9554  1.0787  0.5599
  642TMC3    C7 9511   2.532   1.667  12.008  0.2662 -0.3972 -0.1501
  642TMC3    C8 9512   2.763   2.023  11.774  0.1077 -0.1180  0.0048
  642TMC3    O1 9513   2.428   1.605  11.991  0.0393 -0.2499  0.3992
  642TMC3    O2 9514   2.865   1.968  11.808 -0.0293 -0.5054  0.1980
  643TMC3    C1 9515   2.112   1.034   0.477 -0.1365  1.0674 -0.2997
  643TMC3    C2 9516   1.977   1.062   0.466  0.0079 -0.3337 -0.0637
  643TMC3    C3 9517   1.904   1.015   0.367  0.0145 -0.3857 -0.4734
  643TMC3    C4 9518   2.176   0.955   0.380  0.0825 -0.6920  0.4225
  643TMC3    C5 9519   2.096   0.921   0.275  0.5328 -0.1790 -0.4766
  643TMC3    C6 9520   1.961   0.945   0.264  0.2445  0.0912 -0.3810
  643TMC3     C 9521   2.183   1.095   0.587 -0.8794 -0.0857  0.6200
  643TMC3     O 9522   2.275   1.030   0.630  0.5872  0.2649  0.2236
  643TMC3     H 9523   1.935   1.128   0.541 -2.5263 -1.8979 -0.1234
  643TMC3    H1 9524   2.279   0.920   0.380 -0.2516 -1.6803  1.3290
  643TMC3    H2 9525   1.897   0.911   0.182 -1.1100  1.2284  0.1998
  643TMC3    C7 9526   2.170   0.922   0.145 -0.0380  0.5602 -0.3633
  643TMC3    C8 9527   1.801   1.107   0.331  0.3304 -0.1782  0.0540
  643TMC3    O1 9528   2.288   0.951   0.146 -0.7002  0.0524  0.3149
  643TMC3    O2 9529   1.701   1.112   0.404  0.3225  0.2089 -0.7552
  644MPD2     C 9530   2.767   0.904  10.066 -0.9449  0.1279  1.3840
  644MPD2    C1 9531   2.869   0.969   9.994 -0.4461 -0.6660  0.3245
  644MPD2    C2 9532   2.878   1.107   9.991 -0.1102 -0.2274 -0.2029
  644MPD2    C3 9533   2.780   1.183  10.058  0.1785  0.3721 -0.1508
  644MPD2    C4 9534   2.684   1.120  10.131  0.2145 -1.1798 -0.7134
  644MPD2    C5 9535   2.675   0.978  10.142 -0.4274 -1.2203  0.8530
  644MPD2     H 9536   2.967   1.151   9.949 -0.8354 -0.4062 -1.9222
  644MPD2    H1 9537   2.613   1.175  10.192  0.2052 -2.5749  0.5342
  644MPD2    H2 9538   2.758   0.796  10.067  1.2293 -0.0549  0.3605
  644MPD2    H3 9539   2.595   0.927  10.195  0.1254 -1.5861  1.3381
  644MPD2     N 9540   2.780   1.323  10.056 -0.3126 -0.1322  0.1999
  644MPD2    H5 9541   2.718   1.361  10.127 -0.4844  3.1395 -1.7002
  644MPD2    N1 9542   2.969   0.891   9.923  0.2831  0.1589 -0.1660
  644MPD2    H7 9543   3.046   0.949   9.890  1.9912 -1.7814  0.4168
  645TMC3    C1 9544   2.812   1.543   9.972  0.0690  0.1454 -0.7606
  645TMC3    C2 9545   2.876   1.618   9.879 -0.1194 -0.3596 -0.4453
  645TMC3    C3 9546   2.831   1.743   9.850 -0.3205  0.1387 -0.0625
  645TMC3    C4 9547   2.716   1.591  10.055 -0.4152 -0.4974 -0.0195
  645TMC3    C5 9548   2.680   1.724  10.032 -0.4579 -0.1164 -0.2185
  645TMC3    C6 9549   2.733   1.795   9.928 -0.2810  0.7509 -0.2103
  645TMC3     C 9550   2.857   1.405   9.975 -0.1230 -0.1924  0.3464
  645TMC3     O 9551   2.945   1.370   9.899  0.1268  0.2110 -0.3819
  645TMC3     H 9552   2.946   1.571   9.811  0.3884 -1.7792  1.0499
  645TMC3    H1 9553   2.676   1.543  10.144  1.5346  1.2875  1.8420
  645TMC3    H2 9554   2.700   1.898   9.920 -1.1701  0.3792 -1.3018
  645TMC3    C7 9555   2.593   1.783  10.127  0.0965 -0.2859  0.1352
  645TMC3    C8 9556   2.900   1.824   9.753  0.3458  0.4658 -0.6086
  645TMC3    O1 9557   2.514   1.713  10.189 -0.3269  0.0094 -0.3727
  645TMC3    O2 9558   3.011   1.787   9.716 -0.3887 -0.5465  0.3202
  646MPD2     C 9559   1.539   0.579  14.370 -0.3012  0.4970  0.1794
  646MPD2    C1 9560   1.453   0.466  14.377 -0.1326  0.2342  0.1388
  646MPD2    C2 9561   1.325   0.475  14.335 -0.1751  0.0556  0.2064
  646MPD2    C3 9562   1.280   0.590  14.270 -0.0507  0.3152 -0.1836
  646MPD2    C4 9563   1.365   0.699  14.252  0.5236 -0.1745 -0.4459
  646MPD2    C5 9564   1.490   0.696  14.310 -0.2335 -0.5091  0.1506
  646MPD2     H 9565   1.256   0.392  14.338 -0.2444  0.1264  0.5862
  646MPD2    H1 9566   1.333   0.793  14.208 -2.2059 -1.2175 -0.6907
  646MPD2    H2 9567   1.646   0.572  14.384 -0.0524  2.3294 -0.7149
  646MPD2    H3 9568   1.560   0.778  14.299  0.1023 -1.1629 -2.6200
  646MPD2     N 9569   1.153   0.585  14.203  0.6572  0.0281  0.1979
  646MPD2    H5 9570   1.094   0.505  14.223 -0.1773  0.5652 -0.1085
  646MPD2    N1 9571   1.518   0.353  14.430  0.1256 -0.5921  0.3761
  646MPD2    H7 9572   1.614   0.375  14.455  0.2336 -0.8750  0.2137
  647TMC3    C1 9573   1.569   0.134  14.499  0.0505 -0.1975 -0.3070
  647TMC3    C2 9574   1.533   0.041  14.596  0.4239 -0.3196  0.5063
  647TMC3    C3 9575   1.633   4.681  14.646 -0.3566 -0.0435  0.3704
  647TMC3    C4 9576   1.696   0.142  14.450  0.3843 -0.3777  0.1044
  647TMC3    C5 9577   1.794   0.062  14.501  0.4428 -0.1645  0.1807
  647TMC3    C6 9578   1.766   4.702  14.606 -0.4778  0.0726  0.8137
  647TMC3     C 9579   1.468   0.226  14.447 -0.9856 -0.0416  0.4224
  647TMC3     O 9580   1.351   0.192  14.449 -0.0848  0.0874 -0.0855
  647TMC3     H 9581   1.426   0.037  14.610  0.4125  0.2319  0.5739
  647TMC3    H1 9582   1.719   0.212  14.371 -1.4440 -0.8914 -0.8767
  647TMC3    H2 9583   1.849   4.656  14.658 -1.4460 -2.2007  0.3452
  647TMC3    C7 9584   1.914   0.025  14.426  0.2197 -0.0255 -0.1640
  647TMC3    C8 9585   1.604   4.598  14.762  0.0547 -0.2817 -0.9776
  647TMC3    O1 9586   1.990   4.664  14.478 -0.6043  0.1151  0.0101
  647TMC3    O2 9587   1.703   4.557  14.819 -0.1748 -0.1199 -0.2907
  648TMC3    C1 9588   0.900   2.633  16.305  0.4173 -0.2954  0.5359
  648TMC3    C2 9589   0.925   2.502  16.290 -0.4044  0.0741  0.3505
  648TMC3    C3 9590   0.891   2.441  16.172 -0.0732  0.6471 -0.5877
  648TMC3    C4 9591   0.830   2.702  16.213 -0.1282 -0.2677  0.1212
  648TMC3    C5 9592   0.781   2.638  16.106 -0.1485 -0.5173  0.0691
  648TMC3    C6 9593   0.808   2.507  16.079 -0.5033  0.2830 -0.2172
  648TMC3     C 9594   0.902   2.700  16.439  0.0050  0.2593  0.2491
  648TMC3     O 9595   0.954   2.812  16.433 -0.3659  0.1474  0.1531
  648TMC3     H 9596   0.976   2.450  16.370  0.1208 -0.1966 -0.1633
  648TMC3    H1 9597   0.810   2.809  16.218  0.4067 -0.1006 -1.4130
  648TMC3    H2 9598   0.762   2.449  16.000 -0.2849 -0.3221  0.1032
  648TMC3    C7 9599   0.675   2.699  16.027  0.4464  0.2545 -0.5956
  648TMC3    C8 9600   0.900   2.296  16.171 -0.2303 -0.0482 -0.2907
  648TMC3    O1 9601   0.647   2.647  15.916 -0.1438 -0.5416 -0.3327
  648TMC3    O2 9602   0.882   2.240  16.278  0.2864 -0.5803  0.6451
  649TMC3    C1 9603   0.126   4.019  12.892  0.0151  0.3364 -0.1072
  649TMC3    C2 9604   0.184   4.136  12.943 -0.3315 -0.3563 -0.8180
  649TMC3    C3 9605   0.145   4.184  13.065 -0.3042  0.4317  0.3747
  649TMC3    C4 9606   0.038   3.941  12.962  0.5524  0.5417  0.1015
  649TMC3    C5 9607   0.005   3.993  13.085 -0.3560 -0.0079  0.0122
  649TMC3    C6 9608   0.060   4.110  13.138  0.3363  0.8339 -0.1228
  649TMC3     C 9609   0.087   4.047  12.758  0.6989 -0.4350  0.7216
  649TMC3     O 9610   4.687   4.040  12.726 -0.1620 -0.0041 -0.5030
  649TMC3     H 9611   0.248   4.195  12.879 -0.7379  0.3658 -0.5712
  649TMC3    H1 9612   4.707   3.861  12.910  1.2644 -0.0125  0.2497
  649TMC3    H2 9613   0.019   4.144  13.233  1.7269  0.5195  0.6025
  649TMC3    C7 9614   4.647   3.912  13.171 -0.0528  0.1103  0.1541
  649TMC3    C8 9615   0.176   4.318  13.111  0.0369 -0.6630 -0.1940
  649TMC3    O1 9616   4.657   3.938  13.291  0.0082 -0.0718  0.0502
  649TMC3    O2 9617   0.151   4.338  13.227  0.3128 -0.0638  0.1295
  650TMC3    C1 9618   2.471   1.383  12.532  0.4811  0.5525 -0.1869
  650TMC3    C2 9619   2.453   1.516  12.534  0.2402 -0.5000 -0.0736
  650TMC3    C3 9620   2.362   1.575  12.453 -0.3318  0.3246 -0.1187
  650TMC3    C4 9621   2.400   1.297  12.447  0.3642  0.2738 -0.0004
  650TMC3    C5 9622   2.316   1.357  12.363 -0.2765 -0.0805 -0.4376
  650TMC3    C6 9623   2.289   1.495  12.365 -0.5589 -1.1539  0.4178
  650TMC3     C 9624   2.583   1.345  12.609 -0.1309  0.2396  0.4489
  650TMC3     O 9625   2.605   1.411  12.712  0.0427 -0.2152 -0.1231
  650TMC3     H 9626   2.501   1.572  12.613 -0.6051  0.4599 -0.2535
  650TMC3    H1 9627   2.423   1.191  12.439  3.0139  0.7722  0.9133
  650TMC3    H2 9628   2.215   1.548  12.306  1.1158  0.0114 -0.6320
  650TMC3    C7 9629   2.265   1.283  12.252 -0.1688 -0.6927 -0.0159
  650TMC3    C8 9630   2.333   1.718  12.471 -0.4456 -0.4247  0.0917
  650TMC3    O1 9631   2.285   1.163  12.258  0.0755 -0.4494  0.1907
  650TMC3    O2 9632   2.240   1.765  12.404 -0.0504 -0.2810  0.4075
  651MPD2     C 9633   1.699   2.784  10.931  0.2427  0.4861  0.4068
  651MPD2    C1 9634   1.669   2.893  10.851 -0.5139  0.4963  1.0471
  651MPD2    C2 9635   1.770   2.940  10.767  0.4623  0.0977 -0.5081
  651MPD2    C3 9636   1.886   2.875  10.748  0.2093  0.0750  0.0938
  651MPD2    C4 9637   1.916   2.770  10.833 -0.3133  0.3498 -0.9477
  651MPD2    C5 9638   1.822   2.722  10.923 -0.0866 -0.0863 -0.0879
  651MPD2     H 9639   1.731   3.015  10.699 -1.8957 -0.4322  0.2306
  651MPD2    H1 9640   2.010   2.717  10.826 -0.3432 -0.1149  1.8832
  651MPD2    H2 9641   1.629   2.741  11.001  0.4691 -1.1901 -0.3812
  651MPD2    H3 9642   1.836   2.630  10.978 -0.3528 -0.5596 -0.8141
  651MPD2     N 9643   1.967   2.922  10.642  0.3876 -0.4403  0.0510
  651MPD2    H5 9644   1.920   2.983  10.577  1.5366  0.6544  0.2302
  651MPD2    N1 9645   1.546   2.969  10.842  0.2656  0.3004 -0.1961
  651MPD2    H7 9646   1.540   3.033  10.764  1.8010 -0.8748 -1.2840
  652TMC3    C1 9647   2.351   3.085  10.452 -0.4040 -0.2086 -0.4236
  652TMC3    C2 9648   2.300   2.979  10.522 -0.7604  0.1145  0.0990
  652TMC3    C3 9649   2.162   2.958  10.508  0.8085  0.0208 -0.6257
  652TMC3    C4 9650   2.269   3.151  10.356 -1.0033 -0.2115 -0.8432
  652TMC3    C5 9651   2.139   3.112  10.331  0.7327  0.5543  0.5956
  652TMC3    C6 9652   2.087   3.019  10.413  0.6607  0.2142  0.0509
  652TMC3     C 9653   2.498   3.107  10.461  0.3471  0.9483  0.1017
  652TMC3     O 9654   2.558   3.040  10.542 -0.0758 -0.0268 -0.4360
  652TMC3     H 9655   2.354   2.935  10.604 -0.1049  1.6410  0.4967
  652TMC3    H1 9656   2.308   3.221  10.283  0.5115 -0.8832 -0.6724
  652TMC3    H2 9657   1.982   2.990  10.413  0.2886  1.6065  1.2622
  652TMC3    C7 9658   2.043   3.200  10.265 -0.2181 -0.5191  0.4204
  652TMC3    C8 9659   2.108   2.890  10.628 -0.0415  0.1144 -0.6748
  652TMC3    O1 9660   1.950   3.157  10.197  0.3719 -0.0205  0.0069
  652TMC3    O2 9661   2.186   2.836  10.707  0.3438 -0.1588  0.6718
  653MPD2     C 9662   4.578   3.029  17.570 -0.4721  0.2985 -0.0954
  653MPD2    C1 9663   4.518   3.119  17.485  0.4004 -0.5598  0.0575
  653MPD2    C2 9664   4.439   3.066  17.380 -0.9766 -0.1479 -0.2454
  653MPD2    C3 9665   4.414   2.929  17.366  0.4090  0.0338  0.1714
  653MPD2    C4 9666   4.485   2.845  17.451  0.6145  0.7484  0.6744
  653MPD2    C5 9667   4.566   2.898  17.544  0.9815 -0.8991 -0.6097
  653MPD2     H 9668   4.393   3.138  17.313 -0.3148  0.3168 -0.2054
  653MPD2    H1 9669   4.488   2.736  17.448  0.4865  0.7287  1.2551
  653MPD2    H2 9670   4.637   3.071  17.650 -0.1461  0.3829 -0.3784
  653MPD2    H3 9671   4.630   2.835  17.606  0.7386 -0.9002 -0.3601
  653MPD2     N 9672   4.338   2.881  17.256  0.2000 -0.8730  0.4557
  653MPD2    H5 9673   4.295   2.951  17.197  0.4898 -0.8254  0.3039
  653MPD2    N1 9674   4.518   3.259  17.513  0.3865  0.2306 -0.0050
  653MPD2    H7 9675   4.473   3.314  17.441  0.7522  1.4569  0.7047
  654TMC3    C1 9676   4.251   2.731  17.097 -0.2025  0.2268 -0.1607
  654TMC3    C2 9677   4.167   2.825  17.047 -0.7793 -0.0398 -0.3299
  654TMC3    C3 9678   4.085   2.791  16.940  0.0821 -0.0629 -0.1995
  654TMC3    C4 9679   4.260   2.606  17.044 -0.2135  0.3111 -0.2339
  654TMC3    C5 9680   4.161   2.566  16.950 -0.3400 -0.1879 -0.1092
  654TMC3    C6 9681   4.066   2.658  16.903 -0.6397 -0.0285 -0.5313
  654TMC3     C 9682   4.337   2.754  17.216 -0.1528  0.3708 -0.0419
  654TMC3     O 9683   4.402   2.660  17.252 -0.0203  0.1794  0.2570
  654TMC3     H 9684   4.172   2.926  17.085  0.5440  0.8298 -2.8555
  654TMC3    H1 9685   4.337   2.542  17.085 -1.2522 -0.7392  0.0641
  654TMC3    H2 9686   3.997   2.623  16.826 -1.3883 -2.4994  1.2902
  654TMC3    C7 9687   4.214   2.470  16.858 -0.6477  0.1648 -0.1516
  654TMC3    C8 9688   3.978   2.884  16.904 -0.7107  0.0519 -0.1995
  654TMC3    O1 9689   4.187   2.497  16.738  0.0645 -0.0764  0.8920
  654TMC3    O2 9690   3.974   2.988  16.965  0.0874 -0.6286 -0.2194
  655MPD2     C 9691   1.236   3.290  15.708  0.0513 -0.1124  0.3362
  655MPD2    C1 9692   1.126   3.222  15.652 -0.3024  0.1223 -0.4320
  655MPD2    C2 9693   1.149   3.146  15.542 -0.2411 -0.3999  0.5239
  655MPD2    C3 9694   1.275   3.128  15.495 -0.5785  0.7320  0.1485
  655MPD2    C4 9695   1.376   3.204  15.539  0.6225 -0.5052  0.5644
  655MPD2    C5 9696   1.358   3.288  15.642  0.1231  0.1925 -0.5183
  655MPD2     H 9697   1.067   3.084  15.507 -0.8121  0.1649  0.8640
  655MPD2    H1 9698   1.479   3.190  15.506  0.1437 -1.6258 -0.4476
  655MPD2    H2 9699   1.228   3.350  15.797 -1.6448  1.2110 -0.7088
  655MPD2    H3 9700   1.444   3.344  15.676 -0.1128  0.0812  0.2567
  655MPD2     N 9701   1.303   3.042  15.392  0.0123 -0.7662 -0.0143
  655MPD2    H5 9702   1.392   3.051  15.345  0.2735 -1.1575  0.3988
  655MPD2    N1 9703   0.999   3.210  15.713  0.3148 -0.0729 -0.6419
  655MPD2    H7 9704   0.930   3.149  15.671  2.1047 -3.4410  1.3422
  656TMC3    C1 9705   0.827   3.274  15.863  0.1479 -0.7379 -0.9870
  656TMC3    C2 9706   0.806   3.336  15.990  1.1846  0.0765 -0.2436
  656TMC3    C3 9707   0.681   3.392  16.014  0.1444  0.1480 -0.1789
  656TMC3    C4 9708   0.728   3.280  15.768  0.0041 -0.5082  0.2460
  656TMC3    C5 9709   0.615   3.346  15.792 -0.2132  0.1566 -0.9202
  656TMC3    C6 9710   0.587   3.397  15.919  0.5989  0.0851  0.0642
  656TMC3     C 9711   0.966   3.281  15.827 -0.7260  0.2062 -0.2438
  656TMC3     O 9712   1.030   3.354  15.898 -0.0130 -0.3157  0.3167
  656TMC3     H 9713   0.886   3.331  16.062 -0.6147 -0.4446  1.7371
  656TMC3    H1 9714   0.752   3.240  15.670 -2.7566  0.5678 -0.8806
  656TMC3    H2 9715   0.492   3.442  15.944  1.0228  0.5165  0.8963
  656TMC3    C7 9716   0.504   3.316  15.697 -0.2443  0.0464  0.6240
  656TMC3    C8 9717   0.639   3.409  16.150 -0.0111 -0.0960 -0.3237
  656TMC3    O1 9718   0.536   3.242  15.606 -0.4544 -0.4988 -0.4080
  656TMC3    O2 9719   0.595   3.517  16.186  0.4699 -0.5659  0.3242
  657TMC3    C1 9720   0.126   2.004  15.036 -0.7057 -0.8041 -0.2819
  657TMC3    C2 9721   0.023   1.914  15.076 -0.0102 -0.1861  0.2313
  657TMC3    C3 9722   4.641   1.961  15.152  0.0449 -0.6089 -0.1112
  657TMC3    C4 9723   0.123   2.135  15.071 -0.1210  1.2335  0.0333
  657TMC3    C5 9724   0.018   2.182  15.140 -0.6825  0.5029 -0.1358
  657TMC3    C6 9725   4.635   2.096  15.181  0.4130 -0.1685  0.0715
  657TMC3     C 9726   0.183   1.970  14.908  0.2977  0.7327  0.9737
  657TMC3     O 9727   0.105   1.923  14.830 -0.1816 -0.1960 -0.2190
  657TMC3     H 9728   0.019   1.814  15.034 -2.4228  0.3887 -0.9425
  657TMC3    H1 9729   0.211   2.197  15.058  0.5511 -0.1992 -2.3840
  657TMC3    H2 9730   4.548   2.129  15.236  2.2894  2.3468  1.5023
  657TMC3    C7 9731   0.012   2.324  15.167 -0.7003  0.5436  0.6396
  657TMC3    C8 9732   4.508   1.902  15.130 -0.5865 -0.6417 -0.7503
  657TMC3    O1 9733   4.677   2.365  15.268  0.0530  0.6027  0.0152
  657TMC3    O2 9734   4.434   1.986  15.077 -0.8913  0.3123  0.0193
  658MPD2     C 9735   1.676   3.200  14.941  0.2129 -1.1548  0.3216
  658MPD2    C1 9736   1.565   3.148  14.879  0.5861 -0.2701  0.0286
  658MPD2    C2 9737   1.520   3.205  14.763 -0.4284 -0.1211 -0.4051
  658MPD2    C3 9738   1.572   3.324  14.722 -0.2724 -0.1306 -0.1132
  658MPD2    C4 9739   1.682   3.375  14.784  0.6505  0.3740  0.3164
  658MPD2    C5 9740   1.732   3.316  14.896 -0.7780  0.0969  0.1374
  658MPD2     H 9741   1.423   3.177  14.723 -0.8328  0.4739  0.1578
  658MPD2    H1 9742   1.731   3.467  14.755  0.6360  0.9195  2.0122
  658MPD2    H2 9743   1.720   3.163  15.033  2.8757 -0.1402 -0.5501
  658MPD2    H3 9744   1.829   3.344  14.938 -0.4067 -1.0323  0.0390
  658MPD2     N 9745   1.524   3.369  14.603 -0.0492 -0.2133 -0.0243
  658MPD2    H5 9746   1.449   3.313  14.563 -0.2977  0.7929 -0.9442
  658MPD2    N1 9747   1.489   3.047  14.950 -0.0750 -0.0931  0.1459
  658MPD2    H7 9748   1.515   3.026  15.046 -0.3923 -2.7951 -0.3515
  659TMC3    C1 9749   1.313   2.901  15.005 -0.1184  0.2912 -0.2137
  659TMC3    C2 9750   1.334   2.930  15.135 -0.4971 -0.1339  0.4669
  659TMC3    C3 9751   1.254   2.872  15.225 -0.3645 -0.3960 -0.2426
  659TMC3    C4 9752   1.214   2.815  14.962  0.3292 -0.0145  0.4337
  659TMC3    C5 9753   1.137   2.762  15.061  0.3051 -0.9389 -0.0576
  659TMC3    C6 9754   1.166   2.774  15.191 -0.2854 -0.0448 -0.2514
  659TMC3     C 9755   1.389   2.970  14.900 -0.5024 -0.1530 -0.0834
  659TMC3     O 9756   1.349   2.954  14.784  0.0442  0.6157  0.3036
  659TMC3     H 9757   1.398   3.012  15.164  1.0478 -2.3575  3.3230
  659TMC3    H1 9758   1.187   2.811  14.857  0.7276  2.9418  0.2020
  659TMC3    H2 9759   1.108   2.724  15.268 -1.0066  1.6300  0.2729
  659TMC3    C7 9760   1.011   2.692  15.038 -0.6230  0.0747 -0.1696
  659TMC3    C8 9761   1.228   2.927  15.363  0.2576 -0.6737 -0.1445
  659TMC3    O1 9762   0.936   2.669  15.133 -0.1903  0.3774 -0.2909
  659TMC3    O2 9763   1.132   2.888  15.427 -0.5504 -0.1068 -0.0926
  660MPD2     C 9764   4.098   1.909  12.573  0.6534 -0.4988  0.5205
  660MPD2    C1 9765   3.989   1.992  12.588 -0.0261 -0.4819 -0.2076
  660MPD2    C2 9766   3.910   1.966  12.704 -0.9389  0.0254  0.0112
  660MPD2    C3 9767   3.942   1.873  12.801  0.6270 -0.4189 -0.0952
  660MPD2    C4 9768   4.061   1.801  12.784 -0.1709  0.3011 -0.3853
  660MPD2    C5 9769   4.125   1.817  12.666 -0.0480  0.4049 -0.0621
  660MPD2     H 9770   3.819   2.025  12.703  0.0678  1.5215 -3.2933
  660MPD2    H1 9771   4.091   1.728  12.858  0.1562 -0.9209 -1.7159
  660MPD2    H2 9772   4.157   1.910  12.483  1.1285 -0.0688  0.8387
  660MPD2    H3 9773   4.214   1.756  12.653 -1.0523 -0.9728 -0.4215
  660MPD2     N 9774   3.865   1.864  12.924  0.3835  0.2230 -0.4747
  660MPD2    H5 9775   3.898   1.788  12.982  0.9394  1.1417  0.4305
  660MPD2    N1 9776   3.961   2.081  12.484 -0.8439  0.6211  0.7775
  660MPD2    H7 9777   4.029   2.084  12.408  0.7748  0.9802  2.2297
  661TMC3    C1 9778   3.855   2.241  12.359  0.3677  0.3437 -0.3044
  661TMC3    C2 9779   3.967   2.246  12.275 -0.1833  0.4185 -0.2345
  661TMC3    C3 9780   3.941   2.304  12.157 -0.3671 -0.5894  0.2108
  661TMC3    C4 9781   3.729   2.287  12.326  0.2110  0.3150  0.3323
  661TMC3    C5 9782   3.709   2.331  12.199 -0.4851 -0.3838 -0.3822
  661TMC3    C6 9783   3.813   2.341  12.117 -0.0667 -0.2131  0.1170
  661TMC3     C 9784   3.868   2.179  12.487  0.2517 -0.2084 -0.1981
  661TMC3     O 9785   3.781   2.208  12.575  0.0601 -0.0512 -0.0932
  661TMC3     H 9786   4.068   2.210  12.291 -0.0586  0.0903 -1.7018
  661TMC3    H1 9787   3.645   2.246  12.381  0.2102 -0.9827 -0.6457
  661TMC3    H2 9788   3.791   2.364  12.014  1.6944  3.7300  0.6015
  661TMC3    C7 9789   3.581   2.314  12.137 -0.1892  0.0743 -0.0816
  661TMC3    C8 9790   4.040   2.320  12.058 -0.3926 -0.5054 -0.0329
  661TMC3    O1 9791   3.498   2.403  12.158  0.0271 -0.3802 -0.3273
  661TMC3    O2 9792   4.119   2.228  12.042  0.7861  0.2629  0.0797
  662MPD2     C 9793   3.800   1.835  17.256 -0.3650  0.4547  0.3008
  662MPD2    C1 9794   3.672   1.802  17.287 -0.1060 -0.0022 -0.3022
  662MPD2    C2 9795   3.588   1.901  17.338  0.1015 -0.0707  0.1240
  662MPD2    C3 9796   3.627   2.030  17.354  0.0235  1.0225 -0.1966
  662MPD2    C4 9797   3.753   2.066  17.312  0.2912  1.1317 -0.4209
  662MPD2    C5 9798   3.841   1.966  17.273  0.3938  0.2636  0.6935
  662MPD2     H 9799   3.487   1.870  17.365  0.8627 -0.1216  2.9315
  662MPD2    H1 9800   3.781   2.170  17.317  1.6892  0.7532 -0.3829
  662MPD2    H2 9801   3.868   1.773  17.198  0.2819  1.4733 -0.0298
  662MPD2    H3 9802   3.932   1.987  17.217 -1.2052  0.7137 -1.7756
  662MPD2     N 9803   3.546   2.133  17.410 -0.7809 -0.7731  0.0972
  662MPD2    H5 9804   3.580   2.228  17.414 -0.4552 -0.8570 -0.6593
  662MPD2    N1 9805   3.614   1.673  17.268  0.3367 -0.1289  0.3427
  662MPD2    H7 9806   3.514   1.673  17.287 -0.0525 -0.7998 -1.7668
  663TMC3    C1 9807   3.562   1.463  17.183 -0.3774 -0.0193 -0.0105
  663TMC3    C2 9808   3.437   1.510  17.166 -0.1132  0.2539  0.2680
  663TMC3    C3 9809   3.337   1.459  17.254  0.5160 -0.2485  0.1380
  663TMC3    C4 9810   3.590   1.350  17.262  0.1494 -0.3373 -0.5287
  663TMC3    C5 9811   3.481   1.285  17.319 -0.5023  0.2518  0.8952
  663TMC3    C6 9812   3.361   1.348  17.324 -0.0403  0.1985  0.5079
  663TMC3     C 9813   3.665   1.567  17.194 -0.1049 -0.2518  0.8142
  663TMC3     O 9814   3.775   1.554  17.145  0.1377 -0.1074 -0.7071
  663TMC3     H 9815   3.420   1.608  17.122 -0.9186  0.2562  0.5981
  663TMC3    H1 9816   3.686   1.328  17.306  0.4945  1.9414 -0.1294
  663TMC3    H2 9817   3.279   1.286  17.358 -0.3896  0.8951  0.9378
  663TMC3    C7 9818   3.498   1.202  17.436  0.9949 -0.0244  0.1304
  663TMC3    C8 9819   3.309   1.568  17.351 -0.1336  0.6673 -0.0402
  663TMC3    O1 9820   3.428   1.231  17.529  0.0099 -0.5200 -0.1544
  663TMC3    O2 9821   3.308   1.686  17.317  0.6483  0.2127 -0.4320
  664MPD2     C 9822   2.145   0.053  17.616 -0.7751  0.5707 -0.0288
  664MPD2    C1 9823   2.250   0.093   0.017  0.0035  0.2250  0.1322
  664MPD2    C2 9824   2.226   0.118   0.151  0.5639  0.2095 -0.2640
  664MPD2    C3 9825   2.103   0.108   0.204 -0.6177 -0.8228 -0.1540
  664MPD2    C4 9826   1.999   0.058   0.120  0.0805 -0.8400 -0.6110
  664MPD2    C5 9827   2.019   0.038  17.669  0.4034  0.3808  0.1409
  664MPD2     H 9828   2.308   0.151   0.213  0.9943  1.6792 -1.6235
  664MPD2    H1 9829   1.902   0.032   0.162 -0.4568  1.9929 -0.0606
  664MPD2    H2 9830   2.145   0.022  17.512  0.2037  0.9557 -0.1451
  664MPD2    H3 9831   1.939   4.715  17.610  1.4851  0.2381 -1.2098
  664MPD2     N 9832   2.083   0.154   0.334  0.4589 -0.3890  0.1831
  664MPD2    H5 9833   2.167   0.191   0.379  1.0616  0.5541 -1.7159
  664MPD2    N1 9834   2.378   0.106  17.646  0.4668 -0.0685 -0.3814
  664MPD2    H7 9835   2.451   0.133   0.030  1.4966  1.1213 -2.0324
  665TMC3    C1 9836   1.985   0.184   0.545  0.0069  0.0284 -0.2037
  665TMC3    C2 9837   1.914   0.108   0.637  0.4033 -0.3072 -0.1095
  665TMC3    C3 9838   1.938   0.148   0.765  0.0189 -0.5804 -0.2627
  665TMC3    C4 9839   2.058   0.293   0.577 -0.1064  0.2863  0.2353
  665TMC3    C5 9840   2.070   0.337   0.709  0.0762  0.2459 -0.1485
  665TMC3    C6 9841   2.014   0.258   0.804  0.6715  0.5747  0.2966
  665TMC3     C 9842   1.978   0.136   0.411  0.1008  0.0521  0.5798
  665TMC3     O 9843   1.882   0.073   0.380 -0.2097 -0.1884 -0.3356
  665TMC3     H 9844   1.871   0.011   0.617  0.5320 -0.0455 -1.6978
  665TMC3    H1 9845   2.105   0.347   0.495 -1.4743  1.9996  0.5707
  665TMC3    H2 9846   2.002   0.284   0.908  1.6343 -0.0835  0.5659
  665TMC3    C7 9847   2.064   0.477   0.731 -0.6912 -0.9423 -0.0370
  665TMC3    C8 9848   1.857   0.085   0.868  0.0629 -0.7056  0.0573
  665TMC3    O1 9849   2.012   0.542   0.640 -0.6879 -0.0525 -0.1505
  665TMC3    O2 9850   1.897   0.078   0.985  0.2832 -0.0107 -0.0944
  666TMC3    C1 9851   2.061   4.579   9.715 -0.0741  0.1561  0.2130
  666TMC3    C2 9852   2.136   4.474   9.761 -0.0281  0.0759 -0.2946
  666TMC3    C3 9853   2.272   4.496   9.771  0.2052 -0.1466 -0.7673
  666TMC3    C4 9854   2.119   4.700   9.690  0.8029  0.3533  0.3268
  666TMC3    C5 9855   2.253   4.713   9.692  0.1964  0.0960  0.0586
  666TMC3    C6 9856   2.336   4.618   9.737  0.3057 -0.6155 -0.7337
  666TMC3     C 9857   1.919   4.581   9.711  0.9224 -0.0952  0.3788
  666TMC3     O 9858   1.869   4.686   9.742  0.7408 -0.5382  0.0930
  666TMC3     H 9859   2.100   4.382   9.805 -0.3727  0.0065 -0.7203
  666TMC3    H1 9860   2.057   0.062   9.653 -2.3561 -2.0081  0.4167
  666TMC3    H2 9861   2.444   4.621   9.730  0.5680 -1.4120  3.0159
  666TMC3    C7 9862   2.301   0.127   9.685 -0.3516 -0.3230 -0.5277
  666TMC3    C8 9863   2.351   4.393   9.842 -0.5079 -0.3199 -0.4813
  666TMC3    O1 9864   2.218   0.212   9.653 -0.0661 -0.6992  0.0964
  666TMC3    O2 9865   2.307   4.279   9.845  0.3401  0.3432 -0.2013
  667MPD2     C 9866   3.128   4.217  14.629 -0.1353 -0.2512  0.8642
  667MPD2    C1 9867   3.094   4.327  14.562 -0.3319 -0.0726  0.3353
  667MPD2    C2 9868   3.034   4.323  14.437  0.1413 -0.1148 -0.6057
  667MPD2    C3 9869   3.014   4.199  14.376 -0.2846  0.1467 -0.3552
  667MPD2    C4 9870   3.030   4.087  14.456 -0.3796  0.1258  0.6151
  667MPD2    C5 9871   3.077   4.098  14.583 -1.0784  0.1588 -0.3973
  667MPD2     H 9872   3.011   4.407  14.372 -0.6217  0.2341  0.1187
  667MPD2    H1 9873   3.010   3.987  14.420  0.4572  0.0548  0.3395
  667MPD2    H2 9874   3.192   4.217  14.717  0.0073  0.3092  0.7608
  667MPD2    H3 9875   3.096   4.006  14.636 -2.6880  0.3788  0.5726
  667MPD2     N 9876   2.961   4.187  14.245 -0.2593  1.1210 -0.1406
  667MPD2    H5 9877   2.954   4.092  14.209  0.0866 -0.3016  3.5508
  667MPD2    N1 9878   3.119   4.451  14.621 -0.1715  0.1172 -0.3172
  667MPD2    H7 9879   3.078   4.523  14.563  0.0086 -0.0639 -0.6706
  668TMC3    C1 9880   3.176   4.626  14.779 -0.5926  0.0370 -0.3980
  668TMC3    C2 9881   3.267   4.672  14.871  0.6068  0.2092 -0.2162
  668TMC3    C3 9882   3.228   0.051  14.955  0.7592 -0.6754  0.2976
  668TMC3    C4 9883   3.047   4.675  14.780  1.2083 -0.1287 -0.5325
  668TMC3    C5 9884   3.006   0.047  14.877  0.4508 -0.2106  0.5730
  668TMC3    C6 9885   3.097   0.096  14.967  0.0343 -0.6881 -0.3810
  668TMC3     C 9886   3.186   4.486  14.740 -0.9755  0.4101  0.9773
  668TMC3     O 9887   3.264   4.421  14.803 -0.2278 -0.4093  0.4923
  668TMC3     H 9888   3.359   4.616  14.879  1.3356  1.1649 -1.9117
  668TMC3    H1 9889   2.977   4.634  14.709  1.5749 -1.1681 -0.3052
  668TMC3    H2 9890   3.066   0.156  15.052 -0.5338 -1.2012 -0.2275
  668TMC3    C7 9891   2.884   0.025  14.934 -0.7924 -0.2027  0.4083
  668TMC3    C8 9892   3.330   0.142  15.003 -0.3395  0.5583 -0.5703
  668TMC3    O1 9893   2.877   0.007  15.053 -0.2989  0.1740  0.0603
  668TMC3    O2 9894   3.292   0.232  15.074  0.3164  0.1883  0.1365
  669TMC3    C1 9895   1.468   4.661  14.150 -0.5938 -0.3535 -0.1534
  669TMC3    C2 9896   1.359   4.655  14.067  0.2243 -0.4765 -0.3979
  669TMC3    C3 9897   1.364   0.019  13.958 -0.3500  0.0178  0.6646
  669TMC3    C4 9898   1.568   0.038  14.137  0.5485  0.4827  0.5082
  669TMC3    C5 9899   1.556   0.123  14.035  0.9425  0.1714 -0.0141
  669TMC3    C6 9900   1.457   0.121  13.940 -0.0000  0.5085  0.1853
  669TMC3     C 9901   1.490   4.550  14.246 -0.4007  0.2272 -1.1151
  669TMC3     O 9902   1.388   4.494  14.284  0.1355 -0.1801 -0.4282
  669TMC3     H 9903   1.286   4.574  14.063 -0.1239 -0.3240  2.2973
  669TMC3    H1 9904   1.661   0.036  14.193 -0.7585 -0.2626  2.6336
  669TMC3    H2 9905   1.444   0.201  13.868  1.1081  1.3407  0.9205
  669TMC3    C7 9906   1.673   0.208  14.014 -0.3736 -0.2644 -0.0817
  669TMC3    C8 9907   1.243   0.034  13.891 -0.5920  0.4153 -0.4474
  669TMC3    O1 9908   1.743   0.242  14.109 -0.2077 -0.2623 -0.0207
  669TMC3    O2 9909   1.148   4.689  13.937 -0.3489  0.4654 -0.1817
  670MPD2     C 9910   4.271   2.552  13.598 -0.1223  0.3187  0.1316
  670MPD2    C1 9911   4.402   2.514  13.628  0.3414 -0.4039  0.2497
  670MPD2    C2 9912   4.429   2.479  13.757 -0.4724  0.9873  0.0041
  670MPD2    C3 9913   4.336   2.466  13.853 -0.2875 -0.0053 -0.4826
  670MPD2    C4 9914   4.203   2.483  13.811 -0.4269 -0.1925 -0.0666
  670MPD2    C5 9915   4.167   2.536  13.691  0.2688  1.0157 -0.4725
  670MPD2     H 9916   4.529   2.443  13.779 -0.5460  0.5504 -0.3897
  670MPD2    H1 9917   4.120   2.474  13.880  0.1985  1.7052  0.9288
  670MPD2    H2 9918   4.241   2.589  13.500  1.1396 -1.5531 -0.9552
  670MPD2    H3 9919   4.062   2.542  13.666  0.3611  2.1941 -0.5556
  670MPD2     N 9920   4.359   2.417  13.983 -0.2881 -0.2253  0.1405
  670MPD2    H5 9921   4.454   2.385  14.000  0.1176 -0.3671 -2.4624
  670MPD2    N1 9922   4.506   2.536  13.530  0.0084  0.2309 -0.0341
  670MPD2    H7 9923   4.602   2.540  13.563  0.1494  1.4552 -0.6069
  671TMC3    C1 9924   4.314   2.314  14.188  0.0099  0.6304 -1.3658
  671TMC3    C2 9925   4.432   2.242  14.176  0.2296 -0.0469 -0.0470
  671TMC3    C3 9926   4.443   2.122  14.237  0.1137  0.0984  0.0762
  671TMC3    C4 9927   4.226   2.258  14.276 -0.0133 -0.5605  0.5227
  671TMC3    C5 9928   4.233   2.138  14.335 -0.1951  0.5645  0.0023
  671TMC3    C6 9929   4.341   2.059  14.310  0.1543 -0.0181  0.3926
  671TMC3     C 9930   4.271   2.406  14.089 -0.0712 -0.6340 -0.8391
  671TMC3     O 9931   4.153   2.437  14.088  0.4601  0.3494 -0.5783
  671TMC3     H 9932   4.496   2.254  14.089 -0.8331  3.7792 -0.3118
  671TMC3    H1 9933   4.142   2.323  14.297  0.8308  0.4737  0.7169
  671TMC3    H2 9934   4.348   1.960  14.354 -2.4717  0.1849  1.2660
  671TMC3    C7 9935   4.101   2.078  14.322  0.7356 -0.2899  0.9904
  671TMC3    C8 9936   4.554   2.041  14.198 -0.4111  0.6509  1.0736
  671TMC3    O1 9937   4.023   2.115  14.406  0.6207  0.4801 -0.2734
  671TMC3    O2 9938   4.594   2.050  14.082  0.1019 -0.0556 -0.2056
  672MPD2     C 9939   4.150   3.014   1.200 -0.3736 -0.5289  0.5173
  672MPD2    C1 9940   4.276   2.954   1.205  0.2841  0.2538  0.3493
  672MPD2    C2 9941   4.381   3.019   1.269 -0.3502 -0.2910  0.0913
  672MPD2    C3 9942   4.350   3.144   1.333  0.7367  0.2800  0.7589
  672MPD2    C4 9943   4.229   3.204   1.320  0.3136  0.0055 -0.1258
  672MPD2    C5 9944   4.130   3.142   1.249  0.3270  0.7136  0.0956
  672MPD2     H 9945   4.479   2.973   1.274 -0.5348 -0.6803  0.1534
  672MPD2    H1 9946   4.224   3.301   1.368 -1.9673  0.0370 -0.4323
  672MPD2    H2 9947   4.067   2.966   1.150  1.0522 -2.5599  0.1107
  672MPD2    H3 9948   4.033   3.190   1.238 -0.7991 -1.4594  0.5143
  672MPD2     N 9949   4.453   3.228   1.382 -0.3136  0.0322  0.3322
  672MPD2    H5 9950   4.431   3.322   1.415  1.3875  0.4728  0.2020
  672MPD2    N1 9951   4.305   2.827   1.145 -0.6861 -0.0945  0.5693
  672MPD2    H7 9952   4.395   2.786   1.168 -0.4415 -0.0661 -0.3438
  673TMC3    C1 9953   4.312   2.679   0.965  0.3440 -0.7236 -0.6349
  673TMC3    C2 9954   4.385   2.586   1.033 -0.2169 -0.1647  0.7729
  673TMC3    C3 9955   4.489   2.527   0.971  0.2288 -0.0972 -0.0636
  673TMC3    C4 9956   4.343   2.711   0.837 -0.0687 -0.0465  0.2063
  673TMC3    C5 9957   4.447   2.654   0.779  0.5971 -0.0959 -0.2590
  673TMC3    C6 9958   4.512   2.551   0.841 -0.4622  0.0731 -0.2336
  673TMC3     C 9959   4.237   2.776   1.039  0.4854  0.2668 -0.3610
  673TMC3     O 9960   4.152   2.835   0.976 -1.1386 -0.5536 -0.4687
  673TMC3     H 9961   4.344   2.557   1.129  1.3993  0.0373  1.5183
  673TMC3    H1 9962   4.287   2.785   0.781 -0.3334 -0.3605  0.0607
  673TMC3    H2 9963   4.596   2.505   0.789  0.5222 -0.0184  1.4286
  673TMC3    C7 9964   4.496   2.695   0.650  0.9448  0.4844  0.1509
  673TMC3    C8 9965   4.549   2.403   1.019  0.0582  0.9189 -0.2337
  673TMC3    O1 9966   4.574   2.617   0.597 -0.3053 -0.1436  0.6993
  673TMC3    O2 9967   4.596   2.320   0.939 -0.2199 -0.6245  0.7344
  674MPD2     C 9968   4.498   2.323   0.170 -0.0156 -0.1833 -0.5382
  674MPD2    C1 9969   4.366   2.283   0.146 -0.0398  0.4118 -0.3135
  674MPD2    C2 9970   4.267   2.317   0.238  0.1862 -0.0227 -0.2277
  674MPD2    C3 9971   4.305   2.357   0.365 -0.2554 -0.2285  0.9877
  674MPD2    C4 9972   4.441   2.382   0.394 -0.4484 -0.7417  0.3537
  674MPD2    C5 9973   4.532   2.370   0.295  0.2812 -0.1625  0.0502
  674MPD2     H 9974   4.165   2.282   0.226 -0.4191  1.1761  1.3283
  674MPD2    H1 9975   4.481   2.409   0.491 -1.5590 -1.5552  1.0417
  674MPD2    H2 9976   4.578   2.297   0.102 -0.9894  1.2460 -2.2420
  674MPD2    H3 9977   4.635   2.398   0.313 -0.3886  1.1938  1.7304
  674MPD2     N 9978   4.208   2.381   0.462  0.1151 -0.3830  0.2821
  674MPD2    H5 9979   4.111   2.378   0.433 -0.3928  2.3441  1.7640
  674MPD2    N1 9980   4.348   2.213   0.030  1.1490 -0.4227 -0.0736
  674MPD2    H7 9981   4.433   2.196  17.658  1.9247  0.9126  0.7388
  675TMC3    C1 9982   4.229   2.086  17.549  0.2139 -0.2224  0.2741
  675TMC3    C2 9983   4.146   1.982  17.538  0.4298  0.0923 -0.6155
  675TMC3    C3 9984   4.161   1.895  17.425  0.2531 -0.0762  0.6057
  675TMC3    C4 9985   4.323   2.116  17.458  0.1656 -0.2777 -0.4047
  675TMC3    C5 9986   4.331   2.039  17.346 -0.2765  0.0507 -0.0167
  675TMC3    C6 9987   4.259   1.923  17.335 -0.0402 -0.6110 -0.2568
  675TMC3     C 9988   4.221   2.165  17.668 -0.0760  0.9610  0.3409
  675TMC3     O 9989   4.117   2.159   0.050  0.7089  0.1499  0.2108
  675TMC3     H 9990   4.086   1.966  17.627  2.8526 -1.6861  0.7003
  675TMC3    H1 9991   4.388   2.202  17.477 -0.8292  0.0012  1.7698
  675TMC3    H2 9992   4.267   1.859  17.248  0.3896  0.2225 -0.8226
  675TMC3    C7 9993   4.444   2.059  17.259 -0.2482 -0.0946  0.5249
  675TMC3    C8 9994   4.085   1.775  17.407 -0.1955  1.3385  0.3622
  675TMC3    O1 9995   4.464   1.975  17.173  0.5490 -0.4133 -0.8802
  675TMC3    O2 9996   4.103   1.707  17.307  0.3228  0.4271 -0.4597
  676MPD2     C 9997   2.759   0.925  11.035 -0.8693  0.4022  0.1107
  676MPD2    C1 9998   2.633   0.865  11.040  0.1175  0.1379 -0.1669
  676MPD2    C2 9999   2.622   0.727  11.039  0.3737  0.2529  0.1298
  676MPD2    C310000   2.733   0.644  11.032  0.0693 -0.1502 -0.3863
  676MPD2    C410001   2.857   0.708  11.036  0.3564 -0.0357  0.6230
  676MPD2    C510002   2.871   0.846  11.041  0.3786 -0.3860  0.3429
  676MPD2     H10003   2.525   0.680  11.032  0.6869 -0.2982 -0.4676
  676MPD2    H110004   2.941   0.640  11.029  1.1945  1.0518  0.0872
  676MPD2    H210005   2.765   1.033  11.037 -0.2866  0.3529  0.7982
  676MPD2    H310006   2.967   0.895  11.031 -0.8004  2.4704  3.1532
  676MPD2     N10007   2.739   0.504  11.028 -0.7802 -0.3520  0.2473
  676MPD2    H510008   2.828   0.457  11.018 -0.4644 -0.0256  1.5732
  676MPD2    N110009   2.515   0.937  11.049 -0.4726  0.4242 -0.6211
  676MPD2    H710010   2.431   0.882  11.038  0.8548 -1.7494  0.1262
  677TMC3    C110011   2.362   1.088  11.130 -0.5345 -0.5183 -0.1834
  677TMC3    C210012   2.289   0.989  11.189 -0.5359 -0.2883 -0.1080
  677TMC3    C310013   2.189   1.032  11.280 -0.4177 -0.1438 -0.3207
  677TMC3    C410014   2.341   1.223  11.156 -0.4056  0.0067 -0.5987
  677TMC3    C510015   2.252   1.257  11.258 -0.4123  0.4300 -0.5802
  677TMC3    C610016   2.165   1.168  11.310  1.0745  1.1411  0.0847
  677TMC3     C10017   2.503   1.063  11.093  0.6164  0.6087  0.7671
  677TMC3     O10018   2.590   1.138  11.133  0.3008  0.4506  0.2338
  677TMC3     H10019   2.314   0.885  11.178  0.5056  0.0094 -0.5024
  677TMC3    H110020   2.415   1.289  11.112 -1.9728  0.1087 -3.1127
  677TMC3    H210021   2.093   1.192  11.387 -0.7911  1.8592 -1.8758
  677TMC3    C710022   2.305   1.355  11.358  1.0638  0.4106 -0.6182
  677TMC3    C810023   2.202   0.957  11.400 -0.6636 -0.0589 -0.2070
  677TMC3    O110024   2.232   1.374  11.451 -1.1940  0.0283  0.1347
  677TMC3    O210025   2.315   0.922  11.430  0.0230 -0.9575 -0.4650
  678MPD2     C10026   3.049   0.566   1.622  0.5024 -0.1113 -0.1205
  678MPD2    C110027   3.049   0.606   1.490  0.6028 -0.5341 -0.3487
  678MPD2    C210028   2.939   0.682   1.446  0.1690 -0.0024  0.5137
  678MPD2    C310029   2.842   0.718   1.534 -0.4440  0.5221 -0.5232
  678MPD2    C410030   2.860   0.698   1.664 -0.5671 -0.3209  0.1243
  678MPD2    C510031   2.967   0.626   1.702  0.3584 -0.1577 -0.7789
  678MPD2     H10032   2.930   0.702   1.340 -0.7570 -0.6555  0.4686
  678MPD2    H110033   2.777   0.709   1.734 -1.0247  1.1167 -0.6339
  678MPD2    H210034   3.127   0.509   1.672 -0.3792 -0.9662  0.2876
  678MPD2    H310035   2.978   0.616   1.809  1.3929  0.4697 -0.8242
  678MPD2     N10036   2.728   0.773   1.476  0.6566  0.0559 -0.0885
  678MPD2    H510037   2.719   0.768   1.375  0.1149 -0.1399 -0.0305
  678MPD2    N110038   3.138   0.553   1.391  0.0229  0.1192  0.3549
  678MPD2    H710039   3.119   0.597   1.302 -0.0234 -0.8397 -0.1041
  679TMC3    C110040   3.537   0.376   1.211  0.0933 -0.2568 -0.0122
  679TMC3    C210041   3.441   0.381   1.308 -0.2373 -0.5285 -0.1743
  679TMC3    C310042   3.322   0.438   1.286  0.8106 -0.5083  0.6793
  679TMC3    C410043   3.524   0.440   1.097 -0.0225 -0.2062 -1.0107
  679TMC3    C510044   3.403   0.496   1.075 -0.4215  0.5641 -0.0369
  679TMC3    C610045   3.293   0.495   1.165 -1.1437 -0.3421 -0.3339
  679TMC3     C10046   3.673   0.329   1.242  0.1446 -0.6726 -0.4852
  679TMC3     O10047   3.765   0.370   1.174 -0.4281 -0.0523 -0.7175
  679TMC3     H10048   3.465   0.344   1.407  2.1339  0.0100 -0.5326
  679TMC3    H110049   3.602   0.439   1.022  1.9272  2.7620  0.9817
  679TMC3    H210050   3.200   0.549   1.149 -1.1922 -0.8796 -1.8894
  679TMC3    C710051   3.384   0.593   0.965  0.1336  0.3248  0.0865
  679TMC3    C810052   3.238   0.458   1.406  0.3090 -0.2335  0.6927
  679TMC3    O110053   3.295   0.674   0.974  0.2696 -0.1930  0.2096
  679TMC3    O210054   3.274   0.401   1.508 -0.0309  0.3288 -0.2106
  680MPD2     C10055   4.188   4.275  13.620 -0.4105 -0.6375 -0.2032
  680MPD2    C110056   4.267   4.211  13.722  0.4301 -0.5207 -0.1643
  680MPD2    C210057   4.339   4.287  13.807  0.2398 -0.6240  0.2242
  680MPD2    C310058   4.331   4.428  13.793  0.3426 -0.2325  0.2080
  680MPD2    C410059   4.257   4.493  13.702  0.6371  0.2103 -0.5383
  680MPD2    C510060   4.189   4.416  13.614  0.4100  0.1791  0.9676
  680MPD2     H10061   4.406   4.243  13.880  0.4349 -0.7994 -0.0560
  680MPD2    H110062   4.247   4.600  13.691 -0.9018  0.2990  1.7944
  680MPD2    H210063   4.135   4.213  13.549 -1.8191  1.5955 -1.0824
  680MPD2    H310064   4.128   4.471  13.542  0.1362 -1.2775  0.0845
  680MPD2     N10065   4.428   4.498  13.875  0.2494 -0.5042  0.7612
  680MPD2    H510066   4.486   4.433  13.927  0.8361 -0.8455 -0.3257
  680MPD2    N110067   4.264   4.069  13.729 -0.6320 -0.2364  0.1018
  680MPD2    H710068   4.218   4.024  13.650  0.4428 -1.0791 -0.0502
  681TMC3    C110069   4.248   3.862  13.814  0.1075 -0.0635  0.6910
  681TMC3    C210070   4.172   3.811  13.917  1.1491 -0.2447 -0.1396
  681TMC3    C310071   4.112   3.688  13.890 -0.1460  0.3550  1.1286
  681TMC3    C410072   4.275   3.798  13.699 -0.0328 -0.1318  0.2406
  681TMC3    C510073   4.237   3.668  13.694  0.0100  0.5405 -0.3748
  681TMC3    C610074   4.147   3.612  13.782 -0.5014 -0.8753 -0.1152
  681TMC3     C10075   4.306   3.989  13.831 -0.3621  0.9920  0.5249
  681TMC3     O10076   4.341   4.019  13.947  0.3521  0.1607  0.0514
  681TMC3     H10077   4.137   3.866  14.003 -0.6480  0.1356 -1.1079
  681TMC3    H110078   4.359   3.839  13.644 -0.4670 -0.8833 -0.9882
  681TMC3    H210079   4.116   3.510  13.761 -0.9873 -0.8211  0.3490
  681TMC3    C710080   4.244   3.588  13.568 -0.4372  0.2826  0.6972
  681TMC3    C810081   4.045   3.620  14.000 -0.0162  0.4164  0.4983
  681TMC3    O110082   4.142   3.545  13.524 -0.2349 -0.4177 -0.5074
  681TMC3    O210083   4.010   3.505  13.973 -0.1094  0.1939 -0.0178
  682MPD2     C10084   2.067   0.627  10.617 -0.1716  0.3575 -0.5066
  682MPD2    C110085   2.006   0.731  10.549 -0.0447  0.1670  0.4732
  682MPD2    C210086   1.891   0.777  10.596 -0.2352  0.0345 -0.7249
  682MPD2    C310087   1.834   0.736  10.716  0.3993 -0.3757  0.1152
  682MPD2    C410088   1.886   0.624  10.777 -0.6067  0.0446  0.0799
  682MPD2    C510089   2.002   0.574  10.729 -0.2810 -0.0472  0.7626
  682MPD2     H10090   1.839   0.852  10.537 -0.4688  1.0732  0.8273
  682MPD2    H110091   1.864   0.598  10.880 -0.3277 -0.1709  0.0842
  682MPD2    H210092   2.164   0.591  10.588 -0.0972 -0.7988  1.1574
  682MPD2    H310093   2.038   0.489  10.786  1.8784  1.4721  1.6727
  682MPD2     N10094   1.720   0.799  10.773 -0.1275  0.0821 -0.1033
  682MPD2    H510095   1.674   0.765  10.857  0.6748  1.1261  0.7504
  682MPD2    N110096   2.065   0.787  10.430 -0.5023  0.7318 -0.3098
  682MPD2    H710097   2.010   0.861  10.388  0.1114  1.2136 -0.2533
  683TMC3    C110098   1.521   1.167  10.949 -0.3510  0.1780 -0.1637
  683TMC3    C210099   1.405   1.101  10.984  0.1050 -0.1167 -0.3094
  683TMC3    C310100   1.391   0.973  10.942  0.1502  0.8598 -0.6468
  683TMC3    C410101   1.615   1.105  10.869  0.9658  0.8027  0.6588
  683TMC3    C510102   1.592   0.976  10.835 -0.7092 -0.1643  0.7391
  683TMC3    C610103   1.475   0.909  10.866 -0.1822 -0.2764 -0.1407
  683TMC3     C10104   1.556   1.289  11.025 -0.1617 -0.6552 -0.0877
  683TMC3     O10105   1.460   1.353  11.060  0.3615 -0.0163 -0.6498
  683TMC3     H10106   1.327   1.153  11.038  0.8681 -0.4549  1.1285
  683TMC3    H110107   1.698   1.157  10.823 -0.0970  2.1283  0.2404
  683TMC3    H210108   1.463   0.809  10.824 -1.0567  0.1517 -0.9152
  683TMC3    C710109   1.673   0.925  10.736  0.2499  0.6948 -0.2833
  683TMC3    C810110   1.275   0.907  11.000  0.3714  0.1925  0.3633
  683TMC3    O110111   1.688   0.994  10.637 -0.3303  0.4274  0.2044
  683TMC3    O210112   1.189   0.984  11.051 -0.3672  0.6123  0.1829
  684MPD2     C10113   3.919   0.516  15.687  0.8870  0.2499  0.0623
  684MPD2    C110114   4.032   0.451  15.730  0.5097 -0.5973  0.5079
  684MPD2    C210115   4.132   0.518  15.797 -0.4619 -0.0435 -0.3259
  684MPD2    C310116   4.119   0.652  15.813  0.4766  0.4506  0.4905
  684MPD2    C410117   4.004   0.712  15.769 -0.6457  0.2132 -0.0953
  684MPD2    C510118   3.910   0.648  15.706  0.6721  0.3292 -0.2946
  684MPD2     H10119   4.217   0.464  15.837 -0.2937  0.0625 -0.5417
  684MPD2    H110120   3.981   0.818  15.778  1.3415  0.7496 -1.3250
  684MPD2    H210121   3.841   0.466  15.631  0.8454 -1.8584  2.0258
  684MPD2    H310122   3.824   0.697  15.661 -0.4705 -3.0493 -1.7349
  684MPD2     N10123   4.206   0.735  15.887  0.4822  0.0454  0.4776
  684MPD2    H510124   4.174   0.831  15.892 -0.5618 -0.4102  2.3375
  684MPD2    N110125   4.038   0.315  15.711  0.0006  0.2704  0.1328
  684MPD2    H710126   3.947   0.270  15.698  0.6336 -0.5875 -1.2586
  685TMC3    C110127   4.118   0.100  15.729 -0.2262 -0.2502  0.0368
  685TMC3    C210128   3.994   0.060  15.688  1.1235 -0.1046 -0.1124
  685TMC3    C310129   3.968   4.651  15.729 -0.0489 -0.2279 -0.1890
  685TMC3    C410130   4.216   0.018  15.787 -0.2514  0.3111  0.2746
  685TMC3    C510131   4.179   4.616  15.829 -1.0081  0.6941  0.0036
  685TMC3    C610132   4.053   4.573  15.809 -0.0522 -1.7941  0.6206
  685TMC3     C10133   4.151   0.239  15.718 -0.3053 -0.7491  0.3335
  685TMC3     O10134   4.271   0.270  15.718  0.0294  0.3775 -0.2255
  685TMC3     H10135   3.923   0.107  15.620  0.2761 -0.2291  0.6919
  685TMC3    H110136   4.314   0.062  15.806  0.4075 -0.1386 -2.1612
  685TMC3    H210137   4.021   4.475  15.843 -1.3833 -1.6628 -0.2537
  685TMC3    C710138   4.258   4.576  15.948 -0.4782  0.3885 -0.2666
  685TMC3    C810139   3.827   4.589  15.728 -0.1335  0.3224 -0.0107
  685TMC3    O110140   4.305   4.666  16.015 -0.2270  0.6885 -0.0377
  685TMC3    O210141   3.818   4.469  15.751  0.8224 -0.2318 -0.0664
  686MPD2     C10142   0.435   4.611  15.369  0.4974 -0.1580 -0.2126
  686MPD2    C110143   0.473   4.520  15.462 -0.2691  0.6974  0.0312
  686MPD2    C210144   0.559   4.424  15.422 -0.1355  0.6675  0.3342
  686MPD2    C310145   0.607   4.411  15.291  0.5502 -0.3266  0.7777
  686MPD2    C410146   0.576   4.508  15.199  0.4621 -0.4282 -0.2855
  686MPD2    C510147   0.472   4.594  15.242  0.0699  0.5408  0.0471
  686MPD2     H10148   0.601   4.356  15.496  0.4306  1.2533  0.5508
  686MPD2    H110149   0.599   4.503  15.094  2.4405  2.0744  0.0256
  686MPD2    H210150   0.347   4.670  15.391  1.7005  0.6498  2.5234
  686MPD2    H310151   0.420   4.659  15.173 -0.5687 -1.8255 -1.7079
  686MPD2     N10152   0.695   4.310  15.243  0.0726 -0.2412  0.2894
  686MPD2    H510153   0.741   4.330  15.155 -0.6982 -0.7917 -0.2413
  686MPD2    N110154   0.409   4.536  15.583 -0.4874  0.3807 -0.5328
  686MPD2    H710155   0.330   4.598  15.597  0.1361  1.4277 -1.5951
  687TMC3    C110156   0.668   4.142  15.419  0.5190  0.4122  0.2061
  687TMC3    C210157   0.544   4.095  15.375 -0.2991 -0.3237 -0.0343
  687TMC3    C310158   0.470   4.027  15.469 -0.2699  0.0880  0.4633
  687TMC3    C410159   0.732   4.107  15.537  0.3619 -0.0760  0.3885
  687TMC3    C510160   0.659   4.029  15.623 -0.3574  0.3699  0.9202
  687TMC3    C610161   0.532   4.002  15.597  0.2470 -0.6186  0.2001
  687TMC3     C10162   0.751   4.201  15.319  0.6643 -0.6914  0.2440
  687TMC3     O10163   0.852   4.137  15.286  0.4882 -0.1123  0.2804
  687TMC3     H10164   0.518   4.118  15.272  2.4306  1.8113 -0.2550
  687TMC3    H110165   0.837   4.130  15.555  0.6722 -0.7541 -0.5459
  687TMC3    H210166   0.480   3.950  15.676 -0.1881 -1.5495 -0.6945
  687TMC3    C710167   0.676   4.055  15.769 -0.1899 -0.1693  0.0264
  687TMC3    C810168   0.330   4.064  15.481 -0.5202 -0.8660 -1.0743
  687TMC3    O110169   0.575   4.077  15.835  0.1931  0.1886 -0.2190
  687TMC3    O210170   0.275   4.025  15.585 -0.0306 -0.7327 -0.6018
  688MPD2     C10171   0.046   3.777  17.087  0.0845  0.5660  0.1732
  688MPD2    C110172   0.079   3.671  17.162  0.0450  0.2447 -0.3691
  688MPD2    C210173   0.190   3.592  17.137 -0.0436 -0.2294 -0.6937
  688MPD2    C310174   0.289   3.638  17.046 -0.2010 -0.4641  0.2379
  688MPD2    C410175   0.255   3.753  16.965 -0.0743  0.1890 -0.1133
  688MPD2    C510176   0.137   3.813  16.985 -0.9215 -0.0954 -0.0819
  688MPD2     H10177   0.215   3.505  17.196 -0.8669  1.0496  1.5112
  688MPD2    H110178   0.325   3.791  16.891  0.6327 -0.4126  0.2407
  688MPD2    H210179   4.676   3.838  17.097  1.3140  2.1553  1.4629
  688MPD2    H310180   0.117   3.898  16.922  0.6207 -0.6525 -1.3277
  688MPD2     N10181   0.404   3.562  17.011  0.1796 -0.0255 -0.2364
  688MPD2    H510182   0.455   3.594  16.930  1.3018  0.5858  0.7127
  688MPD2    N110183   4.716   3.623  17.274  0.8110 -0.0620  0.5050
  688MPD2    H710184   0.032   3.543  17.325  0.4139 -0.3407  0.3445
  689TMC3    C110185   4.580   3.649  17.468  1.3812 -0.0040 -0.0029
  689TMC3    C210186   4.578   3.739  17.571  0.3251  0.0746  0.0871
  689TMC3    C310187   4.559   3.693   0.019 -0.2693 -0.6596 -0.0282
  689TMC3    C410188   4.564   3.513  17.485 -0.4828  0.5385  0.6914
  689TMC3    C510189   4.564   3.469  17.611 -0.5046  0.3473 -0.7717
  689TMC3    C610190   4.565   3.553   0.040 -0.1362  0.3046  0.0022
  689TMC3     C10191   4.612   3.696  17.331 -0.0637  0.0922  0.4987
  689TMC3     O10192   4.576   3.808  17.308  0.1727  0.5627  0.5121
  689TMC3     H10193   4.608   3.841  17.549  0.1072  0.1763  0.2594
  689TMC3    H110194   4.567   3.455  17.394  0.0103  1.3685  0.1804
  689TMC3    H210195   4.573   3.515   0.141 -0.5609 -0.7280 -0.3518
  689TMC3    C710196   4.577   3.328  17.621  0.0162  0.5930 -0.6876
  689TMC3    C810197   4.523   3.778   0.123  0.3573 -0.1199  0.3775
  689TMC3    O110198   4.633   3.296   0.038  0.4397  0.1559  0.5332
  689TMC3    O210199   4.546   3.742   0.238 -0.3990  0.0309  0.0149
  690MPD2     C10200   2.533   0.642  15.478  0.1992 -0.2499 -0.8733
  690MPD2    C110201   2.496   0.633  15.345  0.2234  0.3959  0.8324
  690MPD2    C210202   2.527   0.737  15.258 -0.0919  0.2043  0.4467
  690MPD2    C310203   2.602   0.843  15.303  0.4033 -0.0436  0.2675
  690MPD2    C410204   2.618   0.857  15.435 -0.5114 -0.2710  0.5196
  690MPD2    C510205   2.583   0.755  15.519 -0.3631 -0.2679  0.5762
  690MPD2     H10206   2.502   0.716  15.155 -1.2202  1.5607  0.4438
  690MPD2    H110207   2.648   0.950  15.482 -1.5035  1.3471 -2.0411
  690MPD2    H210208   2.515   0.566  15.552 -2.0722 -0.6235 -1.7877
  690MPD2    H310209   2.605   0.771  15.624 -0.3365 -0.5522  0.6141
  690MPD2     N10210   2.653   0.947  15.217 -0.9923 -0.1396 -0.3334
  690MPD2    H510211   2.703   1.018  15.270  0.2276 -0.5972 -0.8787
  690MPD2    N110212   2.434   0.520  15.302  0.2038 -0.4031 -0.2676
  690MPD2    H710213   2.409   0.510  15.204 -1.1150 -2.1926  0.2486
  691TMC3    C110214   2.354   0.306  15.287 -0.2142 -0.6067 -1.0166
  691TMC3    C210215   2.317   0.341  15.159  0.4403 -0.0372 -0.3308
  691TMC3    C310216   2.276   0.234  15.074 -0.1644 -0.8968 -0.2752
  691TMC3    C410217   2.369   0.177  15.337  0.0336 -0.3902  0.0222
  691TMC3    C510218   2.324   0.080  15.248 -0.0230 -0.0551 -0.2338
  691TMC3    C610219   2.293   0.103  15.119 -0.3166 -0.0688 -0.1863
  691TMC3     C10220   2.399   0.406  15.376 -0.0344 -0.0876  0.1381
  691TMC3     O10221   2.421   0.378  15.493 -0.3338  0.0464  0.0645
  691TMC3     H10222   2.269   0.436  15.141  1.1733  0.6208  1.1639
  691TMC3    H110223   2.398   0.156  15.439 -0.9184  0.8776  0.5440
  691TMC3    H210224   2.293   0.024  15.044 -1.2981 -0.6101  0.3899
  691TMC3    C710225   2.348   4.659  15.290  0.2903  0.1522  0.4262
  691TMC3    C810226   2.173   0.251  14.978  0.0571 -0.1445  0.4365
  691TMC3    O110227   2.451   4.639  15.353 -0.0053 -0.3321  0.1215
  691TMC3    O210228   2.169   0.158  14.896  0.3824 -0.6688  0.0003
  692TMC3    C110229   4.048   2.067  16.188  0.7487 -0.3658  0.3792
  692TMC3    C210230   4.152   2.072  16.273  0.0403 -0.1207  0.4342
  692TMC3    C310231   4.266   1.991  16.249 -0.7067 -0.3968 -0.2634
  692TMC3    C410232   4.033   1.972  16.096 -0.2612 -0.1570 -0.2147
  692TMC3    C510233   4.143   1.893  16.071  0.4542 -0.2289 -0.1540
  692TMC3    C610234   4.260   1.891  16.149 -0.1954 -0.1341 -0.0732
  692TMC3     C10235   3.945   2.165  16.197  0.1905  0.1588  0.4842
  692TMC3     O10236   3.841   2.131  16.148 -0.4827 -0.1849  0.2544
  692TMC3     H10237   4.159   2.153  16.344  0.8410  0.0219  0.1903
  692TMC3    H110238   3.952   1.975  16.025 -0.3782 -2.5593 -0.1840
  692TMC3    H210239   4.346   1.831  16.124 -0.7627 -1.3551  0.8809
  692TMC3    C710240   4.117   1.775  15.987  0.5632  0.2776 -0.2224
  692TMC3    C810241   4.315   1.927  16.371 -0.9989 -0.0582  0.3338
  692TMC3    O110242   4.040   1.804  15.895 -0.1251 -0.6271 -0.2205
  692TMC3    O210243   4.358   1.812  16.369  1.1849 -0.1144 -0.1911
  693MPD2     C10244   3.882   4.496  10.272  0.0187  0.5449 -0.1225
  693MPD2    C110245   3.858   4.360  10.277  0.0964  0.4731 -0.2839
  693MPD2    C210246   3.966   4.275  10.261  1.2651  0.4791 -0.4442
  693MPD2    C310247   4.091   4.329  10.235 -0.2069 -0.2266 -0.1214
  693MPD2    C410248   4.113   4.466  10.235  0.3707 -0.3420  0.4652
  693MPD2    C510249   4.011   4.554  10.259 -0.3638 -0.0107  0.0021
  693MPD2     H10250   3.945   4.169  10.262 -1.9422  1.1136 -0.5773
  693MPD2    H110251   4.212   4.508  10.219  0.0452  1.0676  2.1456
  693MPD2    H210252   3.799   4.560  10.300 -1.2247 -1.0564 -0.1511
  693MPD2    H310253   4.033   4.657  10.282 -1.2379  0.1739  0.0193
  693MPD2     N10254   4.207   4.244  10.228  0.6686 -0.4135  0.4652
  693MPD2    H510255   4.300   4.283  10.214  0.6789 -0.4818  0.3485
  693MPD2    N110256   3.724   4.320  10.314 -0.7614 -0.2920 -0.4446
  693MPD2    H710257   3.667   4.401  10.339  1.1151  0.4037  1.5406
  694TMC3    C110258   3.535   4.202  10.351  0.3046  0.1375 -0.2503
  694TMC3    C210259   3.428   4.144  10.291 -0.4284 -0.1508  0.3898
  694TMC3    C310260   3.310   4.139  10.357 -0.6620  0.1885 -0.3076
  694TMC3    C410261   3.530   4.242  10.485  0.1632  0.2517  0.3727
  694TMC3    C510262   3.416   4.212  10.552  0.3534 -0.2384 -0.2046
  694TMC3    C610263   3.301   4.164  10.490  0.0542  0.0488  0.3810
  694TMC3     C10264   3.668   4.198  10.292  0.5480  0.5709  0.0072
  694TMC3     O10265   3.702   4.103  10.222 -0.3473 -0.2128  0.3045
  694TMC3     H10266   3.441   4.108  10.189 -0.4413  4.2535 -1.2043
  694TMC3    H110267   3.614   4.290  10.535 -1.2985  0.7541  2.3283
  694TMC3    H210268   3.203   4.159  10.534 -0.1503 -2.6824 -0.3660
  694TMC3    C710269   3.407   4.259  10.688 -0.2495  0.5670 -0.4985
  694TMC3    C810270   3.191   4.084  10.293 -0.6251 -0.2811 -0.8292
  694TMC3    O110271   3.486   4.345  10.727 -0.0945 -0.0743 -0.4175
  694TMC3    O210272   3.135   3.988  10.344 -0.6994 -0.4287 -0.2212
  695MPD2     C10273   4.599   1.563  13.254 -0.0398  0.6375  0.5203
  695MPD2    C110274   4.586   1.621  13.385 -0.1502  0.1907  0.0559
  695MPD2    C210275   4.469   1.677  13.422  0.0331 -0.1662 -0.9854
  695MPD2    C310276   4.364   1.685  13.328  0.0203  0.0891 -0.1994
  695MPD2    C410277   4.377   1.639  13.200 -0.3095  0.1545  0.1034
  695MPD2    C510278   4.490   1.573  13.169 -0.0940  0.8294 -0.1091
  695MPD2     H10279   4.457   1.713  13.524  0.4834  3.3984 -2.1741
  695MPD2    H110280   4.292   1.665  13.139 -0.6036 -0.0559  0.4233
  695MPD2    H210281   4.684   1.513  13.209 -0.2615  0.3284  0.4394
  695MPD2    H310282   4.496   1.539  13.066 -0.6290 -0.0676  0.1595
  695MPD2     N10283   4.248   1.752  13.376 -0.3294 -0.3264 -0.1181
  695MPD2    H510284   4.247   1.775  13.475  1.2864  0.5585 -0.3048
  695MPD2    N110285   4.690   1.630  13.480  0.6417  0.7875  0.8326
  695MPD2    H710286   4.676   1.684  13.565  1.7793  1.7646  0.3954
  696TMC3    C110287   4.032   1.848  13.379  0.5536 -0.2159  0.0374
  696TMC3    C210288   4.026   1.805  13.507 -0.2417  0.4850 -0.7858
  696TMC3    C310289   3.950   1.872  13.596  0.3779  0.2826 -0.0778
  696TMC3    C410290   3.970   1.960  13.332 -0.3200 -0.8866 -0.4360
  696TMC3    C510291   3.886   2.018  13.415  0.3950 -0.0165 -0.0445
  696TMC3    C610292   3.866   1.973  13.547 -0.8224  0.1201 -0.5349
  696TMC3     C10293   4.139   1.800  13.303  0.0307 -0.3024  0.2249
  696TMC3     O10294   4.125   1.808  13.179  0.2281 -0.1312  0.2687
  696TMC3     H10295   4.080   1.717  13.542  1.0389  0.9839 -1.4836
  696TMC3    H110296   3.986   1.994  13.230  0.3181 -0.5148 -0.2119
  696TMC3    H210297   3.784   2.018  13.602  0.1484  0.3624  0.7083
  696TMC3    C710298   3.827   2.142  13.376 -0.2489 -0.6195  0.0167
  696TMC3    C810299   3.958   1.846  13.738  0.0238  0.1051  0.4972
  696TMC3    O110300   3.828   2.164  13.252  0.3790 -0.7629 -0.1974
  696TMC3    O210301   4.066   1.798  13.773 -0.8313  0.4731  0.0443
  697MPD2     C10302   3.232   3.580  15.525 -0.1258 -0.4917  0.1617
  697MPD2    C110303   3.278   3.499  15.427 -0.0723  0.0201  0.2783
  697MPD2    C210304   3.318   3.555  15.306 -0.1969  1.0969 -0.2580
  697MPD2    C310305   3.297   3.691  15.279 -0.4680 -0.0607 -0.4436
  697MPD2    C410306   3.232   3.767  15.379  0.6888 -0.6589 -0.6520
  697MPD2    C510307   3.210   3.713  15.505  0.2362  0.1875  0.0732
  697MPD2     H10308   3.356   3.488  15.230 -0.2202  1.0491 -0.2272
  697MPD2    H110309   3.204   3.871  15.362  1.4551 -0.9435 -3.4941
  697MPD2    H210310   3.202   3.537  15.620 -0.2214  1.6232  1.0665
  697MPD2    H310311   3.166   3.770  15.586 -0.4354 -1.9756  1.2356
  697MPD2     N10312   3.337   3.741  15.155  0.1603  0.0151  0.8112
  697MPD2    H510313   3.370   3.671  15.089  1.8688  1.5459  0.0557
  697MPD2    N110314   3.293   3.359  15.448 -0.1157  0.0485  0.2306
  697MPD2    H710315   3.322   3.311  15.363 -3.6648 -0.3272 -0.7874
  698TMC3    C110316   3.432   3.888  15.006  0.4739  0.2732 -0.2989
  698TMC3    C210317   3.522   3.994  15.009  0.2340 -0.4106  0.2637
  698TMC3    C310318   3.627   3.974  14.920  0.2276 -0.1598  0.0388
  698TMC3    C410319   3.428   3.797  14.910 -0.0380  0.4570  0.4483
  698TMC3    C510320   3.517   3.815  14.806  0.6864  0.1972  0.4364
  698TMC3    C610321   3.634   3.885  14.823  0.6384  0.6144 -0.2587
  698TMC3     C10322   3.353   3.878  15.127  0.0403 -0.0227  0.4390
  698TMC3     O10323   3.368   3.966  15.210  0.2020  0.1517  0.4602
  698TMC3     H10324   3.528   4.075  15.080  1.0398 -1.2322  1.1337
  698TMC3    H110325   3.340   3.736  14.893 -0.5570  0.4354  3.2042
  698TMC3    H210326   3.711   3.894  14.748  1.2531 -0.0893  0.2847
  698TMC3    C710327   3.510   3.746  14.684 -0.1958  0.3340  0.3255
  698TMC3    C810328   3.755   4.034  14.960 -0.0961 -0.6374 -0.3754
  698TMC3    O110329   3.574   3.797  14.591  0.7066  0.1291 -0.5101
  698TMC3    O210330   3.838   4.043  14.870  0.4213 -0.0167 -0.0039
  699TMC3    C110331   3.691   1.891  13.078 -0.4527 -0.1406  0.0370
  699TMC3    C210332   3.751   1.796  13.160  0.0387  0.3300  0.3897
  699TMC3    C310333   3.687   1.778  13.282  1.3859 -0.0179 -1.1149
  699TMC3    C410334   3.585   1.967  13.117 -0.3309  0.2511 -0.0163
  699TMC3    C510335   3.542   1.958  13.240 -0.2688 -0.7131  0.5168
  699TMC3    C610336   3.584   1.856  13.320  0.2433 -0.4684 -0.1812
  699TMC3     C10337   3.753   1.930  12.951 -0.9804 -0.0271  0.2819
  699TMC3     O10338   3.705   2.027  12.893  0.1367 -0.1675  0.8281
  699TMC3     H10339   3.841   1.745  13.128  0.1415 -0.3488  1.7574
  699TMC3    H110340   3.554   2.044  13.046 -0.4207  1.1384  0.9836
  699TMC3    H210341   3.524   1.827  13.405  1.5234 -1.6167  0.3210
  699TMC3    C710342   3.400   1.974  13.258  0.3620 -0.3687  0.7677
  699TMC3    C810343   3.738   1.685  13.376  0.3968 -0.1642  1.1431
  699TMC3    O110344   3.363   1.999  13.372 -0.0259 -0.0140 -0.0724
  699TMC3    O210345   3.709   1.705  13.497  0.5398 -0.0051  0.0579
  700TMC3    C110346   2.507   4.035  17.462 -0.0351 -0.2695 -0.1115
  700TMC3    C210347   2.570   3.913  17.465 -0.0713  0.3459  0.4774
  700TMC3    C310348   2.702   3.896  17.497  0.3729  0.2243  0.8959
  700TMC3    C410349   2.584   4.141  17.505 -0.2334  0.3211  0.6474
  700TMC3    C510350   2.705   4.121  17.559  0.2474 -0.0945 -0.4736
  700TMC3    C610351   2.770   4.004  17.543  0.5889 -0.5064  0.0694
  700TMC3     C10352   2.441   4.053  17.333 -0.1010  0.1806 -0.1379
  700TMC3     O10353   2.358   3.977  17.293 -0.0427 -0.1375  0.2220
  700TMC3     H10354   2.524   3.827  17.417  2.2122  0.0830 -1.2325
  700TMC3    H110355   2.552   4.244  17.492 -2.9793 -0.4007  1.7976
  700TMC3    H210356   2.871   3.984  17.574 -0.1921  0.4243  3.2537
  700TMC3    C710357   2.761   4.228  17.630 -0.7910  0.0417  0.8324
  700TMC3    C810358   2.783   3.788  17.442 -0.3926 -0.9893 -0.1502
  700TMC3    O110359   2.881   4.236  17.653 -0.7906  0.1093  0.1310
  700TMC3    O210360   2.904   3.805  17.430  0.0010 -0.3871  0.0077
  701TMC3    C110361   2.896   2.582  15.543 -0.2028 -0.5872 -0.5807
  701TMC3    C210362   2.923   2.561  15.403 -0.3665 -0.5350  0.2094
  701TMC3    C310363   3.023   2.633  15.348  0.9343  0.0136 -0.2885
  701TMC3    C410364   2.968   2.685  15.609 -0.2939  0.6436 -1.1600
  701TMC3    C510365   3.056   2.766  15.543  0.5240 -0.2068 -0.0409
  701TMC3    C610366   3.093   2.730  15.418 -0.6273  0.1712  0.3776
  701TMC3     C10367   2.787   2.512  15.613 -0.4996 -0.0680  0.0470
  701TMC3     O10368   2.783   2.510  15.736  0.2555  0.4625 -0.0483
  701TMC3     H10369   2.881   2.472  15.358  0.8207  0.1973 -2.2928
  701TMC3    H110370   2.938   2.709  15.711  0.6653  0.2220 -0.7789
  701TMC3    H210371   3.174   2.781  15.368  0.9326 -1.2830  1.4348
  701TMC3    C710372   3.028   2.913  15.541  0.3034 -0.1868  0.0022
  701TMC3    C810373   3.046   2.629  15.205 -0.2987 -0.2645  0.1031
  701TMC3    O110374   3.069   2.970  15.436  0.3045 -0.3407  0.0738
  701TMC3    O210375   3.147   2.685  15.161  0.0847  0.0364  0.3666
  702MPD2     C10376   2.966   0.076  10.504  0.5047  0.2180  0.1011
  702MPD2    C110377   2.942   0.182  10.579  0.0470  0.1960  0.7109
  702MPD2    C210378   2.948   0.304  10.524 -0.0981  0.3368  0.0413
  702MPD2    C310379   2.967   0.319  10.389  0.0948 -0.5811  0.2300
  702MPD2    C410380   2.989   0.212  10.316 -0.4417 -0.4519 -0.5639
  702MPD2    C510381   2.986   0.085  10.368 -1.0576 -0.2599  0.7635
  702MPD2     H10382   2.932   0.389  10.590  1.6373 -0.9393  2.1330
  702MPD2    H110383   3.003   0.210  10.208 -0.4288 -0.3877 -0.5629
  702MPD2    H210384   2.961   4.693  10.540 -1.5378 -0.1468 -1.2034
  702MPD2    H310385   3.004   4.719  10.305 -1.5879 -0.4699  0.8979
  702MPD2     N10386   2.975   0.445  10.326  0.9342  0.3266 -0.3289
  702MPD2    H510387   3.036   0.461  10.246 -0.8600  1.4683 -1.4714
  702MPD2    N110388   2.882   0.178  10.703 -0.2103 -0.0876 -0.2237
  702MPD2    H710389   2.855   0.261  10.753 -0.8853  1.4808 -3.1738
  703TMC3    C110390   2.966   0.677  10.318  0.0416 -0.4710 -0.6028
  703TMC3    C210391   2.893   0.783  10.360  0.2834  0.2425  0.3374
  703TMC3    C310392   2.943   0.911  10.323  0.2580  0.8588 -0.5160
  703TMC3    C410393   3.087   0.683  10.251 -0.5954  0.4065 -0.3117
  703TMC3    C510394   3.137   0.807  10.225  0.1669 -0.5391 -0.0052
  703TMC3    C610395   3.062   0.924  10.254  0.1105 -1.1137  0.6886
  703TMC3     C10396   2.924   0.556  10.384  0.2753 -0.2348  0.1978
  703TMC3     O10397   2.843   0.565  10.474  0.4782 -0.0765 -0.0060
  703TMC3     H10398   2.798   0.766  10.409 -0.1263  0.7325 -0.2870
  703TMC3    H110399   3.146   0.593  10.236 -0.0895  0.5974  0.5618
  703TMC3    H210400   3.105   1.019  10.224  0.2503 -1.2319  0.5067
  703TMC3    C710401   3.276   0.820  10.188 -0.5138  0.3792 -1.0973
  703TMC3    C810402   2.896   1.029  10.399  0.0335  0.0614  0.1906
  703TMC3    O110403   3.302   0.930  10.146 -0.9510  0.9587  0.0563
  703TMC3    O210404   2.960   1.132  10.397 -0.2238  0.6971  0.2971
  704TMC3    C110405   0.909   3.458  12.699  0.2351  0.4051  0.0471
  704TMC3    C210406   0.980   3.492  12.588  0.0671  0.0655 -0.0680
  704TMC3    C310407   1.111   3.461  12.579  0.1146  0.1731  0.4714
  704TMC3    C410408   0.978   3.401  12.800 -0.5783  0.0499 -0.6699
  704TMC3    C510409   1.108   3.351  12.785  0.5118  0.4635  0.9432
  704TMC3    C610410   1.173   3.374  12.670 -0.0633 -0.4583 -0.0847
  704TMC3     C10411   0.767   3.429  12.687  0.3609  0.3101 -0.1008
  704TMC3     O10412   0.698   3.424  12.785 -0.1945 -0.0654  0.4648
  704TMC3     H10413   0.935   3.551  12.508  0.5059  0.4006 -0.0650
  704TMC3    H110414   0.927   3.392  12.896  0.4518 -1.2044 -0.2286
  704TMC3    H210415   1.271   3.335  12.641 -0.1869 -1.2100  0.4971
  704TMC3    C710416   1.175   3.276  12.893  0.1002  0.2988 -0.4588
  704TMC3    C810417   1.147   3.447  12.441 -0.0070  0.6025  0.5819
  704TMC3    O110418   1.291   3.301  12.903 -0.3291  0.2296  0.6401
  704TMC3    O210419   1.052   3.397  12.375 -0.6114 -0.7926 -0.7925
  705MPD2     C10420   4.436   1.402  16.798  0.0149  0.0187 -0.5222
  705MPD2    C110421   4.377   1.435  16.678  0.2083  0.9156  0.1987
  705MPD2    C210422   4.239   1.441  16.662 -0.3735 -0.1438  0.1534
  705MPD2    C310423   4.168   1.426  16.778  0.0806 -0.3229  0.3451
  705MPD2    C410424   4.228   1.390  16.900  0.7826  0.5015 -0.5059
  705MPD2    C510425   4.364   1.385  16.910 -0.0556 -0.1779 -0.2791
  705MPD2     H10426   4.191   1.457  16.566  0.5850  0.7837 -0.1701
  705MPD2    H110427   4.164   1.369  16.985 -1.5043  0.6930 -2.1591
  705MPD2    H210428   4.543   1.393  16.817  0.4857 -0.2650 -3.2768
  705MPD2    H310429   4.415   1.339  16.993  1.0346  3.2154  0.9076
  705MPD2     N10430   4.026   1.455  16.781 -0.4602 -0.2415  0.2332
  705MPD2    H510431   3.981   1.469  16.870  0.0652  2.6268  0.0464
  705MPD2    N110432   4.449   1.440  16.551 -0.4008  0.0995  0.2021
  705MPD2    H710433   4.399   1.465  16.466 -0.2271  0.8583  0.3168
  706TMC3    C110434   0.039   1.408  16.214 -0.4959 -0.3765  0.7193
  706TMC3    C210435   4.701   1.517  16.140 -0.4637  0.3418  0.2064
  706TMC3    C310436   4.622   1.597  16.214  0.1091  0.1746 -0.8448
  706TMC3    C410437   0.013   1.390  16.349 -0.2047 -0.4510 -0.2994
  706TMC3    C510438   4.623   1.456  16.402 -0.5602 -0.5728 -0.3796
  706TMC3    C610439   4.568   1.559  16.335 -0.6693 -0.0120  0.6631
  706TMC3     C10440   0.139   1.335  16.146 -0.3772 -0.0367 -0.1003
  706TMC3     O10441   0.193   1.247  16.209 -0.5509  0.1642 -0.5560
  706TMC3     H10442   0.046   1.565  16.067  0.8620 -1.7999 -0.0308
  706TMC3    H110443   0.059   1.304  16.397  0.3009 -0.3060 -0.5216
  706TMC3    H210444   4.504   1.621  16.397 -1.2689 -0.6399  0.6608
  706TMC3    C710445   4.581   1.423  16.538  0.2401 -0.0476 -0.3354
  706TMC3    C810446   4.641   1.742  16.179 -0.0183  0.2962 -0.3839
  706TMC3    O110447   4.653   1.366  16.617 -0.2787 -0.4763  0.3191
  706TMC3    O210448   4.640   1.778  16.061 -0.4119 -0.1030 -0.2430
  707TMC3    C110449   1.137   1.388   1.155 -0.2897 -0.1245 -0.8231
  707TMC3    C210450   1.098   1.297   1.251  0.1820 -0.0024  0.6167
  707TMC3    C310451   1.015   1.342   1.350  0.8384  1.0002 -0.6014
  707TMC3    C410452   1.115   1.520   1.165  0.1301 -0.1774  0.7762
  707TMC3    C510453   1.055   1.566   1.280 -0.4305  0.1316 -1.0547
  707TMC3    C610454   0.986   1.477   1.363 -0.1273 -0.1252 -0.7388
  707TMC3     C10455   1.210   1.322   1.053  0.5615 -0.4067  0.3744
  707TMC3     O10456   1.255   1.213   1.077  0.5437  0.1338  0.5534
  707TMC3     H10457   1.101   1.191   1.228 -3.4618 -0.3185  1.6888
  707TMC3    H110458   1.139   1.588   1.084  0.3417  0.7468  1.6222
  707TMC3    H210459   0.934   1.521   1.447  0.7463 -2.2029  0.9161
  707TMC3    C710460   1.027   1.705   1.287 -0.1506 -0.3223  0.0978
  707TMC3    C810461   0.996   1.261   1.475 -0.2544  0.5989 -0.6002
  707TMC3    O110462   0.928   1.739   1.344 -0.0403 -0.6874 -0.1698
  707TMC3    O210463   0.957   1.327   1.571 -0.1718  0.0969  0.2276
  708MPD2     C10464   3.610   4.604  13.849 -0.3845  0.3522  0.1297
  708MPD2    C110465   3.630   0.008  13.903 -0.2409 -0.3975 -0.4755
  708MPD2    C210466   3.613   0.031  14.040  0.2028 -0.1409  0.1981
  708MPD2    C310467   3.566   4.648  14.123 -0.3432 -0.2419 -0.1447
  708MPD2    C410468   3.538   4.525  14.068 -0.1959 -0.8272  0.4159
  708MPD2    C510469   3.554   4.506  13.933  0.0145  0.6280  0.2358
  708MPD2     H10470   3.638   0.125  14.086  2.0648 -1.4719  1.8821
  708MPD2    H110471   3.503   4.446  14.134 -2.1663 -1.0568 -0.8750
  708MPD2    H210472   3.626   4.582  13.745  0.5678  0.1717  0.3190
  708MPD2    H310473   3.540   4.408  13.890 -0.4976  1.1578 -0.8219
  708MPD2     N10474   3.540   4.665  14.257 -0.2911  0.1950  0.5737
  708MPD2    H510475   3.475   4.605  14.307 -0.6352 -0.4643 -0.6579
  708MPD2    N110476   3.655   0.106  13.805 -0.2691 -0.1080  0.2941
  708MPD2    H710477   3.653   0.076  13.708 -1.8028  0.1372  0.2432
  709TMC3    C110478   3.651   0.330  13.713  0.5696  0.3570 -0.0783
  709TMC3    C210479   3.631   0.268  13.596 -0.2787 -0.2399  0.2403
  709TMC3    C310480   3.516   0.294  13.537  0.4840 -0.1805  0.8499
  709TMC3    C410481   3.565   0.428  13.755 -0.1992 -0.5013  0.1297
  709TMC3    C510482   3.443   0.445  13.697 -0.1227 -0.0283 -0.4553
  709TMC3    C610483   3.416   0.375  13.585  1.0748  0.7209  0.5403
  709TMC3     C10484   3.663   0.246  13.832  0.3755  0.0534  0.5634
  709TMC3     O10485   3.666   0.304  13.942 -0.1858 -0.0960 -0.0099
  709TMC3     H10486   3.699   0.189  13.567  0.6630 -0.0672  1.9987
  709TMC3    H110487   3.602   0.494  13.833 -1.0877 -0.7872  0.7901
  709TMC3    H210488   3.314   0.369  13.549  0.4900 -0.1863  2.3506
  709TMC3    C710489   3.340   0.464  13.794  0.4031  0.0371 -0.2850
  709TMC3    C810490   3.498   0.217  13.414 -0.0663 -0.7723  0.1599
  709TMC3    O110491   3.229   0.479  13.743 -0.0895  0.2337  0.3069
  709TMC3    O210492   3.557   0.108  13.417  0.6131  0.2049  0.6100
  710TMC3    C110493   3.157   1.366   0.664  0.0195 -0.3116  0.1068
  710TMC3    C210494   3.176   1.415   0.535  0.3922 -0.4009  0.0195
  710TMC3    C310495   3.229   1.329   0.443  0.3268  0.1678 -0.1553
  710TMC3    C410496   3.190   1.238   0.699  0.2292  0.0622  0.0595
  710TMC3    C510497   3.250   1.158   0.603  0.2691  0.2418  0.5042
  710TMC3    C610498   3.267   1.197   0.474 -1.0717 -0.1850  0.1324
  710TMC3     C10499   3.111   1.445   0.777  0.2166 -0.4036  0.8978
  710TMC3     O10500   3.122   1.412   0.894 -0.8495  0.0337  0.8457
  710TMC3     H10501   3.186   1.522   0.518  0.2094 -0.6634 -1.7419
  710TMC3    H110502   3.163   1.202   0.797 -0.1195  0.8856  0.2636
  710TMC3    H210503   3.288   1.121   0.400  1.0069 -1.3549  1.9161
  710TMC3    C710504   3.302   1.027   0.656  0.0590 -0.6482  0.0896
  710TMC3    C810505   3.249   1.370   0.304 -0.3754 -0.1787  0.1765
  710TMC3    O110506   3.278   1.010   0.776  0.0372 -0.1034 -0.1907
  710TMC3    O210507   3.265   1.283   0.219  0.0810 -0.0593  0.0440
  711TMC3    C110508   3.461   2.457  15.195  0.4707  0.3014 -0.0672
  711TMC3    C210509   3.489   2.515  15.317 -0.0656  0.0702  0.1736
  711TMC3    C310510   3.624   2.528  15.348  0.3674 -0.8173 -0.3120
  711TMC3    C410511   3.553   2.423  15.106 -0.0371 -0.2009  0.2839
  711TMC3    C510512   3.683   2.441  15.137 -0.6099 -0.5306  0.7240
  711TMC3    C610513   3.722   2.494  15.262 -0.4445  0.4232 -0.6361
  711TMC3     C10514   3.332   2.393  15.175 -0.1113 -0.8224  0.2007
  711TMC3     O10515   3.276   2.397  15.063 -0.0780  0.1529 -0.6961
  711TMC3     H10516   3.410   2.536  15.389 -3.0840 -2.2012 -2.4862
  711TMC3    H110517   3.519   2.380  15.012 -0.4969  0.3688  0.1921
  711TMC3    H210518   3.825   2.519  15.282 -0.3277 -0.9666  0.4461
  711TMC3    C710519   3.779   2.349  15.081 -0.4430  0.1606  0.1981
  711TMC3    C810520   3.652   2.579  15.482 -0.7715  0.0865 -0.8307
  711TMC3    O110521   3.888   2.356  15.132 -0.0018  0.6503  0.0202
  711TMC3    O210522   3.558   2.608  15.556 -0.4622  0.5090 -0.2329
  712MPD2     C10523   0.485   3.240  14.052 -0.6199  0.2946  0.1921
  712MPD2    C110524   0.433   3.311  13.946  0.3051  0.1159 -0.4913
  712MPD2    C210525   0.451   3.445  13.946  0.5685 -0.5477  0.0908
  712MPD2    C310526   0.519   3.515  14.042  0.1399  0.0131  0.1360
  712MPD2    C410527   0.594   3.439  14.129 -0.7442  0.1990  0.6339
  712MPD2    C510528   0.568   3.309  14.139  0.3036  0.1204 -0.0271
  712MPD2     H10529   0.404   3.506  13.869  0.5299 -0.6214  0.0560
  712MPD2    H110530   0.654   3.478  14.210 -2.6506  4.8799 -0.1924
  712MPD2    H210531   0.481   3.131  14.054 -2.6644  0.3749  0.0354
  712MPD2    H310532   0.624   3.241  14.203  1.3951 -0.5762 -1.7040
  712MPD2     N10533   0.530   3.653  14.058 -0.5599  0.1354  0.4787
  712MPD2    H510534   0.581   3.687  14.139 -0.6831 -1.2557  1.1268
  712MPD2    N110535   0.369   3.245  13.833 -0.0172 -0.0623 -0.2928
  712MPD2    H710536   0.359   3.293  13.744  1.2550  0.0125 -0.3889
  713TMC3    C110537   0.481   3.885  14.045 -0.7799 -0.1020  0.2852
  713TMC3    C210538   0.613   3.929  14.024  0.2768  0.0352 -0.1398
  713TMC3    C310539   0.641   4.051  13.965  0.5007  0.3228 -0.5729
  713TMC3    C410540   0.379   3.966  14.005  0.6451 -0.8043  0.0414
  713TMC3    C510541   0.413   4.078  13.928 -0.3052 -0.3008 -0.1669
  713TMC3    C610542   0.535   4.124  13.915  0.7552  1.0491  0.2633
  713TMC3     C10543   0.453   3.750  13.994 -0.3845  0.1720  0.2964
  713TMC3     O10544   0.395   3.740  13.886  0.2602 -0.6770 -0.8802
  713TMC3     H10545   0.702   3.870  14.041 -0.9874 -2.2688 -1.4240
  713TMC3    H110546   0.278   3.928  14.004  1.0263 -1.7744 -1.5072
  713TMC3    H210547   0.558   4.220  13.870  1.3712  0.0571 -1.5220
  713TMC3    C710548   0.300   4.152  13.874 -0.9256  0.2872  0.0973
  713TMC3    C810549   0.752   4.038  13.869  0.1399  0.0863  0.0144
  713TMC3    O110550   0.201   4.088  13.844 -0.2092  0.3920  0.3849
  713TMC3    O210551   0.724   4.072  13.755  0.4916 -0.1479  0.3155
  714MPD2     C10552   2.275   2.743   1.097 -0.7575  0.1812  0.0554
  714MPD2    C110553   2.291   2.614   1.054 -0.1584  0.3826 -0.4148
  714MPD2    C210554   2.210   2.574   0.949 -0.0725 -0.4484  0.7314
  714MPD2    C310555   2.119   2.654   0.882 -0.1213  0.3235 -0.3302
  714MPD2    C410556   2.103   2.779   0.934 -0.1149  0.0255 -0.0107
  714MPD2    C510557   2.179   2.822   1.040 -0.6498  0.3120  0.3025
  714MPD2     H10558   2.215   2.470   0.919 -1.7907 -0.0532 -0.9408
  714MPD2    H110559   2.040   2.852   0.884 -1.4381  0.6136  2.5230
  714MPD2    H210560   2.333   2.788   1.177  0.5018 -0.9801 -0.2097
  714MPD2    H310561   2.160   2.923   1.072  1.5253  0.1461  2.1074
  714MPD2     N10562   2.049   2.598   0.778 -0.6130  0.0528 -0.0899
  714MPD2    H510563   2.074   2.500   0.770  0.5402  0.2514  1.1657
  714MPD2    N110564   2.383   2.532   1.121  0.5963  0.0466  0.8644
  714MPD2    H710565   2.426   2.576   1.203 -0.5115  0.3376  1.2845
  715TMC3    C110566   2.512   2.346   1.180  0.3337 -0.7084 -0.0622
  715TMC3    C210567   2.518   2.211   1.189  0.2061  0.0305  0.4548
  715TMC3    C310568   2.636   2.162   1.235  0.1073  0.3711  0.0299
  715TMC3    C410569   2.603   2.435   1.231 -0.0356  0.6765  0.3240
  715TMC3    C510570   2.722   2.382   1.274 -0.0348 -0.9106  0.5852
  715TMC3    C610571   2.746   2.244   1.269  1.2502 -0.1636 -0.6231
  715TMC3     C10572   2.403   2.397   1.099 -0.2471 -0.2076 -0.0933
  715TMC3     O10573   2.356   2.323   1.013  0.3181  0.1867 -0.0204
  715TMC3     H10574   2.435   2.148   1.161  1.2817 -0.3249 -1.9958
  715TMC3    H110575   2.605   2.542   1.215  0.4447  0.7463  0.8157
  715TMC3    H210576   2.836   2.206   1.315  1.7404 -0.2075 -1.6198
  715TMC3    C710577   2.837   2.460   1.317  0.9012  0.0328  0.1813
  715TMC3    C810578   2.642   2.020   1.271  0.0103  0.1175 -0.1267
  715TMC3    O110579   2.948   2.410   1.330 -0.0636  0.7952  0.0610
  715TMC3    O210580   2.550   1.951   1.223  1.1311 -0.4099  0.0377
  716MPD2     C10581   2.689   4.518   9.642  0.1382  0.0293  0.7824
  716MPD2    C110582   2.659   4.596   9.534 -0.1387  0.0154  0.3508
  716MPD2    C210583   2.584   4.533   9.438 -0.0082  0.0892 -0.1795
  716MPD2    C310584   2.538   4.401   9.450  0.3771 -0.1498  0.1692
  716MPD2    C410585   2.573   4.324   9.558 -0.0515 -0.2180 -0.6477
  716MPD2    C510586   2.646   4.385   9.658 -0.1208  0.0914  0.1930
  716MPD2     H10587   2.559   4.573   9.340 -0.9390 -1.8385 -0.7407
  716MPD2    H110588   2.546   4.220   9.570 -0.0229  0.1391  2.6624
  716MPD2    H210589   2.759   4.558   9.715 -0.8343  2.0547  0.6033
  716MPD2    H310590   2.667   4.335   9.752 -0.5872 -0.7517 -0.1550
  716MPD2     N10591   2.461   4.349   9.341 -0.0122 -0.1688  0.3722
  716MPD2    H510592   2.420   4.410   9.271 -1.6962 -0.7772  0.8377
  716MPD2    N110593   2.708   0.014   9.526  0.9559 -0.5426  0.5041
  716MPD2    H710594   2.770   0.044   9.600  0.1942  1.4050  0.3389
  717TMC3    C110595   2.341   4.192   9.214  0.5841  0.4742  0.2487
  717TMC3    C210596   2.235   4.287   9.196 -0.1367 -0.0965  0.1712
  717TMC3    C310597   2.123   4.242   9.129  0.6156 -0.0410 -0.3733
  717TMC3    C410598   2.320   4.062   9.172  0.6596 -1.0360 -0.0551
  717TMC3    C510599   2.195   4.021   9.133 -0.5045 -0.0871  0.3703
  717TMC3    C610600   2.099   4.110   9.103  0.7736  0.4626  0.1049
  717TMC3     C10601   2.436   4.214   9.316  0.7571 -0.2810  0.6692
  717TMC3     O10602   2.491   4.114   9.360  0.5200  0.2281  0.3366
  717TMC3     H10603   2.251   4.387   9.235  2.4579  0.0004 -1.1163
  717TMC3    H110604   2.404   3.997   9.190  0.9046 -1.1782 -1.7620
  717TMC3    H210605   2.011   4.079   9.048 -0.5561  0.0111  2.5358
  717TMC3    C710606   2.156   3.881   9.140  1.1372  0.4708 -0.2190
  717TMC3    C810607   2.033   4.345   9.076 -0.3711  0.4995 -0.3244
  717TMC3    O110608   2.047   3.862   9.098  0.2786  0.5932 -0.0223
  717TMC3    O210609   2.053   4.460   9.118  0.3704 -0.2851  0.8179
  718MPD2     C10610   2.361   4.058  13.010  0.3944  0.4944 -0.4486
  718MPD2    C110611   2.282   4.010  12.905  0.5214  0.2062 -0.1638
  718MPD2    C210612   2.214   3.897  12.937  0.0211  0.1268  0.5155
  718MPD2    C310613   2.214   3.835  13.059 -0.7815  0.2795  0.1254
  718MPD2    C410614   2.295   3.886  13.156 -0.9618  0.1541 -0.1579
  718MPD2    C510615   2.367   3.996  13.131  0.4686 -0.1546 -0.0675
  718MPD2     H10616   2.156   3.847  12.860  1.7085  0.7228 -1.1545
  718MPD2    H110617   2.310   3.821  13.241 -1.7529  1.3578  0.8858
  718MPD2    H210618   2.411   4.152  12.987  0.9043  0.8659  2.1327
  718MPD2    H310619   2.421   4.042  13.214  0.9320  0.9059 -0.9626
  718MPD2     N10620   2.149   3.708  13.073  0.5417  0.1956  1.0025
  718MPD2    H510621   2.092   3.685  12.993 -1.4390  1.4753  2.0317
  718MPD2    N110622   2.285   4.071  12.777 -0.5551  0.2512 -0.1354
  718MPD2    H710623   2.354   4.146  12.772 -0.1275 -0.0650  0.9005
  719TMC3    C110624   2.258   4.098  12.546 -0.1718  0.2871 -0.6926
  719TMC3    C210625   2.218   4.015  12.446  0.7066 -0.0230 -0.8901
  719TMC3    C310626   2.295   3.966  12.354  0.1647  0.0859 -0.0894
  719TMC3    C410627   2.387   4.146  12.551 -0.1191  0.0893 -0.3361
  719TMC3    C510628   2.461   4.105  12.440  0.3256 -0.4500 -0.1710
  719TMC3    C610629   2.427   4.005  12.355  0.7355 -0.2665 -0.0180
  719TMC3     C10630   2.207   4.035  12.666 -0.1135  0.2676  0.1528
  719TMC3     O10631   2.119   3.947  12.656  0.0680 -0.5078 -0.1007
  719TMC3     H10632   2.112   4.000  12.433  0.5172 -1.3255  2.1607
  719TMC3    H110633   2.434   4.210  12.625 -0.7888  0.8030 -0.5301
  719TMC3    H210634   2.494   3.960  12.283  2.0014 -1.2839  1.7937
  719TMC3    C710635   2.562   4.193  12.399  0.3352  0.5731  0.6312
  719TMC3    C810636   2.281   3.826  12.342  0.5284 -0.2081 -0.3321
  719TMC3    O110637   2.631   4.165  12.298  0.2949 -0.0782 -0.3053
  719TMC3    O210638   2.352   3.758  12.267 -0.0950  0.2322 -0.0184
  720MPD2     C10639   4.691   0.770  13.807 -0.1719 -0.3229 -0.3856
  720MPD2    C110640   0.049   0.727  13.701  0.1482 -0.5455  0.5727
  720MPD2    C210641   0.170   0.663  13.727  0.0571  0.0394 -1.0127
  720MPD2    C310642   0.213   0.653  13.857  0.0292 -0.3969 -0.4697
  720MPD2    C410643   0.145   0.717  13.963 -0.6321 -0.2222 -0.9815
  720MPD2    C510644   0.016   0.767  13.934 -0.2313 -0.3572 -0.4052
  720MPD2     H10645   0.240   0.632  13.649  0.2250 -1.6092 -0.2093
  720MPD2    H110646   0.179   0.730  14.065 -3.7542  0.8230 -0.0874
  720MPD2    H210647   4.601   0.826  13.782  0.9205  0.0979 -3.3661
  720MPD2    H310648   4.688   0.835  14.003  3.8617  0.3755  1.6846
  720MPD2     N10649   0.339   0.589  13.876 -0.3851  0.3105 -0.2477
  720MPD2    H510650   0.389   0.567  13.790  1.9713  0.7061  1.0062
  720MPD2    N110651   0.018   0.752  13.564  0.5787  0.3071  0.6884
  720MPD2    H710652   0.097   0.739  13.501  0.2646 -1.1175  0.5947
  721TMC3    C110653   0.489   0.455  13.989  0.3713  0.2798  0.3661
  721TMC3    C210654   0.467   0.344  14.063 -0.2225  0.3263  0.4480
  721TMC3    C310655   0.534   0.225  14.026  0.7793  0.2094 -0.4870
  721TMC3    C410656   0.562   0.449  13.869  0.4393  0.5235  0.1679
  721TMC3    C510657   0.641   0.337  13.856 -0.7997  0.5908  0.4933
  721TMC3    C610658   0.620   0.223  13.921 -0.0815 -0.2205 -0.2542
  721TMC3     C10659   0.385   0.557  14.006  0.4783 -0.0249  0.1032
  721TMC3     O10660   0.328   0.560  14.112  0.0121  0.2725  0.1951
  721TMC3     H10661   0.401   0.346  14.148 -0.1618 -1.2124  0.5239
  721TMC3    H110662   0.592   0.538  13.816 -0.6279  1.4207  1.0695
  721TMC3    H210663   0.683   0.144  13.884  1.8127  1.7429 -1.2235
  721TMC3    C710664   0.779   0.363  13.824 -0.3478  0.2915 -0.2408
  721TMC3    C810665   0.489   0.100  14.083  0.0874 -0.3898  0.2197
  721TMC3    O110666   0.818   0.444  13.739 -0.2584 -0.1611  0.1708
  721TMC3    O210667   0.522   4.718  14.029 -0.2852  0.3056  0.2557
  722MPD2     C10668   4.143   3.932  13.337 -0.6596 -0.2495  0.2202
  722MPD2    C110669   4.127   4.045  13.264 -0.5723  0.1579  0.5642
  722MPD2    C210670   4.015   4.061  13.177 -0.1074 -0.5924  0.2783
  722MPD2    C310671   3.907   3.975  13.186 -0.4170  0.2103  0.2578
  722MPD2    C410672   3.915   3.871  13.270  1.3115 -0.1257  0.1060
  722MPD2    C510673   4.033   3.848  13.338 -0.1311  0.0671  0.0503
  722MPD2     H10674   4.025   4.142  13.106 -0.0930  1.1644  2.2565
  722MPD2    H110675   3.840   3.793  13.262 -0.3534  1.2967  2.1371
  722MPD2    H210676   4.234   3.910  13.392 -0.2136  1.0579  0.0046
  722MPD2    H310677   4.041   3.760  13.402  0.0437 -0.3058 -0.4884
  722MPD2     N10678   3.794   3.996  13.095  0.1253  0.3885 -0.8183
  722MPD2    H510679   3.811   4.058  13.017  2.1855  1.4065  0.4344
  722MPD2    N110680   4.238   4.137  13.245 -0.3139  1.0127 -0.1131
  722MPD2    H710681   4.219   4.220  13.190 -2.4799  0.4572 -0.2162
  723TMC3    C110682   3.585   3.990  12.990 -0.5209 -0.3532  0.2721
  723TMC3    C210683   3.499   3.913  12.918  0.3674  0.0730  0.6248
  723TMC3    C310684   3.434   3.969  12.809 -0.3976  0.4136  0.1550
  723TMC3    C410685   3.595   4.127  12.969  0.5646  0.0175 -0.0327
  723TMC3    C510686   3.523   4.182  12.870  0.0515 -0.1377  0.4478
  723TMC3    C610687   3.449   4.107  12.782 -0.1184 -0.3636  0.1488
  723TMC3     C10688   3.668   3.925  13.094 -0.5853  0.6306  1.0477
  723TMC3     O10689   3.648   3.816  13.149 -0.1370 -0.0465 -0.6839
  723TMC3     H10690   3.489   3.808  12.940 -1.2940  0.3461  1.1385
  723TMC3    H110691   3.658   4.192  13.028 -0.5207  0.7289  0.3480
  723TMC3    H210692   3.403   4.153  12.695  0.4796  0.9101  0.5008
  723TMC3    C710693   3.537   4.334  12.844  0.3916  0.0485  0.2384
  723TMC3    C810694   3.369   3.884  12.707  0.0481  0.0803 -0.2191
  723TMC3    O110695   3.614   4.400  12.922 -0.3793  0.4891  0.2367
  723TMC3    O210696   3.288   3.934  12.630  0.3169 -0.5016  0.1093
  724TMC3    C110697   4.446   2.566   8.522 -0.8750  0.6419 -1.3338
  724TMC3    C210698   4.449   2.541   8.660  0.6954  0.3184  0.2769
  724TMC3    C310699   4.521   2.632   8.736 -0.1468  0.2569 -0.2715
  724TMC3    C410700   4.534   2.656   8.468  0.7032  0.6456 -0.0091
  724TMC3    C510701   4.617   2.722   8.550 -0.4952 -0.8022  0.3892
  724TMC3    C610702   4.619   2.711   8.685  0.0683 -0.3232 -0.3664
  724TMC3     C10703   4.359   2.491   8.434  0.6178  0.4300  0.2892
  724TMC3     O10704   4.334   2.543   8.322 -0.2995  0.2904 -0.2578
  724TMC3     H10705   4.369   2.480   8.699  2.3099 -1.2519  1.1420
  724TMC3    H110706   4.554   2.654   8.362 -1.3709 -1.6860 -0.3663
  724TMC3    H210707   4.675   2.781   8.745  0.5925 -1.5867  0.6230
  724TMC3    C710708   4.715   2.821   8.500 -0.2848 -0.5285  0.5444
  724TMC3    C810709   4.501   2.615   8.881 -0.1545 -0.1878  0.5435
  724TMC3    O110710   0.089   2.850   8.573  0.1670  0.3439  0.3094
  724TMC3    O210711   4.408   2.539   8.911  0.0898 -0.2162 -0.4841
  725TMC3    C110712   1.704   1.363  12.728  0.3958 -0.0505  0.2168
  725TMC3    C210713   1.569   1.391  12.755 -0.0151  0.6737 -0.1714
  725TMC3    C310714   1.491   1.288  12.800  0.3404 -0.5761 -0.2937
  725TMC3    C410715   1.753   1.233  12.745  0.3459 -0.0690 -0.0525
  725TMC3    C510716   1.667   1.132  12.787  0.6326  0.0414  0.0134
  725TMC3    C610717   1.540   1.163  12.819 -0.3514 -0.0460  0.2147
  725TMC3     C10718   1.789   1.474  12.747 -0.3316 -0.4417 -0.1277
  725TMC3     O10719   1.752   1.583  12.793 -0.0749  0.3888 -0.5183
  725TMC3     H10720   1.536   1.494  12.753 -1.8493  0.0948  0.3874
  725TMC3    H110721   1.853   1.203  12.717  1.0077  0.7220  1.4577
  725TMC3    H210722   1.463   1.088  12.833 -0.0509 -0.3029  0.4955
  725TMC3    C710723   1.673   1.000  12.728 -0.1596  0.1437  0.1700
  725TMC3    C810724   1.350   1.306  12.791  0.0736  0.1438 -0.1932
  725TMC3    O110725   1.731   0.992  12.621  0.1281 -0.6151 -0.1779
  725TMC3    O210726   1.292   1.287  12.896  0.3150 -0.2430 -0.1027
  726MPD2     C10727   4.042   2.222  10.326  0.3446 -0.0433  0.0717
  726MPD2    C110728   3.943   2.264  10.244 -0.1444  0.2971 -0.0342
  726MPD2    C210729   3.824   2.189  10.232 -0.5631  0.5167  0.2346
  726MPD2    C310730   3.797   2.084  10.317  0.1004 -0.0244  0.5717
  726MPD2    C410731   3.900   2.038  10.397  0.2677 -0.1728 -0.1409
  726MPD2    C510732   4.019   2.107  10.401 -0.0322  0.0588  0.3679
  726MPD2     H10733   3.749   2.237  10.170  1.4058  0.4577 -2.1807
  726MPD2    H110734   3.893   1.958  10.469  0.4202  1.0654  1.2613
  726MPD2    H210735   4.128   2.280  10.361 -1.0050  1.9041  0.1656
  726MPD2    H310736   4.100   2.072  10.463  0.6724  0.4249 -0.3496
  726MPD2     N10737   3.672   2.023  10.334 -0.3042  0.1614 -0.2570
  726MPD2    H510738   3.661   1.965  10.416 -1.1624  0.4065 -0.2056
  726MPD2    N110739   3.944   2.399  10.193  0.1241  0.5722  0.4893
  726MPD2    H710740   3.854   2.438  10.168 -0.3774 -0.2358  1.0084
  727TMC3    C110741   4.020   2.612  10.130 -0.0655 -0.2469 -0.3416
  727TMC3    C210742   4.107   2.709  10.157 -0.7611  0.3120  0.1811
  727TMC3    C310743   4.081   2.831  10.106  0.9030  0.0666  0.2542
  727TMC3    C410744   3.904   2.624  10.061 -0.2158  0.3226 -0.4877
  727TMC3    C510745   3.871   2.756  10.026 -0.0021 -0.3226 -0.3346
  727TMC3    C610746   3.956   2.861  10.046 -0.4342 -0.2625 -0.5614
  727TMC3     C10747   4.048   2.480  10.180 -0.8921  0.6378  0.0767
  727TMC3     O10748   4.166   2.447  10.184  0.2479  0.0384  0.0160
  727TMC3     H10749   4.198   2.681  10.209 -0.4163 -0.5552 -0.8878
  727TMC3    H110750   3.838   2.539  10.047 -2.3407  1.7231  1.0153
  727TMC3    H210751   3.926   2.958  10.009  1.4495  1.0905  1.4670
  727TMC3    C710752   3.731   2.787  10.006 -0.2809  0.1311  0.0895
  727TMC3    C810753   4.172   2.941  10.135 -0.5796 -0.5718  0.5619
  727TMC3    O110754   3.694   2.902  10.036 -0.5003 -0.2137 -0.8284
  727TMC3    O210755   4.255   2.922  10.222  0.0929 -0.1892  0.2401
  728TMC3    C110756   2.644   1.080  15.015 -0.1765  0.5243  0.2123
  728TMC3    C210757   2.759   1.143  15.052 -0.1564  0.2822 -0.0452
  728TMC3    C310758   2.793   1.262  14.988 -0.1274  0.2422 -0.6765
  728TMC3    C410759   2.566   1.121  14.918 -0.1128  0.3332  0.2522
  728TMC3    C510760   2.583   1.240  14.860  0.5294 -0.0425  0.4727
  728TMC3    C610761   2.698   1.316  14.897 -0.0698 -0.4956 -0.7267
  728TMC3     C10762   2.615   0.956  15.085 -0.2898 -0.4727  0.4568
  728TMC3     O10763   2.559   0.875  15.015 -0.0373  0.0483 -0.3534
  728TMC3     H10764   2.821   1.106  15.133 -2.1052  0.3732  1.4931
  728TMC3    H110765   2.473   1.073  14.888 -1.0858  1.5972  1.2364
  728TMC3    H210766   2.721   1.418  14.868  1.5595 -0.8074 -0.4941
  728TMC3    C710767   2.476   1.317  14.795 -0.8278  0.1028  0.7016
  728TMC3    C810768   2.900   1.350  15.027 -0.3011 -0.5063  1.0318
  728TMC3    O110769   2.391   1.250  14.739 -0.2673 -0.1019 -0.2202
  728TMC3    O210770   2.934   1.438  14.951 -0.0089 -0.1882  0.5770
  729MPD2     C10771   0.455   1.774  17.311 -0.0267 -0.0410 -0.4696
  729MPD2    C110772   0.587   1.736  17.281  0.3018  0.4789 -0.3031
  729MPD2    C210773   0.681   1.758  17.373 -0.6128  0.0431  0.4154
  729MPD2    C310774   0.651   1.801  17.504 -0.1247 -0.1495 -0.0267
  729MPD2    C410775   0.517   1.835  17.535 -0.2980 -0.0636  0.4067
  729MPD2    C510776   0.419   1.821  17.435  0.0792 -0.0951  0.4473
  729MPD2     H10777   0.785   1.745  17.346 -0.8480 -1.3993  0.2502
  729MPD2    H110778   0.492   1.875  17.632 -1.3579  0.8025 -0.2216
  729MPD2    H210779   0.373   1.763  17.242  0.1668  0.4885 -0.7798
  729MPD2    H310780   0.318   1.857  17.446  1.2677  3.6870 -1.1468
  729MPD2     N10781   0.759   1.844  17.595  0.1950 -0.1307  0.4965
  729MPD2    H510782   0.741   1.928  17.649  1.1333 -0.8640  1.9402
  729MPD2    N110783   0.614   1.687  17.150 -0.0338 -0.4870 -0.0405
  729MPD2    H710784   0.534   1.690  17.088 -0.7993 -0.5227  0.9452
  730TMC3    C110785   0.990   1.894  17.601  0.4669 -0.1014  0.3141
  730TMC3    C210786   1.105   1.871  17.536  0.1128  0.0026  0.2995
  730TMC3    C310787   1.172   1.971  17.469 -0.0577  0.4605  0.5827
  730TMC3    C410788   0.942   2.021  17.619  0.7911  0.0211 -0.4369
  730TMC3    C510789   1.026   2.124  17.569  0.5190  0.5625 -0.3434
  730TMC3    C610790   1.132   2.101  17.480  0.4505  0.0668 -0.1470
  730TMC3     C10791   0.888   1.796  17.572 -0.1249 -0.6268  0.0959
  730TMC3     O10792   0.928   1.697  17.514 -0.3021  0.4032 -0.1960
  730TMC3     H10793   1.149   1.774  17.516  1.5371  0.5659  0.6333
  730TMC3    H110794   0.854   2.038  17.680  0.9029  2.9565 -1.1162
  730TMC3    H210795   1.187   2.182  17.434  0.5403 -0.4487 -0.9462
  730TMC3    C710796   0.956   2.256  17.551  0.3438 -0.2061  0.8046
  730TMC3    C810797   1.240   1.923  17.351 -0.4131 -0.1287 -0.3690
  730TMC3    O110798   0.998   2.321  17.452  0.2020 -0.2773  0.5126
  730TMC3    O210799   1.311   1.824  17.365  0.2472  0.5680  0.0086
  731MPD2     C10800   0.195   0.845  11.904 -0.2855 -0.1387  0.2274
  731MPD2    C110801   0.302   0.923  11.880 -1.0979  0.0903 -0.1094
  731MPD2    C210802   0.373   0.966  11.991 -0.3578 -0.0136 -0.1836
  731MPD2    C310803   0.334   0.931  12.117 -1.3699 -0.0352 -1.0060
  731MPD2    C410804   0.218   0.856  12.143 -0.5388 -0.1645  0.1571
  731MPD2    C510805   0.142   0.820  12.030 -0.0412 -0.1360  0.0518
  731MPD2     H10806   0.469   1.016  11.984  0.5477 -1.3406  2.5371
  731MPD2    H110807   0.199   0.804  12.237  1.4624 -0.1156  0.5770
  731MPD2    H210808   0.140   0.796  11.825 -0.9551  1.6246 -0.3978
  731MPD2    H310809   0.062   0.748  12.031 -0.3814  0.2608  1.2850
  731MPD2     N10810   0.423   0.971  12.222 -0.3023 -0.2598 -1.2909
  731MPD2    H510811   0.497   1.035  12.193 -0.3763 -0.1435 -1.2214
  731MPD2    N110812   0.348   0.937  11.746 -0.7874 -0.3599 -0.3448
  731MPD2    H710813   0.310   0.873  11.677 -0.6619 -0.5576 -0.2298
  732TMC3    C110814   0.537   0.965  11.604  0.1312 -0.9223 -0.5973
  732TMC3    C210815   0.516   0.836  11.563 -0.1354  0.1612  0.0373
  732TMC3    C310816   0.630   0.772  11.517 -0.4109 -0.3898 -0.0655
  732TMC3    C410817   0.650   1.033  11.573  0.8697 -0.7613  0.5653
  732TMC3    C510818   0.759   0.959  11.540  0.6171 -0.1032 -0.1155
  732TMC3    C610819   0.750   0.836  11.506 -0.3082 -0.5157 -0.7072
  732TMC3     C10820   0.458   1.017  11.714 -0.1974 -0.4726  0.2127
  732TMC3     O10821   0.492   1.125  11.761  0.4135  0.4095  0.0170
  732TMC3     H10822   0.416   0.796  11.570 -0.7588  1.6741 -0.0589
  732TMC3    H110823   0.663   1.137  11.599  1.1396 -0.5533 -0.3995
  732TMC3    H210824   0.838   0.786  11.467  1.3142  1.7629  0.0570
  732TMC3    C710825   0.884   1.008  11.586 -0.0411 -0.1762 -0.3840
  732TMC3    C810826   0.634   0.626  11.512 -0.1955  0.4421 -0.1466
  732TMC3    O110827   0.901   1.129  11.595 -0.3273  0.1009 -0.2027
  732TMC3    O210828   0.736   0.580  11.457  0.2633 -0.7579  0.4439
  733TMC3    C110829   1.874   3.391  13.146 -0.2486 -0.7959  0.6164
  733TMC3    C210830   1.955   3.477  13.204 -0.0734  0.2634  0.5156
  733TMC3    C310831   2.071   3.508  13.143  0.3031  0.0320 -0.5793
  733TMC3    C410832   1.903   3.340  13.020 -0.5637 -0.4353 -0.5814
  733TMC3    C510833   2.023   3.367  12.968 -0.8128  0.2707  0.3514
  733TMC3    C610834   2.110   3.457  13.026  0.4380  0.0054  0.3234
  733TMC3     C10835   1.731   3.409  13.182 -0.5904 -0.8693  0.1764
  733TMC3     O10836   1.650   3.368  13.093  0.2432  0.0893  0.8913
  733TMC3     H10837   1.943   3.527  13.300  0.9063  0.0062  0.7698
  733TMC3    H110838   1.839   3.282  12.955 -1.0998 -0.1201 -0.3319
  733TMC3    H210839   2.209   3.477  12.988  0.3790 -0.1122  0.1064
  733TMC3    C710840   2.050   3.325  12.832 -0.3137 -0.1179 -0.3572
  733TMC3    C810841   2.135   3.626  13.182  0.6901 -0.2166  0.2587
  733TMC3    O110842   2.029   3.216  12.786  0.4018 -0.0093 -0.1066
  733TMC3    O210843   2.180   3.634  13.297  0.2023 -0.4237  0.4599
  734MPD2     C10844   3.284   1.027  12.119 -0.4129  0.3649  0.0303
  734MPD2    C110845   3.357   0.913  12.099 -0.4097 -0.4170  0.2708
  734MPD2    C210846   3.468   0.918  12.006  0.2846  0.0896 -0.3247
  734MPD2    C310847   3.493   1.028  11.928  0.3484  0.3671  0.1926
  734MPD2    C410848   3.424   1.148  11.965  0.0315  0.4947 -0.3430
  734MPD2    C510849   3.324   1.147  12.059 -0.2605  0.3355  0.0456
  734MPD2     H10850   3.524   0.829  11.979 -2.4998 -2.3175  1.8622
  734MPD2    H110851   3.452   1.245  11.926 -0.4177  0.6955 -0.1685
  734MPD2    H210852   3.207   1.033  12.195 -2.8651  1.9272 -2.5535
  734MPD2    H310853   3.279   1.244  12.075  0.9796  0.9258 -0.1390
  734MPD2     N10854   3.582   1.023  11.814 -0.7060  0.7865 -0.1700
  734MPD2    H510855   3.631   0.935  11.800 -4.0625 -1.1619  0.1625
  734MPD2    N110856   3.319   0.794  12.154 -0.0677 -0.5740  0.3224
  734MPD2    H710857   3.223   0.789  12.186  0.2667  0.5585  1.5209
  735TMC3    C110858   3.339   0.552  12.165  0.4269  0.3649 -0.3841
  735TMC3    C210859   3.246   0.530  12.069  0.2387 -0.5164 -0.0376
  735TMC3    C310860   3.234   0.399  12.038  0.2853 -0.2875 -0.1186
  735TMC3    C410861   3.426   0.457  12.216  0.3237 -0.6343  0.2517
  735TMC3    C510862   3.410   0.324  12.182  0.3961 -0.3049 -0.2378
  735TMC3    C610863   3.306   0.294  12.098  0.4173 -0.0828 -0.1683
  735TMC3     C10864   3.404   0.683  12.161 -0.4123 -0.6792 -0.0311
  735TMC3     O10865   3.526   0.682  12.168 -0.5387 -0.0471  0.5707
  735TMC3     H10866   3.188   0.606  12.018  1.2561  0.0687 -0.3343
  735TMC3    H110867   3.506   0.480  12.285 -0.0150  1.5707 -0.0790
  735TMC3    H210868   3.301   0.193  12.060 -1.3291 -0.7729  1.9356
  735TMC3    C710869   3.519   0.226  12.215 -0.1145 -0.8259  0.5226
  735TMC3    C810870   3.228   0.396  11.895  0.2665 -0.6057 -0.2581
  735TMC3    O110871   3.487   0.109  12.206  0.2434 -0.7002 -0.0765
  735TMC3    O210872   3.118   0.372  11.840  0.2990 -0.2096 -0.0434
  736MPD2     C10873   3.774   0.087  12.252  0.3121 -0.1148  0.8757
  736MPD2    C110874   3.760   0.217  12.211  0.1207  0.0095 -0.9402
  736MPD2    C210875   3.869   0.284  12.162  0.1819  0.4515 -0.7094
  736MPD2    C310876   3.991   0.222  12.132 -0.8660 -1.2059  0.0085
  736MPD2    C410877   3.999   0.096  12.184 -0.1025  0.6892  0.0555
  736MPD2    C510878   3.898   0.026  12.243  0.0873 -0.3940 -1.0640
  736MPD2     H10879   3.852   0.387  12.133  4.0154  1.3192  0.1757
  736MPD2    H110880   4.098   0.052  12.179 -0.3779  0.0146  0.5347
  736MPD2    H210881   3.699   0.031  12.307  0.8911 -0.2455  1.5344
  736MPD2    H310882   3.912   4.648  12.289 -0.5677 -0.5675 -1.2293
  736MPD2     N10883   4.092   0.278  12.049  0.3036  0.0377 -0.0421
  736MPD2    H510884   4.175   0.221  12.036 -0.0784 -0.5527  0.1224
  736MPD2    N110885   3.640   0.286  12.206  0.6184 -0.1656 -0.8180
  736MPD2    H710886   3.645   0.385  12.184  1.0445  0.1314  0.6230
  737TMC3    C110887   4.209   0.444  11.922 -0.0234 -0.3049 -0.1845
  737TMC3    C210888   4.212   0.569  11.874  0.6996 -0.1756 -0.5383
  737TMC3    C310889   4.278   0.589  11.755  0.8680 -0.3419  0.4245
  737TMC3    C410890   4.287   0.341  11.877 -0.3211  0.2763 -0.0076
  737TMC3    C510891   4.352   0.365  11.754 -0.1090 -0.2414  0.4208
  737TMC3    C610892   4.353   0.487  11.691  0.0008  0.0409 -0.0428
  737TMC3     C10893   4.097   0.407  11.994 -0.1493  0.4971 -0.0211
  737TMC3     O10894   4.012   0.494  12.004  0.1088 -0.0920 -0.0998
  737TMC3     H10895   4.153   0.644  11.925  0.0935  1.0343 -3.0423
  737TMC3    H110896   4.288   0.245  11.926 -0.0482 -1.5410 -3.6101
  737TMC3    H210897   4.396   0.499  11.592 -0.6798 -1.7556 -0.5515
  737TMC3    C710898   4.439   0.271  11.705  0.7305  0.8102 -0.6222
  737TMC3    C810899   4.264   0.717  11.697 -0.2759  0.1314  0.0248
  737TMC3    O110900   4.423   0.156  11.753 -0.3509 -0.0174  0.0238
  737TMC3    O210901   4.173   0.782  11.744 -0.0635  0.1656 -0.1007
  738MPD2     C10902   3.910   4.061  15.290  0.4799 -1.1417  0.1301
  738MPD2    C110903   3.901   4.087  15.155  0.3951  0.0919  0.1699
  738MPD2    C210904   4.007   4.157  15.093  0.4059 -0.1344 -0.6492
  738MPD2    C310905   4.121   4.182  15.162 -0.6099  0.1129  0.1600
  738MPD2    C410906   4.131   4.147  15.301 -0.9492  0.5223 -0.4707
  738MPD2    C510907   4.024   4.088  15.359 -0.5593 -0.5049  0.4285
  738MPD2     H10908   3.998   4.181  14.987 -2.6040 -0.4115 -0.4594
  738MPD2    H110909   4.225   4.155  15.354 -1.0342 -1.9242  0.0715
  738MPD2    H210910   3.834   4.006  15.345  0.9659  0.0229  1.9744
  738MPD2    H310911   4.033   4.063  15.464  3.4177  2.0233  0.6572
  738MPD2     N10912   4.234   4.254  15.113 -0.2484  0.5329 -0.4968
  738MPD2    H510913   4.307   4.264  15.183  0.0488 -2.6470 -0.3369
  738MPD2    N110914   3.774   4.045  15.095 -0.0731  0.8350 -0.0310
  738MPD2    H710915   3.701   4.003  15.150  0.2286  0.7568  0.3087
  739TMC3    C110916   4.302   4.449  15.016 -0.0552  0.0129  0.0138
  739TMC3    C210917   4.331   4.523  14.902  0.1120 -0.0680 -1.2351
  739TMC3    C310918   4.386   4.643  14.921  0.2544  0.2316 -0.8460
  739TMC3    C410919   4.322   4.493  15.148 -0.0392 -0.1668  0.8102
  739TMC3    C510920   4.393   4.616  15.158  1.1872  0.4810 -0.0690
  739TMC3    C610921   4.432   4.688  15.044 -0.8421 -0.1364  0.2360
  739TMC3     C10922   4.230   4.328  14.999  0.4499 -0.2846 -0.7483
  739TMC3     O10923   4.182   4.299  14.890 -0.4410  0.3039 -0.1792
  739TMC3     H10924   4.298   4.491  14.804 -1.3145 -0.2131 -0.7097
  739TMC3    H110925   4.307   4.433  15.237 -3.3186 -0.0625  0.3487
  739TMC3    H210926   4.482   0.064  15.045 -1.3319  0.1330 -2.2864
  739TMC3    C710927   4.471   4.648  15.277  0.1293 -0.7095  0.8026
  739TMC3    C810928   4.437   4.686  14.797 -0.0007  0.2988 -0.0559
  739TMC3    O110929   4.578   4.705  15.264  0.0325 -1.2703  0.4664
  739TMC3    O210930   4.464   4.600  14.717  0.2097  0.0439 -0.0932
  740TMC3    C110931   4.570   1.186  13.999  0.1011 -0.3745 -0.3758
  740TMC3    C210932   4.643   1.203  14.115  0.2815  0.7970  0.3162
  740TMC3    C310933   0.057   1.209  14.104 -0.5124 -0.3387  0.1906
  740TMC3    C410934   4.631   1.180  13.878  0.3256  0.5017 -0.6589
  740TMC3    C510935   0.048   1.171  13.877  0.2726 -0.0488 -0.1042
  740TMC3    C610936   0.122   1.188  13.990 -0.9134  1.0383  0.5171
  740TMC3     C10937   4.465   1.083  14.013 -0.3624  0.7968 -0.0777
  740TMC3     O10938   4.458   0.991  13.928 -0.0673  0.1350 -0.6206
  740TMC3     H10939   4.592   1.215  14.210  0.1671 -0.2434  0.3813
  740TMC3    H110940   4.582   1.158  13.784 -1.9278 -1.5404  1.0089
  740TMC3    H210941   0.230   1.188  13.981 -0.9529  0.9475  0.0374
  740TMC3    C710942   0.111   1.101  13.772 -0.4420 -0.4363 -0.3907
  740TMC3    C810943   0.122   1.109  14.197 -0.1305 -0.5654  0.1410
  740TMC3    O110944   0.194   1.015  13.805 -0.1928 -0.4560 -0.7550
  740TMC3    O210945   0.244   1.105  14.200  0.3193  0.4259 -0.1363
  741TMC3    C110946   3.832   4.517  15.217 -0.2716  0.0039  0.5670
  741TMC3    C210947   3.781   4.523  15.086 -0.8767  0.2167 -0.0330
  741TMC3    C310948   3.689   4.428  15.052 -0.1581 -0.3319 -0.5724
  741TMC3    C410949   3.797   4.428  15.311 -0.0366 -0.9288 -0.0811
  741TMC3    C510950   3.694   4.351  15.276 -0.2143  0.2016 -0.4421
  741TMC3    C610951   3.639   4.343  15.145 -0.1699 -0.2126 -1.0852
  741TMC3     C10952   3.929   4.623  15.256 -0.3373  0.1324  0.0599
  741TMC3     O10953   3.954   4.617  15.373 -0.0984  0.0601 -0.6368
  741TMC3     H10954   3.801   4.606  15.019 -3.4931 -1.1427 -2.5264
  741TMC3    H110955   3.833   4.438  15.413  0.1956 -0.5824 -0.1972
  741TMC3    H210956   3.580   4.257  15.114 -2.5244  1.1387 -0.3651
  741TMC3    C710957   3.650   4.263  15.382 -0.0995  0.3763 -0.4418
  741TMC3    C810958   3.671   4.415  14.907  0.2598  0.0024  0.3086
  741TMC3    O110959   3.710   4.271  15.488 -0.2734  0.0854 -0.3090
  741TMC3    O210960   3.762   4.465  14.842  0.5341  0.3474  0.0870
  742TMC3    C110961   4.156   2.960  15.640  0.3401 -0.0313 -0.8243
  742TMC3    C210962   4.068   2.996  15.541  1.0652 -0.3948  0.3059
  742TMC3    C310963   4.115   2.985  15.414 -0.2325  0.3356  0.6357
  742TMC3    C410964   4.287   2.937  15.624 -0.8085  0.6675  0.2522
  742TMC3    C510965   4.332   2.936  15.497 -0.5488 -0.0331 -0.2254
  742TMC3    C610966   4.247   2.960  15.388 -0.0375  0.3167  0.4127
  742TMC3     C10967   4.111   2.940  15.779 -0.1796  0.2435  0.5169
  742TMC3     O10968   4.196   2.939  15.869  0.0050 -0.0163  0.1358
  742TMC3     H10969   3.963   3.008  15.569  1.0989 -2.0555  1.1794
  742TMC3    H110970   4.359   2.911  15.701 -0.0836 -2.1779 -1.3896
  742TMC3    H210971   4.278   2.933  15.288  3.1863  0.3746  1.3681
  742TMC3    C710972   4.457   2.881  15.467  0.4922 -0.0723  0.0043
  742TMC3    C810973   4.030   3.032  15.311  0.3661 -0.0055 -0.4695
  742TMC3    O110974   4.457   2.800  15.374  0.1333  0.4750 -0.0385
  742TMC3    O210975   4.060   3.000  15.199  0.4698  0.2362  0.3057
  743MPD2     C10976   1.763   0.681   1.809 -0.0720  0.3660  0.4459
  743MPD2    C110977   1.746   0.546   1.763  0.3927  0.8052  0.4004
  743MPD2    C210978   1.848   0.458   1.785 -0.7340  0.4120  0.1601
  743MPD2    C310979   1.961   0.498   1.849 -0.2424  0.6041 -0.1337
  743MPD2    C410980   1.966   0.623   1.901  0.1284  0.1671  0.4038
  743MPD2    C510981   1.865   0.714   1.893 -0.0992  0.5864 -0.4434
  743MPD2     H10982   1.854   0.363   1.734  0.7096  1.8422 -2.3448
  743MPD2    H110983   2.054   0.645   1.959  0.3967 -1.3557  0.5682
  743MPD2    H210984   1.694   0.759   1.776  0.1588 -1.1563 -3.6257
  743MPD2    H310985   1.868   0.815   1.931 -0.1158  0.5363 -0.3075
  743MPD2     N10986   2.067   0.405   1.854 -0.2278  0.9283 -0.1449
  743MPD2    H510987   2.053   0.322   1.796 -0.9143  0.5808  0.5198
  743MPD2    N110988   1.626   0.518   1.693  0.6007  0.1561 -0.8886
  743MPD2    H710989   1.567   0.599   1.675 -0.4542 -0.2717  0.6357
  744TMC3    C110990   1.475   0.387   1.570 -0.0479  0.1883 -0.4725
  744TMC3    C210991   1.386   0.489   1.605 -0.4041 -0.3590  0.7094
  744TMC3    C310992   1.292   0.510   1.509  0.4009  0.4474 -0.8718
  744TMC3    C410993   1.477   0.318   1.456  0.1616  0.3103 -0.1328
  744TMC3    C510994   1.382   0.345   1.366 -0.1394  0.3091  0.2626
  744TMC3    C610995   1.290   0.442   1.391  0.5514  0.9539  0.2285
  744TMC3     C10996   1.602   0.389   1.644 -0.3353  0.9268 -0.1340
  744TMC3     O10997   1.664   0.284   1.653  0.0295  0.4782  0.0667
  744TMC3     H10998   1.384   0.534   1.703 -0.8854  2.5214 -0.6065
  744TMC3    H110999   1.553   0.241   1.447 -1.6361 -1.4972  0.1619
  744TMC3    H211000   1.212   0.471   1.321 -1.1676  1.7440  2.4978
  744TMC3    C711001   1.360   0.264   1.245 -0.8353 -0.5536  0.4379
  744TMC3    C811002   1.217   0.642   1.512 -0.3519  0.3297  0.0062
  744TMC3    O111003   1.259   0.288   1.181 -0.1426  0.3474  0.5736
  744TMC3    O211004   1.201   0.694   1.400 -0.5158  0.5809 -0.6780
  745TMC3    C111005   0.184   3.136  13.754 -0.3274  0.6628 -0.1768
  745TMC3    C211006   0.058   3.144  13.802 -0.4356  0.3669  0.1178
  745TMC3    C311007   4.679   3.197  13.720  0.1366 -0.4566 -0.5586
  745TMC3    C411008   0.224   3.176  13.631  0.0884 -0.4620 -0.5279
  745TMC3    C511009   0.126   3.221  13.546 -0.0392 -0.4524 -0.4759
  745TMC3    C611010   4.714   3.227  13.590  0.7007  0.1642  0.2545
  745TMC3     C11011   0.290   3.137  13.851  0.4869 -0.4804  0.1146
  745TMC3     O11012   0.261   3.096  13.959  0.3092 -0.0888  0.3169
  745TMC3     H11013   0.044   3.108  13.904 -0.4476  0.6592  0.2192
  745TMC3    H111014   0.323   3.162  13.590  1.1806  0.4131  1.8082
  745TMC3    H211015   4.639   3.276  13.529  2.1977  1.5558 -0.4547
  745TMC3    C711016   0.153   3.218  13.396 -0.3813  0.5877  0.4189
  745TMC3    C811017   4.605   3.312  13.773  0.2284  0.0666  0.2950
  745TMC3    O111018   0.060   3.195  13.322 -0.1170  0.1119  0.2525
  745TMC3    O211019   4.515   3.370  13.710 -0.0536  0.0506 -0.4178
  746TMC3    C111020   2.653   0.279  11.021  0.2367 -0.2858 -0.3793
  746TMC3    C211021   2.756   0.245  10.936  0.4838 -0.1360  0.6334
  746TMC3    C311022   2.768   0.114  10.906 -0.4149  0.4594  0.0440
  746TMC3    C411023   2.561   0.194  11.080  0.3991 -0.2290 -0.1871
  746TMC3    C511024   2.585   0.057  11.050 -0.6360 -0.5131  0.3167
  746TMC3    C611025   2.678   0.026  10.960 -0.7575 -0.3370 -0.2133
  746TMC3     C11026   2.630   0.421  11.038 -0.2353 -0.2084 -0.8346
  746TMC3     O11027   2.514   0.455  11.068 -0.2505  0.0232  0.2676
  746TMC3     H11028   2.815   0.321  10.886  1.0409 -1.2340 -0.3821
  746TMC3    H111029   2.500   0.235  11.160  1.4132  2.2013 -0.6620
  746TMC3    H211030   2.684   4.643  10.926  1.0682 -0.6535  1.0531
  746TMC3    C711031   2.464   4.703  11.051  0.3293 -0.5799  0.1414
  746TMC3    C811032   2.844   0.070  10.781 -1.0483 -0.5135 -0.1389
  746TMC3    O111033   2.443   4.614  10.965 -0.0358  0.8180  0.5080
  746TMC3    O211034   2.866   4.670  10.760  0.1422 -0.6271 -0.0672
  747TMC3    C111035   0.396   0.458  10.978  0.6715  0.2546  0.4006
  747TMC3    C211036   0.392   0.358  11.070 -0.7078 -0.6279  0.4474
  747TMC3    C311037   0.369   0.388  11.202  0.5405 -0.7943 -0.1441
  747TMC3    C411038   0.379   0.587  11.014  0.1477  0.3782 -0.2575
  747TMC3    C511039   0.357   0.617  11.150 -0.5062  0.7282  0.0319
  747TMC3    C611040   0.348   0.517  11.246 -0.2368  0.1900  0.0394
  747TMC3     C11041   0.507   0.441  10.888 -0.8000  0.7889 -0.5105
  747TMC3     O11042   0.582   0.539  10.889 -0.6078 -0.3433  0.1865
  747TMC3     H11043   0.397   0.254  11.040  0.1386 -0.4135 -0.1478
  747TMC3    H111044   0.391   0.660  10.935 -3.2019  0.6475 -0.5086
  747TMC3    H211045   0.332   0.548  11.348 -3.2377 -0.9218 -0.0852
  747TMC3    C711046   0.441   0.727  11.186  0.4145 -0.2183 -0.1239
  747TMC3    C811047   0.310   0.280  11.274 -0.0648  0.0179  0.2905
  747TMC3    O111048   0.412   0.771  11.297  0.1566 -0.2552 -0.2764
  747TMC3    O211049   0.342   0.163  11.244  0.0074  0.5460  0.4354
  748MPD2     C11050   1.492   2.453   1.817 -0.0369 -0.1421 -0.8694
  748MPD2    C111051   1.467   2.320   1.841 -0.0522 -0.0658  0.0025
  748MPD2    C211052   1.554   2.226   1.798  0.3435  0.1999  0.8014
  748MPD2    C311053   1.668   2.262   1.735 -0.7535  0.5746 -0.0034
  748MPD2    C411054   1.699   2.394   1.719  0.5089  0.2431  0.0959
  748MPD2    C511055   1.613   2.486   1.763  0.6307 -0.4358  0.3868
  748MPD2     H11056   1.536   2.119   1.805 -1.5656  0.5320  0.8658
  748MPD2    H111057   1.793   2.429   1.678 -0.4532  1.0495 -1.4051
  748MPD2    H211058   1.426   2.537   1.839 -0.3316 -0.2959 -1.1593
  748MPD2    H311059   1.639   2.590   1.742  0.7835 -0.3589  0.9472
  748MPD2     N11060   1.746   2.155   1.686 -0.3842  0.4314 -0.4545
  748MPD2    H511061   1.730   2.059   1.716  2.1102  0.6623  1.6024
  748MPD2    N111062   1.348   2.289   1.903 -0.6508  0.2944  0.2725
  748MPD2    H711063   1.288   2.366   1.928 -1.9279 -0.7473  0.4494
  749TMC3    C111064   1.906   2.057   1.546 -0.1668  0.6464 -0.3348
  749TMC3    C211065   1.935   1.949   1.620  0.8462  0.4911  0.3738
  749TMC3    C311066   1.986   1.834   1.573 -0.3071  0.4040 -0.3244
  749TMC3    C411067   1.924   2.043   1.412 -0.7671 -0.1230 -0.2953
  749TMC3    C511068   1.981   1.927   1.366 -0.6694 -0.2199 -0.2285
  749TMC3    C611069   2.010   1.819   1.443  0.2367 -0.0561 -0.0066
  749TMC3     C11070   1.837   2.176   1.587  0.3969 -0.1813 -0.1221
  749TMC3     O11071   1.856   2.276   1.519  0.6004  0.0881 -0.3926
  749TMC3     H11072   1.907   1.957   1.725  1.0073 -0.3682  0.4815
  749TMC3    H111073   1.895   2.124   1.346  0.4174 -0.3934 -1.1491
  749TMC3    H211074   2.054   1.737   1.387  0.3177 -0.0466  0.0426
  749TMC3    C711075   1.991   1.930   1.220 -0.1229  0.0073  0.1740
  749TMC3    C811076   2.051   1.744   1.670 -0.0170 -0.0057  0.1004
  749TMC3    O111077   1.993   2.039   1.158 -0.1245  0.2294 -0.4808
  749TMC3    O211078   2.061   1.795   1.777  0.2572 -0.1161  0.4124
  750MPD2     C11079   3.133   2.396  11.176 -0.3884  0.2600  0.2896
  750MPD2    C111080   2.997   2.383  11.161  0.3579 -0.4064 -1.2249
  750MPD2    C211081   2.954   2.261  11.116 -0.3226  0.4879 -1.0906
  750MPD2    C311082   3.038   2.149  11.089 -0.1532  0.4144 -0.3289
  750MPD2    C411083   3.170   2.168  11.115  0.2264  0.3047 -0.1600
  750MPD2    C511084   3.213   2.290  11.153  0.5945  0.3787 -0.0104
  750MPD2     H11085   2.846   2.246  11.112 -0.3057 -0.6133  2.5952
  750MPD2    H111086   3.245   2.093  11.093 -0.1864 -0.3942  0.8230
  750MPD2    H211087   3.167   2.492  11.211  1.4533  0.0669 -0.9843
  750MPD2    H311088   3.319   2.310  11.167  1.1301 -2.9256  0.5484
  750MPD2     N11089   2.987   2.028  11.044  0.0588  0.1331  0.3114
  750MPD2    H511090   3.052   1.950  11.031  0.3923  0.6155 -0.9758
  750MPD2    N111091   2.912   2.497  11.175  0.5112 -0.0477 -0.4112
  750MPD2    H711092   2.944   2.591  11.194  1.4464 -0.4133 -0.1856
  751TMC3    C111093   2.826   1.853  11.020  0.0378 -0.0364  0.2805
  751TMC3    C211094   2.702   1.817  11.064  0.1260  0.0152 -0.4833
  751TMC3    C311095   2.675   1.688  11.063 -0.3652  0.2129  0.5290
  751TMC3    C411096   2.919   1.761  10.983  0.0252  0.6456 -0.8344
  751TMC3    C511097   2.894   1.633  11.008 -0.3566 -1.1184  0.5696
  751TMC3    C611098   2.769   1.591  11.050  0.3254  0.1357 -0.1459
  751TMC3     C11099   2.857   1.999  11.025 -0.1402 -0.3105 -0.1936
  751TMC3     O11100   2.753   2.066  11.038 -0.1331 -0.2673  0.3632
  751TMC3     H11101   2.636   1.893  11.104 -0.1753 -0.8200  0.6270
  751TMC3    H111102   3.011   1.804  10.945  1.7484 -0.5307  1.9921
  751TMC3    H211103   2.746   1.485  11.041  1.1197 -0.1100  0.6904
  751TMC3    C711104   2.971   1.535  10.930 -0.1304 -0.0884  0.9218
  751TMC3    C811105   2.540   1.639  11.050  0.1040  0.1397 -0.0652
  751TMC3    O111106   3.027   1.569  10.823 -0.2707  0.0787  0.6634
  751TMC3    O211107   2.529   1.517  11.045 -0.4886  0.1110 -0.0366
  752TMC3    C111108   1.540   2.017  16.257  0.2797 -0.2241  0.2048
  752TMC3    C211109   1.552   2.103  16.358 -0.4529  0.5521 -0.2482
  752TMC3    C311110   1.595   2.229  16.326  1.2691 -0.1683 -0.1873
  752TMC3    C411111   1.592   2.047  16.134  0.1382 -0.9716  0.9717
  752TMC3    C511112   1.621   2.173  16.103  0.5617 -0.3672 -0.0230
  752TMC3    C611113   1.625   2.272  16.199 -1.0332  0.0430  0.0603
  752TMC3     C11114   1.509   1.879  16.291 -0.3114  0.3380 -0.0411
  752TMC3     O11115   1.547   1.795  16.208  0.3975 -0.8356 -0.6997
  752TMC3     H11116   1.530   2.069  16.458 -0.3800 -1.1438 -0.8055
  752TMC3    H111117   1.613   1.970  16.061 -3.8907 -1.4989  0.4073
  752TMC3    H211118   1.680   2.365  16.189 -1.3724  0.2931  0.5517
  752TMC3    C711119   1.671   2.198  15.967  0.3835 -0.5494 -0.3673
  752TMC3    C811120   1.597   2.335  16.426 -0.6017 -0.1428 -0.4343
  752TMC3    O111121   1.665   2.102  15.890  0.0009  0.1206 -0.1278
  752TMC3    O211122   1.638   2.446  16.391 -0.7269 -0.1284 -0.0476
  753TMC3    C111123   3.082   2.844  13.162 -0.0002  0.1555  0.2328
  753TMC3    C211124   3.139   2.812  13.277 -0.5177 -0.0556 -0.2984
  753TMC3    C311125   3.102   2.693  13.338 -0.5332  0.4508 -0.3795
  753TMC3    C411126   2.990   2.765  13.103  0.1797 -0.2585 -0.3959
  753TMC3    C511127   2.960   2.647  13.156 -0.4092  0.1980  0.4101
  753TMC3    C611128   3.013   2.610  13.279 -0.1995 -0.0552  0.3222
  753TMC3     C11129   3.104   2.966  13.097 -0.1347  0.6019 -0.2087
  753TMC3     O11130   3.018   3.008  13.016 -0.0780  0.0653  0.1505
  753TMC3     H11131   3.204   2.887  13.320  1.1576 -2.4659  1.3859
  753TMC3    H111132   2.955   2.795  13.005  0.7019  5.1942  1.1088
  753TMC3    H211133   2.989   2.518  13.330 -0.8038 -0.6926 -1.1123
  753TMC3    C711134   2.842   2.582  13.102 -0.0065  0.2930 -0.2422
  753TMC3    C811135   3.112   2.680  13.482 -0.0855 -0.3340 -0.4516
  753TMC3    O111136   2.773   2.646  13.026 -0.1094 -0.2240 -0.1309
  753TMC3    O211137   3.112   2.569  13.536  0.4771 -0.4525  0.6144
  754MPD2     C11138   1.714   1.534  13.345  0.0546 -0.3333 -0.1486
  754MPD2    C111139   1.637   1.610  13.263 -0.1481 -0.5207 -0.6198
  754MPD2    C211140   1.696   1.726  13.225 -0.5260  0.7308 -0.5026
  754MPD2    C311141   1.823   1.763  13.258 -0.1508 -0.2245 -0.3652
  754MPD2    C411142   1.897   1.687  13.345  0.3083 -0.8299 -0.2411
  754MPD2    C511143   1.845   1.573  13.384  0.2402  0.3212 -0.0454
  754MPD2     H11144   1.651   1.785  13.146 -1.4276 -0.1741 -0.6661
  754MPD2    H111145   1.990   1.722  13.389 -0.0436 -1.5387  1.0672
  754MPD2    H211146   1.674   1.440  13.379  1.0875  0.0349  2.0625
  754MPD2    H311147   1.893   1.505  13.453 -0.1189 -2.0845 -2.1811
  754MPD2     N11148   1.873   1.883  13.212 -0.2340 -0.0056 -0.4624
  754MPD2    H511149   1.803   1.941  13.166 -0.6882 -1.3149 -1.3950
  754MPD2    N111150   1.520   1.553  13.208  0.1405 -0.5124  0.1255
  754MPD2    H711151   1.493   1.459  13.235 -0.8561  0.2888  1.9612
  755MPD2     C11152   1.382   2.561  13.111  0.6547  0.0030  0.2092
  755MPD2    C111153   1.356   2.433  13.055 -0.2679 -0.5947  0.1382
  755MPD2    C211154   1.464   2.355  13.017 -0.4969 -0.3577 -0.4958
  755MPD2    C311155   1.595   2.390  13.049  0.9792 -0.2278  0.3340
  755MPD2    C411156   1.615   2.518  13.102  0.8544  0.3016 -0.6011
  755MPD2    C511157   1.512   2.601  13.131 -0.3882 -0.2031 -0.0961
  755MPD2     H11158   1.450   2.257  12.972  0.9603 -0.7169 -0.1594
  755MPD2    H111159   1.715   2.558  13.117 -0.7065  3.1260  2.0964
  755MPD2    H211160   1.306   2.634  13.140  0.2650 -1.4338  2.8238
  755MPD2    H311161   1.534   2.703  13.161  1.8487 -0.6555 -0.1710
  755MPD2     N11162   1.710   2.319  13.015  0.3749 -0.2556  0.1291
  755MPD2    H511163   1.789   2.369  13.055  0.3392  0.8723 -1.2101
  755MPD2    N111164   1.226   2.383  13.028 -0.0395 -0.0863 -0.9151
  755MPD2    H711165   1.238   2.290  12.989  0.6492  0.1015 -1.1626
  756MPD2     C11166   2.181   2.701   9.383 -0.2511  0.4501  0.2948
  756MPD2    C111167   2.285   2.636   9.445  0.1155  0.6450  0.0886
  756MPD2    C211168   2.356   2.542   9.362 -0.2451  0.0827  0.2486
  756MPD2    C311169   2.333   2.520   9.229 -0.4690  0.2630 -0.4159
  756MPD2    C411170   2.217   2.571   9.176  0.0530  0.1818 -0.2567
  756MPD2    C511171   2.147   2.661   9.256  0.8108 -0.5361  0.4625
  756MPD2     H11172   2.443   2.494   9.406  0.6234  0.7399 -0.7360
  756MPD2    H111173   2.189   2.552   9.073 -2.9922 -3.0304  1.1284
  756MPD2    H211174   2.126   2.778   9.435 -1.4096  0.9159 -1.6349
  756MPD2    H311175   2.058   2.711   9.222  1.5936  2.0458  2.2561
  756MPD2     N11176   2.429   2.454   9.150 -0.0214  0.2071 -0.2218
  756MPD2    H511177   2.512   2.414   9.193 -1.5868 -2.2771  0.4806
  756MPD2    N111178   2.323   2.654   9.580 -0.9012  0.5454  0.1547
  756MPD2    H711179   2.390   2.588   9.620 -0.3667 -0.7820 -2.9579
  757MPD2     C11180   2.777   1.677   9.376 -1.0131  0.3498 -0.3568
  757MPD2    C111181   2.647   1.704   9.343  0.4859  0.0154 -0.4726
  757MPD2    C211182   2.617   1.816   9.268  0.5042  0.2285 -0.0535
  757MPD2    C311183   2.718   1.898   9.219 -0.2488  0.5775  0.0838
  757MPD2    C411184   2.852   1.865   9.254 -0.7542 -0.6863  0.3253
  757MPD2    C511185   2.873   1.754   9.326 -0.1595 -0.0886  0.0812
  757MPD2     H11186   2.512   1.842   9.257  0.2044  0.0507  2.4725
  757MPD2    H111187   2.938   1.919   9.217  0.2629 -2.7371 -0.2978
  757MPD2    H211188   2.794   1.588   9.436 -1.8051  0.6695  0.3395
  757MPD2    H311189   2.971   1.709   9.330 -0.4858 -0.8884 -0.9992
  757MPD2     N11190   2.685   2.022   9.154  0.2036  0.0068  0.2865
  757MPD2    H511191   2.586   2.041   9.143  0.2035 -0.8425 -1.1224
  757MPD2    N111192   2.556   1.613   9.403  0.1822  0.0256 -0.6759
  757MPD2    H711193   2.605   1.538   9.451  0.7412  1.4798  1.0273
  758MPD2     C11194   1.805   0.976  15.880  0.2749  0.0481  0.6536
  758MPD2    C111195   1.910   0.960  15.967  0.2998  0.2646  0.8249
  758MPD2    C211196   1.886   0.986  16.099  0.5062  0.0757 -0.1520
  758MPD2    C311197   1.766   1.026  16.146 -0.1448  1.0859 -0.6180
  758MPD2    C411198   1.660   1.039  16.063  0.5695 -0.5090 -0.1820
  758MPD2    C511199   1.686   1.019  15.931  0.2690 -0.9694 -0.1919
  758MPD2     H11200   1.968   0.984  16.171 -0.4327  2.6690  1.0030
  758MPD2    H111201   1.558   1.063  16.092  0.4923  1.0369 -1.7591
  758MPD2    H211202   1.822   0.953  15.776  0.6582  0.0568  0.7123
  758MPD2    H311203   1.601   1.017  15.865 -0.2029 -3.1996  0.4671
  758MPD2     N11204   1.767   1.054  16.286 -0.4499  0.1862 -0.6610
  758MPD2    H511205   1.844   1.016  16.341 -0.8418 -0.2704 -0.4331
  758MPD2    N111206   2.036   0.950  15.909  0.0920 -0.3492 -0.4461
  758MPD2    H711207   2.040   0.979  15.811  0.4715 -0.4546 -0.4627
  759MPD2     C11208   2.031   4.321  10.287 -0.2365 -0.1594 -0.3315
  759MPD2    C111209   1.899   4.346  10.275  0.3597  0.2991  0.6313
  759MPD2    C211210   1.863   4.456  10.197  0.1033 -0.7711 -0.3787
  759MPD2    C311211   1.960   4.541  10.140 -0.0653  0.4814  0.0437
  759MPD2    C411212   2.095   4.505  10.156  0.1741 -0.3907  0.4163
  759MPD2    C511213   2.123   4.391  10.225 -0.3700  0.5734 -0.0100
  759MPD2     H11214   1.760   4.489  10.189 -0.0883 -1.3564 -0.3296
  759MPD2    H111215   2.177   4.554  10.106 -0.7319 -0.2837 -0.9598
  759MPD2    H211216   2.064   4.241  10.354 -0.1606 -0.1120 -0.3122
  759MPD2    H311217   2.224   4.364  10.253 -1.3399 -1.5192  1.5266
  759MPD2     N11218   1.914   4.662  10.089 -0.0986  0.1734  0.2676
  759MPD2    H511219   1.816   4.685  10.084  0.1615  0.8365 -1.7841
  759MPD2    N111220   1.795   4.267  10.334 -0.1214 -0.2557  0.2737
  759MPD2    H711221   1.703   4.310  10.328 -0.6855 -1.6329 -1.0009
  760MPD2     C11222   0.490   2.005  11.587  0.2986  0.0389 -0.0485
  760MPD2    C111223   0.614   2.061  11.611  0.5919 -0.2517  0.3742
  760MPD2    C211224   0.690   2.000  11.706 -0.1054 -1.0698 -0.0617
  760MPD2    C311225   0.658   1.888  11.775  0.1731  0.1186  0.6531
  760MPD2    C411226   0.527   1.843  11.758  0.4488 -0.7305 -0.2537
  760MPD2    C511227   0.443   1.900  11.665  0.9879 -0.4930  0.0804
  760MPD2     H11228   0.788   2.042  11.725  0.3146 -1.8762 -0.4270
  760MPD2    H111229   0.483   1.758  11.809  0.2522 -2.2827 -3.0291
  760MPD2    H211230   0.427   2.056  11.516 -1.4126 -0.6390  0.9717
  760MPD2    H311231   0.342   1.865  11.649  0.5324  0.8853 -0.0606
  760MPD2     N11232   0.754   1.802  11.841 -0.2950  0.3811 -0.7849
  760MPD2    H511233   0.702   1.734  11.896 -1.3113 -0.1191 -2.3612
  760MPD2    N111234   0.666   2.175  11.545 -0.1030  0.0587 -0.1988
  760MPD2    H711235   0.747   2.226  11.581 -0.0353 -0.3419  0.2119
  761MPD2     C11236   2.040   1.700  10.989  0.1269 -0.7647 -0.0731
  761MPD2    C111237   2.117   1.600  10.953 -0.4751 -0.4394 -0.2114
  761MPD2    C211238   2.255   1.612  10.972  0.4375  0.2539 -0.1492
  761MPD2    C311239   2.312   1.727  11.021  0.5739  0.3825 -0.2711
  761MPD2    C411240   2.230   1.833  11.046 -0.6082  0.0544 -0.2107
  761MPD2    C511241   2.096   1.818  11.028 -0.4099 -0.0439 -0.3204
  761MPD2     H11242   2.323   1.535  10.937 -2.7353 -1.3183 -2.8376
  761MPD2    H111243   2.269   1.925  11.087  0.6902  0.0390 -1.4160
  761MPD2    H211244   1.932   1.705  10.978  0.2709  0.0775 -1.1736
  761MPD2    H311245   2.028   1.895  11.064  1.9720  1.2409  1.3785
  761MPD2     N11246   2.447   1.738  11.049  0.3347  0.3533 -0.2497
  761MPD2    H511247   2.493   1.827  11.069  1.8192  0.1137 -2.5833
  761MPD2    N111248   2.058   1.492  10.885 -0.0207  0.2092  0.1559
  761MPD2    H711249   1.958   1.491  10.865 -0.5883  1.1424  2.8918
  762MPD2     C11250   2.618   1.254  10.766 -0.3108 -0.4295 -0.2843
  762MPD2    C111251   2.539   1.156  10.710  0.1725  0.1788 -0.0239
  762MPD2    C211252   2.594   1.089  10.605 -0.3064 -0.1569  0.6155
  762MPD2    C311253   2.724   1.102  10.558  0.0687  0.0238 -0.1296
  762MPD2    C411254   2.807   1.191  10.629 -0.3150  0.2041 -0.5020
  762MPD2    C511255   2.750   1.267  10.729 -0.0402 -0.5788 -0.0067
  762MPD2     H11256   2.537   1.005  10.566  0.3725 -1.5063  2.5026
  762MPD2    H111257   2.910   1.212  10.601 -0.1553 -1.6006 -1.2862
  762MPD2    H211258   2.582   1.326  10.838 -2.1852 -1.4180 -0.2221
  762MPD2    H311259   2.813   1.341  10.776  1.3916 -1.2033 -0.9158
  762MPD2     N11260   2.775   1.015  10.454  0.3478 -0.4444  0.5272
  762MPD2    H511261   2.719   0.931  10.436  0.3253  0.2236 -2.4100
  762MPD2    N111262   2.400   1.152  10.732  0.5861  0.5183  0.3014
  762MPD2    H711263   2.353   1.233  10.772 -1.0257  0.0456 -0.6596
  763MPD2     C11264   3.947   1.601  16.218  0.0683 -0.4778 -0.0082
  763MPD2    C111265   3.850   1.691  16.173 -0.0317  0.5078 -0.6517
  763MPD2    C211266   3.817   1.791  16.262 -0.0155 -0.3152 -1.1956
  763MPD2    C311267   3.889   1.807  16.386  0.4703 -1.0040 -0.1666
  763MPD2    C411268   3.991   1.720  16.412 -0.3892 -0.1062 -0.3206
  763MPD2    C511269   4.015   1.612  16.335  0.6359  0.3433 -0.1213
  763MPD2     H11270   3.745   1.864  16.226  2.8141  2.8802 -0.4463
  763MPD2    H111271   4.039   1.722  16.509 -1.0392 -1.0481  0.0185
  763MPD2    H211272   3.981   1.524  16.150 -0.0957  0.7190 -1.4626
  763MPD2    H311273   4.104   1.553  16.356  0.5206  0.9240  1.9969
  763MPD2     N11274   3.875   1.915  16.482  0.5966 -0.3189 -0.1701
  763MPD2    H511275   3.938   1.921  16.561 -0.0415 -1.5546  0.4382
  763MPD2    N111276   3.788   1.682  16.043 -0.3544  0.3005  0.4632
  763MPD2    H711277   3.734   1.760  16.009 -1.2274 -0.6020 -0.2361
  764MPD2     C11278   2.241   3.276  16.849 -0.5528  0.2687  0.4495
  764MPD2    C111279   2.149   3.202  16.773  0.0369  0.8226 -0.3157
  764MPD2    C211280   2.025   3.185  16.844 -0.6179  0.3625  0.0529
  764MPD2    C311281   1.998   3.215  16.978 -0.0042 -0.0414  0.1000
  764MPD2    C411282   2.094   3.284  17.045 -0.5246 -0.3060 -0.3243
  764MPD2    C511283   2.209   3.321  16.976  0.7821 -0.1291 -0.4940
  764MPD2     H11284   1.944   3.136  16.790 -0.8785 -0.7161  1.4103
  764MPD2    H111285   2.089   3.324  17.145  0.9031 -0.0801 -0.3428
  764MPD2    H211286   2.341   3.294  16.812 -0.9827 -0.1059 -0.8701
  764MPD2    H311287   2.269   3.384  17.041  0.8405 -0.7575  0.0571
  764MPD2     N11288   1.879   3.170  17.031  0.2396 -1.0887 -0.1812
  764MPD2    H511289   1.818   3.122  16.965 -0.5851  2.5205 -2.0452
  764MPD2    N111290   2.167   3.148  16.643  0.4024 -0.0527 -0.2143
  764MPD2    H711291   2.095   3.094  16.596  0.2635  0.0258 -0.0889
  765MPD2     C11292   1.685   0.371  14.864 -0.2784  0.4532  0.4508
  765MPD2    C111293   1.730   0.445  14.967  0.3296 -0.3958 -0.4868
  765MPD2    C211294   1.858   0.434  15.016 -0.4683  0.5826  0.0366
  765MPD2    C311295   1.945   0.346  14.965 -0.0000 -0.9631  0.0546
  765MPD2    C411296   1.902   0.262  14.867  0.0594 -0.1948 -1.0456
  765MPD2    C511297   1.775   0.281  14.817  0.4214  0.0313 -0.5612
  765MPD2     H11298   1.896   0.497  15.095 -0.8649  1.2809 -0.3343
  765MPD2    H111299   1.960   0.190  14.811 -0.6901 -0.5066 -1.4187
  765MPD2    H211300   1.582   0.379  14.829 -0.9043 -4.0818  1.2363
  765MPD2    H311301   1.739   0.233  14.726 -0.8908 -0.5592  0.2582
  765MPD2     N11302   2.071   0.342  15.020  0.2840  0.0076  0.3166
  765MPD2    H511303   2.105   0.421  15.075 -0.6270  0.0288  0.8512
  765MPD2    N111304   1.634   0.542  15.009 -0.2345 -0.1229 -0.2529
  765MPD2    H711305   1.539   0.536  14.974  0.2507 -1.0110 -1.4251
  766MPD2     C11306   1.056   0.676  14.752  0.1095 -0.9397  0.4527
  766MPD2    C111307   1.154   0.756  14.813  0.4628  0.3291  0.1403
  766MPD2    C211308   1.230   0.842  14.733 -0.2161  0.3250 -0.3735
  766MPD2    C311309   1.197   0.847  14.600  0.6617  0.0841 -0.0278
  766MPD2    C411310   1.106   0.767  14.543  0.4479 -0.1477  0.0126
  766MPD2    C511311   1.038   0.683  14.621 -0.1835 -0.0309 -0.1335
  766MPD2     H11312   1.315   0.897  14.773  0.4790  1.7472 -3.7553
  766MPD2    H111313   1.083   0.776  14.437  0.4584  0.8589  0.0881
  766MPD2    H211314   1.000   0.602  14.809 -1.6389  0.8705  1.1041
  766MPD2    H311315   0.967   0.615  14.576  0.9932 -0.8242 -0.7868
  766MPD2     N11316   1.273   0.934  14.516 -0.1486  1.1059 -0.0642
  766MPD2    H511317   1.223   0.964  14.432  1.1551  0.2609 -1.1497
  766MPD2    N111318   1.192   0.767  14.943  0.9937 -0.5715 -0.2470
  766MPD2    H711319   1.228   0.859  14.966  0.8316 -0.6397  0.2797
  767MPD2     C11320   0.751   0.930  14.713 -0.3405 -0.8681  0.3414
  767MPD2    C111321   0.839   0.988  14.623 -0.5192 -1.0588 -0.2164
  767MPD2    C211322   0.831   0.957  14.492  0.3389 -0.0405  0.2730
  767MPD2    C311323   0.737   0.867  14.445  0.4867 -0.3760  0.4755
  767MPD2    C411324   0.653   0.810  14.535 -0.7749 -0.5548  0.3250
  767MPD2    C511325   0.665   0.836  14.670  0.4615  0.0948 -0.3923
  767MPD2     H11326   0.909   0.999  14.429 -0.0684 -0.9061 -0.8289
  767MPD2    H111327   0.590   0.726  14.510 -1.6910  0.0010  0.7494
  767MPD2    H211328   0.750   0.960  14.817  0.4124  1.9847 -0.4789
  767MPD2    H311329   0.600   0.783  14.739  0.7249 -0.7997 -0.8378
  767MPD2     N11330   0.761   0.821  14.315 -0.5700 -0.5804 -0.0948
  767MPD2    H511331   0.840   0.855  14.261 -1.0579 -0.7857 -0.9460
  767MPD2    N111332   0.919   1.092  14.673 -0.1601 -0.3290 -0.5929
  767MPD2    H711333   0.911   1.111  14.772  2.8000  1.8623 -0.7807
  768MPD2     C11334   2.535   4.676  10.394  0.1884 -0.8385  0.0128
  768MPD2    C111335   2.430   4.624  10.465  0.3782  0.3744 -0.1612
  768MPD2    C211336   2.451   4.539  10.570  0.2061 -0.7883  0.3987
  768MPD2    C311337   2.586   4.506  10.597  0.6806  0.3906 -0.1440
  768MPD2    C411338   2.690   4.555  10.520 -0.0383 -0.5687 -0.6129
  768MPD2    C511339   2.663   4.639  10.411 -0.1175 -0.4517 -0.1742
  768MPD2     H11340   2.372   4.506  10.636 -1.0415  1.4134 -0.0026
  768MPD2    H111341   2.793   4.530  10.543  0.5273  1.6782 -0.6973
  768MPD2    H211342   2.522   0.041  10.328  2.1492 -1.7067 -1.4677
  768MPD2    H311343   2.736   4.696  10.354 -1.3461  1.2131 -0.0820
  768MPD2     N11344   2.627   4.449  10.717  0.0005  0.1489  0.7122
  768MPD2    H511345   2.726   4.458  10.734  0.1678 -0.5176  0.0721
  768MPD2    N111346   2.295   4.670  10.439  0.0629 -0.2679  0.5915
  768MPD2    H711347   2.217   4.643  10.499  1.4093 -3.3965  0.9616
  769MPD2     C11348   2.849   2.562  14.747  0.2173 -0.0664 -0.2167
  769MPD2    C111349   2.747   2.577  14.836 -0.5161 -0.0004  0.4236
  769MPD2    C211350   2.781   2.581  14.968 -0.2351  0.0669 -0.3981
  769MPD2    C311351   2.909   2.587  15.010 -0.0330 -0.2920  0.2257
  769MPD2    C411352   3.009   2.572  14.917  0.2721  0.0188 -0.3380
  769MPD2    C511353   2.979   2.562  14.789  0.6510  0.5409  0.4089
  769MPD2     H11354   2.699   2.571  15.038  0.0582 -2.0902 -0.3698
  769MPD2    H111355   3.115   2.573  14.937  0.4883 -1.4105 -1.3640
  769MPD2    H211356   2.832   2.549  14.641  1.2101 -0.3904 -0.3397
  769MPD2    H311357   3.062   2.560  14.719  0.8399 -0.5065  0.6698
  769MPD2     N11358   2.925   2.610  15.142  0.1268  0.7566  0.0268
  769MPD2    H511359   2.839   2.614  15.196  0.0094  1.8123 -0.2393
  769MPD2    N111360   2.618   2.575  14.788 -0.6308  1.0473 -0.4963
  769MPD2    H711361   2.618   2.528  14.698  0.8912  1.4470 -0.6957
  770MPD2     C11362   2.116   2.050  15.355  0.2857  0.4433 -0.9500
  770MPD2    C111363   2.096   2.002  15.232  0.0349 -0.7147  0.7275
  770MPD2    C211364   2.074   2.088  15.123  0.0555  0.2883 -0.2946
  770MPD2    C311365   2.086   2.220  15.146  0.3934  0.5302 -0.4805
  770MPD2    C411366   2.087   2.271  15.277  0.1449  1.4955 -0.3188
  770MPD2    C511367   2.097   2.181  15.381 -0.1935 -0.1370  0.1921
  770MPD2     H11368   2.089   2.053  15.022 -0.2353  0.9701 -0.5731
  770MPD2    H111369   2.078   2.377  15.296 -1.0166  1.9393 -3.3066
  770MPD2    H211370   2.144   1.974  15.427 -2.1579 -1.3997 -1.9573
  770MPD2    H311371   2.098   2.217  15.483  0.0341  0.8077 -0.1433
  770MPD2     N11372   2.100   2.306  15.035  0.0397 -0.0368  0.9337
  770MPD2    H511373   2.107   2.253  14.949 -0.4500  0.3878  0.6357
  770MPD2    N111374   2.106   1.859  15.217 -0.2966  0.0437 -0.1977
  770MPD2    H711375   2.142   1.805  15.296 -3.1369 -1.8290 -0.1659
  771MPD2     C11376   3.418   0.773  13.501  0.6920 -0.3933  0.4198
  771MPD2    C111377   3.542   0.733  13.537  0.0486  0.6033 -0.0295
  771MPD2    C211378   3.618   0.659  13.443 -0.0198 -1.0361 -0.1543
  771MPD2    C311379   3.574   0.635  13.315 -0.3442  0.2465 -0.3320
  771MPD2    C411380   3.449   0.685  13.284  1.1556 -0.3358  0.5874
  771MPD2    C511381   3.369   0.743  13.379  0.3025  0.1709  0.2410
  771MPD2     H11382   3.723   0.641  13.463  0.3164  0.7671 -0.2400
  771MPD2    H111383   3.410   0.686  13.183 -0.0514 -2.1905  1.0361
  771MPD2    H211384   3.359   0.837  13.565  0.8452  0.3873 -0.2160
  771MPD2    H311385   3.271   0.786  13.358  0.0780 -1.2257 -1.5784
  771MPD2     N11386   3.654   0.571  13.224  0.4691 -0.4487 -0.4615
  771MPD2    H511387   3.739   0.523  13.252  0.6954  1.0168  1.3021
  771MPD2    N111388   3.598   0.778  13.657 -0.4261 -0.2287  0.2953
  771MPD2    H711389   3.696   0.761  13.677  0.4191  0.8436 -2.8524
  772MPD2     C11390   3.220   1.325  14.084 -0.4881 -0.6061 -0.3648
  772MPD2    C111391   3.233   1.228  13.981  0.6284  0.2444  0.1079
  772MPD2    C211392   3.128   1.163  13.917 -0.7326  0.3944  0.3279
  772MPD2    C311393   3.004   1.217  13.947 -0.0305 -0.5714  0.0178
  772MPD2    C411394   2.991   1.321  14.038  1.0557 -0.5948  0.6960
  772MPD2    C511395   3.093   1.367  14.110 -0.2793 -0.0391  0.1107
  772MPD2     H11396   3.139   1.077  13.852 -0.1889  0.8887 -0.2327
  772MPD2    H111397   2.894   1.369  14.044  1.0977 -0.3428 -0.5378
  772MPD2    H211398   3.297   1.355  14.154  0.2617 -1.4591 -0.8193
  772MPD2    H311399   3.078   1.449  14.179 -2.3205  1.0322 -1.5650
  772MPD2     N11400   2.879   1.172  13.900 -0.0329  1.2615  0.0734
  772MPD2    H511401   2.791   1.207  13.938 -0.0767  0.4890  0.6807
  772MPD2    N111402   3.351   1.172  13.953 -0.2824 -0.6924  0.0149
  772MPD2    H711403   3.349   1.106  13.876  2.4158 -1.5245  0.6435
  773MPD2     C11404   2.437   1.878   0.522 -0.3866  0.2505  0.5748
  773MPD2    C111405   2.383   1.772   0.442 -0.4143 -0.0041  1.2333
  773MPD2    C211406   2.416   1.638   0.482 -0.1799 -0.5097  0.3448
  773MPD2    C311407   2.503   1.613   0.583 -0.0893 -0.1924 -0.4913
  773MPD2    C411408   2.559   1.723   0.651 -0.0435 -0.3503 -0.7828
  773MPD2    C511409   2.523   1.853   0.623 -0.0589  0.1289 -0.0682
  773MPD2     H11410   2.366   1.558   0.427 -0.4641 -0.3698  0.3962
  773MPD2    H111411   2.629   1.704   0.731 -0.8232  0.8456  0.1809
  773MPD2    H211412   2.413   1.982   0.501  2.2265  0.5682 -0.8332
  773MPD2    H311413   2.570   1.931   0.683 -3.2655  2.4031 -0.4901
  773MPD2     N11414   2.543   1.480   0.604 -0.2973  0.2510 -0.3949
  773MPD2    H511415   2.498   1.410   0.546 -0.4256  0.7684 -0.9250
  773MPD2    N111416   2.311   1.799   0.323  0.6521 -0.1325  0.4451
  773MPD2    H711417   2.260   1.722   0.280  1.1007 -1.1084  1.6372
  774MPD2     C11418   1.113   0.975  13.609 -0.1555  0.1182 -0.0650
  774MPD2    C111419   1.219   0.962  13.521  0.4050 -0.8064  0.1448
  774MPD2    C211420   1.233   1.057  13.423 -0.0845 -0.3186  0.2361
  774MPD2    C311421   1.135   1.157  13.409 -0.3897 -0.5588 -0.2902
  774MPD2    C411422   1.022   1.165  13.488  0.0001 -0.4832 -0.4428
  774MPD2    C511423   1.018   1.076  13.592  0.0337  0.1515  0.0953
  774MPD2     H11424   1.307   1.040  13.346 -0.2474  0.9089 -0.1903
  774MPD2    H111425   0.946   1.239  13.466  0.5751  0.0775 -0.5433
  774MPD2    H211426   1.095   0.906  13.690  0.0260  1.0869  0.7972
  774MPD2    H311427   0.937   1.062  13.662  1.4026  0.4437  1.7628
  774MPD2     N11428   1.163   1.246  13.295 -0.5381 -0.2717  0.3550
  774MPD2    H511429   1.256   1.241  13.255 -0.8499  0.2704 -0.4213
  774MPD2    N111430   1.302   0.851  13.528 -0.0812 -0.1613 -0.1969
  774MPD2    H711431   1.289   0.802  13.615  0.6699  0.6031  0.3368
  775MPD2     C11432   3.206   2.364  15.901 -0.5493  0.0604 -0.3995
  775MPD2    C111433   3.174   2.478  15.968 -0.0386  0.1409 -0.0773
  775MPD2    C211434   3.232   2.595  15.917  0.4073 -0.5042  0.5073
  775MPD2    C311435   3.328   2.596  15.817  0.1133 -0.2533  0.2254
  775MPD2    C411436   3.358   2.473  15.766 -0.5535 -0.3662  0.3757
  775MPD2    C511437   3.296   2.359  15.800  0.3408 -0.5451 -0.3977
  775MPD2     H11438   3.192   2.681  15.968 -1.1253 -1.6215  1.2161
  775MPD2    H111439   3.438   2.467  15.694 -0.8543  1.9429 -0.1573
  775MPD2    H211440   3.166   2.271  15.941  0.2536 -0.3579 -0.5591
  775MPD2    H311441   3.332   2.264  15.761  0.7213  0.0843 -1.5800
  775MPD2     N11442   3.364   2.711  15.741  0.0004 -0.8528 -0.3313
  775MPD2    H511443   3.426   2.702  15.662  0.3375 -1.5525  0.0096
  775MPD2    N111444   3.076   2.474  16.066 -0.3186 -0.2347 -0.2583
  775MPD2    H711445   3.034   2.383  16.080  0.1019 -0.3866  0.0158
  776MPD2     C11446   2.663   3.135  10.861  0.0882  0.5629  0.1697
  776MPD2    C111447   2.746   3.093  10.963 -0.2803  0.2705  0.7500
  776MPD2    C211448   2.856   3.168  10.988  0.5922  0.4958 -0.0277
  776MPD2    C311449   2.878   3.293  10.922  0.5574 -0.5117  0.7441
  776MPD2    C411450   2.791   3.327  10.828 -0.6026 -0.6097  0.1701
  776MPD2    C511451   2.681   3.256  10.801  0.0183  0.4105  0.6102
  776MPD2     H11452   2.908   3.127  11.074 -1.4209 -0.1832  0.8722
  776MPD2    H111453   2.799   3.421  10.773 -3.0420  0.4661  1.6644
  776MPD2    H211454   2.566   3.090  10.841 -0.1131  0.2416  1.8511
  776MPD2    H311455   2.604   3.281  10.729  0.3963 -1.2935 -0.3978
  776MPD2     N11456   2.989   3.380  10.955 -1.1272  0.8000 -0.0889
  776MPD2    H511457   2.989   3.460  10.892  1.8511  0.6708 -0.2329
  776MPD2    N111458   2.716   2.979  11.044 -0.4936 -0.1942  0.5657
  776MPD2    H711459   2.785   2.955  11.114 -1.0414 -3.8076 -0.1314
  777MPD2     C11460   2.029   0.876   1.036 -0.2098  0.1885 -0.3331
  777MPD2    C111461   2.026   0.767   1.113 -0.0629  0.4027  0.4472
  777MPD2    C211462   2.050   0.643   1.056 -0.1286 -0.2752 -0.4819
  777MPD2    C311463   2.065   0.632   0.918  0.2770  0.4991  0.5332
  777MPD2    C411464   2.060   0.745   0.839 -0.4082 -0.6938 -0.3226
  777MPD2    C511465   2.047   0.866   0.900  0.0544  0.7414  0.4664
  777MPD2     H11466   2.045   0.553   1.116  0.8144  0.9469  1.4454
  777MPD2    H111467   2.079   0.747   0.733 -0.9049  1.1496 -0.3676
  777MPD2    H211468   2.018   0.977   1.075  1.1666 -0.0030  0.5427
  777MPD2    H311469   2.055   0.954   0.837 -1.3731 -0.7787 -1.8304
  777MPD2     N11470   2.076   0.503   0.861 -0.7804  0.3290 -0.2458
  777MPD2    H511471   2.093   0.433   0.932 -0.8090  0.5925  0.0198
  777MPD2    N111472   2.008   0.787   1.253  0.8108  0.3489  0.1013
  777MPD2    H711473   1.971   0.878   1.277  2.1790  0.6266  1.1523
  778MPD2     C11474   3.567   0.324  15.011 -0.6275 -0.6893  0.6413
  778MPD2    C111475   3.567   0.201  14.956  0.1077  0.4105 -0.7622
  778MPD2    C211476   3.672   0.158  14.881 -0.1152  0.2000 -0.5352
  778MPD2    C311477   3.780   0.248  14.851 -0.1408  0.1721  0.2678
  778MPD2    C411478   3.792   0.368  14.921  0.6227  0.3284 -0.2849
  778MPD2    C511479   3.674   0.410  14.983 -0.4533 -0.0054 -0.2240
  778MPD2     H11480   3.656   0.065  14.828 -1.3327  1.4014 -2.2783
  778MPD2    H111481   3.872   0.433  14.890  0.7659  0.1631 -0.2608
  778MPD2    H211482   3.492   0.373  15.072 -2.0267 -1.9308 -0.0826
  778MPD2    H311483   3.674   0.514  15.013  1.5236 -0.7864  2.5386
  778MPD2     N11484   3.871   0.198  14.760  0.3789 -0.1743 -0.0937
  778MPD2    H511485   3.855   0.112  14.708  0.6075  0.2635 -0.8845
  778MPD2    N111486   3.453   0.116  14.951  0.0775 -0.3748 -0.8588
  778MPD2    H711487   3.465   0.035  14.891  3.2934 -1.1707  0.8421
  779MPD2     C11488   3.833   3.796  13.694  0.2497  0.1634  0.3506
  779MPD2    C111489   3.775   3.789  13.821  0.2328 -0.0741  0.8158
  779MPD2    C211490   3.787   3.890  13.908 -0.1260 -0.4041 -0.0946
  779MPD2    C311491   3.828   4.010  13.862 -0.1814  0.6735 -0.5947
  779MPD2    C411492   3.887   4.019  13.739  0.2330  0.5826 -0.2245
  779MPD2    C511493   3.887   3.916  13.656 -0.1427  0.5618  0.0527
  779MPD2     H11494   3.762   3.874  14.013  1.7186 -1.1118  0.2402
  779MPD2    H111495   3.941   4.106  13.703 -1.5583  3.9690  5.2512
  779MPD2    H211496   3.820   3.719  13.619  0.8221  0.8630 -0.4686
  779MPD2    H311497   3.918   3.950  13.557  1.2057 -2.0969 -0.4456
  779MPD2     N11498   3.830   4.120  13.957 -0.5472  0.0515 -0.3960
  779MPD2    H511499   3.798   4.101  14.052  0.2512  3.1819  0.4800
  779MPD2    N111500   3.697   3.681  13.861 -0.7367  0.4311 -0.7022
  779MPD2    H711501   3.658   3.682  13.955 -1.6214  2.5712 -1.0791
  780MPD2     C11502   2.373   4.347   0.932 -0.7300 -0.3184  0.2241
  780MPD2    C111503   2.337   4.272   0.822 -0.0106  0.1610  0.6713
  780MPD2    C211504   2.395   4.305   0.701  0.1038  1.1903 -0.5082
  780MPD2    C311505   2.494   4.403   0.693 -0.1178  0.6263  0.0441
  780MPD2    C411506   2.523   4.482   0.807 -0.6585  0.0103 -0.2246
  780MPD2    C511507   2.454   4.456   0.927  0.3887  0.9331  0.4831
  780MPD2     H11508   2.386   4.234   0.619  1.5792  0.4907 -0.0682
  780MPD2    H111509   2.597   4.562   0.811  0.0335 -0.5688 -1.3129
  780MPD2    H211510   2.320   4.326   1.024 -2.5463 -2.2589 -1.2771
  780MPD2    H311511   2.463   4.522   1.012  2.2233  3.3293 -1.5386
  780MPD2     N11512   2.570   4.405   0.576 -0.4200 -0.3314 -1.0644
  780MPD2    H511513   2.544   4.339   0.503 -1.2176 -0.4195 -0.6974
  780MPD2    N111514   2.253   4.156   0.843  0.2209  0.2109  0.4368
  780MPD2    H711515   2.208   4.143   0.933 -1.2915  0.7251 -0.2580
  781MPD2     C11516   4.717   1.234  11.435 -1.1358  0.1802  0.4502
  781MPD2    C111517   0.058   1.283  11.550 -0.8980 -0.1737 -0.1570
  781MPD2    C211518   0.164   1.376  11.533  0.0735  0.0853 -0.2361
  781MPD2    C311519   0.212   1.398  11.407  0.1835  0.2873 -0.6075
  781MPD2    C411520   0.156   1.342  11.295 -0.1863 -0.4144 -0.2015
  781MPD2    C511521   0.059   1.250  11.313 -0.1589 -0.7791 -0.3664
  781MPD2     H11522   0.218   1.408  11.621 -1.2250  0.7848  0.3070
  781MPD2    H111523   0.199   1.355  11.196  1.0171  4.2026  0.9095
  781MPD2    H211524   4.633   1.166  11.439 -1.7126  0.8509 -0.3299
  781MPD2    H311525   0.028   1.196  11.225  0.3575 -1.5764 -0.0687
  781MPD2     N11526   0.331   1.474  11.380 -0.2346 -0.5646  0.6582
  781MPD2    H511527   0.370   1.459  11.287  2.7566 -0.0308  1.8200
  781MPD2    N111528   0.031   1.236  11.685  0.6650  0.2026  0.2637
  781MPD2    H711529   0.087   1.263  11.765  0.1650  1.7469  0.0869
  782MPD2     C11530   2.885   1.471  10.376 -0.4841  0.6156 -0.4293
  782MPD2    C111531   3.003   1.490  10.308 -0.3949 -0.5877 -0.1969
  782MPD2    C211532   3.043   1.618  10.270  0.3230 -0.0087 -0.9231
  782MPD2    C311533   2.956   1.728  10.296  0.0051 -0.0842 -0.5372
  782MPD2    C411534   2.834   1.704  10.357  0.7372  0.1179  1.1398
  782MPD2    C511535   2.800   1.580  10.398  0.1789 -0.6185  0.5969
  782MPD2     H11536   3.141   1.641  10.232 -0.1874 -0.6432 -2.6604
  782MPD2    H111537   2.775   1.788  10.392 -0.5710  0.2195 -1.3126
  782MPD2    H211538   2.848   1.376  10.412  0.7614 -0.0124 -0.8092
  782MPD2    H311539   2.710   1.555  10.452 -0.1126  0.4445  0.6128
  782MPD2     N11540   3.006   1.855  10.274  0.3787 -0.0339  0.3531
  782MPD2    H511541   2.965   1.932  10.326 -0.9760  0.5957 -1.6547
  782MPD2    N111542   3.086   1.377  10.296 -0.1578  0.6810  0.1932
  782MPD2    H711543   3.056   1.298  10.351  1.1813 -1.1402 -1.7162
  783MPD2     C11544   3.087   1.208  11.052 -0.6047  0.4343  0.2724
  783MPD2    C111545   3.061   1.310  10.962 -0.1816  0.0984 -0.0901
  783MPD2    C211546   3.117   1.300  10.835 -0.3635  0.1635  0.3827
  783MPD2    C311547   3.204   1.192  10.804  0.1503 -0.0690  0.8456
  783MPD2    C411548   3.209   1.084  10.894  0.0455 -0.0804  0.4046
  783MPD2    C511549   3.160   1.100  11.021  0.1913  0.1357 -0.4290
  783MPD2     H11550   3.082   1.365  10.755  1.1757 -1.4480 -1.6036
  783MPD2    H111551   3.266   0.994  10.874  0.0350  0.0981 -0.4515
  783MPD2    H211552   3.056   1.217  11.156  1.8928  1.2534  0.9408
  783MPD2    H311553   3.180   1.026  11.097 -0.0342  0.2387 -0.2721
  783MPD2     N11554   3.258   1.193  10.678 -0.0218  0.5512  0.3840
  783MPD2    H511555   3.253   1.279  10.625 -1.8996 -1.1897 -2.2438
  783MPD2    N111556   2.989   1.419  11.000 -0.4311 -0.3876  0.0778
  783MPD2    H711557   2.960   1.417  11.097 -0.3771 -0.4205  0.0930
  784MPD2     C11558   0.054   2.123   1.370 -0.4069 -0.8474 -0.8365
  784MPD2    C111559   0.073   2.255   1.412  0.2603  0.2957 -0.1672
  784MPD2    C211560   4.715   2.350   1.343 -1.0532 -0.1667 -0.1834
  784MPD2    C311561   4.643   2.318   1.230 -0.0069 -0.3390 -0.0931
  784MPD2    C411562   4.638   2.189   1.186  0.2793  0.9570  0.2314
  784MPD2    C511563   4.702   2.088   1.257  0.0700 -0.6489 -0.3000
  784MPD2     H11564   0.005   2.456   1.360  0.2108 -0.3619  0.2993
  784MPD2    H111565   4.583   2.155   1.098 -1.3256  1.6071  0.9805
  784MPD2    H211566   0.098   2.039   1.422 -0.5451 -0.6166 -0.3452
  784MPD2    H311567   4.698   1.985   1.223  1.3206 -0.6796 -0.3356
  784MPD2     N11568   4.585   2.418   1.153  0.0866 -0.5020 -0.1773
  784MPD2    H511569   4.568   2.510   1.194 -0.2634  0.0151 -1.4707
  784MPD2    N111570   0.159   2.293   1.518  0.6249  0.2451  0.5282
  784MPD2    H711571   0.148   2.391   1.545 -0.7530 -0.0267  0.9500
  785MPD2     C11572   0.678   0.842  10.417  0.3179 -0.6249 -0.8972
  785MPD2    C111573   0.576   0.909  10.340 -0.1442 -0.3152 -0.0925
  785MPD2    C211574   0.496   0.828  10.249 -0.1272  0.5195 -0.3797
  785MPD2    C311575   0.519   0.691  10.242  0.6802 -0.2745 -0.6514
  785MPD2    C411576   0.618   0.635  10.327  0.5071  0.0170  0.1540
  785MPD2    C511577   0.696   0.708  10.408  0.6037  0.3069  0.3438
  785MPD2     H11578   0.418   0.873  10.188  0.1449 -0.1639 -1.2148
  785MPD2    H111579   0.616   0.526  10.327 -1.3297  0.0564  1.6875
  785MPD2    H211580   0.743   0.900  10.481 -0.1373  0.0834 -1.0778
  785MPD2    H311581   0.769   0.664  10.476  0.4359  1.3651  1.2094
  785MPD2     N11582   0.446   0.616  10.146  0.5934  0.1965  0.1470
  785MPD2    H511583   0.375   0.671  10.099  0.5110  0.1672  0.2373
  785MPD2    N111584   0.559   1.049  10.333 -0.4639 -0.3872 -0.6174
  785MPD2    H711585   0.480   1.063  10.271 -2.5850 -2.0200  1.6889
  786MPD2     C11586   3.592   3.256  15.168 -0.0208 -0.1310 -0.0093
  786MPD2    C111587   3.678   3.174  15.096  0.4676  0.6500  1.1243
  786MPD2    C211588   3.787   3.119  15.162  0.4963 -0.2470  0.4458
  786MPD2    C311589   3.812   3.149  15.296 -0.0050 -0.3056  0.5246
  786MPD2    C411590   3.734   3.239  15.362 -0.1116  0.4460 -0.4927
  786MPD2    C511591   3.624   3.294  15.299 -0.3610  0.2163 -0.0581
  786MPD2     H11592   3.863   3.069  15.103 -0.4731 -1.2273  0.0241
  786MPD2    H111593   3.770   3.280  15.455 -0.7830  1.1284 -0.5263
  786MPD2    H211594   3.508   3.308  15.123  0.0144 -0.8818 -0.9432
  786MPD2    H311595   3.559   3.360  15.356  1.5278  0.5031  1.7719
  786MPD2     N11596   3.928   3.108  15.359  0.0479 -0.2150  0.4551
  786MPD2    H511597   3.932   3.140  15.455 -0.9800  1.1294  0.0451
  786MPD2    N111598   3.675   3.155  14.958  0.3953  0.1937 -0.3921
  786MPD2    H711599   3.758   3.111  14.918  0.2497  0.0005 -0.4767
  787MPD2     C11600   4.100   3.328  14.896 -0.6723  0.1962 -0.5305
  787MPD2    C111601   4.074   3.247  14.788 -0.1401  0.4504 -0.3929
  787MPD2    C211602   4.156   3.140  14.762  0.3650  0.3636  0.1123
  787MPD2    C311603   4.248   3.098  14.852  0.9539 -0.0633 -0.2053
  787MPD2    C411604   4.274   3.185  14.965  0.3944 -0.3277  0.6765
  787MPD2    C511605   4.200   3.293  14.983  0.5913  0.2243  0.0216
  787MPD2     H11606   4.128   3.080  14.676 -0.9331  1.2896 -0.1258
  787MPD2    H111607   4.335   3.151  15.048 -1.6451 -0.8341  1.9686
  787MPD2    H211608   4.033   3.409  14.925 -0.5615 -0.2127  0.8672
  787MPD2    H311609   4.223   3.353  15.071  0.9285 -1.8670  1.3438
  787MPD2     N11610   4.310   2.968  14.832 -0.2213 -0.1151  1.2478
  787MPD2    H511611   4.302   2.929  14.739  0.4887 -1.6168  1.8115
  787MPD2    N111612   3.945   3.274  14.724 -0.5596 -0.3467  0.0282
  787MPD2    H711613   3.878   3.317  14.788 -1.9515 -2.6081  0.0950
  788MPD2     C11614   4.678   2.828   1.053  0.0435 -0.2534 -0.1361
  788MPD2    C111615   0.052   2.742   0.995 -0.5139  0.4262  0.4819
  788MPD2    C211616   0.102   2.769   0.872  0.0898 -0.0185  0.2808
  788MPD2    C311617   0.051   2.871   0.801 -0.1296 -0.2645  0.8589
  788MPD2    C411618   4.667   2.945   0.855  0.1141  0.6921 -0.9828
  788MPD2    C511619   4.617   2.926   0.978 -0.5334  1.1094  0.1676
  788MPD2     H11620   0.169   2.692   0.835 -1.7053 -0.2292 -2.5054
  788MPD2    H111621   4.604   3.016   0.803 -3.5753 -1.3258  0.7116
  788MPD2    H211622   4.638   2.818   1.153 -2.3343 -0.2201 -1.0974
  788MPD2    H311623   4.528   2.973   1.019 -0.1926  0.3669  1.7498
  788MPD2     N11624   0.088   2.900   0.667 -0.1858 -0.5320 -0.4562
  788MPD2    H511625   0.038   2.972   0.616 -2.0696 -1.0929  0.5704
  788MPD2    N111626   0.113   2.631   1.065 -0.4480  0.6014 -0.5316
  788MPD2    H711627   0.167   2.562   1.015 -0.1764  0.7458 -0.4370
  789MPD2     C11628   1.494   0.807  16.484 -1.2817  1.0002 -0.2844
  789MPD2    C111629   1.418   0.816  16.370  0.3689  0.3117  0.7249
  789MPD2    C211630   1.302   0.888  16.367  0.4570 -0.0785 -0.3897
  789MPD2    C311631   1.260   0.951  16.480 -0.1306 -0.3007 -0.2565
  789MPD2    C411632   1.338   0.947  16.591  0.4544  0.1342 -0.6780
  789MPD2    C511633   1.460   0.879  16.591 -0.9572  0.5884  0.0577
  789MPD2     H11634   1.252   0.889  16.271 -1.4658 -0.0563  0.5906
  789MPD2    H111635   1.310   0.992  16.685 -0.3409 -1.4744 -0.1303
  789MPD2    H211636   1.586   0.750  16.489 -0.5954  2.1673  0.4297
  789MPD2    H311637   1.517   0.865  16.682  0.0712  1.2106 -0.5045
  789MPD2     N11638   1.147   1.033  16.493  0.2903  0.2351  0.2037
  789MPD2    H511639   1.134   1.070  16.587 -2.0892 -0.0804  0.0070
  789MPD2    N111640   1.449   0.743  16.251  0.2074  0.0200  0.1848
  789MPD2    H711641   1.383   0.750  16.174  0.0961  0.3662  0.3119
  790MPD2     C11642   2.255   3.173  13.388  0.5224  0.0658  0.2368
  790MPD2    C111643   2.315   3.054  13.355  0.0633 -0.4405 -0.1019
  790MPD2    C211644   2.382   3.026  13.243 -0.1676 -0.0414  0.0616
  790MPD2    C311645   2.377   3.125  13.145  0.7099  0.2203 -0.1598
  790MPD2    C411646   2.329   3.250  13.181  0.4245  0.3861  0.9075
  790MPD2    C511647   2.272   3.278  13.300  0.7812  0.2988  0.6496
  790MPD2     H11648   2.422   2.930  13.213  0.4531 -0.2439  1.5161
  790MPD2    H111649   2.338   3.334  13.114 -2.0863 -1.4662 -1.7300
  790MPD2    H211650   2.208   3.194  13.484 -1.7200 -2.4609 -0.3112
  790MPD2    H311651   2.236   3.374  13.333  1.1424  1.1398 -1.4204
  790MPD2     N11652   2.436   3.084  13.025 -0.6079  0.1699 -0.0360
  790MPD2    H511653   2.477   2.991  13.019 -0.9230  0.0762 -0.7291
  790MPD2    N111654   2.302   2.960  13.456  0.4374 -0.1004  0.5040
  790MPD2    H711655   2.243   2.988  13.534 -0.3556  0.9757 -0.4894
  791MPD2     C11656   1.866   3.051  12.535  0.2546  0.4097 -0.3710
  791MPD2    C111657   1.953   2.948  12.569  0.3815  0.3982 -0.3837
  791MPD2    C211658   1.908   2.821  12.583 -0.3225  0.6323 -0.3902
  791MPD2    C311659   1.771   2.796  12.572 -0.1533 -0.0983 -0.3112
  791MPD2    C411660   1.683   2.899  12.532 -0.4149 -0.1125  0.0555
  791MPD2    C511661   1.733   3.022  12.513  0.1993 -0.3282 -0.0141
  791MPD2     H11662   1.981   2.746  12.612 -2.3494 -0.2379  2.4256
  791MPD2    H111663   1.576   2.886  12.538 -0.5599 -0.1051 -2.2865
  791MPD2    H211664   1.909   3.150  12.526 -1.7573  1.4260  1.2134
  791MPD2    H311665   1.668   3.107  12.497  2.2639  1.3057  0.2365
  791MPD2     N11666   1.714   2.669  12.612  0.2103 -0.5784  0.4368
  791MPD2    H511667   1.777   2.599  12.650 -0.5209 -1.0971  0.6855
  791MPD2    N111668   2.087   2.986  12.597 -0.2733  0.0938  0.0286
  791MPD2    H711669   2.101   3.084  12.620  2.8522 -0.3034 -0.1935
  792MPD2     C11670   3.235   2.466  10.812  0.7720  0.4517 -0.0116
  792MPD2    C111671   3.132   2.554  10.830  0.3113  0.4329  0.2974
  792MPD2    C211672   3.001   2.502  10.816 -0.3287 -0.0081  0.0212
  792MPD2    C311673   2.978   2.373  10.779 -0.2253 -0.8819 -0.7964
  792MPD2    C411674   3.083   2.296  10.747  0.3733 -0.1736 -0.1377
  792MPD2    C511675   3.213   2.345  10.766  0.3235 -0.0390  0.3982
  792MPD2     H11676   2.916   2.562  10.847 -0.7355 -1.0901  0.9865
  792MPD2    H111677   3.073   2.193  10.715 -2.6701 -0.2015  0.9070
  792MPD2    H211678   3.336   2.502  10.825  0.7707 -0.3608  2.3120
  792MPD2    H311679   3.290   2.272  10.745 -1.2355 -1.8920  1.1558
  792MPD2     N11680   2.845   2.310  10.788 -0.5964 -0.8726 -0.4234
  792MPD2    H511681   2.829   2.218  10.749 -1.2620 -1.0191  0.1850
  792MPD2    N111682   3.164   2.692  10.851 -0.3692 -0.1374 -0.0782
  792MPD2    H711683   3.262   2.709  10.872 -0.7841  1.9467  0.1353
  793MPD2     C11684   2.044   2.598  10.365  0.0711  0.0118  0.2246
  793MPD2    C111685   2.176   2.597  10.355 -0.1768 -0.5888 -0.8575
  793MPD2    C211686   2.257   2.544  10.453  0.3933  0.2651 -0.3616
  793MPD2    C311687   2.191   2.480  10.563  0.1894  0.3605 -0.7544
  793MPD2    C411688   2.058   2.478  10.572 -0.4561  0.9245  0.6717
  793MPD2    C511689   1.981   2.533  10.470  0.2616 -1.1130  0.0773
  793MPD2     H11690   2.366   2.544  10.446  0.5095  0.9691  1.4085
  793MPD2    H111691   2.008   2.431  10.656  0.5506  0.2401  0.8859
  793MPD2    H211692   1.988   2.638  10.281  2.6716  2.3996 -0.3608
  793MPD2    H311693   1.874   2.520  10.482  0.1793  0.1701  0.6666
  793MPD2     N11694   2.282   2.424  10.662 -0.6653  0.4169  0.5664
  793MPD2    H511695   2.380   2.447  10.647 -0.7498 -0.3014 -1.1271
  793MPD2    N111696   2.244   2.641  10.241 -0.4672 -0.2646  0.0964
  793MPD2    H711697   2.334   2.598  10.223 -1.6541 -2.8302  0.2309
  794MPD2     C11698   2.121   2.368  17.375  0.2284 -0.5555  0.2292
  794MPD2    C111699   2.053   2.247  17.363  0.0251  0.3226 -0.4595
  794MPD2    C211700   1.992   2.222  17.241  0.0620  0.2135 -0.0400
  794MPD2    C311701   1.984   2.316  17.141 -0.4597 -0.6881  0.2286
  794MPD2    C411702   2.042   2.435  17.163 -0.0794  0.1349 -0.0710
  794MPD2    C511703   2.120   2.456  17.273 -0.6909 -0.3150  0.2756
  794MPD2     H11704   1.938   2.128  17.233  1.8694 -0.8057 -0.3401
  794MPD2    H111705   2.036   2.517  17.092 -0.0394 -1.2183 -1.6420
  794MPD2    H211706   2.184   2.403  17.457  0.7702  1.7780 -1.1923
  794MPD2    H311707   2.181   2.545  17.281 -0.4797 -0.2615 -1.9627
  794MPD2     N11708   1.912   2.294  17.020 -0.2250 -0.4739 -0.3668
  794MPD2    H511709   1.920   2.380  16.966 -1.1128 -0.2808 -0.1851
  794MPD2    N111710   2.048   2.147  17.466 -0.2791 -0.2581  0.5354
  794MPD2    H711711   1.999   2.062  17.439 -1.7193  0.4209  0.9953
  795MPD2     C11712   0.125   4.583  13.669 -0.0873  0.1641  0.7499
  795MPD2    C111713   0.080   4.453  13.645 -0.6996  0.7708 -0.3577
  795MPD2    C211714   0.145   4.354  13.719  0.6313  0.2595 -0.4419
  795MPD2    C311715   0.238   4.386  13.814 -0.3627  0.6986  0.0702
  795MPD2    C411716   0.278   4.515  13.831  0.0987 -0.1437 -0.0937
  795MPD2    C511717   0.227   4.611  13.751 -0.2541  0.2963  0.3102
  795MPD2     H11718   0.126   4.248  13.706  1.4362  0.0428  0.1609
  795MPD2    H111719   0.364   4.549  13.888 -0.5170 -1.1079  1.3999
  795MPD2    H211720   0.091   4.670  13.613  2.7147  0.7782  0.0438
  795MPD2    H311721   0.272   4.710  13.747  1.3997 -0.5148 -0.9864
  795MPD2     N11722   0.319   4.289  13.875 -0.3863 -0.6234 -0.2058
  795MPD2    H511723   0.404   4.316  13.924  0.9267 -1.0183 -2.2213
  795MPD2    N111724   4.714   4.413  13.538  0.5262  0.6565 -0.0676
  795MPD2    H711725   4.685   4.317  13.523  0.1797  0.8459 -0.6045
  796MPD2     C11726   4.173   1.320  15.772  0.1099  0.1172 -1.0864
  796MPD2    C111727   4.260   1.324  15.878 -0.5735  0.0669 -0.4999
  796MPD2    C211728   4.273   1.441  15.951 -0.8764 -0.6136 -0.4958
  796MPD2    C311729   4.198   1.552  15.918  0.2934  0.6032 -0.1819
  796MPD2    C411730   4.119   1.552  15.808 -0.3167  0.4796 -0.4507
  796MPD2    C511731   4.108   1.437  15.738 -0.2068  0.4500  0.1864
  796MPD2     H11732   4.335   1.446  16.040 -1.4045 -1.3227 -0.0907
  796MPD2    H111733   4.056   1.633  15.772 -0.8978  0.0590 -0.3948
  796MPD2    H211734   4.147   1.227  15.723 -4.0859 -0.4143  2.0607
  796MPD2    H311735   4.035   1.422  15.660 -2.0067  0.2595  1.9003
  796MPD2     N11736   4.202   1.666  16.005 -0.6221  0.5646  0.4663
  796MPD2    H511737   4.257   1.664  16.090 -1.7685  2.1332  1.2628
  796MPD2    N111738   4.319   1.204  15.919 -0.7932  0.3460 -0.0917
  796MPD2    H711739   4.295   1.124  15.861 -1.1395 -0.5326  1.2367
  797MPD2     C11740   0.601   0.433  17.365 -0.1168  0.0030 -0.2215
  797MPD2    C111741   0.574   0.568  17.367  0.5588  0.1605  0.4003
  797MPD2    C211742   0.594   0.644  17.255  0.5817  0.2448  0.4241
  797MPD2    C311743   0.660   0.588  17.145  0.2366  0.5054 -0.3516
  797MPD2    C411744   0.681   0.452  17.141 -0.4994  0.4329  0.7083
  797MPD2    C511745   0.649   0.376  17.251  0.3590  0.0765  0.4452
  797MPD2     H11746   0.560   0.747  17.258 -2.8851 -0.8363 -2.5198
  797MPD2    H111747   0.733   0.411  17.055 -1.6348  0.5682 -0.0435
  797MPD2    H211748   0.601   0.376  17.457 -0.9429  0.0952 -0.1627
  797MPD2    H311749   0.699   0.280  17.247 -0.5564 -0.4667  1.8003
  797MPD2     N11750   0.679   0.662  17.029  0.0634  0.1151 -0.1660
  797MPD2    H511751   0.699   0.607  16.946  2.5172  1.9980 -0.8470
  797MPD2    N111752   0.516   0.624  17.479  0.4536  0.1535 -0.3847
  797MPD2    H711753   0.505   0.724  17.461 -0.3213  0.1155 -0.1258
  798MPD2     C11754   0.152   1.116  17.131  0.2773  0.2421  0.0075
  798MPD2    C111755   0.280   1.078  17.150  0.6597  0.9011 -0.7240
  798MPD2    C211756   0.324   1.057  17.283 -0.3621  0.0815 -0.4258
  798MPD2    C311757   0.249   1.073  17.398 -0.5557  0.1239 -0.0101
  798MPD2    C411758   0.123   1.122  17.377  0.0011  0.1799  0.3342
  798MPD2    C511759   0.079   1.152  17.242 -0.2229  0.3572  0.6627
  798MPD2     H11760   0.426   1.022  17.292 -0.0473  0.9039 -0.7408
  798MPD2    H111761   0.052   1.140  17.457  0.3763  0.5489  0.5778
  798MPD2    H211762   0.107   1.118  17.032  0.2485  1.5998  0.0469
  798MPD2    H311763   4.696   1.182  17.221 -0.2935  0.1928  0.7717
  798MPD2     N11764   0.312   1.014  17.510 -0.2475 -0.3998 -0.1456
  798MPD2    H511765   0.407   0.980  17.499  0.4673  1.2284  0.9656
  798MPD2    N111766   0.368   1.035  17.051  0.1848  0.6983  0.3487
  798MPD2    H711767   0.459   1.002  17.081 -0.3716  0.4029  1.7234
  799MPD2     C11768   4.116   2.427  14.762 -0.3726 -0.9709  0.0005
  799MPD2    C111769   4.080   2.347  14.658 -0.8715  0.0521  0.4876
  799MPD2    C211770   4.032   2.413  14.546  0.9706 -0.0786 -0.2465
  799MPD2    C311771   4.019   2.546  14.535  1.0037  0.8947  0.3261
  799MPD2    C411772   4.078   2.620  14.637 -0.7485  0.4525  0.5329
  799MPD2    C511773   4.124   2.564  14.752  0.3097 -0.9461  0.2211
  799MPD2     H11774   3.995   2.355  14.462 -1.7273  1.4300 -0.0979
  799MPD2    H111775   4.062   2.727  14.643  1.7882  0.8288  0.5501
  799MPD2    H211776   4.143   2.382  14.857  0.1501 -1.3904 -0.3453
  799MPD2    H311777   4.147   2.619  14.843  0.7067 -1.3741  0.3802
  799MPD2     N11778   3.979   2.619  14.415 -0.8261  0.1427 -0.0214
  799MPD2    H511779   4.004   2.716  14.403 -0.4672 -0.1138 -1.3930
  799MPD2    N111780   4.077   2.205  14.659 -0.0734  0.1727 -0.1906
  799MPD2    H711781   4.050   2.158  14.574  0.9983 -0.4249 -0.1897
  800MPD2     C11782   4.573   3.706  14.097  0.4984 -0.0773 -0.1447
  800MPD2    C111783   4.697   3.644  14.114  0.3440  0.1568 -0.3623
  800MPD2    C211784   0.007   3.533  14.041  0.2036 -0.9045  0.8671
  800MPD2    C311785   4.635   3.483  13.952 -0.6965  0.7920 -0.5084
  800MPD2    C411786   4.511   3.539  13.936  0.3503  0.4231  0.1453
  800MPD2    C511787   4.478   3.648  14.009  0.7114 -0.1035 -0.1755
  800MPD2     H11788   0.106   3.490  14.049  1.1317  1.2760  1.0419
  800MPD2    H111789   4.437   3.500  13.867 -0.4835  0.1220  1.2195
  800MPD2    H211790   4.549   3.798  14.147  0.5825 -0.2299  0.1782
  800MPD2    H311791   4.379   3.691  14.005  0.0040 -2.1776 -4.2289
  800MPD2     N11792   4.675   3.363  13.878  0.9418 -0.5936  0.3155
  800MPD2    H511793   0.047   3.327  13.906  0.8066  0.5605  2.2922
  800MPD2    N111794   0.060   3.702  14.213  0.2020  0.3029 -0.1991
  800MPD2    H711795   0.018   3.777  14.267 -0.9694 -0.7764  0.3906
  801MPD2     C11796   0.063   4.149  14.808  0.1055 -0.1906 -0.8028
  801MPD2    C111797   0.014   4.069  14.701  0.4131 -0.1266 -0.2179
  801MPD2    C211798   4.597   4.043  14.702  0.5000  0.2631 -0.1977
  801MPD2    C311799   4.513   4.087  14.809  0.4433  0.1358 -0.1988
  801MPD2    C411800   4.567   4.173  14.902  0.1987  0.1832 -0.5577
  801MPD2    C511801   4.699   4.204  14.897 -0.7201 -0.2170  0.3550
  801MPD2     H11802   4.554   3.992  14.617 -0.5467 -2.3248  1.8764
  801MPD2    H111803   4.506   4.219  14.979  1.6561 -1.2168  1.4400
  801MPD2    H211804   0.164   4.187  14.813  0.2762 -0.8329  0.5683
  801MPD2    H311805   0.013   4.259  14.985  0.1606  1.9955 -1.3649
  801MPD2     N11806   4.382   4.053  14.837 -0.1699  0.1259  0.0892
  801MPD2    H511807   4.352   4.089  14.927 -0.6486  0.3208 -0.1503
  801MPD2    N111808   0.091   4.000  14.606 -0.3768 -0.3077 -0.3592
  801MPD2    H711809   0.041   3.940  14.541  0.9370 -0.4230 -1.2663
  802MPD2     C11810   3.897   3.482   0.187  0.8924  0.0228 -0.7083
  802MPD2    C111811   3.873   3.609   0.142  0.5415  0.3085 -1.1148
  802MPD2    C211812   3.869   3.644   0.011  0.5342  0.3514  0.1148
  802MPD2    C311813   3.881   3.539  17.600  0.0385 -0.5290  0.5105
  802MPD2    C411814   3.905   3.409  17.636 -0.1013  0.1780 -0.1397
  802MPD2    C511815   3.907   3.384   0.089  0.2839 -0.1593  0.2271
  802MPD2     H11816   3.860   3.750  17.675 -0.2399  0.0806 -1.1835
  802MPD2    H111817   3.916   3.324  17.569 -2.6578  0.6467 -1.1450
  802MPD2    H211818   3.901   3.447   0.289  1.4235 -0.1733 -0.7941
  802MPD2    H311819   3.916   3.282   0.125  1.3014  0.6307  2.1848
  802MPD2     N11820   3.871   3.573  17.459  0.1882 -0.3544  0.1205
  802MPD2    H511821   3.838   3.666  17.440  1.6096  0.2135  0.3914
  802MPD2    N111822   3.854   3.720   0.224 -0.3090 -0.1622 -0.0780
  802MPD2    H711823   3.826   3.809   0.183 -0.5739 -0.1793  0.0658
  803MPD2     C11824   0.686   3.076  11.675  0.6458  0.5962  0.3156
  803MPD2    C111825   0.781   3.115  11.771 -0.2377  0.4909 -0.2696
  803MPD2    C211826   0.765   3.086  11.909 -0.0090  0.1704  0.0183
  803MPD2    C311827   0.648   3.016  11.940 -0.4206  0.0687  0.2825
  803MPD2    C411828   0.561   2.966  11.843  0.1840  0.1111  0.8939
  803MPD2    C511829   0.582   2.997  11.711  0.5530  0.0353 -0.5328
  803MPD2     H11830   0.840   3.120  11.980 -0.3349 -0.5171  0.6977
  803MPD2    H111831   0.473   2.910  11.874  0.3655 -0.0335  1.1508
  803MPD2    H211832   0.699   3.090  11.568 -0.5310 -0.4306  0.0338
  803MPD2    H311833   0.520   2.950  11.635  0.8346 -1.9559  0.4742
  803MPD2     N11834   0.620   2.979  12.071  0.0926 -0.1443  0.7355
  803MPD2    H511835   0.535   2.924  12.081  1.2347 -1.6155  2.1961
  803MPD2    N111836   0.902   3.176  11.740 -0.1519 -0.4163  0.0976
  803MPD2    H711837   0.948   3.218  11.821 -1.8385 -1.3851  1.5464
  804MPD2     C11838   4.671   3.816  16.603  0.2492 -0.2335  0.7858
  804MPD2    C111839   4.587   3.834  16.715  0.1886 -0.0138  0.4038
  804MPD2    C211840   4.565   3.953  16.771  0.0310 -0.3857 -0.2902
  804MPD2    C311841   4.641   4.061  16.727 -0.6160  0.3603  0.2869
  804MPD2    C411842   4.709   4.050  16.611 -0.1434 -0.4590  0.2750
  804MPD2    C511843   0.003   3.928  16.549  0.4458 -0.7003 -0.2087
  804MPD2     H11844   4.511   3.949  16.865 -1.5003  2.6232 -1.0463
  804MPD2    H111845   0.050   4.124  16.560 -2.6149  0.4885 -1.2670
  804MPD2    H211846   4.695   3.724  16.551 -1.6234 -0.8759  1.0715
  804MPD2    H311847   0.072   3.918  16.466 -0.3541 -0.2127 -0.9301
  804MPD2     N11848   4.631   4.185  16.796 -0.2515  0.1165  0.5629
  804MPD2    H511849   4.560   4.195  16.868 -0.8347  1.4040 -0.1839
  804MPD2    N111850   4.534   3.722  16.794 -0.0612  0.2254 -0.4306
  804MPD2    H711851   4.459   3.737  16.861 -0.7680 -0.6622 -1.0309
  805MPD2     C11852   3.758   2.535  15.752  0.0899 -0.3622 -0.1925
  805MPD2    C111853   3.838   2.574  15.646 -0.5460  0.0905  0.1804
  805MPD2    C211854   3.978   2.575  15.668 -0.5813  0.4964  0.1689
  805MPD2    C311855   4.036   2.546  15.792 -0.0688 -0.0722  0.5311
  805MPD2    C411856   3.953   2.501  15.891 -0.3689 -0.4687 -0.6620
  805MPD2    C511857   3.817   2.499  15.871 -0.6950 -0.1116 -0.3464
  805MPD2     H11858   4.045   2.600  15.586 -1.4204  2.4084  0.0603
  805MPD2    H111859   3.985   2.471  15.991  0.3876 -0.1116 -0.8023
  805MPD2    H211860   3.652   2.520  15.737 -0.0292  1.3716 -1.0426
  805MPD2    H311861   3.753   2.472  15.954  0.9221 -1.2842  0.5119
  805MPD2     N11862   4.176   2.562  15.812 -0.1775 -0.6207 -0.0415
  805MPD2    H511863   4.237   2.590  15.735  0.3958 -1.1299  0.2314
  805MPD2    N111864   3.786   2.579  15.516  0.4016  0.2779  0.1287
  805MPD2    H711865   3.852   2.584  15.439 -0.5222 -1.2108 -0.7743
  806MPD2     C11866   3.779   1.398  17.560  0.6585 -0.7695  0.2071
  806MPD2    C111867   3.756   1.512  17.640 -0.3996  0.1605 -0.1102
  806MPD2    C211868   3.829   1.629  17.621 -0.4649  0.2207 -0.8004
  806MPD2    C311869   3.921   1.626  17.519 -0.5952  0.3200  0.2955
  806MPD2    C411870   3.944   1.511  17.439  0.2402 -0.7753  0.0347
  806MPD2    C511871   3.872   1.395  17.458  0.5183 -0.0128 -0.3314
  806MPD2     H11872   3.814   1.722  17.673  0.3022 -0.4024  0.5257
  806MPD2    H111873   4.002   1.522  17.348  1.5788 -1.7952  0.7697
  806MPD2    H211874   3.735   1.304  17.592  0.5723 -0.9542 -0.4628
  806MPD2    H311875   3.884   1.308  17.394 -0.9570  0.3284 -1.0854
  806MPD2     N11876   3.997   1.748  17.511 -0.6637 -0.0050 -0.2909
  806MPD2    H511877   3.976   1.819  17.581  0.9503 -1.5658  1.7676
  806MPD2    N111878   3.686   1.487   0.081 -0.1570  0.0954 -0.2699
  806MPD2    H711879   3.636   1.399   0.086 -0.0949  0.1284  1.0799
  807MPD2     C11880   3.783   0.988   0.616  0.0523 -0.4811 -0.2201
  807MPD2    C111881   3.695   1.070   0.680  0.2632  0.5236 -0.4761
  807MPD2    C211882   3.656   1.053   0.812  0.5326  0.4639  1.2500
  807MPD2    C311883   3.699   0.936   0.880  0.6587 -0.6077 -0.3924
  807MPD2    C411884   3.783   0.846   0.808 -0.1241 -0.6769 -0.5892
  807MPD2    C511885   3.827   0.878   0.684 -0.2377 -0.2343 -0.5788
  807MPD2     H11886   3.588   1.126   0.856  2.2604  1.8742  1.5640
  807MPD2    H111887   3.808   0.746   0.843 -0.2088  0.4346  2.6374
  807MPD2    H211888   3.811   1.001   0.513  1.6010 -0.8916  0.1547
  807MPD2    H311889   3.878   0.799   0.630  2.2906  2.6327 -2.3517
  807MPD2     N11890   3.642   0.902   1.009 -0.2558 -0.8290  0.2471
  807MPD2    H511891   3.564   0.954   1.047  0.6984 -0.7642  2.0948
  807MPD2    N111892   3.648   1.192   0.626  0.0995 -0.3759  0.2369
  807MPD2    H711893   3.580   1.239   0.685 -1.7142 -1.7675 -0.7544
  808MPD2     C11894   0.564   3.577   9.194  0.5594 -0.2712  0.2339
  808MPD2    C111895   0.586   3.545   9.327  0.6376 -0.3301 -0.0325
  808MPD2    C211896   0.660   3.630   9.407 -0.4936 -0.9009  0.8298
  808MPD2    C311897   0.698   3.758   9.358 -0.2020 -0.2874  0.3059
  808MPD2    C411898   0.675   3.787   9.223 -0.3083  0.3706 -0.1579
  808MPD2    C511899   0.612   3.697   9.142 -0.0550  0.0223 -0.8436
  808MPD2     H11900   0.673   3.596   9.509 -1.8380 -2.1752  0.5740
  808MPD2    H111901   0.697   3.886   9.184  3.0811  0.7403  2.7423
  808MPD2    H211902   0.506   3.510   9.132 -0.8557 -0.1907  1.4766
  808MPD2    H311903   0.592   3.727   9.040 -1.9117  2.9552  0.3732
  808MPD2     N11904   0.762   3.859   9.434 -0.7092 -0.0227 -0.5847
  808MPD2    H511905   0.776   3.944   9.380  0.7149  0.1146  0.0116
  808MPD2    N111906   0.533   3.422   9.384 -0.3299  0.1641  0.3936
  808MPD2    H711907   0.574   3.390   9.471 -1.1443 -0.1367  0.6701
  809MPD2     C11908   0.696   0.010   9.294  0.5504  0.6915  0.3191
  809MPD2    C111909   0.743   4.619   9.229  0.9623  0.3232  0.1731
  809MPD2    C211910   0.807   4.521   9.300 -0.1579  0.4227  0.1445
  809MPD2    C311911   0.833   4.541   9.429 -0.1707 -0.2008  0.0009
  809MPD2    C411912   0.798   4.652   9.499  0.7132 -0.3660 -0.4934
  809MPD2    C511913   0.735   0.027   9.424  0.2849 -0.1329  0.5270
  809MPD2     H11914   0.834   4.437   9.237  0.8999 -0.7275  2.1365
  809MPD2    H111915   0.820   4.656   9.605  1.8992  0.3388 -0.7621
  809MPD2    H211916   0.630   0.084   9.252 -0.7593  0.5529  2.1371
  809MPD2    H311917   0.693   0.119   9.463  0.3195  0.8465 -1.7636
  809MPD2     N11918   0.890   4.442   9.513 -0.1654 -0.2706  0.0192
  809MPD2    H511919   0.876   4.443   9.614  0.6580 -0.1580  0.1355
  809MPD2    N111920   0.718   4.597   9.091  0.5712 -0.2546 -0.0485
  809MPD2    H711921   0.755   4.512   9.051  0.6921 -0.4656  0.5050
  810MPD2     C11922   4.549   2.743  10.887 -0.4618  0.2489 -0.4425
  810MPD2    C111923   4.586   2.780  10.761 -0.4389  0.4895 -0.2196
  810MPD2    C211924   4.618   2.911  10.731  0.4588 -0.4378  0.4521
  810MPD2    C311925   4.605   3.011  10.830 -0.6734  0.1034  0.2090
  810MPD2    C411926   4.558   2.970  10.951  0.0062 -0.2138  0.0574
  810MPD2    C511927   4.522   2.839  10.982 -0.7700  0.8385  0.4303
  810MPD2     H11928   4.648   2.934  10.629  0.5240 -1.4345  0.2440
  810MPD2    H111929   4.542   3.045  11.028 -2.6386 -0.8697  0.1588
  810MPD2    H211930   4.553   2.642  10.927  2.8992  0.1489 -1.0669
  810MPD2    H311931   4.507   2.815  11.087 -2.3559  1.7226  0.4154
  810MPD2     N11932   4.611   3.151  10.808 -0.1907 -0.1517  0.2401
  810MPD2    H511933   4.567   3.212  10.877 -1.7147  0.1726 -1.0228
  810MPD2    N111934   4.593   2.673  10.670 -0.1600  0.0329 -0.1654
  810MPD2    H711935   4.559   2.582  10.699 -0.5064  0.6786  1.4446
  811MPD2     C11936   4.228   2.577   9.847 -0.2875  0.3959 -0.4637
  811MPD2    C111937   4.327   2.636   9.932  0.2143  0.7115  0.0454
  811MPD2    C211938   4.359   2.768   9.919  0.1623  0.5812  0.1958
  811MPD2    C311939   4.293   2.847   9.825 -0.1498 -0.3788  0.1622
  811MPD2    C411940   4.192   2.791   9.750 -0.5640 -0.0431  0.5069
  811MPD2    C511941   4.165   2.658   9.752  0.0521  0.3040  0.0517
  811MPD2     H11942   4.418   2.814   9.997  2.5790 -3.4724  0.7241
  811MPD2    H111943   4.137   2.851   9.678 -1.1072 -0.2634  0.7396
  811MPD2    H211944   4.212   2.471   9.857  1.1236  0.1842 -0.4564
  811MPD2    H311945   4.083   2.618   9.692 -0.6954  0.9311  0.6635
  811MPD2     N11946   4.337   2.980   9.816  0.4899  0.2846 -0.5700
  811MPD2    H511947   4.425   2.996   9.864  0.3783 -2.3263  0.5597
  811MPD2    N111948   4.383   2.555  10.035  0.1809  0.8708  0.2939
  811MPD2    H711949   4.334   2.469  10.056 -0.1435  1.2784  1.1958
  812MPD2     C11950   3.446   3.125  12.366 -0.4198 -0.3521 -0.3139
  812MPD2    C111951   3.328   3.067  12.325  0.6151 -0.1269  0.2160
  812MPD2    C211952   3.309   2.931  12.352 -0.3357  0.7989 -0.4411
  812MPD2    C311953   3.397   2.859  12.429  0.5027 -0.7651 -0.4761
  812MPD2    C411954   3.514   2.918  12.457 -0.2353 -1.2619 -0.0833
  812MPD2    C511955   3.539   3.047  12.427  0.0700  0.0807 -0.8367
  812MPD2     H11956   3.218   2.881  12.320  0.1825 -0.8987  0.7038
  812MPD2    H111957   3.594   2.860  12.503  0.8721 -0.4280 -0.9651
  812MPD2    H211958   3.462   3.230  12.348 -0.3229 -0.6811 -2.0962
  812MPD2    H311959   3.629   3.104  12.449  0.0880 -0.0314 -0.6154
  812MPD2     N11960   3.358   2.729  12.475 -0.0930  0.6093  0.1161
  812MPD2    H511961   3.260   2.711  12.460  0.1669  0.4145 -1.3271
  812MPD2    N111962   3.223   3.144  12.268 -0.6839 -0.0733 -0.4453
  812MPD2    H711963   3.246   3.240  12.246 -2.4146  0.9935  2.3566
  813MPD2     C11964   2.705   0.041  12.870 -0.6743  0.0442  0.2789
  813MPD2    C111965   2.664   0.177  12.888  0.2700 -0.0168  0.2491
  813MPD2    C211966   2.557   0.197  12.973  0.2138 -0.0073  0.6730
  813MPD2    C311967   2.502   0.093  13.048  0.1564 -0.3373  0.0620
  813MPD2    C411968   2.546   4.687  13.033 -0.7301  0.5579 -0.7135
  813MPD2    C511969   2.650   4.661  12.948 -0.1047  0.3520 -0.6414
  813MPD2     H11970   2.524   0.300  12.989 -3.2171 -0.6821 -2.2146
  813MPD2    H111971   2.505   4.605  13.090 -0.4942  0.3495 -0.8440
  813MPD2    H211972   2.792   0.007  12.815 -2.3549 -1.5035 -1.4260
  813MPD2    H311973   2.691   4.561  12.950  0.6604  0.6687 -0.5522
  813MPD2     N11974   2.386   0.127  13.125 -0.0185 -0.2301  0.2167
  813MPD2    H511975   2.334   0.214  13.126 -0.2655 -0.3929  1.3967
  813MPD2    N111976   2.732   0.282  12.820 -0.0214 -0.4430 -0.0204
  813MPD2    H711977   2.700   0.375  12.846 -1.3512 -0.7652 -0.4877
  814MPD2     C11978   2.740   1.317  12.316 -0.3135  0.1351  0.1671
  814MPD2    C111979   2.654   1.300  12.213  0.5540 -0.7176 -0.2922
  814MPD2    C211980   2.603   1.414  12.148  0.3810  0.0328 -0.2563
  814MPD2    C311981   2.649   1.543  12.177 -0.8198  0.9185 -0.1146
  814MPD2    C411982   2.728   1.554  12.292  0.3419  0.2080 -0.8633
  814MPD2    C511983   2.768   1.440  12.354 -0.2771 -0.0441  0.0158
  814MPD2     H11984   2.546   1.405  12.057  4.2024  0.5421 -2.7309
  814MPD2    H111985   2.757   1.654  12.319 -0.6063 -0.3827  2.3224
  814MPD2    H211986   2.772   1.235  12.379  2.7399  0.7713 -0.5580
  814MPD2    H311987   2.824   1.446  12.447  2.1398 -0.4982 -1.4155
  814MPD2     N11988   2.632   1.657  12.104  0.0997 -0.2892  0.0502
  814MPD2    H511989   2.690   1.739  12.118  3.2124 -2.1375 -2.0017
  814MPD2    N111990   2.594   1.170  12.168 -0.2571  0.0902 -0.2160
  814MPD2    H711991   2.539   1.166  12.083  1.2897 -1.5653 -1.1414
  815MPD2     C11992   3.644   0.021  11.512 -0.2464  0.6373  0.3787
  815MPD2    C111993   3.585   4.618  11.497 -0.3747  0.3382 -0.0277
  815MPD2    C211994   3.465   4.586  11.551  0.4081  0.3546  0.7149
  815MPD2    C311995   3.398   4.679  11.637 -0.9557  0.7665  0.2137
  815MPD2    C411996   3.459   0.087  11.652 -0.6329  0.7977 -0.8140
  815MPD2    C511997   3.580   0.113  11.588  0.1986 -0.1676  0.0407
  815MPD2     H11998   3.410   4.506  11.503 -0.8250  0.7864  1.4138
  815MPD2    H111999   3.411   0.169  11.704 -2.0334  0.8891 -2.2625
  815MPD2    H212000   3.742   0.037  11.467  0.8664  0.0626  2.5813
  815MPD2    H312001   3.627   0.209  11.603  1.7768 -0.6450 -1.7424
  815MPD2     N12002   3.264   4.648  11.684  0.3222  0.4522  0.5619
  815MPD2    H512003   3.224   4.560  11.655  0.3959  1.6358 -3.1729
  815MPD2    N112004   3.660   4.516  11.423  0.7413  0.4638 -0.3453
  815MPD2    H712005   3.745   4.541  11.374  1.2606 -0.7596 -0.0783
  816MPD2     C12006   2.698   3.433  17.402 -0.9351 -0.0790  0.2607
  816MPD2    C112007   2.764   3.548  17.379  0.0538 -0.1937  0.0181
  816MPD2    C212008   2.874   3.540  17.292  0.1159  0.3722  0.9396
  816MPD2    C312009   2.930   3.419  17.255 -0.1736  0.0292 -0.6624
  816MPD2    C412010   2.869   3.303  17.288 -0.1446 -0.3940  0.4696
  816MPD2    C512011   2.748   3.311  17.359  0.0800  0.6250 -0.3435
  816MPD2     H12012   2.928   3.632  17.271 -0.7910  0.1100 -2.5633
  816MPD2    H112013   2.906   3.202  17.279 -0.2357 -0.5889  2.2206
  816MPD2    H212014   2.614   3.431  17.471 -0.9023 -0.5595  0.2873
  816MPD2    H312015   2.704   3.219  17.396  0.5727 -0.3431 -2.1535
  816MPD2     N12016   3.051   3.417  17.174 -0.3719 -0.3650  0.8619
  816MPD2    H512017   3.087   3.503  17.134  1.1350 -1.3289  0.1586
  816MPD2    N112018   2.719   3.665  17.442 -0.0687  0.2116 -0.0523
  816MPD2    H712019   2.623   3.670  17.474  0.3789 -0.3138  1.3696
  817MPD2     C12020   3.480   4.682  10.137 -0.4499 -0.1099 -0.7318
  817MPD2    C112021   3.571   0.032  10.057  0.6401  0.0010  0.3997
  817MPD2    C212022   3.553   0.163  10.019  0.6823  0.4550 -0.1227
  817MPD2    C312023   3.444   0.235  10.067  0.4004  0.6839  0.2297
  817MPD2    C412024   3.363   0.173  10.159  0.6107  0.4760 -0.0480
  817MPD2    C512025   3.384   0.041  10.196  0.0939 -0.4129 -0.5342
  817MPD2     H12026   3.619   0.211   9.947  0.7566  0.7628  0.1519
  817MPD2    H112027   3.268   0.214  10.193  1.1250 -0.0728  2.0566
  817MPD2    H212028   3.491   4.586  10.186  1.2013  0.8953  0.8791
  817MPD2    H312029   3.303   4.711  10.249 -0.0302  0.8643  0.4638
  817MPD2     N12030   3.408   0.359  10.011  0.0944  0.4730  0.1174
  817MPD2    H512031   3.475   0.397   9.945 -1.2151 -0.7164 -1.8912
  817MPD2    N112032   3.687   4.684  10.009  0.0236  0.1522  0.3941
  817MPD2    H712033   3.760   0.028   9.978 -1.4967  1.6944 -0.0099
  818MPD2     C12034   2.607   0.517   9.832 -0.1553 -0.0195  0.1528
  818MPD2    C112035   2.472   0.512   9.823 -0.0052 -0.4418 -0.0506
  818MPD2    C212036   2.413   0.393   9.776  0.0348  0.2852 -0.3017
  818MPD2    C312037   2.485   0.278   9.764 -0.6025  0.0407  0.1861
  818MPD2    C412038   2.619   0.283   9.779  0.1936  0.0599 -0.3674
  818MPD2    C512039   2.681   0.403   9.798 -0.1519 -0.4974 -0.5387
  818MPD2     H12040   2.305   0.391   9.768 -0.0221  0.1004  0.5442
  818MPD2    H112041   2.681   0.196   9.761  2.8182  1.9787 -0.7391
  818MPD2    H212042   2.662   0.606   9.863 -0.2303  0.2824 -0.5845
  818MPD2    H312043   2.789   0.410   9.806 -0.1594 -0.6304 -0.3328
  818MPD2     N12044   2.429   0.152   9.733 -0.5543  0.4255  0.2477
  818MPD2    H512045   2.491   0.076   9.762 -0.9841  0.4200  1.1465
  818MPD2    N112046   2.392   0.606   9.884  0.3778 -0.4141  0.4970
  818MPD2    H712047   2.293   0.607   9.863  0.1153  0.9766  1.8351
  819MPD2     C12048   4.533   2.205  15.560 -0.1449  0.1395 -0.2762
  819MPD2    C112049   4.535   2.068  15.539  0.6008 -0.0810  0.1813
  819MPD2    C212050   4.653   1.998  15.552 -0.1299  0.7723  0.4472
  819MPD2    C312051   0.051   2.064  15.581 -0.4905  0.1822  0.1111
  819MPD2    C412052   0.047   2.192  15.619  0.4513 -0.4167  0.3433
  819MPD2    C512053   4.652   2.265  15.606 -0.1833  0.1328 -0.1038
  819MPD2     H12054   4.663   1.891  15.537 -1.4871  0.4314  2.0231
  819MPD2    H112055   0.135   2.237  15.664 -0.3487  0.5670  0.8991
  819MPD2    H212056   4.446   2.268  15.546  0.2629  0.8959  0.5950
  819MPD2    H312057   4.652   2.371  15.626  0.4106 -0.5554  3.7142
  819MPD2     N12058   0.177   1.996  15.587 -0.2756  0.6458  0.5182
  819MPD2    H512059   0.255   2.035  15.639  2.0424  1.1241 -3.3237
  819MPD2    N112060   4.428   1.987  15.493 -0.0634 -0.1542  0.1887
  819MPD2    H712061   4.352   2.035  15.447  0.3387 -0.6144 -0.9634
  820MPD2     C12062   3.719   2.074  14.840  0.3279 -0.3177 -0.3106
  820MPD2    C112063   3.777   2.139  14.947 -0.7301  0.7949  0.9824
  820MPD2    C212064   3.879   2.073  15.019  0.6437 -0.1411  0.0168
  820MPD2    C312065   3.909   1.937  14.995 -0.3907 -0.8654 -0.4361
  820MPD2    C412066   3.835   1.877  14.893  0.6760  0.5169  0.6008
  820MPD2    C512067   3.747   1.947  14.814 -0.0982 -0.4779 -0.0211
  820MPD2     H12068   3.911   2.116  15.113 -0.3332 -0.1247  0.3438
  820MPD2    H112069   3.852   1.771  14.880 -1.2066  0.4662 -1.3005
  820MPD2    H212070   3.641   2.118  14.779 -1.8566 -0.1573  2.5692
  820MPD2    H312071   3.690   1.906  14.731  1.1253  0.5677 -1.4022
  820MPD2     N12072   3.976   1.861  15.088 -0.5291  0.0819 -0.0727
  820MPD2    H512073   3.962   1.760  15.093 -0.7674  0.0309 -1.8245
  820MPD2    N112074   3.734   2.270  14.976 -0.0273 -0.1872  0.6011
  820MPD2    H712075   3.650   2.307  14.934 -0.5291 -1.2327  0.6832
  821MPD2     C12076   0.265   3.248  13.115  0.3054 -0.7099 -0.2406
  821MPD2    C112077   0.334   3.286  13.228 -0.3510 -0.1776 -0.3695
  821MPD2    C212078   0.449   3.352  13.222  0.1141  0.4066  0.1277
  821MPD2    C312079   0.499   3.399  13.102  0.4971 -0.6994  0.7253
  821MPD2    C412080   0.421   3.377  12.986 -0.6331 -0.3488  0.5572
  821MPD2    C512081   0.304   3.299  12.999  0.2484 -0.2979  0.1144
  821MPD2     H12082   0.498   3.359  13.318  2.2999 -0.0352 -0.9584
  821MPD2    H112083   0.455   3.430  12.898 -1.7743 -1.5270 -0.5839
  821MPD2    H212084   0.183   3.177  13.115  0.6942 -1.1755 -2.8965
  821MPD2    H312085   0.239   3.279  12.915  2.4787  1.6804 -2.0975
  821MPD2     N12086   0.622   3.469  13.096 -0.1665 -0.2387 -0.2998
  821MPD2    H512087   0.643   3.498  13.001  0.8802 -0.6667 -0.2013
  821MPD2    N112088   0.281   3.266  13.361  0.6272  0.4782 -0.2433
  821MPD2    H712089   0.343   3.300  13.433 -0.1482  2.4096 -0.4964
  822MPD2     C12090   0.478   2.884  15.905 -0.1979 -0.4825 -0.3893
  822MPD2    C112091   0.516   2.882  16.037 -0.5675 -0.3107 -0.2682
  822MPD2    C212092   0.457   2.974  16.123  1.0411  0.6474 -0.0046
  822MPD2    C312093   0.374   3.078  16.077 -0.3882  0.0644 -0.2450
  822MPD2    C412094   0.346   3.076  15.940  0.0913  0.2475 -0.3963
  822MPD2    C512095   0.409   2.990  15.852  0.5378 -0.3329  0.9936
  822MPD2     H12096   0.477   2.979  16.230 -0.1201  0.1218  0.2403
  822MPD2    H112097   0.275   3.153  15.911 -1.5261 -1.2773 -0.4977
  822MPD2    H212098   0.511   2.811  15.832 -1.9957 -0.2779 -1.4046
  822MPD2    H312099   0.391   2.983  15.746 -0.7781  0.0501  1.1940
  822MPD2     N12100   0.322   3.179  16.162  0.1856  0.2335 -0.0586
  822MPD2    H512101   0.321   3.168  16.263  1.0677  0.1551 -0.0529
  822MPD2    N112102   0.610   2.793  16.092 -0.4936 -0.0679  0.2173
  822MPD2    H712103   0.626   2.813  16.190 -0.0727  2.0253 -0.2772
  823MPD2     C12104   0.099   3.346  16.928 -0.4945 -0.2805  0.3126
  823MPD2    C112105   0.151   3.275  16.815  0.7852 -0.0337  0.4171
  823MPD2    C212106   0.190   3.142  16.836 -0.5775 -0.0938  0.4689
  823MPD2    C312107   0.188   3.086  16.961  0.3146 -0.9059  1.0271
  823MPD2    C412108   0.121   3.156  17.062  0.3904 -0.0712  0.4156
  823MPD2    C512109   0.074   3.285  17.050  0.8101  0.4987 -0.5479
  823MPD2     H12110   0.222   3.082  16.751 -1.3327  0.7846 -0.4375
  823MPD2    H112111   0.124   3.111  17.161  1.2294 -0.7278  0.0888
  823MPD2    H212112   0.072   3.451  16.918 -0.8163 -0.1187  2.8775
  823MPD2    H312113   0.029   3.330  17.138  2.0578  0.6933 -0.0064
  823MPD2     N12114   0.249   2.964  16.998  0.4741 -0.3076  0.9415
  823MPD2    H512115   0.236   2.936  17.095 -3.0788 -1.9367 -0.0173
  823MPD2    N112116   0.142   3.336  16.692  0.0703 -0.5939  0.5611
  823MPD2    H712117   0.103   3.430  16.696  0.5600 -0.3641 -0.0306
  824MPD2     C12118   0.858   2.018  16.081  0.1715 -0.0907  0.3047
  824MPD2    C112119   0.932   2.108  16.010  0.5784  0.2104  0.1045
  824MPD2    C212120   1.001   2.075  15.889  0.0186 -0.5262  0.0988
  824MPD2    C312121   1.009   1.942  15.856  0.7131  0.0454  0.3299
  824MPD2    C412122   0.944   1.849  15.928 -0.5735  0.2247 -0.0986
  824MPD2    C512123   0.873   1.890  16.041  0.1754 -0.0076 -0.5017
  824MPD2     H12124   1.050   2.151  15.829  0.4284 -0.7867  0.1080
  824MPD2    H112125   0.932   1.745  15.901 -1.1819  0.2336  0.1341
  824MPD2    H212126   0.800   2.037  16.170  2.1123  0.5910  1.4190
  824MPD2    H312127   0.815   1.815  16.094  0.5512 -0.7231 -1.0901
  824MPD2     N12128   1.091   1.915  15.735 -0.6072 -0.4034  0.3987
  824MPD2    H512129   1.126   1.997  15.687 -0.3935 -0.3367  0.6667
  824MPD2    N112130   0.924   2.250  16.044 -0.7783  0.1134 -0.0915
  824MPD2    H712131   0.955   2.318  15.976 -0.7467  0.7211  0.5319
  825MPD2     C12132   1.063   2.341  15.447  0.7232  0.0710  0.0104
  825MPD2    C112133   1.191   2.293  15.443 -0.2954 -0.4036 -0.4183
  825MPD2    C212134   1.291   2.382  15.464 -0.7102 -0.7892 -0.5460
  825MPD2    C312135   1.259   2.509  15.508 -1.0143  0.4897 -0.1923
  825MPD2    C412136   1.126   2.548  15.518  0.0504  0.1667 -0.3957
  825MPD2    C512137   1.026   2.465  15.481 -0.5555  0.4648  0.1671
  825MPD2     H12138   1.393   2.348  15.452 -0.2195  0.4431  0.1439
  825MPD2    H112139   1.104   2.647  15.558 -1.7384  0.0770 -1.1645
  825MPD2    H212140   0.990   2.272  15.406  1.2381  0.9253 -2.3384
  825MPD2    H312141   0.920   2.489  15.490 -1.0751 -1.5571 -0.4322
  825MPD2     N12142   1.355   2.608  15.555 -0.2237  0.0436 -0.7698
  825MPD2    H512143   1.318   2.689  15.604  0.6359 -0.6779  1.0987
  825MPD2    N112144   1.215   2.165  15.388 -0.3374  0.4895 -0.5065
  825MPD2    H712145   1.130   2.114  15.366  0.4603 -0.2220 -1.9706
  826MPD2     C12146   1.556   2.976  13.504  0.6170 -0.3466  0.1578
  826MPD2    C112147   1.461   2.874  13.525 -0.1313  0.0795 -0.4064
  826MPD2    C212148   1.324   2.907  13.541 -0.6223 -0.3254 -0.4521
  826MPD2    C312149   1.294   3.042  13.553  0.0514 -0.8118 -0.6429
  826MPD2    C412150   1.392   3.138  13.532 -0.9849  0.2748 -0.1280
  826MPD2    C512151   1.518   3.107  13.506 -0.5066 -0.2792 -0.0502
  826MPD2     H12152   1.241   2.837  13.533  0.1904 -1.5740  2.0613
  826MPD2    H112153   1.377   3.246  13.525 -0.6415  0.3809  0.7596
  826MPD2    H212154   1.660   2.950  13.490  0.3794  0.8059 -3.5643
  826MPD2    H312155   1.590   3.180  13.472 -1.3156  1.4466  1.9265
  826MPD2     N12156   1.164   3.086  13.580  0.0654 -0.0239  0.1056
  826MPD2    H512157   1.149   3.185  13.562  0.9177  0.3113  1.2048
  826MPD2    N112158   1.500   2.740  13.490  0.4253 -0.3771 -0.0083
  826MPD2    H712159   1.595   2.729  13.455  1.3682  0.2265  2.3659
  827MPD2     C12160   2.038   4.108   9.968  0.5466  0.5409  0.2837
  827MPD2    C112161   2.071   3.977   9.962 -0.0297  0.1000  0.2922
  827MPD2    C212162   1.984   3.890   9.902 -0.1335 -0.2125  0.0129
  827MPD2    C312163   1.865   3.930   9.856 -0.8904 -0.3273  0.9072
  827MPD2    C412164   1.833   4.062   9.863  0.3533  0.1348 -0.3528
  827MPD2    C512165   1.913   4.149   9.930  0.0942 -0.3734 -0.2981
  827MPD2     H12166   2.016   3.789   9.879  1.5457  0.3537 -0.1024
  827MPD2    H112167   1.735   4.093   9.829 -0.4625  0.4884  2.2789
  827MPD2    H212168   2.115   4.174  10.006 -0.3702  0.9487  1.4275
  827MPD2    H312169   1.893   4.256   9.935  0.2237 -0.4294  1.4096
  827MPD2     N12170   1.791   3.835   9.780  0.1350  0.1315 -0.2312
  827MPD2    H512171   1.819   3.738   9.793 -1.5463 -0.4922 -1.3361
  827MPD2    N112172   2.195   3.930  10.009  0.0537 -0.1603 -0.1897
  827MPD2    H712173   2.258   3.999  10.048  0.6135  0.3976 -2.0862
  828MPD2     C12174   0.980   3.800  12.500  0.2209 -0.3108  0.8051
  828MPD2    C112175   0.922   3.770  12.377 -0.8387 -0.6468 -0.0390
  828MPD2    C212176   1.001   3.754  12.268  0.6615 -0.4677  0.4639
  828MPD2    C312177   1.137   3.772  12.274  1.2309  0.1383  0.1626
  828MPD2    C412178   1.194   3.801  12.392  0.5757  0.3020  0.0959
  828MPD2    C512179   1.113   3.807  12.500  0.6760 -0.6756 -1.2056
  828MPD2     H12180   0.953   3.721  12.176  2.9996  0.5172 -1.1235
  828MPD2    H112181   1.302   3.813  12.395  0.3597  2.6309 -1.7390
  828MPD2    H212182   0.911   3.817  12.582 -3.1195 -2.5344 -1.5438
  828MPD2    H312183   1.157   3.825  12.597 -1.3369  1.4377 -0.6836
  828MPD2     N12184   1.220   3.767  12.172  0.1479  0.2898  1.0697
  828MPD2    H512185   1.318   3.793  12.182  0.4374 -0.5134  0.3918
  828MPD2    N112186   0.779   3.754  12.355  0.2452 -0.2668 -0.4530
  828MPD2    H712187   0.746   3.724  12.263  1.7098  0.2150 -1.1295
  829MPD2     C12188   0.421   3.756  11.576 -0.3033  0.2047  0.8769
  829MPD2    C112189   0.317   3.697  11.647  0.3063 -0.9706  0.4127
  829MPD2    C212190   0.334   3.673  11.783  0.0376  0.8331  0.2292
  829MPD2    C312191   0.436   3.738  11.849 -0.3631 -0.0322  0.6390
  829MPD2    C412192   0.527   3.816  11.776 -0.5956  0.9506 -0.1109
  829MPD2    C512193   0.518   3.821  11.642  1.4765 -0.1695  0.3756
  829MPD2     H12194   0.265   3.611  11.839  1.5092 -1.5511 -0.6382
  829MPD2    H112195   0.606   3.865  11.831  0.1994 -0.6051  0.1229
  829MPD2    H212196   0.429   3.759  11.468  1.6586  1.4087  1.0748
  829MPD2    H312197   0.596   3.875  11.589 -1.4618  1.6322 -2.1373
  829MPD2     N12198   0.457   3.732  11.989 -0.7735 -0.5753  0.1414
  829MPD2    H512199   0.530   3.796  12.018 -0.5394 -1.5791  1.7248
  829MPD2    N112200   0.222   3.643  11.567 -0.3133 -0.1660  0.2351
  829MPD2    H712201   0.230   3.672  11.470  1.0203  1.6377  0.8886
  830MPD2     C12202   0.357   1.611  14.987  0.4975 -0.6075  0.2178
  830MPD2    C112203   0.437   1.554  15.081 -0.1025  0.1413 -0.0292
  830MPD2    C212204   0.541   1.471  15.042 -0.4197 -0.0224  0.0936
  830MPD2    C312205   0.556   1.442  14.906  0.1187 -0.3665 -0.0213
  830MPD2    C412206   0.464   1.492  14.813  0.4953  0.2293  0.6242
  830MPD2    C512207   0.365   1.573  14.855  0.3956  0.4303  0.0879
  830MPD2     H12208   0.611   1.423  15.109 -0.0690 -1.5858 -1.3892
  830MPD2    H112209   0.466   1.463  14.708  1.6014 -0.3155  0.7971
  830MPD2    H212210   0.277   1.682  15.003  0.6458 -1.1052  3.0502
  830MPD2    H312211   0.293   1.615  14.784 -1.1896 -0.2203  1.3112
  830MPD2     N12212   0.643   1.342  14.858 -0.3474 -0.0582 -0.0393
  830MPD2    H512213   0.602   1.282  14.787  0.1898 -0.4253 -0.0343
  830MPD2    N112214   0.411   1.591  15.216 -0.6216 -0.0849 -0.5519
  830MPD2    H712215   0.328   1.647  15.231 -2.0395 -2.7926  1.7679
  831MPD2     C12216   0.556   3.365  16.450  0.0439 -0.0769 -0.2849
  831MPD2    C112217   0.603   3.270  16.358 -0.1950 -0.6623  0.7153
  831MPD2    C212218   0.602   3.138  16.394 -0.0880 -0.3928 -0.2054
  831MPD2    C312219   0.540   3.104  16.516  0.5381 -0.2783  0.6127
  831MPD2    C412220   0.501   3.201  16.601 -0.5499  0.4438 -0.5419
  831MPD2    C512221   0.507   3.333  16.574 -0.3700 -0.0916  0.1428
  831MPD2     H12222   0.645   3.065  16.326  0.7131  1.1412 -1.3553
  831MPD2    H112223   0.470   3.179  16.702  0.6406  2.3331  0.2273
  831MPD2    H212224   0.569   3.469  16.424  0.7377  0.3333  1.6765
  831MPD2    H312225   0.493   3.412  16.647  0.9944 -0.9720  1.3322
  831MPD2     N12226   0.495   2.974  16.549  0.7602 -0.3423  0.0005
  831MPD2    H512227   0.441   2.956  16.633 -0.9119  0.3606 -0.9274
  831MPD2    N112228   0.646   3.298  16.227 -0.0401 -0.1768 -0.2451
  831MPD2    H712229   0.678   3.219  16.172  0.7512  0.1608 -0.2679
  832MPD2     C12230   3.601   4.603  17.225 -0.0322  0.1689  0.4651
  832MPD2    C112231   3.577   4.717  17.156  1.1072 -0.8194  0.0671
  832MPD2    C212232   3.459   0.010  17.087 -0.5291  0.4544  0.1197
  832MPD2    C312233   3.375   4.630  17.070 -0.5058 -0.0589 -0.1375
  832MPD2    C412234   3.401   4.509  17.132 -0.2918  0.0465  1.3012
  832MPD2    C512235   3.518   4.493  17.212  0.0727 -0.0361 -0.4315
  832MPD2     H12236   3.447   0.097  17.023 -0.8712  1.3965  1.4538
  832MPD2    H112237   3.332   4.428  17.113 -0.1778 -0.0404  1.2550
  832MPD2    H212238   3.687   4.592  17.292 -0.5411 -1.3306  0.8702
  832MPD2    H312239   3.546   4.401  17.262 -0.1991  0.7596  1.1820
  832MPD2     N12240   3.253   4.627  16.991  0.0281 -0.1935  0.0177
  832MPD2    H512241   3.201   4.540  16.997 -0.4440  0.0861 -0.0243
  832MPD2    N112242   3.675   0.098  17.171  0.2096 -0.2566  0.0933
  832MPD2    H712243   3.756   0.077  17.228  0.1184  0.4330  0.4800
  833MPD2     C12244   1.268   1.708  12.257  0.8088 -0.3584  0.2068
  833MPD2    C112245   1.232   1.815  12.180 -0.5419  0.0048  0.1886
  833MPD2    C212246   1.312   1.834  12.072 -0.5450  0.2032 -0.2565
  833MPD2    C312247   1.430   1.764  12.045 -0.0953 -0.0802  0.6053
  833MPD2    C412248   1.462   1.658  12.133 -0.2170  0.4160  0.1146
  833MPD2    C512249   1.383   1.636  12.239  0.5111  0.6956 -0.2654
  833MPD2     H12250   1.284   1.914  12.004  1.3400 -0.5559 -1.9429
  833MPD2    H112251   1.550   1.597  12.116  0.8088  2.0570 -0.4938
  833MPD2    H212252   1.212   1.693  12.348  1.3207 -0.9508  0.4183
  833MPD2    H312253   1.400   1.557  12.311  3.6902  0.1418 -1.5918
  833MPD2     N12254   1.520   1.791  11.939 -0.7037  1.2097  0.0905
  833MPD2    H512255   1.593   1.725  11.914 -0.7743  0.4628  1.8648
  833MPD2    N112256   1.109   1.885  12.209 -0.3567 -0.1950 -0.0121
  833MPD2    H712257   1.053   1.854  12.288  0.6693 -0.0006  0.7864
  834MPD2     C12258   1.889   1.387  11.156  0.5345 -0.4316  0.8910
  834MPD2    C112259   1.752   1.399  11.134 -0.3426 -0.3786 -0.4755
  834MPD2    C212260   1.686   1.508  11.189  0.0730 -0.0161  0.0656
  834MPD2    C312261   1.754   1.587  11.271  0.3685  0.6179 -0.5533
  834MPD2    C412262   1.884   1.564  11.304 -0.9953 -0.8257  0.4763
  834MPD2    C512263   1.957   1.474  11.241  0.3054  0.6144  0.0807
  834MPD2     H12264   1.578   1.511  11.176 -0.1779  0.2889  2.2620
  834MPD2    H112265   1.932   1.633  11.373  0.1175  1.9430 -3.0357
  834MPD2    H212266   1.951   1.312  11.109 -2.8504 -0.8832 -2.8618
  834MPD2    H312267   2.065   1.475  11.238  0.3555 -1.4889  1.3018
  834MPD2     N12268   1.666   1.665  11.349  0.4313  0.1072 -0.7113
  834MPD2    H512269   1.574   1.677  11.308  0.2249  0.8692 -0.0235
  834MPD2    N112270   1.687   1.302  11.057 -0.2464 -0.6412  0.1600
  834MPD2    H712271   1.745   1.221  11.036  0.5954  0.1837 -0.6830
  835MPD2     C12272   1.854   3.851  11.060  0.2323  0.4525  0.2734
  835MPD2    C112273   1.772   3.945  11.129  1.0575 -0.2870 -0.5414
  835MPD2    C212274   1.807   3.982  11.260  0.3900  0.2592  0.3211
  835MPD2    C312275   1.907   3.919  11.324 -0.0007  0.3353  0.6013
  835MPD2    C412276   1.981   3.823  11.260 -0.0311  0.3409  0.3120
  835MPD2    C512277   1.956   3.794  11.131  0.5219 -0.9247  0.1452
  835MPD2     H12278   1.756   4.072  11.295 -2.8300 -2.4596  2.6241
  835MPD2    H112279   2.068   3.781  11.308 -2.4139 -2.7498  1.9425
  835MPD2    H212280   1.839   3.816  10.958 -1.7060 -0.1078  0.7564
  835MPD2    H312281   2.015   3.725  11.072 -0.0507  0.1302 -1.6631
  835MPD2     N12282   1.944   3.963  11.449  0.0155  0.2895  0.2158
  835MPD2    H512283   2.040   3.939  11.474  0.8160  2.1055 -1.1281
  835MPD2    N112284   1.649   4.002  11.073 -0.1748  0.0197  0.0548
  835MPD2    H712285   1.601   4.070  11.132 -1.5868  1.0432 -2.2782
  836MPD2     C12286   1.423   4.109  11.653  0.0923  0.1220 -0.0504
  836MPD2    C112287   1.469   4.101  11.780 -0.6430  0.5772 -0.1079
  836MPD2    C212288   1.388   4.105  11.884  0.4104  0.0427  0.2981
  836MPD2    C312289   1.246   4.125  11.866 -0.2680 -1.0908 -0.4304
  836MPD2    C412290   1.199   4.133  11.737 -0.8639  0.2177 -0.3927
  836MPD2    C512291   1.284   4.137  11.630  0.8840  1.1048 -0.0664
  836MPD2     H12292   1.424   4.096  11.986  0.4417 -1.7470  0.1342
  836MPD2    H112293   1.092   4.139  11.720 -0.6385 -0.6250 -2.1011
  836MPD2    H212294   1.494   4.091  11.573 -0.3268  2.0620 -0.8460
  836MPD2    H312295   1.244   4.146  11.530  1.4351 -0.0757 -0.3931
  836MPD2     N12296   1.145   4.139  11.968 -0.2916  0.0946  0.2121
  836MPD2    H512297   1.053   4.150  11.927 -0.8147 -0.5109  1.2391
  836MPD2    N112298   1.610   4.089  11.792  0.4799 -0.0855  0.0438
  836MPD2    H712299   1.661   4.100  11.705 -0.1933  0.6124 -0.2647
  837MPD2     C12300   0.161   3.464  10.055  0.3299  0.9504  0.1179
  837MPD2    C112301   0.050   3.534  10.016  0.4441  0.1035  0.4283
  837MPD2    C212302   0.054   3.673  10.022  0.2344  0.0632 -0.0121
  837MPD2    C312303   0.175   3.741  10.051  0.6916 -0.0134 -0.0789
  837MPD2    C412304   0.279   3.669  10.110  0.2774  0.0044  0.3190
  837MPD2    C512305   0.273   3.529  10.103 -0.2119  0.0486  0.1987
  837MPD2     H12306   4.686   3.727   9.988 -1.4331 -1.7148  1.4221
  837MPD2    H112307   0.378   3.708  10.129 -0.5949  0.9269  2.9445
  837MPD2    H212308   0.177   3.356  10.049 -1.6640  0.7239 -1.1272
  837MPD2    H312309   0.365   3.478  10.129 -0.4369 -1.0834 -1.2324
  837MPD2     N12310   0.185   3.874  10.005 -0.2216 -0.4565  0.2763
  837MPD2    H512311   0.095   3.905   9.968  1.7017  2.5580 -1.8737
  837MPD2    N112312   4.657   3.475   9.956 -0.3998  0.0164  0.0868
  837MPD2    H712313   4.587   3.539   9.920 -1.9338 -2.1184 -0.7758
  838MPD2     C12314   2.838   1.997  11.380 -0.2484 -0.4171 -0.4415
  838MPD2    C112315   2.831   1.872  11.440 -0.2476 -0.1324  0.6072
  838MPD2    C212316   2.706   1.814  11.458 -0.0168 -0.4029  0.3233
  838MPD2    C312317   2.591   1.884  11.416 -0.1268 -0.3239 -0.7360
  838MPD2    C412318   2.601   2.014  11.371  0.0139 -0.7031  0.0184
  838MPD2    C512319   2.725   2.067  11.344 -0.0810  0.0163 -0.1997
  838MPD2     H12320   2.697   1.711  11.493  1.5822 -0.5281  0.3574
  838MPD2    H112321   2.513   2.075  11.362 -0.6616 -1.7602 -0.6442
  838MPD2    H212322   2.932   2.048  11.362  0.6659 -0.7761  3.2897
  838MPD2    H312323   2.727   2.171  11.314  1.0891  0.0676  0.0478
  838MPD2     N12324   2.465   1.818  11.430 -0.3514 -0.1943 -0.2545
  838MPD2    H512325   2.472   1.725  11.468  1.3836  0.0162 -0.0641
  838MPD2    N112326   2.939   1.803  11.496  0.3395 -0.2299  0.2492
  838MPD2    H712327   2.927   1.707  11.529  0.8510 -0.3047  0.2153
  839MPD2     C12328   2.491   1.441  11.576 -0.0525 -0.7375  0.7287
  839MPD2    C112329   2.525   1.418  11.443 -0.6184  0.1511  0.3427
  839MPD2    C212330   2.657   1.424  11.414  0.1626  0.5865  0.0209
  839MPD2    C312331   2.754   1.439  11.514 -0.3779  0.5257  0.5889
  839MPD2    C412332   2.715   1.453  11.643 -0.0548  0.0717  0.3603
  839MPD2    C512333   2.586   1.455  11.676 -0.1084 -0.0838  0.1824
  839MPD2     H12334   2.696   1.415  11.313 -2.6412  0.0161 -1.0003
  839MPD2    H112335   2.789   1.486  11.715  1.2144 -2.3081  0.1363
  839MPD2    H212336   2.386   1.447  11.600 -0.4483 -4.4891 -0.0848
  839MPD2    H312337   2.552   1.475  11.777  1.1509 -3.6219  1.3282
  839MPD2     N12338   2.885   1.478  11.491 -0.3208 -0.4703  0.5818
  839MPD2    H512339   2.942   1.500  11.572 -0.1324  0.1451  0.2840
  839MPD2    N112340   2.438   1.392  11.333 -0.5720 -0.0136  0.0880
  839MPD2    H712341   2.482   1.375  11.243 -0.2691 -0.6690  0.3613
  840MPD2     C12342   2.839   4.113   9.916 -0.0730 -0.2137 -0.2428
  840MPD2    C112343   2.836   4.048  10.039  0.0430 -0.0196 -0.3602
  840MPD2    C212344   2.948   4.038  10.123  0.4364  0.4015  0.7504
  840MPD2    C312345   3.061   4.115  10.089 -0.2017  0.1010 -0.2311
  840MPD2    C412346   3.058   4.184   9.971  0.2317 -0.1294  0.8288
  840MPD2    C512347   2.950   4.189   9.888  0.9717  0.1078 -0.4384
  840MPD2     H12348   2.948   3.973  10.210 -0.8488 -1.4750 -0.6510
  840MPD2    H112349   3.141   4.248   9.944 -0.5803  1.2391  1.5799
  840MPD2    H212350   2.755   4.111   9.848 -0.3849 -0.4436  0.1453
  840MPD2    H312351   2.954   4.237   9.791 -4.3755  0.8581 -0.2794
  840MPD2     N12352   3.181   4.127  10.163 -0.0645  0.7107 -0.3938
  840MPD2    H512353   3.248   4.197  10.132 -0.2966  0.7861 -0.7381
  840MPD2    N112354   2.715   3.976  10.069  0.5652  0.0696 -0.2140
  840MPD2    H712355   2.638   3.975  10.003  0.5426 -0.5782 -0.1788
  841MPD2     C12356   2.172   3.957  14.107  0.3115 -0.2885 -0.6188
  841MPD2    C112357   2.248   3.870  14.043  0.5851 -0.7069  0.2428
  841MPD2    C212358   2.358   3.920  13.973  0.1811 -0.1436 -0.1079
  841MPD2    C312359   2.393   4.054  13.968 -0.7668 -0.1467  0.3635
  841MPD2    C412360   2.312   4.148  14.034 -0.7016  0.2229 -0.0630
  841MPD2    C512361   2.202   4.093  14.099 -0.0768  0.7013  0.1003
  841MPD2     H12362   2.425   3.844  13.936  2.2199  0.7915  1.6241
  841MPD2    H112363   2.335   4.252  14.056 -0.1790  0.0144  0.3891
  841MPD2    H212364   2.092   3.926  14.174  1.2827  0.6912  0.9992
  841MPD2    H312365   2.142   4.165  14.153  0.7120  0.6245  1.0823
  841MPD2     N12366   2.516   4.090  13.906  0.7435  0.3170  0.0815
  841MPD2    H512367   2.588   4.021  13.891 -0.1174 -0.6455  0.3696
  841MPD2    N112368   2.231   3.731  14.044 -0.4216 -0.3171  0.5564
  841MPD2    H712369   2.299   3.685  13.984 -2.3914 -0.3206 -1.7007
  842MPD2     C12370   2.768   0.423  16.875  0.2516 -0.4722  0.3752
  842MPD2    C112371   2.681   0.317  16.883 -0.3677  0.3447  0.3402
  842MPD2    C212372   2.690   0.231  16.994  0.5244  0.0779  0.6124
  842MPD2    C312373   2.795   0.245  17.084  0.3236  0.0343  0.0279
  842MPD2    C412374   2.886   0.347  17.062 -0.2595  0.0586  0.3858
  842MPD2    C512375   2.869   0.433  16.958  0.1732  0.7171 -0.8228
  842MPD2     H12376   2.634   0.139  16.992 -0.1329  0.3745  4.4054
  842MPD2    H112377   2.966   0.365  17.132  0.4691 -0.8446 -0.2132
  842MPD2    H212378   2.769   0.496  16.795  1.4772  0.8729  1.6186
  842MPD2    H312379   2.940   0.514  16.951  1.5553 -0.7939 -4.0703
  842MPD2     N12380   2.806   0.170  17.201  0.5547 -0.5249  0.5298
  842MPD2    H512381   2.872   0.212  17.266  0.6582  0.0556  0.0450
  842MPD2    N112382   2.583   0.314  16.775  0.1399 -0.4019  0.0762
  842MPD2    H712383   2.598   0.381  16.701 -1.6211  1.2760  1.2449
  843MPD2     C12384   4.587   1.344   0.181  0.0808  0.4239 -0.0336
  843MPD2    C112385   4.683   1.302   0.266 -0.6252 -0.4659  0.4597
  843MPD2    C212386   0.045   1.395   0.329  0.2903  0.0957 -0.2205
  843MPD2    C312387   0.034   1.531   0.299 -0.0817  0.4851  0.1827
  843MPD2    C412388   4.649   1.575   0.221  0.1990  0.6122 -0.3560
  843MPD2    C512389   4.572   1.480   0.161 -0.4228  0.3081  0.9059
  843MPD2     H12390   0.115   1.365   0.407 -0.8587 -0.8429  0.4409
  843MPD2    H112391   4.636   1.673   0.177  0.1181  0.7154 -0.1018
  843MPD2    H212392   4.525   1.274   0.127  1.9871 -1.6815  0.4989
  843MPD2    H312393   4.495   1.509   0.090 -1.0679  0.7239  1.7769
  843MPD2     N12394   0.138   1.627   0.334 -0.2082  0.3731 -0.3738
  843MPD2    H512395   0.132   1.725   0.308  0.7226 -0.1283 -2.5243
  843MPD2    N112396   4.693   1.161   0.299  0.5517 -0.6137 -0.3288
  843MPD2    H712397   4.616   1.102   0.269  0.6075 -1.6208  1.5168
  844MPD2     C12398   3.027   4.590  16.388 -0.4127  0.3714 -0.1953
  844MPD2    C112399   3.074   4.472  16.429 -0.2713 -1.2173 -0.6516
  844MPD2    C212400   3.185   4.481  16.506 -0.4969  0.4051 -0.2354
  844MPD2    C312401   3.256   4.596  16.531  0.3124  0.5607  0.2313
  844MPD2    C412402   3.203   4.714  16.483  0.3149  0.3044 -0.5934
  844MPD2    C512403   3.086   4.710  16.412 -1.1783 -0.0237  0.0035
  844MPD2     H12404   3.223   4.393  16.557  0.9914  1.3355  0.2740
  844MPD2    H112405   3.245   0.093  16.501  0.7683  0.2156 -1.1563
  844MPD2    H212406   2.933   4.590  16.334 -0.9633  0.7934  0.7686
  844MPD2    H312407   3.046   0.087  16.385 -1.9839 -0.3272  0.1088
  844MPD2     N12408   3.375   4.587  16.606  0.6787 -0.7016  0.3182
  844MPD2    H512409   3.406   4.493  16.630  3.7341  0.2066 -0.1060
  844MPD2    N112410   3.008   4.351  16.412 -0.3785  0.0339  0.5139
  844MPD2    H712411   3.051   4.273  16.461 -0.2596  1.7870  3.1866
  845MPD2     C12412   3.914   0.657  16.809 -0.6737 -0.3981 -0.1777
  845MPD2    C112413   3.782   0.634  16.843 -0.0450  0.3682  0.2400
  845MPD2    C212414   3.731   0.507  16.843 -0.4156  0.6172 -0.1237
  845MPD2    C312415   3.820   0.405  16.809  0.1868 -1.1510  0.1184
  845MPD2    C412416   3.954   0.427  16.800  0.3032  0.0248 -0.2385
  845MPD2    C512417   3.995   0.558  16.790 -0.1791 -0.2199  0.1843
  845MPD2     H12418   3.625   0.492  16.858 -0.2472 -0.0748  0.3682
  845MPD2    H112419   4.030   0.353  16.780 -0.5881 -0.4941 -1.7659
  845MPD2    H212420   3.949   0.760  16.801 -0.3636 -0.3717  1.3396
  845MPD2    H312421   4.098   0.586  16.776 -0.3055  0.0797 -0.1237
  845MPD2     N12422   3.769   0.272  16.810 -1.0203  0.5469  0.2846
  845MPD2    H512423   3.670   0.253  16.816 -0.8532 -0.5039 -0.2604
  845MPD2    N112424   3.699   0.740  16.883  0.1997 -0.8414  0.4035
  845MPD2    H712425   3.745   0.830  16.871  2.0125 -1.5561  1.9712
  846MPD2     C12426   0.207   1.033  13.264  0.1401  0.1452 -0.0517
  846MPD2    C112427   0.143   1.153  13.283  0.5282 -0.0545 -0.3886
  846MPD2    C212428   0.092   1.173  13.409  0.0491 -0.1895 -0.0251
  846MPD2    C312429   0.125   1.101  13.525 -0.2335 -0.1831  0.0040
  846MPD2    C412430   0.208   0.991  13.503  0.0126  0.3951  0.6434
  846MPD2    C512431   0.242   0.958  13.373 -0.3631 -0.2628  0.6244
  846MPD2     H12432   0.044   1.268  13.429  4.0602  2.2958 -2.2147
  846MPD2    H112433   0.241   0.923  13.581 -1.0421  1.1620  1.7647
  846MPD2    H212434   0.236   0.999  13.165 -1.5636 -0.9062 -0.1746
  846MPD2    H312435   0.300   0.868  13.357  1.5864  0.7589  1.8000
  846MPD2     N12436   0.075   1.150  13.649 -0.1101 -0.4065 -0.4932
  846MPD2    H512437   0.006   1.224  13.645  2.4469  1.8840 -1.9210
  846MPD2    N112438   0.129   1.249  13.178 -0.5665  0.0927  0.3077
  846MPD2    H712439   0.097   1.340  13.209 -0.6491 -0.2541  1.2395
  847MPD2     C12440   0.477   1.808  13.759  0.0807  0.2575 -0.3191
  847MPD2    C112441   0.503   1.878  13.868 -0.2298  0.0063 -0.0171
  847MPD2    C212442   0.623   1.876  13.933 -0.1817 -0.6465  0.1322
  847MPD2    C312443   0.715   1.781  13.889  0.4424  0.2018 -0.3309
  847MPD2    C412444   0.690   1.703  13.777 -0.0074  0.7894 -0.1902
  847MPD2    C512445   0.570   1.722  13.711 -0.5345  0.3304  0.7520
  847MPD2     H12446   0.631   1.937  14.022 -2.2645 -0.0903 -0.0700
  847MPD2    H112447   0.754   1.621  13.748  1.0048  0.8481  1.8782
  847MPD2    H212448   0.383   1.808  13.705 -0.2379  1.5858  0.2312
  847MPD2    H312449   0.542   1.666  13.623  0.6017  1.6000 -0.4261
  847MPD2     N12450   0.836   1.771  13.969  0.1975 -0.2925  0.1873
  847MPD2    H512451   0.846   1.840  14.044 -1.7267 -0.2614  0.4239
  847MPD2    N112452   0.409   1.965  13.926 -0.7710 -0.0784 -0.2556
  847MPD2    H712453   0.436   2.012  14.012 -0.1576  0.7758 -0.9010
  848MPD2     C12454   2.707   0.166  16.372 -0.2816 -0.0090  0.6025
  848MPD2    C112455   2.814   0.221  16.441 -0.2362 -0.5195 -0.1689
  848MPD2    C212456   2.888   0.329  16.390  0.2707 -0.4801 -0.5859
  848MPD2    C312457   2.845   0.392  16.279 -0.0771  0.3510  0.0328
  848MPD2    C412458   2.740   0.340  16.204  0.1810 -0.1632 -0.5663
  848MPD2    C512459   2.673   0.228  16.249 -0.2352  0.2481 -0.1293
  848MPD2     H12460   2.971   0.367  16.448 -1.4580 -0.2917  1.7736
  848MPD2    H112461   2.710   0.389  16.113  1.0541 -0.4069 -0.9895
  848MPD2    H212462   2.640   0.089  16.409 -0.1820 -0.6040 -0.4434
  848MPD2    H312463   2.592   0.192  16.188  1.5305 -1.8317 -1.2490
  848MPD2     N12464   2.907   0.508  16.221 -0.0249  0.5426 -0.2996
  848MPD2    H512465   2.870   0.530  16.129  0.1971  1.3267 -0.1982
  848MPD2    N112466   2.859   0.165  16.561 -0.3726  0.5433 -0.5826
  848MPD2    H712467   2.938   0.209  16.607  0.4301 -0.9600 -0.5240
  849MPD2     C12468   3.157   0.455  14.024  0.2798  0.4607  0.3247
  849MPD2    C112469   3.283   0.402  14.026 -0.0808  0.1589  0.1358
  849MPD2    C212470   3.322   0.320  14.128  0.0401  0.6352 -0.9236
  849MPD2    C312471   3.235   0.293  14.227  0.2063 -0.2589 -0.5189
  849MPD2    C412472   3.123   0.367  14.235 -0.0438 -0.1508 -0.6576
  849MPD2    C512473   3.081   0.447  14.135  0.0051 -0.8941  0.4410
  849MPD2     H12474   3.418   0.271  14.131 -0.0462  0.5912  1.4000
  849MPD2    H112475   3.056   0.343  14.316 -0.0044 -1.5835 -1.0405
  849MPD2    H212476   3.121   0.516  13.941  3.6679  1.5932 -0.3027
  849MPD2    H312477   2.982   0.490  14.127  1.3378  1.8680 -1.0635
  849MPD2     N12478   3.281   0.204  14.321 -0.6184 -0.0428 -0.4273
  849MPD2    H512479   3.375   0.165  14.318 -0.4968  0.1798  0.6662
  849MPD2    N112480   3.377   0.422  13.921  0.2031  0.0296 -0.3053
  849MPD2    H712481   3.464   0.370  13.928 -0.7704 -1.7801 -1.6875
  850MPD2     C12482   0.648   2.491  14.742  0.0363 -0.0042  0.4218
  850MPD2    C112483   0.644   2.527  14.876 -0.6779  0.2540  0.1526
  850MPD2    C212484   0.751   2.586  14.936 -0.0456 -0.1307 -0.0305
  850MPD2    C312485   0.861   2.619  14.857 -0.2535 -0.4464 -0.1104
  850MPD2    C412486   0.859   2.595  14.721 -0.3418 -0.2324 -0.0485
  850MPD2    C512487   0.752   2.533  14.664 -0.4849  0.3339  0.4048
  850MPD2     H12488   0.773   2.570  15.041 -0.2063 -0.5228 -0.0585
  850MPD2    H112489   0.945   2.630  14.666 -1.4885  2.0194 -0.3995
  850MPD2    H212490   0.563   2.445  14.692 -1.0390  1.1755  1.1332
  850MPD2    H312491   0.756   2.515  14.558  3.9922  0.4787  0.5241
  850MPD2     N12492   0.984   2.668  14.902 -0.5509 -0.1573 -0.5087
  850MPD2    H512493   1.052   2.707  14.837  1.3406 -0.7704  1.0840
  850MPD2    N112494   0.538   2.468  14.945 -0.0040 -0.7853  0.0428
  850MPD2    H712495   0.478   2.402  14.896 -0.5709 -0.9074  0.9091
  851MPD2     C12496   0.671   1.957  15.529 -0.3497  0.6633  0.0438
  851MPD2    C112497   0.618   1.960  15.403 -0.2450  0.9550 -0.0801
  851MPD2    C212498   0.650   1.865  15.314  0.0450  0.0405  0.0535
  851MPD2    C312499   0.745   1.766  15.348  0.1819  0.2320 -0.9336
  851MPD2    C412500   0.790   1.758  15.478  0.1305  1.1727 -0.2894
  851MPD2    C512501   0.761   1.857  15.566 -0.3139 -0.4630  0.5144
  851MPD2     H12502   0.610   1.874  15.214  0.3094  1.2218  0.0476
  851MPD2    H112503   0.860   1.683  15.513 -0.8054  0.8935  1.0053
  851MPD2    H212504   0.647   2.041  15.594 -1.3076  0.7042 -0.3600
  851MPD2    H312505   0.799   1.848  15.667 -2.1421 -2.1444  1.0590
  851MPD2     N12506   0.793   1.681  15.244  0.1053  0.2068  0.7149
  851MPD2    H512507   0.767   1.702  15.148 -1.4432  1.6287  1.4507
  851MPD2    N112508   0.531   2.070  15.375  0.9686 -0.3220  0.1125
  851MPD2    H712509   0.528   2.143  15.446 -2.4790  0.2061 -0.5639
  852MPD2     C12510   0.842   0.328   9.614  0.2504 -0.3289 -0.4359
  852MPD2    C112511   0.776   0.443   9.619 -0.6472 -0.0546  0.3940
  852MPD2    C212512   0.840   0.562   9.586  0.0839  1.1777 -0.4248
  852MPD2    C312513   0.973   0.570   9.552 -0.0672 -0.2786 -0.1260
  852MPD2    C412514   1.048   0.454   9.547  0.0778  0.1135 -0.0598
  852MPD2    C512515   0.979   0.340   9.581  0.2729  0.0770 -0.3554
  852MPD2     H12516   0.773   0.646   9.603 -0.7816  0.0524  1.8603
  852MPD2    H112517   1.154   0.451   9.522  0.7264 -0.5666  2.7361
  852MPD2    H212518   0.798   0.231   9.635 -0.9633  0.5701  1.1890
  852MPD2    H312519   1.049   0.257   9.575  1.9124  1.3759  0.6474
  852MPD2     N12520   1.032   0.700   9.541 -0.3273 -0.1578 -0.2152
  852MPD2    H512521   0.974   0.781   9.557  0.4754 -0.0899  2.3658
  852MPD2    N112522   0.643   0.432   9.665 -0.2690 -0.1645 -0.4205
  852MPD2    H712523   0.619   0.336   9.690  0.5479 -0.6663 -1.5824
  853MPD2     C12524   2.498   0.430  12.301  0.2783  0.3297 -0.4183
  853MPD2    C112525   2.416   0.525  12.243 -0.7532  1.3831  0.3821
  853MPD2    C212526   2.389   0.517  12.109 -0.0485  0.3581 -0.4187
  853MPD2    C312527   2.453   0.416  12.032  0.4573  0.1017  0.6063
  853MPD2    C412528   2.534   0.328  12.092 -0.1093  0.5525  0.0751
  853MPD2    C512529   2.545   0.329  12.231  0.4340 -0.0359 -0.3942
  853MPD2     H12530   2.317   0.587  12.067 -0.1032  0.7109  0.2698
  853MPD2    H112531   2.591   0.259  12.031  0.7210 -0.7905  2.3655
  853MPD2    H212532   2.505   0.439  12.409  1.3563 -1.6651 -0.3141
  853MPD2    H312533   2.614   0.263  12.281 -1.8882 -1.8293  0.4383
  853MPD2     N12534   2.450   0.404  11.890 -0.3761 -0.4650 -0.8929
  853MPD2    H512535   2.505   0.329  11.849  1.6420  0.5233  0.0296
  853MPD2    N112536   2.352   0.629  12.321  0.5335  0.2844  0.3049
  853MPD2    H712537   2.377   0.624  12.420  0.8755 -0.3399  0.1855
  854MPD2     C12538   4.002   0.435  12.505  0.2007 -0.7314 -0.1060
  854MPD2    C112539   4.010   0.523  12.606 -0.2792  0.0835  0.0641
  854MPD2    C212540   4.111   0.509  12.701  0.2253  0.4829  0.0724
  854MPD2    C312541   4.201   0.403  12.687  0.0113 -0.2901 -0.5153
  854MPD2    C412542   4.198   0.323  12.580  0.3666 -0.2489  0.6307
  854MPD2    C512543   4.092   0.332  12.487  0.0509  0.8131 -0.0409
  854MPD2     H12544   4.104   0.572  12.789  1.4141  1.4105 -0.4993
  854MPD2    H112545   4.275   0.247  12.577 -0.2786 -0.8561 -0.5161
  854MPD2    H212546   3.933   0.451  12.423  0.7963 -1.0993 -0.6861
  854MPD2    H312547   4.078   0.258  12.409 -0.7424 -0.5391  1.3878
  854MPD2     N12548   4.319   0.381  12.768 -0.0802  0.0870 -0.0105
  854MPD2    H512549   4.375   0.301  12.741 -1.7898 -1.3622  0.7109
  854MPD2    N112550   3.899   0.605  12.621 -0.7021  0.2194 -0.1061
  854MPD2    H712551   3.826   0.602  12.551  0.3586  0.8336 -1.2288
  855MPD2     C12552   0.257   0.311  13.658 -0.6236  0.8662  0.3167
  855MPD2    C112553   0.118   0.303  13.657 -0.1401  0.0029 -0.1265
  855MPD2    C212554   0.049   0.326  13.536  0.3147  0.4204  0.1517
  855MPD2    C312555   0.116   0.348  13.417  0.3547  0.0259  0.2634
  855MPD2    C412556   0.256   0.349  13.423  1.0030 -0.4827 -0.3678
  855MPD2    C512557   0.323   0.339  13.542 -0.5014 -0.3065 -0.1649
  855MPD2     H12558   4.663   0.309  13.523  0.6471 -0.4043 -1.5045
  855MPD2    H112559   0.311   0.357  13.330  2.4552  2.2001  0.7137
  855MPD2    H212560   0.318   0.294  13.746  0.4608 -0.7613 -0.7674
  855MPD2    H312561   0.430   0.324  13.539 -0.4502  0.3301 -1.8871
  855MPD2     N12562   0.054   0.350  13.289  0.4521  0.2347  0.1104
  855MPD2    H512563   0.117   0.350  13.209  0.5773 -1.0064  0.2188
  855MPD2    N112564   0.047   0.265  13.769 -0.4153  0.0902  0.2300
  855MPD2    H712565   4.670   0.235  13.759  0.4406 -1.6276 -2.9895
  856MPD2     C12566   1.421   1.599  13.564  0.7013  0.3341 -0.7042
  856MPD2    C112567   1.457   1.719  13.618  0.3071 -0.0620 -0.4155
  856MPD2    C212568   1.353   1.817  13.607  0.1093  0.6193 -0.5081
  856MPD2    C312569   1.234   1.789  13.550 -0.4891 -0.1364  0.0570
  856MPD2    C412570   1.216   1.671  13.486  0.1562  0.4736  0.0064
  856MPD2    C512571   1.312   1.574  13.492 -0.7137 -0.1293  0.0486
  856MPD2     H12572   1.375   1.908  13.661  0.7696 -0.4510  1.0456
  856MPD2    H112573   1.116   1.654  13.448  0.9821 -2.4348 -0.8269
  856MPD2    H212574   1.492   1.518  13.576 -0.5948 -0.5787  0.8793
  856MPD2    H312575   1.302   1.471  13.461  1.3921 -1.0048  2.3180
  856MPD2     N12576   1.125   1.879  13.555  0.2230 -0.8843 -0.2615
  856MPD2    H512577   1.040   1.846  13.510 -0.1586 -1.2961  0.7680
  856MPD2    N112578   1.561   1.743  13.713  0.5368 -0.5556 -0.4935
  856MPD2    H712579   1.579   1.837  13.745 -0.0722 -0.5509 -0.1832
  857MPD2     C12580   3.257   3.415  12.534 -0.0658 -0.9403 -0.3647
  857MPD2    C112581   3.357   3.409  12.635 -0.7986  0.4971 -0.0198
  857MPD2    C212582   3.415   3.524  12.687  0.4291  0.6021 -0.3279
  857MPD2    C312583   3.370   3.649  12.648  0.0725  0.3294 -0.3809
  857MPD2    C412584   3.283   3.664  12.547 -0.1115 -0.0484 -0.4264
  857MPD2    C512585   3.226   3.548  12.496 -0.1799 -0.4048  0.5637
  857MPD2     H12586   3.487   3.513  12.767 -0.5030 -0.4110  0.3589
  857MPD2    H112587   3.249   3.760  12.510  0.5842  0.3044 -0.1593
  857MPD2    H212588   3.201   3.333  12.492 -0.1329 -0.5823 -0.9696
  857MPD2    H312589   3.149   3.559  12.420 -0.7168 -2.7384  0.7653
  857MPD2     N12590   3.429   3.760  12.710  0.3613  0.5296  0.0443
  857MPD2    H512591   3.504   3.742  12.776 -0.2409  1.6950  1.0463
  857MPD2    N112592   3.400   3.283  12.674 -0.7303  0.4234 -0.0106
  857MPD2    H712593   3.331   3.211  12.655  1.1689 -1.2335 -0.6808
  858MPD2     C12594   3.417   2.535  16.793 -0.0672 -0.4001 -0.0029
  858MPD2    C112595   3.558   2.538  16.781 -0.7394 -0.2093 -0.3580
  858MPD2    C212596   3.631   2.614  16.871  0.4466 -0.1619  0.5581
  858MPD2    C312597   3.570   2.688  16.967  0.1345  0.9178  0.2746
  858MPD2    C412598   3.433   2.701  16.972  0.2294 -0.1649  0.3258
  858MPD2    C512599   3.364   2.625  16.884  0.4408  0.7320 -0.2179
  858MPD2     H12600   3.739   2.624  16.863  0.6731 -2.5488  0.5703
  858MPD2    H112601   3.390   2.754  17.056  0.3402  0.5030 -0.0312
  858MPD2    H212602   3.347   2.486  16.727 -0.2106 -1.2970  0.8145
  858MPD2    H312603   3.256   2.633  16.886  0.5094  1.8341 -0.4156
  858MPD2     N12604   3.651   2.760  17.061 -0.7080  0.3923 -0.4284
  858MPD2    H512605   3.607   2.839  17.107  1.5305  1.3109  0.1732
  858MPD2    N112606   3.620   2.448  16.697 -0.0626 -0.0507  0.0652
  858MPD2    H712607   3.560   2.378  16.654 -0.8656  2.4274 -2.9271
  859MPD2     C12608   2.788   4.203  14.711 -0.1425 -0.3555  0.3564
  859MPD2    C112609   2.715   4.182  14.602  0.5843  0.8112  0.3367
  859MPD2    C212610   2.669   4.054  14.566  0.2354  0.4590 -0.4981
  859MPD2    C312611   2.704   3.942  14.642 -0.1176  0.3086 -0.1089
  859MPD2    C412612   2.784   3.964  14.752 -0.5427  0.3769  0.0514
  859MPD2    C512613   2.816   4.097  14.788  0.3383  0.0558  0.0488
  859MPD2     H12614   2.608   4.042  14.477  0.2718 -0.5512 -0.3879
  859MPD2    H112615   2.827   3.886  14.814 -1.3481 -0.7441 -0.8092
  859MPD2    H212616   2.838   4.294  14.742  1.1176 -1.0931  0.4693
  859MPD2    H312617   2.884   4.108  14.872 -1.1374  0.5721  1.1646
  859MPD2     N12618   2.655   3.814  14.616 -0.1410 -0.0665  0.4108
  859MPD2    H512619   2.680   3.739  14.680 -0.9076 -0.1773  0.5835
  859MPD2    N112620   2.693   4.303  14.525  0.3437 -0.7500 -0.2688
  859MPD2    H712621   2.730   4.387  14.568  1.2852 -0.7945 -0.9895
  860MPD2     C12622   0.587   0.330  11.509 -0.1759  0.0448  0.2538
  860MPD2    C112623   0.503   0.426  11.568 -0.8077  0.3517  0.3059
  860MPD2    C212624   0.407   0.380  11.655  0.1747  0.5179  0.0458
  860MPD2    C312625   0.377   0.241  11.668  0.0422  0.4928  0.8926
  860MPD2    C412626   0.452   0.151  11.601  0.0174 -0.0052  0.4066
  860MPD2    C512627   0.561   0.196  11.521 -0.2621 -0.7711 -0.0721
  860MPD2     H12628   0.354   0.454  11.714  0.6723  0.7585  0.1863
  860MPD2    H112629   0.422   0.047  11.598 -1.0182  0.3166 -0.2582
  860MPD2    H212630   0.669   0.356  11.443 -1.4052  2.1174 -0.4462
  860MPD2    H312631   0.607   0.124  11.455  0.9367 -0.6774  0.6567
  860MPD2     N12632   0.276   0.200  11.760  0.0184 -0.0868  0.4490
  860MPD2    H512633   0.219   0.278  11.792 -0.2637  0.5964 -1.7422
  860MPD2    N112634   0.526   0.564  11.561  0.7242 -0.0409 -0.6068
  860MPD2    H712635   0.457   0.617  11.614  1.9912  1.7625 -0.7745
  861MPD2     C12636   3.707   2.934  11.105  0.3883  0.2177  0.4377
  861MPD2    C112637   3.797   3.044  11.095 -0.7075  0.8182 -0.0158
  861MPD2    C212638   3.806   3.119  10.979 -0.3269 -0.2364 -0.4806
  861MPD2    C312639   3.709   3.103  10.879 -0.2220  0.3957  0.3921
  861MPD2    C412640   3.615   3.004  10.899  0.7594  0.1285 -0.7432
  861MPD2    C512641   3.611   2.918  11.007 -0.4818  0.4997 -0.0189
  861MPD2     H12642   3.878   3.200  10.974  0.2384 -0.7013  0.1145
  861MPD2    H112643   3.542   2.984  10.822  0.5866 -0.0754 -0.5276
  861MPD2    H212644   3.702   2.874  11.196  0.6282 -2.5382 -1.3648
  861MPD2    H312645   3.530   2.846  11.019  0.5348 -0.9595 -1.8774
  861MPD2     N12646   3.700   3.184  10.760 -0.5468 -0.1042 -0.1979
  861MPD2    H512647   3.636   3.152  10.688  0.1237  0.7805 -1.1881
  861MPD2    N112648   3.892   3.080  11.193 -0.0055  0.1266  0.2468
  861MPD2    H712649   3.967   3.140  11.161 -0.2973  0.4128  0.0976
  862MPD2     C12650   3.241   3.228  10.305 -0.8927  0.3506 -0.2491
  862MPD2    C112651   3.356   3.156  10.335 -0.4902  0.5319 -0.0329
  862MPD2    C212652   3.347   3.016  10.351  0.4602 -0.5530 -0.2851
  862MPD2    C312653   3.227   2.956  10.361 -0.1214  0.1749  0.0489
  862MPD2    C412654   3.120   3.031  10.325  0.3600 -0.4683 -0.3767
  862MPD2    C512655   3.125   3.160  10.288 -0.7675 -0.9810 -0.1619
  862MPD2     H12656   3.443   2.965  10.357  0.6892  0.1608  1.8960
  862MPD2    H112657   3.021   2.988  10.319 -0.0599  0.6033 -0.9520
  862MPD2    H212658   3.231   3.336  10.306  3.1818  0.6943  1.1040
  862MPD2    H312659   3.035   3.211  10.257 -0.0885 -0.3488 -1.0741
  862MPD2     N12660   3.215   2.816  10.389  0.4799 -0.1558 -0.5707
  862MPD2    H512661   3.124   2.771  10.387  0.9585 -1.1765  1.1470
  862MPD2    N112662   3.478   3.219  10.365 -0.0979 -0.3726 -0.3265
  862MPD2    H712663   3.551   3.164  10.409  0.3782  0.4806 -0.0523
  863MPD2     C12664   2.307   1.164  16.514 -0.6980 -0.2619 -0.3353
  863MPD2    C112665   2.238   1.184  16.632 -0.4665  0.7073 -0.2195
  863MPD2    C212666   2.304   1.222  16.749 -0.0097 -0.5168 -0.2494
  863MPD2    C312667   2.441   1.218  16.753  0.2544  0.5329  0.5731
  863MPD2    C412668   2.511   1.209  16.639 -0.1497  0.1585 -0.0557
  863MPD2    C512669   2.441   1.184  16.524 -0.5227 -0.1870  0.3742
  863MPD2     H12670   2.259   1.254  16.842  1.3994 -1.1043  0.6213
  863MPD2    H112671   2.618   1.225  16.629 -0.2170  1.8479  1.9282
  863MPD2    H212672   2.261   1.135  16.420 -0.0474  0.6160 -0.9248
  863MPD2    H312673   2.498   1.160  16.435 -1.0849 -2.2547  0.5683
  863MPD2     N12674   2.519   1.229  16.866  0.3764 -0.2575 -0.0208
  863MPD2    H512675   2.612   1.268  16.855  0.6763 -0.0024  3.4304
  863MPD2    N112676   2.102   1.175  16.612 -0.3276  0.0840 -0.4049
  863MPD2    H712677   2.083   1.134  16.521 -0.2511 -0.2837 -0.2525
  864MPD2     C12678   2.441   2.420  17.582 -0.3187 -0.0793  0.5504
  864MPD2    C112679   2.480   2.406  17.449  0.2541  0.1483  0.3230
  864MPD2    C212680   2.546   2.511  17.384  0.3616 -0.3653 -0.5472
  864MPD2    C312681   2.547   2.636  17.439 -0.1714 -0.3371 -0.4696
  864MPD2    C412682   2.489   2.658  17.565  0.1753 -0.7067 -0.0086
  864MPD2    C512683   2.445   2.547  17.633  0.3255 -0.7079  0.4624
  864MPD2     H12684   2.582   2.510  17.282 -1.7380  1.8843 -1.3038
  864MPD2    H112685   2.487   2.755  17.612 -3.1006 -1.5823  1.7215
  864MPD2    H212686   2.400   2.335  17.636  0.9283 -0.6802  0.5654
  864MPD2    H312687   2.421   2.552   0.058 -0.3642  0.6661  0.2470
  864MPD2     N12688   2.605   2.745  17.368 -0.3795 -0.1267 -0.5319
  864MPD2    H512689   2.574   2.839  17.391  1.0367 -0.1301  1.3660
  864MPD2    N112690   2.473   2.277  17.395 -0.5816  0.5276 -0.5200
  864MPD2    H712691   2.420   2.212  17.452 -1.9462  1.0622 -1.1744
  865MPD2     C12692   2.355   2.771  16.583 -0.0339  0.1086  0.0601
  865MPD2    C112693   2.491   2.795  16.578 -0.2015 -0.0342  0.1732
  865MPD2    C212694   2.550   2.885  16.667  0.5294 -0.3467 -0.2628
  865MPD2    C312695   2.482   2.929  16.779  0.5146  0.0215  0.0621
  865MPD2    C412696   2.347   2.897  16.782 -0.3824 -0.0073 -0.1173
  865MPD2    C512697   2.279   2.834  16.685 -0.2851 -0.3393  0.3561
  865MPD2     H12698   2.653   2.914  16.654  1.0812 -2.1597  0.0030
  865MPD2    H112699   2.290   2.938  16.865 -0.7071 -0.4282 -0.1340
  865MPD2    H212700   2.303   2.704  16.515 -2.6514  2.9164 -0.7366
  865MPD2    H312701   2.174   2.810  16.700 -0.1705 -1.3436 -0.4179
  865MPD2     N12702   2.545   2.998  16.887  0.1870 -0.5221 -0.1276
  865MPD2    H512703   2.644   3.012  16.868  0.5600 -1.4205  1.1285
  865MPD2    N112704   2.559   2.720  16.480 -0.1972  0.1874 -0.0430
  865MPD2    H712705   2.507   2.658  16.418 -1.0473 -0.9568  1.8234
  866MPD2     C12706   0.035   3.070  11.369 -0.6812  0.7336 -0.4169
  866MPD2    C112707   0.041   3.118  11.240  0.3060 -0.4924  0.2490
  866MPD2    C212708   4.659   3.195  11.191  0.5802  0.5057  0.2672
  866MPD2    C312709   4.551   3.225  11.269  0.0586  0.2319 -0.2885
  866MPD2    C412710   4.555   3.201  11.400 -0.0540  0.3024 -0.5315
  866MPD2    C512711   4.656   3.129  11.448 -0.2053  0.1303 -0.0655
  866MPD2     H12712   4.670   3.238  11.092 -0.4057  0.9150  0.3338
  866MPD2    H112713   4.475   3.234  11.466 -1.3765 -2.7917 -0.5798
  866MPD2    H212714   0.108   3.016  11.429 -0.8895  0.0685 -0.7576
  866MPD2    H312715   4.651   3.102  11.553 -0.8869 -1.6888 -0.5561
  866MPD2     N12716   4.441   3.302  11.227  0.2497 -1.2269 -0.2910
  866MPD2    H512717   4.382   3.346  11.296  4.1220 -0.3130  2.4676
  866MPD2    N112718   0.150   3.090  11.151 -0.8526  0.3868  0.3565
  866MPD2    H712719   0.152   3.143  11.064  0.5618 -0.0306  0.1293
  867MPD2     C12720   2.006   2.320  16.167  0.3429  0.0625  0.4611
  867MPD2    C112721   1.996   2.383  16.287 -0.2841 -0.1731  0.0391
  867MPD2    C212722   2.020   2.516  16.303 -0.7241  0.0635  0.0316
  867MPD2    C312723   2.071   2.588  16.192 -0.1339  0.3745 -0.1470
  867MPD2    C412724   2.085   2.524  16.067 -0.2197  0.4643 -0.1921
  867MPD2    C512725   2.049   2.392  16.055 -0.4136  0.4236  0.0403
  867MPD2     H12726   2.028   2.565  16.399  1.1597  1.4438 -0.8297
  867MPD2    H112727   2.137   2.571  15.985  1.1173  0.5836  0.7221
  867MPD2    H212728   1.991   2.214  16.153 -1.2037  0.0129  2.6040
  867MPD2    H312729   2.070   2.337  15.964  3.5251  0.3204  1.0207
  867MPD2     N12730   2.111   2.725  16.205 -0.2756 -0.1072 -1.1101
  867MPD2    H512731   2.161   2.760  16.124  0.3798 -0.3326 -0.8000
  867MPD2    N112732   1.951   2.298  16.391 -0.4965  0.0251 -0.0248
  867MPD2    H712733   1.930   2.204  16.361  0.2857 -0.7802  1.9881
  868MPD2     C12734   3.143   1.923  12.994 -0.0586 -0.4525  0.1108
  868MPD2    C112735   3.203   1.919  13.126 -0.5131  1.0445  0.2025
  868MPD2    C212736   3.122   1.892  13.235 -0.0349  0.3116 -0.0409
  868MPD2    C312737   3.001   1.824  13.220 -0.2948  0.9150 -0.9362
  868MPD2    C412738   2.944   1.818  13.093 -0.0106  0.4350  0.9390
  868MPD2    C512739   3.018   1.862  12.986  0.1568  0.2826  0.2238
  868MPD2     H12740   3.167   1.888  13.333  1.7585  1.6527 -0.8201
  868MPD2    H112741   2.850   1.768  13.075 -0.4666  1.0687  1.5464
  868MPD2    H212742   3.196   1.958  12.907 -0.5040 -1.8200 -0.7155
  868MPD2    H312743   2.974   1.849  12.888 -0.6308 -0.0086  0.6104
  868MPD2     N12744   2.949   1.767  13.336  0.6265 -0.2722  0.3220
  868MPD2    H512745   2.993   1.787  13.426 -0.0471  0.7382  0.4257
  868MPD2    N112746   3.335   1.960  13.139  0.0451 -0.6464 -0.1322
  868MPD2    H712747   3.380   1.963  13.048 -0.6791 -1.5826 -0.5174
  869MPD2     C12748   0.203   0.799   1.941  0.0117 -0.0311 -0.9413
  869MPD2    C112749   0.125   0.688   1.959  0.2642  0.1282 -1.0728
  869MPD2    C212750   0.027   0.652   1.867 -0.0187 -0.5344  0.3530
  869MPD2    C312751   0.012   0.730   1.752  1.1322  0.8423 -0.3595
  869MPD2    C412752   0.093   0.836   1.731  0.2658 -0.6439 -0.4998
  869MPD2    C512753   0.187   0.870   1.825 -0.2030 -0.4086  0.9964
  869MPD2     H12754   4.685   0.563   1.876  0.9633 -1.0255  2.1295
  869MPD2    H112755   0.076   0.901   1.646  1.9207  0.4685  0.0286
  869MPD2    H212756   0.273   0.842   2.012 -3.7395 -0.6562  3.1407
  869MPD2    H312757   0.241   0.962   1.807 -2.5081  0.5320 -1.1689
  869MPD2     N12758   4.637   0.697   1.651  0.0931  0.8715 -0.2669
  869MPD2    H512759   4.633   0.753   1.566  0.9140 -0.5387 -1.2432
  869MPD2    N112760   0.150   0.615   2.080  0.2969 -0.3318 -0.3707
  869MPD2    H712761   0.228   0.649   2.136 -0.4828 -0.0084  0.5062
  870MPD2     C12762   3.825   4.494   1.548 -0.0275  0.0879  0.3312
  870MPD2    C112763   3.927   4.409   1.503  0.1976  0.9603  0.1650
  870MPD2    C212764   3.977   4.418   1.376 -0.2247  0.0672 -0.8906
  870MPD2    C312765   3.936   4.515   1.289 -0.0325 -0.3017 -0.7281
  870MPD2    C412766   3.844   4.607   1.338 -0.1382  0.0104 -0.3496
  870MPD2    C512767   3.802   4.598   1.468  0.6281  0.3535  0.2818
  870MPD2     H12768   4.018   4.330   1.327  1.8807  1.9864 -2.5246
  870MPD2    H112769   3.810   4.688   1.273  0.1280  0.5329  0.1643
  870MPD2    H212770   3.775   4.471   1.641 -0.1501 -1.0273 -0.0060
  870MPD2    H312771   3.735   4.676   1.504 -0.1939 -0.2698  0.0979
  870MPD2     N12772   3.977   4.495   1.151 -0.0426  0.0737  1.0853
  870MPD2    H512773   4.043   4.421   1.130  2.2451  2.8057 -1.2723
  870MPD2    N112774   3.953   4.294   1.580 -0.8230  0.0521 -0.2353
  870MPD2    H712775   3.893   4.273   1.659  1.7459  0.4907  1.8266
  871MPD2     C12776   0.370   2.260  16.633  0.1446  0.1430 -0.4736
  871MPD2    C112777   0.427   2.257  16.761 -0.4772  0.3960 -0.4412
  871MPD2    C212778   0.492   2.143  16.805 -0.0095 -0.2531 -0.3998
  871MPD2    C312779   0.509   2.035  16.718 -0.2116 -0.1145 -0.1794
  871MPD2    C412780   0.457   2.049  16.585 -0.6484 -0.3632  0.5403
  871MPD2    C512781   0.383   2.156  16.547 -0.1249 -0.2580 -0.3398
  871MPD2     H12782   0.541   2.143  16.902 -0.6851 -2.3715 -0.0543
  871MPD2    H112783   0.458   1.967  16.513 -3.4693  2.2584 -2.4874
  871MPD2    H212784   0.305   2.339  16.597  0.3253  1.1594  1.4759
  871MPD2    H312785   0.333   2.161  16.451 -1.5512  0.7076  0.4477
  871MPD2     N12786   0.576   1.926  16.769 -0.6605  0.2484  0.0015
  871MPD2    H512787   0.613   1.935  16.863 -0.1677  0.9208 -0.2562
  871MPD2    N112788   0.426   2.379  16.832 -0.0102 -0.0287  0.3450
  871MPD2    H712789   0.369   2.452  16.789 -0.1397 -1.2088 -1.5063
  872MPD2     C12790   1.264   0.367  14.012  0.3516 -0.3307  0.0938
  872MPD2    C112791   1.221   0.416  13.889 -0.2082 -0.9451 -0.1710
  872MPD2    C212792   1.084   0.395  13.854 -0.5451 -0.0479 -0.0567
  872MPD2    C312793   1.001   0.316  13.933  0.3288  0.1866  0.4385
  872MPD2    C412794   1.051   0.253  14.047  0.0097  0.1754 -0.3348
  872MPD2    C512795   1.183   0.287  14.082  0.2247 -0.0309  0.1801
  872MPD2     H12796   1.052   0.422  13.754  0.9324  0.4695 -0.3863
  872MPD2    H112797   0.993   0.191  14.115 -0.4454  0.0542 -0.8362
  872MPD2    H212798   1.368   0.381  14.039 -0.2231 -0.4263  2.3946
  872MPD2    H312799   1.221   0.242  14.173  0.3359 -1.0762 -0.3764
  872MPD2     N12800   0.861   0.303  13.916 -0.4297 -0.2478 -0.0709
  872MPD2    H512801   0.806   0.262  13.991  0.6448 -0.3630  0.6643
  872MPD2    N112802   1.302   0.484  13.798 -0.1857  0.1957 -0.3904
  872MPD2    H712803   1.261   0.522  13.714 -0.4861  0.0859 -0.2941
  873MPD2     C12804   2.412   0.769   0.786 -0.1189  0.0569 -0.2096
  873MPD2    C112805   2.408   0.693   0.898 -0.9387  0.3516  0.7071
  873MPD2    C212806   2.394   0.558   0.877  0.0151 -0.1987 -0.2899
  873MPD2    C312807   2.405   0.495   0.752  0.4582  0.1443  0.5560
  873MPD2    C412808   2.414   0.572   0.642  0.1060  0.1454  0.5011
  873MPD2    C512809   2.401   0.709   0.659  0.7050  0.5284 -0.1881
  873MPD2     H12810   2.395   0.490   0.961  0.5657  1.8316  1.3489
  873MPD2    H112811   2.407   0.537   0.540  1.2419 -3.1874  1.5645
  873MPD2    H212812   2.414   0.877   0.790 -1.6148  0.0765  0.0073
  873MPD2    H312813   2.379   0.774   0.575  2.9438 -0.1891 -1.3216
  873MPD2     N12814   2.398   0.354   0.727  0.1396  0.3735  0.1569
  873MPD2    H512815   2.354   0.329   0.639  4.0003  0.1594 -1.7102
  873MPD2    N112816   2.414   0.758   1.021 -0.0862  0.0585  0.4892
  873MPD2    H712817   2.408   0.859   1.026 -0.5337  0.0366  0.3801
  874MPD2     C12818   2.396   0.517  15.985  0.4160  0.5863  0.9554
  874MPD2    C112819   2.453   0.523  16.106  0.0598  0.7994  0.6205
  874MPD2    C212820   2.555   0.617  16.124  0.1578  0.0892  0.4618
  874MPD2    C312821   2.611   0.697  16.029 -0.2369  0.5630 -0.0107
  874MPD2    C412822   2.559   0.686  15.899  0.0708 -0.5204  0.1484
  874MPD2    C512823   2.451   0.596  15.881 -0.2001  0.0931 -0.3584
  874MPD2     H12824   2.591   0.643  16.223  1.4691  1.0077 -0.2601
  874MPD2    H112825   2.604   0.743  15.818 -2.7216  0.8229 -0.4653
  874MPD2    H212826   2.311   0.453  15.967 -0.5858  1.6014  2.0308
  874MPD2    H312827   2.423   0.588  15.777 -1.7053 -0.6737  0.0923
  874MPD2     N12828   2.728   0.767  16.055 -0.4188 -0.5392  0.0697
  874MPD2    H512829   2.756   0.760  16.153 -0.9220 -0.0015  0.2493
  874MPD2    N112830   2.402   0.436  16.204  0.8015  0.1806  0.6401
  874MPD2    H712831   2.362   0.350  16.168 -0.8251  1.0115  0.4672
  875MPD2     C12832   3.423   3.306  14.427 -0.0717  0.0990 -0.1547
  875MPD2    C112833   3.489   3.422  14.387  0.2163 -0.3296 -0.3546
  875MPD2    C212834   3.485   3.541  14.466  0.0579 -0.5844  0.5607
  875MPD2    C312835   3.439   3.534  14.595  0.2022  0.4798 -0.3215
  875MPD2    C412836   3.375   3.414  14.634 -0.3891  0.7057 -0.2422
  875MPD2    C512837   3.370   3.303  14.553  0.4426 -0.3533 -0.8988
  875MPD2     H12838   3.530   3.630  14.423 -1.6884 -0.5116 -1.1258
  875MPD2    H112839   3.310   3.413  14.721 -0.4966  0.6967 -0.3216
  875MPD2    H212840   3.412   3.219  14.364 -0.4814 -0.3288  0.5001
  875MPD2    H312841   3.307   3.222  14.587 -2.9125  2.3321 -0.7253
  875MPD2     N12842   3.441   3.628  14.693  0.2525  0.8465  0.3676
  875MPD2    H512843   3.422   3.605  14.790 -3.2792  0.7989 -0.3234
  875MPD2    N112844   3.536   3.437  14.254  0.2287  0.1897  0.4044
  875MPD2    H712845   3.556   3.529  14.216 -0.2478  0.4861  0.8646
  876MPD2     C12846   2.794   0.486  15.645  0.3670  0.0502  0.5379
  876MPD2    C112847   2.763   0.401  15.539  0.0800 -0.4070  0.2528
  876MPD2    C212848   2.713   0.278  15.566 -0.0908 -0.5368 -0.0200
  876MPD2    C312849   2.697   0.237  15.699 -0.4837  0.0536  0.3647
  876MPD2    C412850   2.722   0.321  15.807  0.1923  0.6651 -0.0439
  876MPD2    C512851   2.778   0.442  15.773  0.2100 -0.4207 -0.2617
  876MPD2     H12852   2.699   0.207  15.486  0.3886  1.1635 -1.6000
  876MPD2    H112853   2.725   0.291  15.911  1.3260  0.7907 -0.0427
  876MPD2    H212854   2.832   0.586  15.628  2.8809 -0.8680  0.7373
  876MPD2    H312855   2.817   0.501  15.855  0.8984  0.6716 -1.3820
  876MPD2     N12856   2.653   0.102  15.725  0.3936  0.6309  0.0522
  876MPD2    H512857   2.664   0.044  15.643  0.2080  0.3494  0.2273
  876MPD2    N112858   2.790   0.450  15.409 -0.5286  0.3318 -0.8958
  876MPD2    H712859   2.834   0.542  15.411 -0.1898  0.1700 -0.9274
  877MPD2     C12860   3.148   1.031  15.055 -0.0978  0.1081 -0.0243
  877MPD2    C112861   3.081   0.967  14.957  0.8717 -0.4169  0.5226
  877MPD2    C212862   3.082   1.014  14.830 -0.0219  0.7000 -0.2570
  877MPD2    C312863   3.154   1.126  14.793  0.2973 -0.9702  0.3521
  877MPD2    C412864   3.219   1.191  14.891  0.0025  0.3501  0.5069
  877MPD2    C512865   3.218   1.148  15.024 -0.8044 -0.3261  0.5637
  877MPD2     H12866   3.034   0.962  14.749  1.8591 -0.9921 -0.2940
  877MPD2    H112867   3.259   1.288  14.865  2.0185 -0.4705  0.5330
  877MPD2    H212868   3.144   0.992  15.156 -2.1662 -0.7827 -0.4570
  877MPD2    H312869   3.286   1.192  15.096 -1.7401 -2.0343  2.4908
  877MPD2     N12870   3.163   1.152  14.660  0.1406 -0.1337  0.2634
  877MPD2    H512871   3.121   1.091  14.590 -1.6310  2.7270 -1.1708
  877MPD2    N112872   3.011   0.848  14.976 -0.2412 -0.1756  0.5170
  877MPD2    H712873   2.971   0.814  14.889 -2.2897  1.4124  0.8384
  878MPD2     C12874   3.386   0.163  12.919 -0.2323  0.6236  0.9046
  878MPD2    C112875   3.357   0.292  12.953  1.4113 -0.6856 -0.3934
  878MPD2    C212876   3.381   0.340  13.082 -0.2567 -1.2087  0.3035
  878MPD2    C312877   3.435   0.258  13.175  0.2257 -0.5453 -0.4077
  878MPD2    C412878   3.509   0.149  13.126 -0.3738 -0.0814 -0.4700
  878MPD2    C512879   3.469   0.097  13.006 -0.0361  0.6691  0.4465
  878MPD2     H12880   3.361   0.444  13.107 -1.7815 -1.5566  0.5717
  878MPD2    H112881   3.559   0.087  13.200 -0.5663  0.7064  0.3250
  878MPD2    H212882   3.375   0.109  12.826  0.7354  2.3584 -0.2082
  878MPD2    H312883   3.503   4.717  12.979  0.7457  1.3029 -0.9613
  878MPD2     N12884   3.446   0.289  13.314 -0.0262  0.4646 -0.1653
  878MPD2    H512885   3.411   0.377  13.350  1.5103  0.5209  1.1753
  878MPD2    N112886   3.274   0.359  12.853 -0.1764  0.1760 -0.2061
  878MPD2    H712887   3.262   0.318  12.761  0.1495  2.9812 -1.5071
  879MPD2     C12888   2.997   1.633  17.264 -0.3545 -0.1783  0.7214
  879MPD2    C112889   2.990   1.513  17.331 -0.0111 -0.1168 -0.5397
  879MPD2    C212890   2.980   1.401  17.254  0.4089  0.2965  0.1596
  879MPD2    C312891   2.984   1.398  17.121 -0.3097 -0.5530 -0.0255
  879MPD2    C412892   2.987   1.516  17.053  0.1786 -0.8471 -1.0846
  879MPD2    C512893   2.992   1.636  17.126  0.1412 -0.1500  0.7359
  879MPD2     H12894   2.997   1.308  17.308 -1.6085  0.7200  1.4928
  879MPD2    H112895   2.995   1.516  16.945  2.0197  0.2861 -0.9427
  879MPD2    H212896   2.971   1.726  17.313 -1.9040  0.9277 -2.2173
  879MPD2    H312897   2.991   1.724  17.064  0.6522 -0.6700 -0.0089
  879MPD2     N12898   2.978   1.281  17.042  0.0606 -0.6888 -0.2338
  879MPD2    H512899   2.983   1.306  16.943  0.7392  0.3849  0.0668
  879MPD2    N112900   2.964   1.521  17.474  0.4254 -0.1561  0.6777
  879MPD2    H712901   2.951   1.615  17.512  1.6728  0.4814 -0.4818
  880MPD2     C12902   4.491   3.002   0.239 -0.2863  0.6186 -0.4630
  880MPD2    C112903   4.440   3.079   0.343 -0.5166 -0.4028  0.6421
  880MPD2    C212904   4.439   3.015   0.464  0.5954 -0.1128 -0.1631
  880MPD2    C312905   4.471   2.881   0.477 -0.2764 -0.3658  0.7096
  880MPD2    C412906   4.515   2.804   0.374 -0.1832  0.5529 -0.0041
  880MPD2    C512907   4.534   2.873   0.256 -0.1698 -0.3678  0.2376
  880MPD2     H12908   4.401   3.066   0.552 -0.3457  0.1414 -0.7199
  880MPD2    H112909   4.539   2.699   0.387  0.3742  0.6503 -0.2683
  880MPD2    H212910   4.496   3.042   0.139 -0.7575 -1.0026 -1.1357
  880MPD2    H312911   4.570   2.822   0.168  0.5123  0.4490  0.0365
  880MPD2     N12912   4.459   2.825   0.610  0.3532  0.0800 -0.0160
  880MPD2    H512913   4.417   2.883   0.682  0.0701 -0.9669  0.6622
  880MPD2    N112914   4.400   3.212   0.312 -0.4488  0.3834  0.0821
  880MPD2    H712915   4.402   3.240   0.214 -0.3447  1.7394  0.4685
  881MPD2     C12916   4.170   3.848  17.275 -0.3073 -0.1198 -0.2190
  881MPD2    C112917   4.238   3.722  17.302  0.6949 -0.3970 -0.6997
  881MPD2    C212918   4.223   3.670  17.427 -0.2105  0.7205 -0.2511
  881MPD2    C312919   4.188   3.751  17.532 -0.1553 -0.4429  0.4161
  881MPD2    C412920   4.148   3.881  17.509  0.1467  1.1298  0.3669
  881MPD2    C512921   4.147   3.931  17.383 -0.3346 -0.1619 -0.7439
  881MPD2     H12922   4.246   3.566  17.448 -0.0127  0.3203 -2.5162
  881MPD2    H112923   4.106   3.946  17.586 -1.7143  1.3344 -0.8023
  881MPD2    H212924   4.156   3.891  17.177  0.3344 -0.1101 -0.3054
  881MPD2    H312925   4.099   4.025  17.361  1.2143  0.5007 -1.2874
  881MPD2     N12926   4.189   3.711  17.668  0.0757 -0.0237 -0.3865
  881MPD2    H512927   4.187   3.790   0.052  2.8108 -0.9962  0.8885
  881MPD2    N112928   4.292   3.649  17.197 -0.6978  0.5665 -0.0355
  881MPD2    H712929   4.292   3.689  17.104 -3.1594 -1.5871 -0.9414
  882MPD2     C12930   3.074   0.794  13.928 -0.6544 -0.0032 -0.2550
  882MPD2    C112931   3.025   0.849  14.043 -0.0441 -0.9282 -0.2198
  882MPD2    C212932   2.892   0.831  14.066  0.2543  0.3306 -0.3894
  882MPD2    C312933   2.809   0.766  13.978  0.6376  0.0014 -0.7703
  882MPD2    C412934   2.861   0.712  13.864 -0.2614  0.7081  0.5749
  882MPD2    C512935   2.991   0.725  13.840 -0.1284  0.7244  0.7916
  882MPD2     H12936   2.850   0.871  14.157 -0.6706 -0.3680 -0.5146
  882MPD2    H112937   2.806   0.637  13.809  2.9405 -0.4336 -1.0966
  882MPD2    H212938   3.179   0.798  13.903 -0.6241 -1.5504 -0.3570
  882MPD2    H312939   3.028   0.669  13.755  0.1693 -0.2439  1.5678
  882MPD2     N12940   2.665   0.743  14.006  0.1492  0.6305 -0.2375
  882MPD2    H512941   2.618   0.674  13.949  0.5545 -0.6799  1.0301
  882MPD2    N112942   3.114   0.921  14.126 -0.1027 -0.0933  0.0940
  882MPD2    H712943   3.211   0.909  14.101  0.1427 -1.0302  1.4973
  883MPD2     C12944   0.156   0.939  15.986 -0.1675  0.1016 -0.1260
  883MPD2    C112945   0.119   0.823  15.920 -0.1927 -0.0229 -0.0595
  883MPD2    C212946   0.184   0.711  15.948 -0.5587  0.3461 -0.1025
  883MPD2    C312947   0.282   0.704  16.046  0.5328 -0.2165  0.1525
  883MPD2    C412948   0.319   0.821  16.109 -0.6766  0.3852 -0.6843
  883MPD2    C512949   0.254   0.939  16.090  0.1719  0.4424  0.0090
  883MPD2     H12950   0.145   0.614  15.919 -0.8436 -0.1413  1.8700
  883MPD2    H112951   0.394   0.807  16.186 -0.5836  0.1109 -0.8215
  883MPD2    H212952   0.105   1.033  15.970  1.9278  1.2150 -0.2553
  883MPD2    H312953   0.271   1.026  16.152  1.7095  0.3666 -0.3020
  883MPD2     N12954   0.338   0.571  16.062 -0.2314  0.0777  0.3173
  883MPD2    H512955   0.295   0.488  16.021  0.5548  0.9281 -2.2451
  883MPD2    N112956   0.020   0.826  15.819  0.1439 -0.3525  0.0315
  883MPD2    H712957   4.714   0.738  15.775  0.2612 -0.4776  0.2157
  884MPD2     C12958   1.825   1.107  14.958 -0.4110 -0.3364  0.0687
  884MPD2    C112959   1.795   1.242  14.942 -0.4957 -0.3419  0.1097
  884MPD2    C212960   1.663   1.277  14.918 -1.0351 -0.1071  0.1700
  884MPD2    C312961   1.562   1.189  14.906 -0.0937 -0.7344 -0.5245
  884MPD2    C412962   1.596   1.057  14.920 -0.0330 -0.0166 -0.1177
  884MPD2    C512963   1.724   1.014  14.940 -0.5579  0.4183  0.3956
  884MPD2     H12964   1.631   1.381  14.910 -1.2553 -0.1770  0.1398
  884MPD2    H112965   1.523   0.976  14.928  1.6235 -1.2382  2.4914
  884MPD2    H212966   1.918   1.069  14.998 -0.0029 -0.0478 -0.6205
  884MPD2    H312967   1.754   0.912  14.962 -2.0960 -0.5686 -2.0413
  884MPD2     N12968   1.430   1.229  14.879  0.2456  0.1947  0.2088
  884MPD2    H512969   1.426   1.325  14.844  1.4954  0.1037 -0.1591
  884MPD2    N112970   1.889   1.342  14.971  0.4177  0.0485 -0.0999
  884MPD2    H712971   1.849   1.435  14.964  0.0311  0.0087  1.5950
  885MPD2     C12972   4.276   1.624  17.647  0.8135 -0.0902  0.3138
  885MPD2    C112973   4.362   1.727  17.634  0.1864 -0.7319 -0.0714
  885MPD2    C212974   4.441   1.740  17.517 -0.0062 -0.3555  0.0757
  885MPD2    C312975   4.426   1.648  17.414 -0.6045  0.4906 -0.1578
  885MPD2    C412976   4.336   1.550  17.424 -0.8034  0.7264  0.4248
  885MPD2    C512977   4.270   1.529  17.542  0.0628  0.4793 -0.0746
  885MPD2     H12978   4.513   1.821  17.504 -0.1958 -0.1353  0.3994
  885MPD2    H112979   4.319   1.481  17.343 -1.2222  2.7560 -1.2091
  885MPD2    H212980   4.205   1.607   0.046  3.5673 -2.3364  2.3058
  885MPD2    H312981   4.209   1.440  17.548  0.2660  0.2944 -0.7667
  885MPD2     N12982   4.508   1.663  17.299  0.1501 -0.6714  0.5117
  885MPD2    H512983   4.541   1.756  17.274 -1.5556 -0.2535 -0.1534
  885MPD2    N112984   4.370   1.815   0.064  0.1909 -0.1305  0.2977
  885MPD2    H712985   4.303   1.803   0.140 -0.0904  1.2711  0.2668
  886MPD2     C12986   1.265   4.372  15.075 -0.3730 -0.2480 -0.0592
  886MPD2    C112987   1.397   4.390  15.094 -0.6901 -0.0408 -0.1959
  886MPD2    C212988   1.470   4.467  15.005 -0.5370  0.5759  0.2324
  886MPD2    C312989   1.405   4.519  14.892  1.0959  0.6163 -0.3316
  886MPD2    C412990   1.269   4.508  14.881  0.1503 -0.0002 -0.4498
  886MPD2    C512991   1.200   4.433  14.975  0.0300  0.8567  0.1160
  886MPD2     H12992   1.577   4.479  15.018 -0.2539 -0.3295 -1.2995
  886MPD2    H112993   1.214   4.546  14.796 -0.9549  0.9036  0.6741
  886MPD2    H212994   1.193   4.336  15.149 -0.4625  1.1019  0.5057
  886MPD2    H312995   1.092   4.426  14.975 -0.0092  1.5758 -0.9317
  886MPD2     N12996   1.466   4.582  14.780  0.4559  0.3963 -0.0886
  886MPD2    H512997   1.409   4.620  14.706  0.3657  0.2792 -0.0801
  886MPD2    N112998   1.452   4.333  15.210 -0.3133  0.7398  0.1166
  886MPD2    H712999   1.551   4.344  15.228  0.6049 -3.9059 -2.0361
  887MPD2     C13000   2.134   4.239  15.465 -0.9395 -0.0481 -0.0313
  887MPD2    C113001   2.029   4.325  15.432  0.2218  0.3643 -0.0550
  887MPD2    C213002   2.065   4.448  15.378 -0.2456 -0.2059  0.7676
  887MPD2    C313003   2.199   4.480  15.362 -0.2311  0.3773  0.4247
  887MPD2    C413004   2.301   4.394  15.408  0.5256 -0.1602 -0.2413
  887MPD2    C513005   2.267   4.272  15.466 -0.6104  0.2337  0.6525
  887MPD2     H13006   1.984   4.510  15.342 -0.3006 -0.4629  0.4558
  887MPD2    H113007   2.404   4.414  15.379  0.4310 -1.7127 -1.6625
  887MPD2    H213008   2.120   4.143  15.514 -2.0670  0.4161  0.5552
  887MPD2    H313009   2.338   4.195  15.494  0.0530  1.0127  1.1307
  887MPD2     N13010   2.228   4.594  15.283  0.2964  0.0899 -0.2172
  887MPD2    H513011   2.153   4.651  15.244  0.2349 -0.9270 -1.5912
  887MPD2    N113012   1.890   4.298  15.443  0.3671 -0.6143 -0.1263
  887MPD2    H713013   1.822   4.357  15.395  0.3705 -0.0273  0.5915
  888MPD2     C13014   4.021   0.437  15.349 -0.1207 -0.0084 -0.0911
  888MPD2    C113015   3.907   0.475  15.283  0.4080 -0.2602 -0.6811
  888MPD2    C213016   3.916   0.570  15.183  0.1186 -0.3268 -0.5017
  888MPD2    C313017   4.037   0.623  15.145  0.1925  0.6117 -0.5999
  888MPD2    C413018   4.149   0.593  15.213  0.0483 -0.6394  0.6627
  888MPD2    C513019   4.134   0.504  15.318  0.6067  0.2050  0.2199
  888MPD2     H13020   3.830   0.615  15.134  1.0769  1.2257 -0.7573
  888MPD2    H113021   4.251   0.625  15.193 -0.1778  1.8740  3.4655
  888MPD2    H213022   4.029   0.372  15.435  0.8265 -1.2846 -1.1584
  888MPD2    H313023   4.225   0.474  15.368  1.5239 -0.2537 -1.7583
  888MPD2     N13024   4.042   0.707  15.036 -0.7007  0.7669 -0.0263
  888MPD2    H513025   3.958   0.721  14.981  0.5386 -0.0380 -2.1441
  888MPD2    N113026   3.782   0.418  15.330  0.2639  0.2343  0.3919
  888MPD2    H713027   3.699   0.464  15.295  0.4071  0.9325  0.9468
  889MPD2     C13028   3.513   4.521  12.529 -0.6283  0.2179  0.5333
  889MPD2    C113029   3.524   4.505  12.666 -0.1008  0.1871  0.1140
  889MPD2    C213030   3.605   4.599  12.718  0.7274  0.0534  0.1230
  889MPD2    C313031   3.616   0.007  12.668 -0.4260 -0.1535  0.4180
  889MPD2    C413032   3.574   0.026  12.536 -0.1056  0.8973  0.2117
  889MPD2    C513033   3.537   4.635  12.465  0.8925 -0.5161  0.0615
  889MPD2     H13034   3.637   4.596  12.822 -0.2913 -0.6975  0.4211
  889MPD2    H113035   3.584   0.116  12.476 -0.2272  0.2671 -0.7639
  889MPD2    H213036   3.453   4.447  12.476 -0.6353  0.1434  0.6458
  889MPD2    H313037   3.510   4.637  12.360  2.6966  0.3174 -0.3891
  889MPD2     N13038   3.683   0.100  12.750 -0.1787 -0.6418 -0.3572
  889MPD2    H513039   3.731   0.065  12.832  2.9766  1.2017 -1.4479
  889MPD2    N113040   3.492   4.379  12.721 -0.0052  0.6584 -0.0947
  889MPD2    H713041   3.422   4.318  12.679 -0.4121 -0.0060  1.5788
  890MPD2     C13042   2.196   1.743  14.717  0.6306 -0.7665 -1.0170
  890MPD2    C113043   2.311   1.779  14.789 -0.7978 -0.1267 -0.0497
  890MPD2    C213044   2.404   1.681  14.822  0.7668  0.0287  0.5283
  890MPD2    C313045   2.387   1.549  14.788  0.8461 -0.6603 -0.6763
  890MPD2    C413046   2.258   1.514  14.747  0.0622 -0.8762 -0.2275
  890MPD2    C513047   2.168   1.608  14.710 -0.0164 -0.4688 -0.2756
  890MPD2     H13048   2.495   1.703  14.878  0.8156  0.0910  0.4260
  890MPD2    H113049   2.224   1.411  14.745 -0.1588 -0.8391  1.4288
  890MPD2    H213050   2.116   1.805  14.679  0.5747 -0.9720 -1.2387
  890MPD2    H313051   2.081   1.588  14.649  0.0910  0.4263 -0.7147
  890MPD2     N13052   2.485   1.455  14.825 -0.2016  0.3278  0.1642
  890MPD2    H513053   2.565   1.493  14.876 -1.2113  1.7345  0.6835
  890MPD2    N113054   2.327   1.911  14.835 -0.5860 -0.3535 -0.7371
  890MPD2    H713055   2.268   1.985  14.798 -3.5423 -2.0869  0.4850
  891MPD2     C13056   0.687   4.548  16.409  0.0765  0.2722 -0.7043
  891MPD2    C113057   0.613   4.583  16.527 -0.0330  0.0757 -0.2220
  891MPD2    C213058   0.679   4.598  16.644  0.9390 -0.4000 -0.0793
  891MPD2    C313059   0.819   4.593  16.643 -0.1856  0.6496 -0.0824
  891MPD2    C413060   0.889   4.566  16.526  0.2974 -0.0320 -0.4750
  891MPD2    C513061   0.820   4.548  16.410 -0.4505 -0.4061 -0.4243
  891MPD2     H13062   0.631   4.621  16.738 -1.3306  0.0196 -1.3395
  891MPD2    H113063   0.997   4.573  16.521  0.2871 -0.9937 -1.7602
  891MPD2    H213064   0.637   4.531  16.315 -1.4283  2.1736 -0.2637
  891MPD2    H313065   0.877   4.537  16.318  0.2342  2.3511 -0.3191
  891MPD2     N13066   0.883   4.611  16.771 -0.4212 -0.1043  1.1416
  891MPD2    H513067   0.824   4.642  16.847  0.1167  1.5504  0.8797
  891MPD2    N113068   0.472   4.571  16.515  0.1418 -0.2346 -0.2387
  891MPD2    H713069   0.436   4.559  16.421  0.1850 -0.5464 -0.2167
  892MPD2     C13070   2.040   1.304  14.507  0.4498  0.3535 -0.5562
  892MPD2    C113071   1.960   1.194  14.475 -0.0746 -1.2761 -0.4100
  892MPD2    C213072   2.018   1.091  14.410  0.4865  0.3317  0.1014
  892MPD2    C313073   2.155   1.082  14.399  0.5723  0.5997 -0.1379
  892MPD2    C413074   2.233   1.185  14.434 -0.0066 -0.5565  0.2542
  892MPD2    C513075   2.176   1.298  14.492 -0.5171 -0.3763 -0.3283
  892MPD2     H13076   1.954   1.005  14.394 -0.8042  1.7490 -2.4352
  892MPD2    H113077   2.340   1.180  14.422 -0.1316 -1.6251 -0.4148
  892MPD2    H213078   1.999   1.396  14.547  1.3787 -0.6059  2.6136
  892MPD2    H313079   2.232   1.385  14.527 -1.6579  0.2582 -0.0738
  892MPD2     N13080   2.220   0.969  14.343  0.2647 -0.4881 -0.0221
  892MPD2    H513081   2.319   0.976  14.321  0.3903  0.5381  0.8607
  892MPD2    N113082   1.820   1.194  14.502  0.1927  0.0776 -0.0757
  892MPD2    H713083   1.777   1.102  14.497 -1.1789  0.6289  1.7494
  893MPD2     C13084   4.006   3.937   2.096  0.3778  0.1183 -0.5333
  893MPD2    C113085   4.127   3.984   2.054  0.1315  0.0825  0.0958
  893MPD2    C213086   4.233   3.889   2.046 -0.1409 -0.4511 -0.2015
  893MPD2    C313087   4.211   3.752   2.072  0.4404 -0.3962 -0.2901
  893MPD2    C413088   4.082   3.715   2.111 -0.2938 -0.0182 -0.1329
  893MPD2    C513089   3.984   3.805   2.122  0.1543 -0.5612 -0.2011
  893MPD2     H13090   4.331   3.924   2.016 -1.3098  1.1163 -2.2126
  893MPD2    H113091   4.050   3.616   2.141 -1.6274 -0.0629 -1.7434
  893MPD2    H213092   3.928   4.012   2.108 -1.0626 -1.9004  2.7315
  893MPD2    H313093   3.889   3.757   2.140  0.2936 -0.5118  0.6679
  893MPD2     N13094   4.315   3.663   2.076 -0.0334  0.6130 -0.3263
  893MPD2    H513095   4.298   3.565   2.092  0.4693  0.2710 -1.8165
  893MPD2    N113096   4.145   4.119   2.044 -0.9593  0.0892 -0.3712
  893MPD2    H713097   4.079   4.189   2.075 -0.2331  1.9589 -3.0094
  894MPD2     C13098   1.686   1.911   0.979  0.1538 -0.0459 -0.5201
  894MPD2    C113099   1.683   2.038   1.028 -0.1315  0.0971  0.2046
  894MPD2    C213100   1.722   2.131   0.934  0.4558  0.6138  0.0747
  894MPD2    C313101   1.751   2.107   0.807  0.2601 -0.3021 -0.1150
  894MPD2    C413102   1.737   1.981   0.755  0.7050  0.7751  0.2663
  894MPD2    C513103   1.713   1.886   0.841 -0.3982  0.1086  0.2190
  894MPD2     H13104   1.737   2.233   0.967 -0.2562  0.7134  0.0809
  894MPD2    H113105   1.769   1.949   0.656 -1.4569 -0.6229  0.0263
  894MPD2    H213106   1.670   1.828   1.048 -0.9892 -2.6356 -3.8778
  894MPD2    H313107   1.712   1.784   0.804  2.4402  1.4300 -3.5681
  894MPD2     N13108   1.785   2.223   0.728  0.1698 -0.0478 -0.4430
  894MPD2    H513109   1.790   2.314   0.772 -3.2753  0.0922 -0.3396
  894MPD2    N113110   1.641   2.073   1.154 -0.0956 -0.0704  0.2040
  894MPD2    H713111   1.620   2.173   1.162 -0.4288 -0.1434  0.2580
  895MPD2     C13112   1.518   0.321  13.141 -0.6146 -0.7009  0.1325
  895MPD2    C113113   1.387   0.311  13.178  0.6441 -0.4591  0.5527
  895MPD2    C213114   1.337   0.192  13.206 -0.3299  0.6532  0.2653
  895MPD2    C313115   1.418   0.081  13.219 -0.1574 -0.0326 -0.2600
  895MPD2    C413116   1.557   0.091  13.199  1.1284  0.0015  0.1144
  895MPD2    C513117   1.596   0.208  13.144  0.9278 -0.0333 -0.1081
  895MPD2     H13118   1.232   0.190  13.232  0.5312  0.1482  3.8149
  895MPD2    H113119   1.623   0.006  13.191 -0.4680 -1.2667  0.5351
  895MPD2    H213120   1.559   0.415  13.104 -1.2281 -1.3660 -2.2044
  895MPD2    H313121   1.699   0.219  13.109  0.9424  2.1358  0.6901
  895MPD2     N13122   1.355   4.676  13.243  0.1044 -0.2009  0.2322
  895MPD2    H513123   1.254   4.674  13.255  0.0266  0.6004 -0.2980
  895MPD2    N113124   1.305   0.423  13.180  0.1557  0.5296 -0.2991
  895MPD2    H713125   1.207   0.397  13.190  0.6207 -1.0667  0.2261
  896MPD2     C13126   2.883   3.354   1.471 -0.0557 -0.4656  0.3765
  896MPD2    C113127   2.926   3.250   1.386  0.4070  0.2146  0.4649
  896MPD2    C213128   2.836   3.196   1.296 -0.4351 -0.3391 -0.0052
  896MPD2    C313129   2.708   3.243   1.291 -0.0322 -0.1656 -0.0230
  896MPD2    C413130   2.668   3.352   1.369 -0.2806  0.0137 -0.2233
  896MPD2    C513131   2.753   3.401   1.461 -0.3807 -0.0886  1.0854
  896MPD2     H13132   2.852   3.106   1.237  0.2392  0.3020 -0.8013
  896MPD2    H113133   2.579   3.409   1.341  1.3279  2.8772  0.4552
  896MPD2    H213134   2.951   3.396   1.544 -1.6463  0.7843  1.1489
  896MPD2    H313135   2.731   3.486   1.525 -3.1791  0.7080 -0.9427
  896MPD2     N13136   2.624   3.185   1.199  0.4139 -0.2639 -0.1532
  896MPD2    H513137   2.665   3.109   1.146 -1.4611  0.4072 -2.5513
  896MPD2    N113138   3.057   3.201   1.412 -0.5413  0.0524 -0.4476
  896MPD2    H713139   3.112   3.244   1.485 -0.0225  0.7404 -1.2338
  897MPD2     C13140   0.319   4.263  10.753 -1.0188 -0.1554 -0.3153
  897MPD2    C113141   0.304   4.260  10.623 -0.0825  0.2001 -0.1847
  897MPD2    C213142   0.173   4.246  10.567  0.0693 -0.4817 -0.2845
  897MPD2    C313143   0.060   4.231  10.645  0.3679  0.1693 -0.2441
  897MPD2    C413144   0.077   4.228  10.777 -0.2377 -0.2297 -0.5283
  897MPD2    C513145   0.205   4.249  10.832 -0.1738 -0.4368  0.7891
  897MPD2     H13146   0.157   4.260  10.461 -0.0978 -0.0672 -0.2048
  897MPD2    H113147   4.712   4.220  10.844 -1.2550 -0.6601 -1.8608
  897MPD2    H213148   0.417   4.265  10.800 -0.7389 -0.9805 -0.8861
  897MPD2    H313149   0.213   4.272  10.938  0.6084 -0.4477  0.7298
  897MPD2     N13150   4.653   4.205  10.591 -0.2416 -0.1011  0.1817
  897MPD2    H513151   4.571   4.182  10.647 -1.7547 -0.6033 -2.1917
  897MPD2    N113152   0.414   4.284  10.537  0.0331  0.2551  0.1803
  897MPD2    H713153   0.503   4.308  10.579  1.4164 -1.2249 -1.9111
  898MPD2     C13154   0.956   0.682  17.504 -0.5541 -0.1026 -0.2117
  898MPD2    C113155   1.053   0.774  17.533  0.0028  0.2669 -0.3752
  898MPD2    C213156   1.019   0.895  17.596 -0.5081 -0.3329  0.3765
  898MPD2    C313157   0.886   0.918  17.642 -0.2506  0.0187 -0.1635
  898MPD2    C413158   0.800   0.806  17.639 -0.4306 -0.7684 -0.1436
  898MPD2    C513159   0.833   0.692  17.567 -0.0713 -0.5041  0.5432
  898MPD2     H13160   1.095   0.973  17.602  0.7100 -1.4335 -0.8558
  898MPD2    H113161   0.701   0.818   0.000  0.0387  0.3107  0.6640
  898MPD2    H213162   0.985   0.595  17.447 -2.6479 -1.0762  0.1842
  898MPD2    H313163   0.760   0.614  17.554 -0.5000 -0.4159  2.3869
  898MPD2     N13164   0.853   1.050   0.013  0.6180  0.2354 -0.1863
  898MPD2    H513165   0.929   1.117   0.004  1.3656 -0.7571 -1.1848
  898MPD2    N113166   1.187   0.768  17.493  0.3651 -0.1941  0.9116
  898MPD2    H713167   1.254   0.821  17.547  1.0507 -0.1055 -0.0164
  899MPD2     C13168   2.175   0.946  17.309  0.6620  0.1663  0.0529
  899MPD2    C113169   2.265   0.994  17.397 -0.4797 -0.0730  0.1851
  899MPD2    C213170   2.250   0.967  17.536  0.0945  0.2541 -0.4339
  899MPD2    C313171   2.126   0.917  17.580 -0.2719  0.2888  0.2850
  899MPD2    C413172   2.024   0.884  17.486  0.0214 -0.0730  0.1069
  899MPD2    C513173   2.054   0.891  17.353  0.5105 -0.3718 -0.6831
  899MPD2     H13174   2.321   1.003  17.609 -2.1049  1.3828  1.1377
  899MPD2    H113175   1.935   0.828  17.512 -1.4899  2.8222  1.1718
  899MPD2    H213176   2.198   0.951  17.204  1.2132  2.2514  0.2630
  899MPD2    H313177   1.988   0.840  17.283  0.0844  0.7099 -1.0704
  899MPD2     N13178   2.092   0.893   0.035 -0.3057 -0.6838 -0.1871
  899MPD2    H513179   2.000   0.855   0.054 -0.8682  2.4697  3.4655
  899MPD2    N113180   2.383   1.052  17.342  0.5922 -0.2851  0.2899
  899MPD2    H713181   2.392   1.057  17.241  1.6703 -0.4290  0.3761
  900MPD2     C13182   2.075   2.978  12.243  0.9153  0.2864 -0.1128
  900MPD2    C113183   1.986   2.873  12.229 -0.0536  0.2711  0.3411
  900MPD2    C213184   1.885   2.891  12.138 -0.5364  0.3327  0.0795
  900MPD2    C313185   1.861   3.009  12.077  0.3888 -0.4975 -0.5161
  900MPD2    C413186   1.951   3.113  12.090 -0.1766  0.5193 -0.0889
  900MPD2    C513187   2.054   3.098  12.181  0.5240  0.1497 -0.1471
  900MPD2     H13188   1.807   2.816  12.126 -0.1361 -0.3886  2.0549
  900MPD2    H113189   1.934   3.210  12.044  1.4199 -0.0594 -1.9149
  900MPD2    H213190   2.158   2.975  12.313  0.3788 -0.3716  0.5100
  900MPD2    H313191   2.119   3.183  12.196  0.3444 -0.1855  2.4984
  900MPD2     N13192   1.742   3.016  12.007 -0.9996  0.7502  0.1121
  900MPD2    H513193   1.683   2.934  11.995  0.7432 -0.3852 -0.6662
  900MPD2    N113194   2.005   2.754  12.300  0.3104  0.3692  0.3684
  900MPD2    H713195   2.083   2.733  12.362  0.3849 -0.0744  0.1333
  901MPD2     C13196   2.549   1.985  12.598  0.1712  0.0837 -0.3772
  901MPD2    C113197   2.440   1.929  12.542  0.1539 -0.3142  0.8797
  901MPD2    C213198   2.332   2.020  12.529  0.3700  0.3262  0.6570
  901MPD2    C313199   2.337   2.153  12.573  0.2335 -0.0487  0.1627
  901MPD2    C413200   2.453   2.202  12.639  0.5039  0.5373  0.4821
  901MPD2    C513201   2.561   2.114  12.641  0.1321 -0.1982  0.2746
  901MPD2     H13202   2.241   1.994  12.475  0.0825 -0.2915  1.4418
  901MPD2    H113203   2.455   2.306  12.667 -1.0234  0.5305  0.6406
  901MPD2    H213204   2.639   1.930  12.622 -0.3524 -0.9718 -0.8246
  901MPD2    H313205   2.652   2.155  12.683  2.4635 -4.4153 -0.5586
  901MPD2     N13206   2.222   2.237  12.551 -0.1858  0.5147  0.0250
  901MPD2    H513207   2.148   2.182  12.509  0.5792  0.4886 -1.2989
  901MPD2    N113208   2.433   1.789  12.522 -0.3851 -0.3716 -0.2813
  901MPD2    H713209   2.514   1.740  12.559 -0.2375  0.6895  0.8310
  902MPD2     C13210   1.553   0.683  12.859  0.2859 -0.3543  0.1734
  902MPD2    C113211   1.604   0.767  12.762 -0.0411  0.3290  0.1703
  902MPD2    C213212   1.600   0.733  12.628  0.8716  0.1996  0.4230
  902MPD2    C313213   1.558   0.604  12.592 -0.4810  0.9072  0.5468
  902MPD2    C413214   1.524   0.520  12.694  0.0405 -0.2192  0.0493
  902MPD2    C513215   1.517   0.559  12.826 -0.3995  0.4703 -0.0428
  902MPD2     H13216   1.634   0.794  12.544  0.5974 -0.3517 -0.0879
  902MPD2    H113217   1.489   0.424  12.659 -0.1921  0.4871 -1.6664
  902MPD2    H213218   1.555   0.700  12.967 -1.7695 -3.6779  0.7224
  902MPD2    H313219   1.480   0.496  12.905  0.9039  0.2580  0.3924
  902MPD2     N13220   1.552   0.562  12.452 -0.0571  0.3289 -0.7076
  902MPD2    H513221   1.546   0.462  12.433  1.6464  0.2545 -0.8198
  902MPD2    N113222   1.618   0.901  12.810  0.8132 -0.2963  0.0304
  902MPD2    H713223   1.592   0.929  12.904 -0.5465 -3.1116  0.5109
  903MPD2     C13224   1.297   1.010  11.879  0.6318 -0.3560  0.5921
  903MPD2    C113225   1.255   0.879  11.876  0.1470 -0.2008  0.1065
  903MPD2    C213226   1.137   0.847  11.805  0.1129 -0.9071  0.2641
  903MPD2    C313227   1.069   0.950  11.729 -0.3530  0.2523 -0.8818
  903MPD2    C413228   1.126   1.074  11.733 -0.3974  0.4717 -0.5676
  903MPD2    C513229   1.241   1.107  11.801 -0.2349 -0.3652  0.2057
  903MPD2     H13230   1.105   0.744  11.797 -0.0353 -0.8948  0.7067
  903MPD2    H113231   1.083   1.168  11.701 -0.2855  0.7665  0.1495
  903MPD2    H213232   1.391   1.041  11.923  1.5954  0.1831 -1.8374
  903MPD2    H313233   1.274   1.210  11.810 -2.2075  0.4050 -1.4227
  903MPD2     N13234   0.954   0.909  11.652  0.6516 -0.0909 -0.1436
  903MPD2    H513235   0.917   0.816  11.664 -0.3783  0.1847 -1.1696
  903MPD2    N113236   1.339   0.789  11.944  0.1962 -0.4182 -0.2040
  903MPD2    H713237   1.426   0.830  11.976 -0.5960  1.0731 -0.0003
  904MPD2     C13238   0.925   4.463  13.556  0.2394 -0.5711 -0.5940
  904MPD2    C113239   0.893   4.426  13.687  0.5040 -0.0218 -0.5382
  904MPD2    C213240   0.987   4.410  13.784  0.4548 -0.4417 -0.0138
  904MPD2    C313241   1.123   4.429  13.753 -0.9210 -0.1435 -0.5677
  904MPD2    C413242   1.154   4.477  13.628 -0.1112 -0.4853  1.1329
  904MPD2    C513243   1.054   4.510  13.537 -0.3282  0.1561  0.6301
  904MPD2     H13244   0.957   4.387  13.886 -0.3216 -0.2419 -0.1984
  904MPD2    H113245   1.258   4.490  13.600  0.3888 -2.3864  2.0911
  904MPD2    H213246   0.847   4.479  13.483  0.2361  1.4256 -0.1516
  904MPD2    H313247   1.082   4.537  13.436 -3.5708 -0.3518 -0.4136
  904MPD2     N13248   1.226   4.396  13.849  0.2361  0.2764 -0.5554
  904MPD2    H513249   1.190   4.390  13.944 -2.0034 -0.3101 -1.4249
  904MPD2    N113250   0.757   4.425  13.721 -0.0301  0.0741 -0.1118
  904MPD2    H713251   0.726   4.453  13.813 -2.3016  0.1538 -0.8866
  905MPD2     C13252   0.526   4.186  13.202 -0.1353 -0.1445 -0.3965
  905MPD2    C113253   0.572   4.319  13.206 -0.6395  0.6357  0.0370
  905MPD2    C213254   0.702   4.342  13.167  0.2625 -0.3769  0.0190
  905MPD2    C313255   0.789   4.243  13.133  0.5220 -0.2161  0.4820
  905MPD2    C413256   0.737   4.116  13.124  0.2965 -0.2314  0.4819
  905MPD2    C513257   0.606   4.088  13.147 -0.0703 -0.0351 -0.6933
  905MPD2     H13258   0.723   4.448  13.158  0.1229 -0.3559 -0.0765
  905MPD2    H113259   0.805   4.039  13.090 -2.1239 -1.9378 -0.5524
  905MPD2    H213260   0.424   4.155  13.221  0.1177 -1.0018 -0.4521
  905MPD2    H313261   0.564   3.988  13.146 -0.3788  0.0859 -0.0522
  905MPD2     N13262   0.932   4.259  13.129  0.5083  0.1344  0.2129
  905MPD2    H513263   0.978   4.169  13.134 -2.6291 -1.5712 -1.3763
  905MPD2    N113264   0.496   4.416  13.281 -0.7358  0.4992  0.2128
  905MPD2    H713265   0.410   4.381  13.322 -0.5041 -1.8928 -1.3520
  906MPD2     C13266   3.354   4.280  10.987  0.0812  0.2987  0.8366
  906MPD2    C113267   3.305   4.180  10.912  0.4726  0.1931 -1.1168
  906MPD2    C213268   3.233   4.081  10.974  0.0039 -0.1662  0.1976
  906MPD2    C313269   3.193   4.089  11.107 -0.1634 -0.1469 -0.8534
  906MPD2    C413270   3.258   4.176  11.188  0.4336 -0.3915  0.2792
  906MPD2    C513271   3.317   4.278  11.124 -0.5597 -0.2056  0.2482
  906MPD2     H13272   3.201   3.995  10.916 -0.0458 -0.2756  0.3875
  906MPD2    H113273   3.237   4.173  11.294  0.3535 -0.6749  0.2567
  906MPD2    H213274   3.388   4.377  10.954  0.7700 -0.9918 -2.3453
  906MPD2    H313275   3.322   4.372  11.179  3.6926  0.8001 -1.8157
  906MPD2     N13276   3.100   4.002  11.166 -0.1844 -0.2922 -0.1993
  906MPD2    H513277   3.083   4.014  11.266  1.2748  1.4161 -0.1675
  906MPD2    N113278   3.332   4.172  10.769  0.0437 -0.9450 -0.0246
  906MPD2    H713279   3.298   4.088  10.724 -1.1923 -1.1185  1.2371
  907MPD2     C13280   1.566   3.130  16.092  0.4369 -0.0153 -0.2283
  907MPD2    C113281   1.653   3.146  15.988 -0.4342  0.4610 -0.4011
  907MPD2    C213282   1.736   3.254  15.976  0.0476 -0.4276  0.2242
  907MPD2    C313283   1.734   3.364  16.064  1.0169 -0.0192  0.5587
  907MPD2    C413284   1.639   3.354  16.164 -0.2019 -0.4200  0.3798
  907MPD2    C513285   1.560   3.244  16.172 -0.2608 -0.2546 -0.1169
  907MPD2     H13286   1.797   3.271  15.888 -0.4748  0.7093  0.0842
  907MPD2    H113287   1.617   3.433  16.235  0.7260 -1.0878  1.4058
  907MPD2    H213288   1.488   3.055  16.091 -0.2590  0.7262 -1.2208
  907MPD2    H313289   1.498   3.236  16.260  0.8071 -2.1836  0.4561
  907MPD2     N13290   1.840   3.462  16.048  0.1375 -0.0844  0.3502
  907MPD2    H513291   1.914   3.443  15.981 -2.1343 -0.1347 -2.1181
  907MPD2    N113292   1.657   3.051  15.882  0.2771  0.1207  0.0687
  907MPD2    H713293   1.732   3.061  15.815  1.5832  3.7246  2.0361
  908MPD2     C13294   0.496   4.311   9.543 -0.9726 -0.3967 -0.5842
  908MPD2    C113295   0.512   4.194   9.621 -0.0891  0.3064 -0.2346
  908MPD2    C213296   0.574   4.194   9.745 -0.0492 -0.6842 -0.6511
  908MPD2    C313297   0.613   4.316   9.796 -0.5391  0.3374  0.0883
  908MPD2    C413298   0.603   4.424   9.722  0.8135 -0.0671  0.0663
  908MPD2    C513299   0.552   4.422   9.593 -0.4018 -0.1994  0.2293
  908MPD2     H13300   0.579   4.104   9.805 -0.3407  0.5002  1.1553
  908MPD2    H113301   0.636   4.516   9.769  1.0508  0.3756 -0.9693
  908MPD2    H213302   0.448   4.308   9.446 -0.0188 -0.9892 -1.0363
  908MPD2    H313303   0.555   4.514   9.535  0.7342  0.0354  0.6529
  908MPD2     N13304   0.643   4.315   9.942  0.2862  0.1770 -0.3491
  908MPD2    H513305   0.627   4.228   9.992  1.5857  1.0463  1.5680
  908MPD2    N113306   0.462   4.076   9.561  0.0058 -0.4235  0.3502
  908MPD2    H713307   0.427   4.104   9.470 -0.2451 -2.2804 -0.1201
  909MPD2     C13308   0.104   1.994  11.361  0.1514 -0.7675 -0.0734
  909MPD2    C113309   0.143   2.120  11.400 -0.0474 -0.3765  0.2499
  909MPD2    C213310   0.088   2.165  11.518  0.5944 -0.3225 -0.2849
  909MPD2    C313311   4.716   2.096  11.600  0.9025 -0.6134 -0.0157
  909MPD2    C413312   4.674   1.976  11.557 -0.6369  0.6389 -0.8405
  909MPD2    C513313   0.009   1.926  11.438 -0.6941 -0.0656  0.6779
  909MPD2     H13314   0.098   2.268  11.549 -1.6082  0.1639 -1.1451
  909MPD2    H113315   4.587   1.925  11.596  1.0421 -0.7797  1.0931
  909MPD2    H213316   0.136   1.941  11.272 -0.9228 -2.2658  0.4266
  909MPD2    H313317   4.686   1.833  11.403 -2.6437  0.9052  0.4821
  909MPD2     N13318   4.654   2.168  11.707 -0.3817  0.3618  1.0218
  909MPD2    H513319   4.680   2.264  11.726 -0.1458  0.2452  1.2835
  909MPD2    N113320   0.229   2.203  11.322 -0.3278  0.2956 -0.6028
  909MPD2    H713321   0.244   2.296  11.359  2.1905 -0.4787  0.2692
  910MPD2     C13322   1.579   3.771  15.518 -0.4272 -0.3919  0.2482
  910MPD2    C113323   1.443   3.767  15.498 -0.3755  0.0868  0.5291
  910MPD2    C213324   1.393   3.822  15.383  0.4571 -0.9511  0.3374
  910MPD2    C313325   1.479   3.878  15.286 -0.4495 -0.1252 -0.6222
  910MPD2    C413326   1.613   3.882  15.311  0.3446 -0.4052 -0.2344
  910MPD2    C513327   1.660   3.825  15.425 -0.8634 -0.9010 -0.1661
  910MPD2     H13328   1.288   3.812  15.356  0.4689  0.7868 -0.3716
  910MPD2    H113329   1.681   3.934  15.245  1.4496  1.2120  2.1855
  910MPD2    H213330   1.631   3.723  15.600 -1.8558  0.2112  1.5089
  910MPD2    H313331   1.765   3.830  15.450 -1.1407  4.4294 -0.1908
  910MPD2     N13332   1.410   3.931  15.173 -0.2596  0.1486  0.4770
  910MPD2    H513333   1.312   3.906  15.170  0.0794 -0.8381 -2.1530
  910MPD2    N113334   1.346   3.712  15.587  0.1882  0.1260 -0.6017
  910MPD2    H713335   1.250   3.701  15.557 -0.6367 -1.9462  2.7168
  911MPD2     C13336   3.400   4.391  16.087 -0.2707 -0.2469  0.7744
  911MPD2    C113337   3.478   4.505  16.113 -0.8144  0.5965 -0.3572
  911MPD2    C213338   3.425   4.631  16.114  0.7753  0.3322  0.0379
  911MPD2    C313339   3.289   4.640  16.122 -0.0893  0.3634  0.1883
  911MPD2    C413340   3.210   4.534  16.087 -0.4149 -0.0724 -0.3298
  911MPD2    C513341   3.268   4.411  16.059  0.8275 -0.1691 -0.0537
  911MPD2     H13342   3.492   4.714  16.133  1.7165 -0.3692 -0.1855
  911MPD2    H113343   3.103   4.547  16.077 -0.4404 -1.2969 -1.6351
  911MPD2    H213344   3.449   4.296  16.071 -1.7148 -0.5817 -1.6070
  911MPD2    H313345   3.206   4.323  16.043  0.8292 -0.6882  2.8536
  911MPD2     N13346   3.218   0.048  16.142 -0.3786 -0.1124 -0.0168
  911MPD2    H513347   3.117   0.042  16.138 -0.5237  0.3856  2.7849
  911MPD2    N113348   3.613   4.477  16.139  0.2663  0.0196  0.1947
  911MPD2    H713349   3.642   4.383  16.115 -0.0267  0.4829 -1.9744
  912MPD2     C13350   2.945   4.548  15.652  0.0024 -0.2036  0.0700
  912MPD2    C113351   2.936   4.585  15.782  0.2247  0.1663 -0.1944
  912MPD2    C213352   2.913   4.490  15.881 -0.2099  0.7726 -0.8083
  912MPD2    C313353   2.909   4.356  15.847  0.1312 -0.5112  0.1745
  912MPD2    C413354   2.941   4.316  15.722  0.0379  0.1946 -0.0922
  912MPD2    C513355   2.955   4.414  15.626 -0.5821  0.0769  0.6672
  912MPD2     H13356   2.900   4.520  15.984  0.5129  0.4677 -0.6308
  912MPD2    H113357   2.950   4.210  15.701  0.7840  0.5708 -1.7287
  912MPD2    H213358   2.961   4.626  15.579 -2.1113  1.1972  1.1144
  912MPD2    H313359   2.970   4.389  15.521 -0.8586 -0.4699  0.7581
  912MPD2     N13360   2.880   4.269  15.961 -0.1755 -0.6868 -0.3545
  912MPD2    H513361   2.866   4.315  16.051  2.4658  1.1514 -0.9030
  912MPD2    N113362   2.949   0.001  15.798  0.2723 -0.5528  0.0603
  912MPD2    H713363   2.963   0.056  15.713  0.0852 -0.3182  0.1803
  913MPD2     C13364   4.688   1.415   9.747 -0.6303 -0.1881 -0.1214
  913MPD2    C113365   4.698   1.460   9.880  0.0278  0.0300 -0.8024
  913MPD2    C213366   4.696   1.596   9.914  0.4201  0.1722 -0.5374
  913MPD2    C313367   4.688   1.683   9.807  0.1382  0.0280 -0.2860
  913MPD2    C413368   4.686   1.635   9.675 -0.7062  0.8130 -0.0782
  913MPD2    C513369   4.682   1.499   9.646  0.0850  0.1424  0.0957
  913MPD2     H13370   4.704   1.637  10.014  2.4022  0.0889 -0.6630
  913MPD2    H113371   4.691   1.696   9.586  0.3615 -0.0211 -0.5909
  913MPD2    H213372   4.714   1.312   9.722 -0.4813 -0.2656  0.3676
  913MPD2    H313373   4.692   1.470   9.542 -2.1698 -1.9448  0.4511
  913MPD2     N13374   4.696   1.825   9.821  0.0826  0.1929 -0.3779
  913MPD2    H513375   4.715   1.874   9.734  0.4139  0.8405  0.0620
  913MPD2    N113376   0.001   1.359   9.973 -0.5827 -0.4690  0.3957
  913MPD2    H713377   4.699   1.264   9.943 -1.4438 -0.1006 -0.1384
  914MPD2     C13378   2.166   1.286  11.749  0.4737  0.5959 -0.0287
  914MPD2    C113379   2.142   1.411  11.798  0.9035  0.1345 -0.4811
  914MPD2    C213380   2.142   1.434  11.936 -0.2327  0.1283 -1.0742
  914MPD2    C313381   2.178   1.334  12.019  0.0075  0.1152  0.6177
  914MPD2    C413382   2.199   1.203  11.973 -0.3439  0.0374  0.1610
  914MPD2    C513383   2.204   1.187  11.836  0.9343  0.0802  0.5778
  914MPD2     H13384   2.129   1.533  11.976  1.8290  0.1017 -0.3455
  914MPD2    H113385   2.242   1.121  12.028  0.0007  0.8840  1.1524
  914MPD2    H213386   2.179   1.259  11.644 -2.5392 -0.2673 -0.1891
  914MPD2    H313387   2.238   1.096  11.787  1.8725 -0.5254  2.3772
  914MPD2     N13388   2.216   1.369  12.152  0.0269 -0.1861 -0.8409
  914MPD2    H513389   2.220   1.469  12.170 -1.5713 -0.4753  1.0029
  914MPD2    N113390   2.123   1.510  11.698 -0.3799 -0.2365  0.0102
  914MPD2    H713391   2.146   1.474  11.606 -0.6675  0.1126 -0.1988
  915MPD2     C13392   0.405   1.167  15.743  0.3523 -1.0280 -0.3837
  915MPD2    C113393   0.296   1.241  15.695  0.0736  0.4020 -0.2019
  915MPD2    C213394   0.209   1.299  15.783 -0.3489  0.1816 -0.0470
  915MPD2    C313395   0.232   1.297  15.918 -0.8702  0.9073  0.1558
  915MPD2    C413396   0.354   1.252  15.957  0.3289  0.3579 -0.8213
  915MPD2    C513397   0.439   1.191  15.864 -0.3627  0.6939 -0.6511
  915MPD2     H13398   0.114   1.338  15.750  0.5826  0.9509 -1.8623
  915MPD2    H113399   0.391   1.265  16.058  0.7333  0.9241 -1.0444
  915MPD2    H213400   0.475   1.104  15.690  0.9651  0.8406 -1.7891
  915MPD2    H313401   0.545   1.178  15.883 -0.1732 -1.0588 -2.9967
  915MPD2     N13402   0.131   1.350  16.009  0.0143 -0.2853  0.1002
  915MPD2    H513403   0.052   1.402  15.971  0.5724  0.4884 -0.0033
  915MPD2    N113404   0.261   1.223  15.557  0.5552 -0.3826  0.9295
  915MPD2    H713405   0.317   1.163  15.499  0.0274 -0.1718  0.2041
  916MPD2     C13406   2.662   4.376  15.277  0.0506  0.5200 -0.5609
  916MPD2    C113407   2.684   4.315  15.400 -0.0758  0.1781  0.1556
  916MPD2    C213408   2.753   4.194  15.400  0.8161  0.5175 -0.5462
  916MPD2    C313409   2.793   4.131  15.285  0.5320 -0.1660 -0.0552
  916MPD2    C413410   2.781   4.198  15.168 -0.0553  0.4300  0.1264
  916MPD2    C513411   2.718   4.319  15.168  0.2186 -0.1081  0.5314
  916MPD2     H13412   2.773   4.139  15.490 -2.0664  1.5325  0.6988
  916MPD2    H113413   2.816   4.167  15.071 -0.4964  1.6072 -0.4092
  916MPD2    H213414   2.611   4.471  15.263  0.1956  0.9149  1.5495
  916MPD2    H313415   2.713   4.364  15.069  0.1310 -1.0828  0.0841
  916MPD2     N13416   2.852   4.002  15.292  0.1233  0.5691 -0.2022
  916MPD2    H513417   2.851   3.974  15.390 -2.1263 -0.4786 -0.5281
  916MPD2    N113418   2.635   4.382  15.514 -1.5607 -0.4727 -0.0395
  916MPD2    H713419   2.601   4.477  15.501  1.7989  0.8558  0.8526
  917MPD2     C13420   3.548   1.334  11.164 -0.5275 -0.7626 -0.6295
  917MPD2    C113421   3.581   1.430  11.258 -0.5680 -0.5577  0.0366
  917MPD2    C213422   3.670   1.533  11.225 -0.5567  0.0490 -0.4902
  917MPD2    C313423   3.727   1.540  11.099 -0.1589  0.8731  0.2436
  917MPD2    C413424   3.701   1.441  11.007  0.4456 -0.2804  0.2546
  917MPD2    C513425   3.610   1.339  11.040 -0.6501 -0.5223  0.2971
  917MPD2     H13426   3.695   1.603  11.303  1.3490  0.5682 -1.5734
  917MPD2    H113427   3.735   1.453  10.905  0.0435  0.1175  0.1702
  917MPD2    H213428   3.473   1.257  11.178 -1.7745  0.5812  0.1975
  917MPD2    H313429   3.586   1.272  10.958  1.1371  0.0287 -0.6926
  917MPD2     N13430   3.811   1.644  11.060  0.0263  0.3097  0.1506
  917MPD2    H513431   3.833   1.633  10.961 -0.0359 -1.3170  0.3251
  917MPD2    N113432   3.523   1.422  11.387 -0.7481  0.1479 -0.2440
  917MPD2    H713433   3.446   1.359  11.406 -2.3526  1.6521 -1.7840
  918MPD2     C13434   3.360   2.208  11.958 -0.4685  0.0408 -0.4327
  918MPD2    C113435   3.476   2.144  11.983  0.4420  0.5265  0.3751
  918MPD2    C213436   3.496   2.014  11.933  0.0505 -0.4378  0.1993
  918MPD2    C313437   3.395   1.944  11.881 -0.1531 -0.4268  0.8653
  918MPD2    C413438   3.279   2.011  11.851 -0.0887 -0.1198 -0.1244
  918MPD2    C513439   3.259   2.139  11.895 -0.2080  0.0511 -0.2646
  918MPD2     H13440   3.593   1.968  11.949  0.1887 -1.1379 -2.7501
  918MPD2    H113441   3.189   1.971  11.806 -0.9868  1.3674  0.3549
  918MPD2    H213442   3.338   2.310  11.988 -2.1533 -0.5968  0.5278
  918MPD2    H313443   3.167   2.195  11.878  0.8769  1.7477 -0.6108
  918MPD2     N13444   3.411   1.806  11.848 -0.5710 -0.2939  0.6741
  918MPD2    H513445   3.500   1.762  11.869 -0.6176  0.3829  2.3147
  918MPD2    N113446   3.582   2.200  12.062 -0.0878 -0.3374 -0.5331
  918MPD2    H713447   3.668   2.147  12.054  0.2014  0.4749 -2.6156
  919MPD2     C13448   4.240   0.969  11.517  0.0764 -0.1370  0.1245
  919MPD2    C113449   4.325   0.861  11.498  0.8578 -0.4702 -0.0772
  919MPD2    C213450   4.416   0.864  11.392  0.1162  0.4179  0.7832
  919MPD2    C313451   4.408   0.969  11.300  0.2755  0.1133  0.2790
  919MPD2    C413452   4.317   1.075  11.312  0.3233 -0.7130  0.6422
  919MPD2    C513453   4.225   1.059  11.417  0.2757  0.5097 -0.3292
  919MPD2     H13454   4.487   0.784  11.376 -2.6010 -1.7694 -0.4155
  919MPD2    H113455   4.290   1.141  11.231 -0.9611 -0.5579  1.1884
  919MPD2    H213456   4.176   0.980  11.604 -1.5527  0.8685 -1.2177
  919MPD2    H313457   4.155   1.140  11.435  0.4839  1.1722 -2.4927
  919MPD2     N13458   4.497   0.981  11.189 -0.2754 -0.4062  0.1690
  919MPD2    H513459   4.469   1.036  11.108 -2.9872 -1.2096  0.5564
  919MPD2    N113460   4.337   0.751  11.588  0.1589  0.5233 -0.0753
  919MPD2    H713461   4.409   0.683  11.564  0.9999  1.7556 -1.0372
  920MPD2     C13462   4.473   1.368  10.349  0.3164 -0.3043  0.0582
  920MPD2    C113463   4.410   1.243  10.359 -0.4048 -0.0630  0.1416
  920MPD2    C213464   4.441   1.161  10.465  0.1981 -0.4437 -0.5724
  920MPD2    C313465   4.522   1.207  10.562  0.0653 -0.8646  0.4770
  920MPD2    C413466   4.570   1.336  10.559  0.6744  0.3270  0.0538
  920MPD2    C513467   4.549   1.410  10.447 -0.2403  0.0538  0.2227
  920MPD2     H13468   4.407   1.058  10.466 -2.1907  0.3532  1.2618
  920MPD2    H113469   4.641   1.380  10.628  0.3211 -0.0199  0.6381
  920MPD2    H213470   4.441   1.436  10.271  3.6512 -0.3672 -1.3758
  920MPD2    H313471   4.615   1.495  10.449 -0.8503  0.4997  1.7096
  920MPD2     N13472   4.568   1.108  10.648  0.6607  0.5972 -0.3380
  920MPD2    H513473   4.539   1.011  10.636  0.4962  0.7543 -1.2779
  920MPD2    N113474   4.316   1.190  10.270  0.1712  0.2615  0.1325
  920MPD2    H713475   4.265   1.107  10.299  0.1481  0.6932  1.3496
  921MPD2     C13476   4.377   0.214  16.634 -0.2783  0.1853 -0.8154
  921MPD2    C113477   4.424   0.147  16.522 -0.1677  0.2299  0.3837
  921MPD2    C213478   4.333   0.088  16.434  0.5214  0.3042 -0.1725
  921MPD2    C313479   4.200   0.080  16.468  0.5773  0.3468  0.5520
  921MPD2    C413480   4.152   0.154  16.571 -0.1898  1.0013 -0.1475
  921MPD2    C513481   4.242   0.218  16.656 -1.2190  0.0604  0.1612
  921MPD2     H13482   4.369   0.040  16.344  1.4294 -0.7266  0.7468
  921MPD2    H113483   4.050   0.144  16.607 -0.8798 -0.9912 -2.7128
  921MPD2    H213484   4.443   0.259  16.707 -0.1236 -2.6987  0.8417
  921MPD2    H313485   4.218   0.270  16.748 -1.3375 -0.8005  0.6063
  921MPD2     N13486   4.118   4.718  16.392 -0.0734 -0.6980 -0.0271
  921MPD2    H513487   4.018   0.012  16.395  0.1970  0.9590  1.3412
  921MPD2    N113488   4.563   0.118  16.501 -0.2667  0.0255  0.0492
  921MPD2    H713489   4.583   0.076  16.411 -1.8973  1.6801 -1.0770
  922MPD2     C13490   1.373   1.965  16.853 -0.3580 -0.0515  0.4715
  922MPD2    C113491   1.263   2.047  16.882 -0.1781  0.0280  0.1061
  922MPD2    C213492   1.207   2.047  17.008 -0.9800 -0.4897  0.4108
  922MPD2    C313493   1.262   1.971  17.110  0.2155  0.3119  0.1698
  922MPD2    C413494   1.373   1.891  17.080  0.3027  0.1803 -0.5085
  922MPD2    C513495   1.429   1.892  16.955  0.0708 -0.4466 -0.3637
  922MPD2     H13496   1.119   2.108  17.024 -0.8890  0.1489 -1.5589
  922MPD2    H113497   1.418   1.821  17.149 -0.8919 -0.7489 -0.6774
  922MPD2    H213498   1.413   1.963  16.752 -1.1980  0.1227  0.1327
  922MPD2    H313499   1.512   1.824  16.940  1.9233  1.1918  2.4235
  922MPD2     N13500   1.205   1.988  17.238 -0.9103 -0.0569 -0.2935
  922MPD2    H513501   1.126   2.050  17.250 -0.1125  0.4244  2.2654
  922MPD2    N113502   1.204   2.134  16.790  0.1407  0.2213 -0.1171
  922MPD2    H713503   1.119   2.181  16.818  0.0103 -0.6253  0.9103
  923MPD2     C13504   1.659   4.530   8.775  0.1796  0.4734  0.2057
  923MPD2    C113505   1.733   4.584   8.875 -0.0393  0.1315  0.5972
  923MPD2    C213506   1.833   4.514   8.945 -0.0759 -0.3853 -0.3930
  923MPD2    C313507   1.862   4.387   8.908  0.7550 -0.6287  0.0585
  923MPD2    C413508   1.787   4.330   8.813 -0.4924 -0.6382 -0.2962
  923MPD2    C513509   1.686   4.397   8.753 -0.9120  0.7006 -0.2702
  923MPD2     H13510   1.889   4.576   9.014  2.2868 -0.1802 -2.5019
  923MPD2    H113511   1.813   4.228   8.789 -0.6002 -0.4622 -1.1443
  923MPD2    H213512   1.586   4.586   8.719 -0.5395 -0.4978  0.1772
  923MPD2    H313513   1.627   4.335   8.687 -0.8383 -2.8359  3.0108
  923MPD2     N13514   1.958   4.307   8.969  0.5040  0.9615  0.1156
  923MPD2    H513515   1.978   4.221   8.920  0.7022  1.3585 -0.5023
  923MPD2    N113516   1.698   4.715   8.889 -0.1399 -0.3056 -0.2569
  923MPD2    H713517   1.601   0.022   8.872 -0.4114 -1.1577 -0.0418
  924MPD2     C13518   2.021   3.193  16.206  0.3687  0.0930  0.2183
  924MPD2    C113519   2.082   3.298  16.273 -0.2845 -0.2151 -0.1961
  924MPD2    C213520   2.184   3.368  16.206  0.0206 -0.0044 -0.1515
  924MPD2    C313521   2.221   3.333  16.082 -0.4485 -0.0769 -0.3875
  924MPD2    C413522   2.165   3.221  16.024  0.3754 -0.5475 -0.4145
  924MPD2    C513523   2.063   3.150  16.090  0.3124 -0.0183  0.8344
  924MPD2     H13524   2.239   3.445  16.260  2.0642 -1.1372 -0.6102
  924MPD2    H113525   2.178   3.189  15.921  1.3983  0.2469 -0.5474
  924MPD2    H213526   1.951   3.134  16.263 -0.5773  1.2516  0.2668
  924MPD2    H313527   2.010   3.067  16.043  1.6250 -0.0172 -0.6693
  924MPD2     N13528   2.310   3.412  15.999 -0.2096  0.1019 -0.1054
  924MPD2    H513529   2.341   3.364  15.916 -1.7906 -0.0871 -0.5707
  924MPD2    N113530   2.033   3.349  16.398  0.3155  0.5318 -0.4517
  924MPD2    H713531   1.942   3.328  16.436  0.7031 -0.1183  0.1254
  925MPD2     C13532   0.303   4.621  14.186  0.6570  0.6456  0.2140
  925MPD2    C113533   0.344   0.014  14.263  0.0587  0.5418  0.3076
  925MPD2    C213534   0.295   0.039  14.385 -0.1138  0.2950  0.2522
  925MPD2    C313535   0.214   4.663  14.443 -0.1241  0.1236 -0.6580
  925MPD2    C413536   0.181   4.551  14.371 -0.0158 -0.0771  0.4889
  925MPD2    C513537   0.219   4.533  14.240 -0.1496  0.1001 -0.3859
  925MPD2     H13538   0.344   0.123  14.434  1.1378 -0.0716 -0.3758
  925MPD2    H113539   0.114   4.472  14.404  0.9818 -1.0969  0.0746
  925MPD2    H213540   0.343   4.594  14.089  0.0987  1.2730 -0.1950
  925MPD2    H313541   0.190   4.444  14.185  0.8117 -1.5443  1.7669
  925MPD2     N13542   0.167   4.670  14.582  0.7814 -0.1172 -0.3382
  925MPD2    H513543   0.107   4.596  14.616 -0.0205  0.2865 -0.8587
  925MPD2    N113544   0.431   0.113  14.210 -0.2286 -0.5845 -0.1887
  925MPD2    H713545   0.447   0.200  14.262  0.1087  0.2849 -1.7572
  926MPD2     C13546   4.260   3.572  13.271  0.2406 -0.0407 -0.8220
  926MPD2    C113547   4.350   3.643  13.353 -0.3764  0.2925  0.3162
  926MPD2    C213548   4.453   3.724  13.305 -0.6366 -0.7590  0.4349
  926MPD2    C313549   4.468   3.741  13.163 -0.4827 -0.2201  0.6468
  926MPD2    C413550   4.381   3.667  13.088 -0.1057  0.3853  0.0251
  926MPD2    C513551   4.277   3.591  13.135  0.4927 -0.2791 -0.1096
  926MPD2     H13552   4.512   3.777  13.379  0.1946  0.4098 -1.0751
  926MPD2    H113553   4.390   3.669  12.980  0.4605 -0.0179  0.0676
  926MPD2    H213554   4.173   3.522  13.311  1.6580 -0.7952  1.3177
  926MPD2    H313555   4.213   3.535  13.067  2.5459 -0.5899 -1.7944
  926MPD2     N13556   4.560   3.831  13.106 -0.2598  0.1880  0.2609
  926MPD2    H513557   4.558   3.833  13.005 -1.3653 -2.8997  0.2276
  926MPD2    N113558   4.346   3.647  13.495  0.8230 -0.1191  0.0221
  926MPD2    H713559   4.414   3.696  13.553  0.4991  0.5091 -0.1204
  927MPD2     C13560   3.239   1.714   0.155 -0.3963 -0.3125  0.7025
  927MPD2    C113561   3.240   1.573   0.154 -0.5152 -0.0912  0.5476
  927MPD2    C213562   3.271   1.513   0.035  1.0346 -0.0520  0.6568
  927MPD2    C313563   3.281   1.587  17.601  0.2369  0.5822 -0.6922
  927MPD2    C413564   3.277   1.724  17.609  0.2763  0.4189  0.3910
  927MPD2    C513565   3.262   1.790   0.051 -0.5897  0.9311 -0.1609
  927MPD2     H13566   3.270   1.405   0.043 -0.7833 -0.1567 -1.1801
  927MPD2    H113567   3.286   1.773  17.512  1.4330 -1.8786 -0.6800
  927MPD2    H213568   3.205   1.768   0.242 -1.1555  0.8180 -0.2944
  927MPD2    H313569   3.262   1.896   0.071 -1.6934  0.7003  1.0272
  927MPD2     N13570   3.303   1.516  17.479 -0.0035 -0.8676  0.3620
  927MPD2    H513571   3.338   1.422  17.497 -0.1540 -1.3290 -1.7255
  927MPD2    N113572   3.229   1.506   0.280  0.1590  0.1451  0.2032
  927MPD2    H713573   3.191   1.562   0.355  1.6886 -1.4396  2.1752
  928MPD2     C13574   1.366   0.112   0.992 -0.5092 -0.4393  0.1818
  928MPD2    C113575   1.477   0.135   1.070  0.3240  0.4864  0.4432
  928MPD2    C213576   1.600   0.109   1.019  0.7271 -0.0352 -0.5585
  928MPD2    C313577   1.612   0.074   0.886 -0.0760 -0.1460  0.3886
  928MPD2    C413578   1.500   0.062   0.802 -0.3972 -0.8125 -0.0500
  928MPD2    C513579   1.375   0.076   0.861  0.6456 -0.4059  0.9110
  928MPD2     H13580   1.690   0.115   1.079  0.2294 -0.5279  0.2405
  928MPD2    H113581   1.517   0.020   0.704  0.2169  2.0278 -1.1757
  928MPD2    H213582   1.269   0.123   1.039 -0.7796  1.0335 -0.7107
  928MPD2    H313583   1.284   0.043   0.811  0.1037  1.8567  0.3998
  928MPD2     N13584   1.735   0.068   0.813 -0.1420 -0.0847  0.0829
  928MPD2    H513585   1.734   0.070   0.711  0.7432 -0.0178  0.0722
  928MPD2    N113586   1.467   0.190   1.202 -0.2866  0.1118  0.1202
  928MPD2    H713587   1.558   0.198   1.248  0.6198 -3.4179 -1.0658
  929MPD2     C13588   2.656   4.344  10.245  0.5391  0.4227 -0.4684
  929MPD2    C113589   2.533   4.285  10.218  0.5782  0.8567  0.9065
  929MPD2    C213590   2.478   4.304  10.089 -1.0595 -0.3497 -0.0054
  929MPD2    C313591   2.534   4.398  10.013  0.0309  0.2703  0.4788
  929MPD2    C413592   2.661   4.442  10.034  0.1897  0.2686 -0.5173
  929MPD2    C513593   2.723   4.411  10.151  0.3618 -0.2241 -0.4410
  929MPD2     H13594   2.371   4.289  10.080 -0.9675 -0.8313 -0.2808
  929MPD2    H113595   2.718   4.506   9.968  0.4288 -1.0613 -1.6184
  929MPD2    H213596   2.708   4.345  10.340  1.2562  2.7978 -0.8980
  929MPD2    H313597   2.823   4.449  10.169  0.5155 -0.6993 -0.2856
  929MPD2     N13598   2.465   4.455   9.905  0.1011 -0.1679 -0.0256
  929MPD2    H513599   2.501   4.545   9.874 -0.9404  0.2340 -0.0835
  929MPD2    N113600   2.476   4.206  10.321 -0.0139 -0.0841  0.2246
  929MPD2    H713601   2.526   4.204  10.410 -0.6468  2.6751  0.6435
  930MPD2     C13602   3.848   1.959  14.228 -1.1553 -0.4169 -0.3292
  930MPD2    C113603   3.968   1.954  14.160 -0.4295 -0.6869  0.2774
  930MPD2    C213604   3.962   1.918  14.028  0.1599 -0.5852  0.4463
  930MPD2    C313605   3.849   1.902  13.955  0.2421  0.3127  0.0511
  930MPD2    C413606   3.732   1.909  14.024 -0.0302  0.2972 -0.1602
  930MPD2    C513607   3.735   1.927  14.162  0.2281  0.4416 -0.1599
  930MPD2     H13608   4.057   1.908  13.975 -1.0203 -1.4956 -1.4803
  930MPD2    H113609   3.639   1.881  13.976 -0.1610  0.0416  0.2443
  930MPD2    H213610   3.834   1.976  14.334  0.0306  0.7929 -0.3685
  930MPD2    H313611   3.643   1.926  14.219  1.4699  1.9446  1.8721
  930MPD2     N13612   3.849   1.887  13.814 -0.0647  0.1104 -0.2308
  930MPD2    H513613   3.761   1.896  13.764 -0.4861 -0.2036  0.4632
  930MPD2    N113614   4.088   2.006  14.209  0.2506 -0.1423  0.4276
  930MPD2    H713615   4.167   2.015  14.147  0.0083  2.7800  0.5347
  931MPD2     C13616   3.553   0.788   0.518  0.0216  0.1994  0.0812
  931MPD2    C113617   3.460   0.835   0.608  0.0367 -0.3443  0.3122
  931MPD2    C213618   3.442   0.769   0.728 -0.2490  0.4397 -0.7695
  931MPD2    C313619   3.503   0.645   0.753  0.4866  0.1544  0.0074
  931MPD2    C413620   3.594   0.599   0.661  0.4154 -0.1011 -0.3750
  931MPD2    C513621   3.617   0.669   0.540 -0.0859  0.0868 -0.1995
  931MPD2     H13622   3.355   0.795   0.788 -0.3934  1.3333 -1.3811
  931MPD2    H113623   3.635   0.499   0.673  2.0100  0.7860  1.3250
  931MPD2    H213624   3.565   0.847   0.428 -0.0277 -2.5583 -1.7351
  931MPD2    H313625   3.693   0.641   0.468  0.5916  0.8483  0.2207
  931MPD2     N13626   3.477   0.571   0.868  0.6006 -0.5041  0.0035
  931MPD2    H513627   3.541   0.494   0.885  1.9135 -0.1205 -3.0784
  931MPD2    N113628   3.387   0.955   0.572  0.2394 -0.4347 -0.0663
  931MPD2    H713629   3.414   0.988   0.479  1.0625 -3.3730 -0.8616
  932MPD2     C13630   1.117   0.715  11.163  0.4030  0.9266 -0.3032
  932MPD2    C113631   1.216   0.675  11.079  0.0166  0.5919  0.3994
  932MPD2    C213632   1.228   0.542  11.060 -0.2558 -0.0475 -0.5678
  932MPD2    C313633   1.155   0.444  11.123 -0.3130 -0.0625 -0.1310
  932MPD2    C413634   1.060   0.490  11.208  0.3768 -0.8775  0.4814
  932MPD2    C513635   1.038   0.622  11.225 -0.3481  0.2085  0.5264
  932MPD2     H13636   1.312   0.511  10.999  0.1088 -1.9009  0.8913
  932MPD2    H113637   0.995   0.423  11.263 -2.4133  1.4925  0.0489
  932MPD2    H213638   1.103   0.819  11.189 -2.2758  0.6567 -0.5791
  932MPD2    H313639   0.948   0.640  11.283 -0.6191 -0.3567  0.2810
  932MPD2     N13640   1.183   0.308  11.115 -0.3288 -0.4958 -0.3043
  932MPD2    H513641   1.140   0.251  11.186 -0.4972  2.2493  1.7820
  932MPD2    N113642   1.294   0.771  11.007  0.2705 -0.3304  0.2350
  932MPD2    H713643   1.367   0.733  10.948 -0.0610  1.4269 -1.3270
  933MPD2     C13644   1.067   0.844   1.773 -0.3646 -0.8499 -0.4994
  933MPD2    C113645   1.122   0.821   1.647  0.0986 -1.5278  0.5572
  933MPD2    C213646   1.124   0.923   1.551  0.0738  0.0119  0.3275
  933MPD2    C313647   1.062   1.041   1.577  0.5638  0.2344 -0.0760
  933MPD2    C413648   0.999   1.055   1.699  0.5108 -0.7325 -0.1192
  933MPD2    C513649   0.999   0.960   1.798 -0.7032 -0.7918  0.0196
  933MPD2     H13650   1.179   0.909   1.459 -1.3906 -0.8179 -0.4318
  933MPD2    H113651   0.948   1.148   1.721  0.6188 -0.5621 -0.5978
  933MPD2    H213652   1.091   0.782   1.858 -1.7363 -0.1483  0.4075
  933MPD2    H313653   0.963   0.987   1.897 -1.2348  2.0107 -0.9423
  933MPD2     N13654   1.051   1.136   1.473  0.1121 -0.1108  0.6482
  933MPD2    H513655   1.073   1.103   1.380 -0.2850  0.7796  0.2443
  933MPD2    N113656   1.182   0.694   1.631 -0.4993  0.0947  0.1370
  933MPD2    H713657   1.192   0.636   1.714 -3.1439 -0.3429  0.1348
  934MPD2     C13658   3.077   2.870   1.530  0.3121  1.0176  0.4514
  934MPD2    C113659   3.120   2.746   1.499  0.2363 -1.0724  0.5781
  934MPD2    C213660   3.036   2.649   1.440 -0.1545 -0.2557  0.0392
  934MPD2    C313661   2.899   2.671   1.421  0.2619  0.5723  0.2487
  934MPD2    C413662   2.860   2.794   1.477  0.4280  0.4184  0.3118
  934MPD2    C513663   2.945   2.889   1.533  0.1056 -0.2102 -0.3274
  934MPD2     H13664   3.100   2.564   1.418 -0.0832 -0.5459  1.3159
  934MPD2    H113665   2.753   2.804   1.490  0.0197 -0.8034 -2.0957
  934MPD2    H213666   3.131   2.952   1.577  0.8488  1.1161 -0.3460
  934MPD2    H313667   2.917   2.982   1.579  1.3556  0.6119 -1.2040
  934MPD2     N13668   2.803   2.584   1.374  0.6249  0.2857  0.0442
  934MPD2    H513669   2.705   2.607   1.380  0.9129  0.7592  2.8303
  934MPD2    N113670   3.248   2.701   1.532  0.7367  0.2666 -0.4952
  934MPD2    H713671   3.262   2.603   1.506 -0.7428  0.2447 -1.2157
  935MPD2     C13672   2.788   1.609   1.539  0.2576  0.8422  0.6149
  935MPD2    C113673   2.745   1.618   1.408 -0.1748 -0.2565 -0.1079
  935MPD2    C213674   2.725   1.742   1.353 -0.1057  0.4488  0.1293
  935MPD2    C313675   2.760   1.856   1.424 -0.0525  0.5034  0.1676
  935MPD2    C413676   2.815   1.844   1.549 -0.4916 -0.2803 -0.4257
  935MPD2    C513677   2.816   1.719   1.606  0.5363 -0.3069  0.4628
  935MPD2     H13678   2.689   1.751   1.251  1.3747 -0.6432 -0.4889
  935MPD2    H113679   2.825   1.933   1.611 -2.4110 -0.2658 -0.1444
  935MPD2    H213680   2.803   1.516   1.594 -2.6932  0.3374  0.5702
  935MPD2    H313681   2.854   1.707   1.707 -2.1011  1.6785  1.6948
  935MPD2     N13682   2.724   1.985   1.373 -0.1942 -0.2129 -0.0524
  935MPD2    H513683   2.753   2.066   1.428 -1.7284 -0.7891  1.6007
  935MPD2    N113684   2.717   1.494   1.327 -0.4603 -0.0413 -0.0736
  935MPD2    H713685   2.686   1.507   1.231 -2.0090 -0.4691  0.3635
  936MPD2     C13686   2.120   3.374  12.540 -0.4379 -0.7393 -0.4129
  936MPD2    C113687   2.117   3.472  12.633  0.1914 -0.8359 -1.1145
  936MPD2    C213688   2.131   3.605  12.593 -0.2847  1.2294 -0.4899
  936MPD2    C313689   2.172   3.637  12.466 -0.5517  0.6583 -0.6057
  936MPD2    C413690   2.187   3.530  12.377  0.3969 -0.7727 -0.1111
  936MPD2    C513691   2.157   3.402  12.406  0.1097 -0.6824 -0.2618
  936MPD2     H13692   2.105   3.688  12.656 -0.1612 -0.8708  2.3252
  936MPD2    H113693   2.228   3.546  12.278 -1.3093 -3.0495 -1.1698
  936MPD2    H213694   2.101   3.268  12.554  0.1176 -0.9745 -1.4265
  936MPD2    H313695   2.168   3.329  12.327 -0.0317 -1.4104  0.3909
  936MPD2     N13696   2.199   3.775  12.440  0.0317  0.3055 -0.4772
  936MPD2    H513697   2.177   3.840  12.514  1.0616 -0.5100  0.5419
  936MPD2    N113698   2.075   3.443  12.765 -0.9015 -0.2926 -0.5224
  936MPD2    H713699   2.067   3.527  12.821  1.8869  0.2034 -0.8623
  937MPD2     C13700   4.637   0.099  11.556  0.3008 -0.1069 -0.4842
  937MPD2    C113701   4.643   0.232  11.578 -0.7116  0.0524  0.6162
  937MPD2    C213702   0.020   0.290  11.501  0.6410 -0.1443 -0.6177
  937MPD2    C313703   0.116   0.233  11.421 -0.9630  0.5565  0.5901
  937MPD2    C413704   0.120   0.093  11.418 -0.0034  0.1846  0.2518
  937MPD2    C513705   0.014   0.033  11.478 -0.7740  0.5652  0.4176
  937MPD2     H13706   0.019   0.398  11.511 -1.6658 -0.2848  0.8294
  937MPD2    H113707   0.194   0.033  11.366 -0.5088  0.6219 -0.9696
  937MPD2    H213708   4.567   0.039  11.612 -0.8743  1.3030 -0.4443
  937MPD2    H313709   0.003   4.645  11.487 -0.5869  0.6466  1.6677
  937MPD2     N13710   0.201   0.326  11.347 -0.2488  0.4544  0.6317
  937MPD2    H513711   0.193   0.427  11.354  0.3482  0.4352  1.6030
  937MPD2    N113712   4.550   0.316  11.638 -0.1160  0.0990  0.3133
  937MPD2    H713713   4.564   0.416  11.628 -0.7598 -0.0112 -1.6928
  938MPD2     C13714   2.000   1.717   0.752 -0.2122  0.4478 -1.1056
  938MPD2    C113715   2.045   1.839   0.792  0.0007  0.2278 -0.3327
  938MPD2    C213716   2.047   1.867   0.930 -0.1216  0.1704  0.2115
  938MPD2    C313717   1.994   1.778   1.026  0.7369 -0.2013  0.2703
  938MPD2    C413718   1.957   1.657   0.982  0.1042 -0.7791  0.3754
  938MPD2    C513719   1.965   1.625   0.847  0.2021  0.0215  1.0644
  938MPD2     H13720   2.085   1.963   0.964  0.4170 -0.0807  0.3178
  938MPD2    H113721   1.911   1.583   1.047 -1.1942 -0.6323 -0.3933
  938MPD2    H213722   1.976   1.702   0.648 -1.1971 -0.2356 -0.7765
  938MPD2    H313723   1.919   1.530   0.820 -1.0030  0.6093  1.0709
  938MPD2     N13724   1.995   1.806   1.161 -0.6408 -0.0197 -0.6816
  938MPD2    H513725   1.969   1.731   1.225  1.5923  1.4490  1.9221
  938MPD2    N113726   2.081   1.940   0.698 -0.0017 -0.3645 -0.0230
  938MPD2    H713727   2.107   2.032   0.733  0.3751 -0.6026  0.3340
  939MPD2     C13728   3.215   2.896   0.936  0.5897  0.6154  0.0773
  939MPD2    C113729   3.271   3.021   0.931 -0.0639  0.2123 -0.6331
  939MPD2    C213730   3.408   3.030   0.896 -0.3455  0.8603  0.3341
  939MPD2    C313731   3.483   2.920   0.874  0.2176 -0.4501  0.4716
  939MPD2    C413732   3.421   2.794   0.886  0.4899  0.3993  0.1741
  939MPD2    C513733   3.286   2.784   0.912 -0.5815 -0.2500 -0.1974
  939MPD2     H13734   3.459   3.126   0.895  0.9726  0.1583  0.3358
  939MPD2    H113735   3.480   2.703   0.882  0.5866  0.6650 -3.9800
  939MPD2    H213736   3.113   2.888   0.973  0.7932 -0.1652  0.4774
  939MPD2    H313737   3.239   2.690   0.940  0.8355 -1.2953 -1.3414
  939MPD2     N13738   3.617   2.940   0.863  0.3859  0.1797 -0.4802
  939MPD2    H513739   3.657   3.034   0.864 -2.4617  1.4049 -1.5188
  939MPD2    N113740   3.188   3.133   0.955 -0.7002  0.0849  0.4806
  939MPD2    H713741   3.091   3.108   0.970 -0.9849 -0.4239 -2.2922
  940MPD2     C13742   2.533   3.530  12.610  0.6125  0.4500  0.2567
  940MPD2    C113743   2.616   3.453  12.690 -0.2926  0.0363 -0.1894
  940MPD2    C213744   2.681   3.335  12.631  0.4274  0.4827  0.0293
  940MPD2    C313745   2.659   3.314  12.499  0.2942  0.0993 -0.7955
  940MPD2    C413746   2.575   3.396  12.426  0.9651  0.2112 -0.3768
  940MPD2    C513747   2.514   3.502  12.480 -0.0137 -0.1897  0.0072
  940MPD2     H13748   2.742   3.265  12.688 -0.9876 -1.3641 -0.7083
  940MPD2    H113749   2.569   3.377  12.320 -1.6734  2.2176 -0.6002
  940MPD2    H213750   2.483   3.616  12.654 -1.2848  0.9576 -2.9154
  940MPD2    H313751   2.461   3.579  12.424  2.3443  0.7151 -0.9789
  940MPD2     N13752   2.709   3.200  12.431 -0.3428 -0.3396  0.2824
  940MPD2    H513753   2.676   3.192  12.336  0.5026 -0.7327  0.0226
  940MPD2    N113754   2.650   3.483  12.829 -0.9092  0.2484 -0.1394
  940MPD2    H713755   2.705   3.414  12.880  0.8031  2.1099  0.5487
  941MPD2     C13756   1.184   3.222   8.611  0.4294 -0.3027 -0.4060
  941MPD2    C113757   1.253   3.213   8.728 -0.3885 -0.4531  0.1228
  941MPD2    C213758   1.190   3.141   8.831 -0.1622  0.0299  0.5996
  941MPD2    C313759   1.071   3.074   8.811 -0.5903 -0.1373 -0.0562
  941MPD2    C413760   1.015   3.074   8.687 -0.3129 -0.1268  0.4168
  941MPD2    C513761   1.068   3.151   8.588 -0.2333 -0.1173  0.4356
  941MPD2     H13762   1.248   3.107   8.915  1.1773 -0.6295 -0.5847
  941MPD2    H113763   0.925   3.018   8.666  0.2178 -0.6586 -0.4550
  941MPD2    H213764   1.204   3.294   8.532 -0.4998  0.9633  0.5107
  941MPD2    H313765   1.019   3.174   8.494  0.3802  0.6849  0.3058
  941MPD2     N13766   0.999   3.005   8.907 -0.5067  0.1351  0.0679
  941MPD2    H513767   0.915   2.958   8.874  0.1214 -0.1457 -1.1505
  941MPD2    N113768   1.376   3.283   8.748 -0.0031  0.1671 -0.0997
  941MPD2    H713769   1.414   3.274   8.842  1.7692  2.4022 -0.5744
  942MPD2     C13770   1.419   0.232   9.304  0.4360  0.4036 -0.2008
  942MPD2    C113771   1.346   0.154   9.211 -0.4021  0.4574 -0.3428
  942MPD2    C213772   1.398   0.036   9.165  0.5328 -0.5021 -0.3922
  942MPD2    C313773   1.515   4.705   9.209  0.4355 -0.4645 -0.3213
  942MPD2    C413774   1.595   0.056   9.296  0.6067  0.6653  0.2632
  942MPD2    C513775   1.546   0.175   9.347 -1.0268 -0.6847 -0.6787
  942MPD2     H13776   1.329   4.696   9.106  1.4008 -0.5480 -1.3595
  942MPD2    H113777   1.691   0.017   9.326  1.0771  1.3995 -0.2803
  942MPD2    H213778   1.372   0.318   9.350  2.4467 -0.3435  3.2279
  942MPD2    H313779   1.604   0.240   9.411 -0.1252 -2.9714  0.7942
  942MPD2     N13780   1.562   4.574   9.168  0.1418 -0.5276 -0.0913
  942MPD2    H513781   1.638   4.536   9.224  0.1784  0.3943  0.4713
  942MPD2    N113782   1.216   0.185   9.168  0.0135  0.8677  0.1186
  942MPD2    H713783   1.167   0.126   9.102  0.9050  1.4285 -1.0466
  943MPD2     C13784   0.795   3.294   9.165  0.2135  0.1530  0.2587
  943MPD2    C113785   0.705   3.200   9.118 -0.3859  0.3897 -0.1870
  943MPD2    C213786   0.688   3.190   8.981 -0.0937 -0.5885 -0.2036
  943MPD2    C313787   0.742   3.285   8.897 -0.0369 -0.4186  0.5846
  943MPD2    C413788   0.832   3.380   8.950 -0.0586  0.0147  1.0081
  943MPD2    C513789   0.844   3.391   9.083 -0.8489  0.2380 -0.4595
  943MPD2     H13790   0.648   3.100   8.936  0.3867 -0.8439 -0.1193
  943MPD2    H113791   0.893   3.442   8.885  0.0199  0.1509  1.2107
  943MPD2    H213792   0.821   3.301   9.270  1.4290  0.7483 -0.0911
  943MPD2    H313793   0.905   3.475   9.115  2.4743 -1.8941 -1.2310
  943MPD2     N13794   0.739   3.274   8.759 -0.5299  0.2877  0.1266
  943MPD2    H513795   0.798   3.340   8.708  0.3807 -1.1501 -0.6573
  943MPD2    N113796   0.667   3.102   9.216  0.5038  0.5580 -0.9214
  943MPD2    H713797   0.713   3.126   9.303 -2.5230  1.2966  0.4691
  944MPD2     C13798   4.590   1.451  11.062  0.6307  0.2499 -0.3812
  944MPD2    C113799   4.629   1.557  10.988  0.1268 -0.3568 -0.3010
  944MPD2    C213800   4.585   1.684  11.021  0.0654 -0.5774 -0.4393
  944MPD2    C313801   4.514   1.717  11.129  0.3854 -0.5790 -0.6797
  944MPD2    C413802   4.478   1.611  11.215 -0.2962  0.5615 -0.2781
  944MPD2    C513803   4.528   1.481  11.178 -0.4264  0.9995 -0.6210
  944MPD2     H13804   4.625   1.760  10.954  0.2793 -0.8106 -0.5754
  944MPD2    H113805   4.418   1.628  11.304  1.3233 -1.1814  1.1416
  944MPD2    H213806   4.603   1.346  11.037 -1.9796 -0.1072 -0.2475
  944MPD2    H313807   4.504   1.391  11.234  1.3223  0.7463 -0.2974
  944MPD2     N13808   4.499   1.851  11.165 -0.4774  0.0078  0.5648
  944MPD2    H513809   4.540   1.918  11.101 -1.0680 -0.3907 -0.2236
  944MPD2    N113810   4.717   1.530  10.879 -0.2753 -0.1895 -0.5485
  944MPD2    H713811   0.010   1.432  10.856  0.4595 -0.2761  0.2534
    1TCq1    O113812   2.337   2.407  13.826 -0.3171 -0.3957 -0.2049
    1TCq1    C113813   2.384   2.384  13.947 -0.4835  0.7938 -0.4820
    1TCq1    O213814   2.492   2.328  13.976  0.4803 -0.1050 -0.4153
    1TCq1    C213815   2.307   2.457  14.037  0.4219  0.3967 -0.2514
    1TCq1    C313816   2.169   2.466  14.024  0.0178 -0.0863 -0.6128
    1TCq1    C413817   2.106   2.528  14.122 -0.2625 -0.8824  0.0359
    1TCq1    C513818   2.164   2.571  14.235  0.2072  0.7323  0.2327
    1TCq1    C613819   2.301   2.560  14.251  0.2676  0.2188 -0.3664
    1TCq1    C713820   2.367   2.501  14.147 -0.2166 -0.2999  0.3614
    1TCq1    C813821   2.380   2.647  14.340 -0.2733 -0.3420  0.1891
    1TCq1    O413822   2.347   2.658  14.456  0.3583 -0.3370 -0.2282
    1TCq1    C913823   1.966   2.562  14.106  0.6661  0.1189  0.4262
    1TCq1    O513824   1.927   2.660  14.177  0.2847 -0.1103 -0.2059
    1TCq1    O613825   1.904   2.513  14.004 -0.5292 -0.1559  0.6066
    1TCq1    H113826   2.246   2.445  13.817  0.2101  0.7391 -0.7500
    1TCq1    H213827   2.116   2.421  13.942  0.1771 -0.4742 -0.5027
    1TCq1    H313828   2.105   2.617  14.313  0.3183 -0.4426  1.0101
    1TCq1    H413829   2.474   2.491  14.161 -0.0197  0.2840 -0.7407
    2MPD2     C13830   2.756   2.978  14.429  0.1111  0.3900 -0.1086
    2MPD2    C113831   2.733   2.972  14.299  0.1243 -0.4957  0.8871
    2MPD2    C213832   2.636   2.883  14.251 -0.4708 -0.7034  0.2491
    2MPD2    C313833   2.580   2.792  14.336  0.1319 -0.2657 -0.0997
    2MPD2    C413834   2.602   2.798  14.468  0.3911 -0.4816  0.0602
    2MPD2    C513835   2.686   2.894  14.512 -0.2919 -0.1453  0.4248
    2MPD2     H13836   2.610   2.877  14.146 -1.3478 -4.1051  0.6474
    2MPD2    H113837   2.556   2.720  14.528 -1.0915 -2.1559 -3.1932
    2MPD2    H213838   2.833   3.032  14.484 -0.4963  1.8397 -0.6658
    2MPD2    H313839   2.713   2.899  14.617 -1.1547 -0.3354  0.6496
    2MPD2     N13840   2.481   2.713  14.275 -0.8404 -0.2035  0.0666
    2MPD2    H513841   2.473   2.711  14.174 -0.5720  0.2584  0.0382
    2MPD2    N113842   2.811   3.069  14.218 -0.5453  0.6965  0.1793
    2MPD2    H713843   2.871   3.128  14.274 -1.4807  0.9455  0.9210
    3TMC2    C113844   2.883   3.197  14.032  0.3785  0.1025 -0.3007
    3TMC2    C213845   2.935   3.286  14.125  0.6177  0.1984  0.4747
    3TMC2    C313846   3.014   3.382  14.074 -0.0692  0.7780  0.0973
    3TMC2    C413847   2.903   3.210  13.898  0.7591  0.7142 -0.0872
    3TMC2    C513848   2.979   3.313  13.851  0.7552  0.0845 -0.0199
    3TMC2    C613849   3.041   3.402  13.940  0.0146 -0.4902  0.2883
    3TMC2     C13850   2.810   3.079  14.080  0.0775  0.0337 -0.3181
    3TMC2     O13851   2.745   3.018  14.002  0.3086  0.6333  0.3226
    3TMC2     H13852   2.894   3.280  14.225  1.8533 -0.8673  0.9204
    3TMC2    H113853   2.866   3.131  13.833 -1.1395  0.5176  1.2437
    3TMC2    H213854   3.130   3.455  13.906  0.9893 -0.6976  2.5075
    3TMC2    C713855   2.998   3.333  13.707  0.7724 -0.0358  1.0607
    3TMC2    C813856   3.131   3.401  14.147 -0.0424  0.0050  0.7175
    3TMC2    O113857   2.981   3.234  13.633 -0.1085  0.3825 -0.7770
    3TMC2    O213858   3.210   3.491  14.115 -0.4328  0.1701 -0.0319
    3TMC2    O513859   3.182   3.278  14.167  0.0493  0.1144  0.4903
    3TMC2    H513860   3.134   3.210  14.219  0.6686 -0.0550  0.8396
    4MPD2     C13861   2.156   4.419  13.145  0.4044  0.2609  0.4994
    4MPD2    C113862   2.256   4.418  13.050 -0.2410  0.0032 -0.2754
    4MPD2    C213863   2.383   4.377  13.088 -0.0277  0.0904  0.3228
    4MPD2    C313864   2.405   4.339  13.223  0.5740  0.4646  0.8680
    4MPD2    C413865   2.305   4.344  13.318  0.1126 -0.5342  0.1319
    4MPD2    C513866   2.184   4.391  13.274 -0.5327 -0.2431 -0.6410
    4MPD2     H13867   2.463   4.367  13.016 -2.0196 -0.2759 -1.8508
    4MPD2    H113868   2.318   4.323  13.424 -0.5791  0.2368  0.3634
    4MPD2    H213869   2.055   4.448  13.117  0.3970  0.4119  0.6917
    4MPD2    H313870   2.107   4.401  13.349  0.4693  0.4426  0.3008
    4MPD2     N13871   2.535   4.295  13.260 -0.5114 -1.0042  0.0895
    4MPD2    H513872   2.605   4.306  13.188 -0.6541  1.0978  0.2802
    4MPD2    N113873   2.221   4.480  12.927  0.6704  0.1361  0.2312
    4MPD2    H713874   2.126   4.515  12.926 -0.3926 -2.6456  1.7294
    5TCq2    C113875   2.579   4.256  13.385 -0.3758  0.0121 -0.2307
    5TCq2    O213876   2.525   4.215  13.483 -0.2576 -0.7161 -0.2419
    5TCq2    C213877   2.718   4.223  13.383 -0.1009  0.0734  0.0918
    5TCq2    C313878   2.811   4.296  13.308 -0.0207 -0.1809  0.3506
    5TCq2    C413879   2.936   4.244  13.285 -0.0726  0.3155 -0.7285
    5TCq2    C513880   2.983   4.131  13.348  0.0626  0.3007 -0.1751
    5TCq2    C613881   2.899   4.076  13.441  0.3012 -0.5208  0.3395
    5TCq2    C713882   2.771   4.121  13.467 -0.6857  0.6352 -0.8592
    5TCq2    C813883   2.931   3.944  13.488  0.0814  0.3360 -0.2362
    5TCq2    O413884   2.862   3.916  13.583  0.4686  0.3488  0.5472
    5TCq2    C913885   3.020   4.315  13.196  0.6577  0.8524  0.0761
    5TCq2    O513886   3.129   4.258  13.162 -0.5432  0.0136  0.1877
    5TCq2    O613887   2.964   4.400  13.119 -1.2200 -0.1904 -0.0581
    5TCq2    H213888   2.777   4.381  13.250  0.6073  0.6322  1.1746
    5TCq2    H313889   3.080   4.084  13.337 -0.0360 -0.0061  0.2971
    5TCq2    H413890   2.699   4.062  13.523 -0.7303  1.1331 -0.3839
    6MPD1     C13891   1.336   0.678  11.488 -0.5605  0.7618  0.2659
    6MPD1    C113892   1.375   0.543  11.505  0.4502  0.4905 -0.2485
    6MPD1    C213893   1.480   0.509  11.586  0.2035  0.4214 -0.1865
    6MPD1    C313894   1.543   0.608  11.664 -0.1319  0.7001  0.2883
    6MPD1    C413895   1.502   0.746  11.651 -0.6460 -0.4328  0.2805
    6MPD1    C513896   1.399   0.776  11.560  0.1915 -0.6443 -0.1226
    6MPD1     H13897   1.512   0.407  11.604 -0.4057  0.4010  0.7556
    6MPD1    H113898   1.556   0.817  11.712 -1.3196 -0.0240  0.4094
    6MPD1    H213899   1.249   0.700  11.426 -0.8055  0.1779  0.4035
    6MPD1    H313900   1.362   0.878  11.558 -1.5621 -1.2973 -1.7777
    6MPD1     N13901   1.649   0.582  11.749  0.5659  0.2310 -0.3523
    6MPD1    H513902   1.672   0.655  11.815 -0.1152  1.2802 -1.2735
    6MPD1    N113903   1.308   0.448  11.437 -0.6650  0.0575  0.0727
    6MPD1    H613904   1.237   0.472  11.368 -1.0051  2.6401  1.3235
    6MPD1    H713905   1.352   0.356  11.434 -1.2733 -0.2218 -0.3924
    7MPD2     C13906   1.911   0.545  12.473 -0.4742 -0.3514  0.2335
    7MPD2    C113907   1.997   0.471  12.402  0.3795 -0.0482  0.5122
    7MPD2    C213908   2.083   0.386  12.466  0.0752 -0.5763 -0.7996
    7MPD2    C313909   2.065   0.360  12.599 -0.2104  0.2717  0.9349
    7MPD2    C413910   1.964   0.417  12.668  0.2834 -0.3242 -0.0156
    7MPD2    C513911   1.886   0.508  12.604 -0.3733  0.6712  0.0695
    7MPD2     H13912   2.162   0.338  12.410 -0.0658 -0.2021 -1.3142
    7MPD2    H113913   1.939   0.382  12.767 -1.2256 -0.7912 -0.5569
    7MPD2    H213914   1.857   0.625  12.424  0.9565  0.6456  0.2923
    7MPD2    H313915   1.814   0.564  12.663 -0.5667  0.7058 -0.1991
    7MPD2     N13916   2.163   0.270  12.652  0.3135  0.1866 -0.4798
    7MPD2    H513917   2.229   0.240  12.581 -0.2642 -2.9202  0.2907
    7MPD2    N113918   2.011   0.476  12.262  0.6037 -0.0378 -0.6565
    7MPD2    H713919   2.083   0.416  12.224  1.5036  2.0964 -2.3302
    8TMC3    C113920   2.278   0.115  12.775 -0.4773  0.1387  0.2494
    8TMC3    C213921   2.229   4.707  12.796  0.2049 -1.3737 -0.6717
    8TMC3    C313922   2.277   4.598  12.731  0.1939 -0.2094  0.0724
    8TMC3    C413923   2.363   0.136  12.675  0.0123 -0.3983  0.9748
    8TMC3    C513924   2.399   0.031  12.595 -0.2046 -0.1364  0.3247
    8TMC3    C613925   2.373   4.621  12.632  0.3213  0.7405  0.2553
    8TMC3     C13926   2.180   0.220  12.777  0.2003  0.3881 -0.2787
    8TMC3     O13927   2.110   0.239  12.877 -0.0760 -0.3595 -0.3294
    8TMC3     H13928   2.152   4.699  12.872 -0.0634 -1.2311 -0.9282
    8TMC3    H113929   2.405   0.234  12.653  1.4235 -1.0950  0.5060
    8TMC3    H213930   2.402   4.542  12.564 -0.4811  1.9029 -1.4590
    8TMC3    C713931   2.384   0.072  12.456  0.3553  0.5715  0.1922
    8TMC3    C813932   2.290   4.474  12.806  0.2766  0.2759  0.3103
    8TMC3    O113933   2.332   0.182  12.439  0.8595  0.0589 -0.9536
    8TMC3    O213934   2.384   4.399  12.775 -0.0973 -0.3284 -0.5208
    9TMC3    C113935   1.849   0.461  11.833  0.3513  0.0224  0.3641
    9TMC3    C213936   1.924   0.353  11.814 -1.0063  0.5059 -0.0050
    9TMC3    C313937   2.019   0.330  11.907  0.3221 -0.2009  0.5299
    9TMC3    C413938   1.856   0.544  11.946 -0.1244  0.0822 -0.0281
    9TMC3    C513939   1.953   0.508  12.039  0.2149  0.5831 -0.3764
    9TMC3    C613940   2.040   0.405  12.016  0.2229  0.1007  0.5080
    9TMC3     C13941   1.743   0.474  11.731  0.4215  0.2572  0.0898
    9TMC3     O13942   1.736   0.385  11.645 -0.1064 -0.2047 -0.8151
    9TMC3     H13943   1.911   0.290  11.726 -1.4911  1.5604 -0.6920
    9TMC3    H113944   1.779   0.619  11.958  0.8916  0.9685  0.9288
    9TMC3    H213945   2.133   0.409  12.072  1.5294  0.7368 -1.7409
    9TMC3    C713946   1.932   0.554  12.177 -0.8430  0.2268  0.4351
    9TMC3    C813947   2.110   0.215  11.893 -0.7627 -0.2743  0.5925
    9TMC3    O113948   1.838   0.628  12.204 -0.1443  0.3580  0.3570
    9TMC3    O213949   2.136   0.165  11.784 -0.9116  0.1599  0.3114
   10MPD2     C13950   2.447   4.609  12.127  0.3510  0.8474  0.3836
   10MPD2    C113951   2.379   4.682  12.224 -0.7141  0.6601  0.1015
   10MPD2    C213952   2.276   0.049  12.180 -0.1419  0.6819  0.1111
   10MPD2    C313953   2.236   0.072  12.046  0.2774  0.7784 -0.4558
   10MPD2    C413954   2.303   4.719  11.954  0.7629 -0.8287 -0.0421
   10MPD2    C513955   2.408   4.629  11.992 -0.0671  0.5255  0.7500
   10MPD2     H13956   2.222   0.101  12.258 -2.1528  1.4658 -1.8079
   10MPD2    H113957   2.282   0.002  11.848  0.9945 -0.1097 -0.0730
   10MPD2    H213958   2.529   4.541  12.149  1.3149  2.4637  1.8164
   10MPD2    H313959   2.453   4.579  11.907 -1.5319 -0.6376  0.6542
   10MPD2     N13960   2.142   0.174  12.021  0.3344 -0.3154 -0.5653
   10MPD2    H513961   2.087   0.202  12.102  1.4961  1.1382 -0.2992
   10MPD2    N113962   2.409   4.685  12.366  0.3479 -0.3927  0.6265
   10MPD2    H713963   2.475   4.617  12.403 -0.5113 -0.6574  1.6745
   11MPD2     C13964   3.039   3.452  13.434  0.8364 -0.5067 -0.1370
   11MPD2    C113965   3.010   3.525  13.543 -0.5167 -0.6840 -0.6821
   11MPD2    C213966   3.000   3.668  13.531 -0.1324 -0.2615 -0.4859
   11MPD2    C313967   3.028   3.732  13.414  0.1092  0.4926  0.4608
   11MPD2    C413968   3.069   3.657  13.306 -0.2203  0.0774 -0.1884
   11MPD2    C513969   3.073   3.516  13.316 -0.1010  0.1350 -0.1976
   11MPD2     H13970   2.963   3.724  13.617  0.6513 -0.8126  0.2125
   11MPD2    H113971   3.106   3.713  13.221  0.9769 -0.9475 -0.3439
   11MPD2    H213972   3.040   3.344  13.422  0.9708 -0.5883  0.6237
   11MPD2    H313973   3.088   3.459  13.225 -5.5784 -0.2178 -0.9109
   11MPD2     N13974   3.009   3.872  13.397 -0.3346  0.1716 -0.6063
   11MPD2    H513975   3.011   3.914  13.305  1.7498  1.2850 -0.0396
   11MPD2    N113976   2.994   3.466  13.674 -0.0117 -0.6129 -0.1425
   11MPD2    H713977   2.996   3.530  13.753  0.0926  0.9247 -1.3893
    1MPD1     C13978   0.816   0.607   1.746 -0.0541  0.0383 -0.5484
    1MPD1    C113979   0.763   0.626   1.621 -0.1733 -0.0546  0.0966
    1MPD1    C213980   0.708   0.512   1.565 -0.0966 -0.3034  0.3403
    1MPD1    C313981   0.674   0.395   1.632 -0.6129  0.0105 -0.1440
    1MPD1    C413982   0.707   0.392   1.763 -0.6576 -0.6491 -0.2828
    1MPD1    C513983   0.788   0.495   1.813 -0.1561 -0.2217  0.5769
    1MPD1     H13984   0.679   0.528   1.462  1.4529 -0.7310 -0.1655
    1MPD1    H113985   0.693   0.306   1.829  1.7140 -1.2789 -0.6234
    1MPD1    H213986   0.880   0.681   1.793  1.3379 -2.8998  2.1531
    1MPD1    H313987   0.835   0.485   1.910 -0.4365  3.2856  1.0774
    1MPD1     N13988   0.610   0.285   1.574 -0.1564  0.7494 -0.1322
    1MPD1    H513989   0.585   0.209   1.636  1.5876  1.0099  0.8825
    1MPD1    N113990   0.807   0.735   1.541  0.5290 -0.5012  0.5005
    1MPD1    H613991   0.807   0.823   1.594  2.3119  0.1200 -0.4981
    1MPD1    H713992   0.747   0.748   1.460  2.9454  2.3995 -0.8785
    2MPD1     C13993   0.413   4.719   0.652 -0.2941  0.2651 -0.3142
    2MPD1    C113994   0.407   0.132   0.696 -0.1372 -0.5479 -0.0570
    2MPD1    C213995   0.387   0.147   0.835  0.4366 -0.1626 -0.3725
    2MPD1    C313996   0.348   0.041   0.914 -0.0110  0.1559  0.0825
    2MPD1    C413997   0.346   4.637   0.868  0.2855  0.4601 -0.4581
    2MPD1    C513998   0.371   4.616   0.736  0.7917  0.0821  0.6681
    2MPD1     H13999   0.406   0.244   0.879  2.4960 -0.7593  0.0715
    2MPD1    H114000   0.306   4.557   0.928  1.7374 -0.4421 -0.6795
    2MPD1    H214001   0.445   4.694   0.552 -2.9990  0.1208 -1.1495
    2MPD1    H314002   0.345   4.517   0.700 -1.7945  0.7851  0.5540
    2MPD1     N14003   0.340   0.074   1.048 -0.7102  0.3522 -0.0955
    2MPD1    H514004   0.350   0.171   1.075  0.7635  0.0049  0.6220
    2MPD1    N114005   0.461   0.231   0.610  0.1727  0.3173 -0.2486
    2MPD1    H614006   0.435   0.324   0.639  0.5723  0.6561 -0.9645
    2MPD1    H714007   0.433   0.210   0.514  0.5377  4.2295 -1.2146
    3TMC3    C114008   0.320   0.041   1.276 -0.0672 -0.0903  0.2113
    3TMC3    C214009   0.266   4.703   1.388 -0.3368 -0.0560 -0.1125
    3TMC3    C314010   0.297   0.029   1.511  0.5980 -0.1551 -0.5669
    3TMC3    C414011   0.424   0.135   1.294  0.0388 -0.7879  0.9250
    3TMC3    C514012   0.459   0.169   1.424 -0.7696  0.1489  0.3581
    3TMC3    C614013   0.389   0.134   1.530 -0.5012  0.1137 -0.3012
    3TMC3     C14014   0.316   4.700   1.148 -0.4320 -0.1498 -0.6420
    3TMC3     O14015   0.285   4.584   1.146  0.0024 -0.2073  0.0446
    3TMC3     H14016   0.189   4.628   1.373  0.1362 -0.3554 -1.0682
    3TMC3    H114017   0.493   0.155   1.213 -1.7229 -1.9195 -0.8606
    3TMC3    H214018   0.402   0.165   1.633 -0.7818  1.3574 -0.6427
    3TMC3    C714019   0.557   0.275   1.444 -0.1417  1.1147  0.0821
    3TMC3    C814020   0.220   4.711   1.627  1.2774  0.2643 -0.5145
    3TMC3    O114021   0.592   0.340   1.349 -0.5984 -0.4818 -0.2617
    3TMC3    O214022   0.220   0.066   1.727  0.0781 -0.3779  0.5452
    4MPD1     C14023   4.578   4.436   1.875 -0.1183 -0.2560 -0.3595
    4MPD1    C114024   4.586   4.386   1.746  0.1079  0.1497  0.1801
    4MPD1    C214025   4.669   4.448   1.655 -0.1279 -0.1589 -0.6336
    4MPD1    C314026   0.031   4.559   1.691 -0.1088  0.0277 -0.8277
    4MPD1    C414027   0.016   4.603   1.817  0.0429 -0.0748  0.4395
    4MPD1    C514028   4.644   4.554   1.902 -0.9579  0.1349 -0.2663
    4MPD1     H14029   4.683   4.400   1.558 -1.2262  0.2705 -0.9973
    4MPD1    H114030   0.069   4.688   1.858  0.2585 -0.8934  1.8956
    4MPD1    H214031   4.504   4.399   1.945 -1.3775 -1.8778 -2.5270
    4MPD1    H314032   4.625   4.605   1.996  0.8272  1.6443 -0.7330
    4MPD1     N14033   0.124   4.614   1.600 -0.3289 -0.5359  0.9800
    4MPD1    H514034   0.135   4.556   1.518 -0.4594  0.6310  0.1322
    4MPD1    N114035   4.503   4.275   1.707  0.0015  0.0730  0.0442
    4MPD1    H614036   4.498   4.200   1.776 -1.5270  0.6064  0.5225
    4MPD1    H714037   4.534   4.225   1.624 -0.5886 -0.0676 -0.0941
    1TCq1    O114038   1.579   0.128  10.333  0.1244  0.4366  0.1979
    1TCq1    C114039   1.600   0.149  10.464  0.6305 -0.1480 -0.9584
    1TCq1    O214040   1.637   0.058  10.543 -0.1773  0.0536  0.3227
    1TCq1    C214041   1.552   0.281  10.512 -0.2950  0.1047 -0.5333
    1TCq1    C314042   1.488   0.367  10.430  0.0455  0.7706 -0.1836
    1TCq1    C414043   1.454   0.489  10.482 -0.2799  0.2618 -0.2072
    1TCq1    C514044   1.480   0.518  10.615  1.3058 -0.3196  0.1588
    1TCq1    C614045   1.557   0.441  10.694 -0.1530  0.0115  0.1541
    1TCq1    C714046   1.601   0.317  10.637  0.2031  0.3338  0.0299
    1TCq1    C814047   1.572   0.471  10.830  0.7048 -0.6059 -0.4157
    1TCq1    O414048   1.534   0.581  10.868  0.2047 -0.4720 -0.2350
    1TCq1    C914049   1.346   0.568  10.417  0.2443 -0.2564 -1.1546
    1TCq1    O514050   1.288   0.497  10.330 -0.1682  0.2761 -0.2140
    1TCq1    O614051   1.319   0.682  10.454  0.6279 -0.8265  0.3364
    1TCq1    H114052   1.557   0.205  10.276 -1.2779  0.3719  0.6437
    1TCq1    H214053   1.445   0.331  10.337  0.2109  4.7097 -1.7855
    1TCq1    H314054   1.427   0.605  10.653  1.7600  0.2699 -0.5461
    1TCq1    H414055   1.652   0.244  10.697 -2.5119 -2.0963 -0.5742
    2MPD1     C14056   1.644   0.353  11.330 -0.2270  0.7974 -0.1523
    2MPD1    C114057   1.702   0.256  11.256  0.1472  0.3987 -0.1375
    2MPD1    C214058   1.710   0.272  11.115 -0.6736 -0.3435  0.5710
    2MPD1    C314059   1.644   0.376  11.048  0.5885 -0.6723 -0.1819
    2MPD1    C414060   1.590   0.474  11.126 -0.0597  0.1319 -0.3543
    2MPD1    C514061   1.591   0.462  11.265 -0.1839 -0.7789  0.4298
    2MPD1     H14062   1.761   0.199  11.053 -3.3053 -2.5285  1.0078
    2MPD1    H114063   1.533   0.559  11.089  2.7547  1.9606 -0.4343
    2MPD1    H214064   1.640   0.356  11.438  0.4216  0.0175 -0.1046
    2MPD1    H314065   1.547   0.540  11.327  1.1490  0.3271 -0.0068
    2MPD1     N14066   1.635   0.377  10.906  0.3198 -0.1581  1.1953
    2MPD1    H514067   1.672   0.301  10.850 -1.6677  0.8546 -1.4651
    2MPD1    N114068   1.783   0.160  11.321 -0.0847 -0.1019 -0.3025
    2MPD1    H614069   1.734   0.125  11.404 -0.7585  0.8787 -0.2843
    2MPD1    H714070   1.811   0.086  11.257  2.1428  0.0453  0.4974
    1TCq1    O114071   2.058   1.621   0.398  0.0664 -0.4631  0.0241
    1TCq1    C114072   1.987   1.511   0.388 -0.5974  0.3246  0.0238
    1TCq1    O214073   2.038   1.402   0.391  0.5667  0.2608 -0.4523
    1TCq1    C214074   1.856   1.533   0.447  0.1877 -0.6630  0.3655
    1TCq1    C314075   1.793   1.656   0.413 -0.0426 -0.4733 -0.0886
    1TCq1    C414076   1.670   1.668   0.469  0.4662 -0.0163  0.3019
    1TCq1    C514077   1.627   1.602   0.577  0.5259 -0.3050  0.5753
    1TCq1    C614078   1.703   1.495   0.616 -0.0957  0.6541 -0.0760
    1TCq1    C714079   1.821   1.464   0.556 -0.4335 -0.1210 -0.8054
    1TCq1    C814080   1.696   1.439   0.747  1.0007 -0.4107  0.5594
    1TCq1    O414081   1.772   1.349   0.776 -0.7124 -0.2069 -0.3952
    1TCq1    C914082   1.597   1.791   0.436 -0.3623  0.0129  0.0287
    1TCq1    O514083   1.644   1.867   0.346 -0.1190  0.5174  0.0828
    1TCq1    O614084   1.514   1.842   0.512 -0.0606  0.2026  0.2342
    1TCq1    H114085   2.002   1.697   0.427  1.0467 -0.1404  1.0701
    1TCq1    H214086   1.814   1.706   0.319 -4.3556 -0.7248 -1.2000
    1TCq1    H314087   1.529   1.622   0.617 -0.6980 -0.6034 -2.3156
    1TCq1    H414088   1.882   1.381   0.590 -3.1640 -1.7182  0.1231
    2MPD1     C14089   1.506   1.439   1.220  0.9468 -0.4021  0.2069
    2MPD1    C114090   1.479   1.563   1.164 -0.3293  0.2289 -0.4373
    2MPD1    C214091   1.495   1.573   1.033 -0.5232  0.0904  0.4061
    2MPD1    C314092   1.574   1.486   0.960  0.2029  0.5235 -0.4238
    2MPD1    C414093   1.613   1.363   1.015  0.5486  0.0874 -0.6183
    2MPD1    C514094   1.579   1.348   1.145  0.0822 -0.2188  0.4883
    2MPD1     H14095   1.454   1.659   0.982 -1.6182 -0.1447  0.8984
    2MPD1    H114096   1.656   1.283   0.956  3.7223 -0.3779  2.3954
    2MPD1    H214097   1.477   1.426   1.323 -1.0657  2.1888 -0.0294
    2MPD1    H314098   1.595   1.253   1.195 -2.2766 -0.5232  0.6600
    2MPD1     N14099   1.618   1.515   0.829  0.4524  0.3448 -0.3175
    2MPD1    H514100   1.580   1.601   0.791 -0.1190  0.3098  0.1762
    2MPD1    N114101   1.399   1.652   1.234  0.2237 -0.1832  0.5248
    2MPD1    H614102   1.406   1.642   1.335  0.7294  0.6136  0.5729
    2MPD1    H714103   1.425   1.749   1.214  0.5558 -0.1496  1.1171
    1MPD1     C14104   3.076   4.409  12.199  0.2633  0.5527 -1.0247
    1MPD1    C114105   3.151   4.499  12.260 -0.1413  0.4707  0.4690
    1MPD1    C214106   3.275   4.528  12.199  0.1340  0.1981  0.5239
    1MPD1    C314107   3.316   4.482  12.072  0.4544  0.3794  0.3624
    1MPD1    C414108   3.236   4.385  12.013  0.5349 -0.7286 -0.2507
    1MPD1    C514109   3.117   4.360  12.076 -0.0860  0.4008 -0.7040
    1MPD1     H14110   3.339   4.603  12.246  1.2980 -0.3860 -0.1426
    1MPD1    H114111   3.249   4.354  11.910 -3.0170  1.4130 -1.3247
    1MPD1    H214112   2.980   4.384  12.243  1.6600 -2.6995  0.1546
    1MPD1    H314113   3.035   4.313  12.023  0.2152 -2.3561  1.2721
    1MPD1     N14114   3.436   4.532  12.022 -0.2102 -0.4091 -0.6215
    1MPD1    H514115   3.481   4.612  12.066  2.1371 -1.5098 -1.0167
    1MPD1    N114116   3.115   4.560  12.378  0.7045  0.3881 -0.1294
    1MPD1    H614117   3.014   4.549  12.389  0.8561  0.0655  0.9493
    1MPD1    H714118   3.139   4.659  12.372 -1.5126  1.0498  2.0863
    2MPD1     C14119   3.158   0.449  11.147 -0.9532 -0.3884  0.2822
    2MPD1    C114120   3.086   0.336  11.135  0.1246 -0.0858 -0.4362
    2MPD1    C214121   3.148   0.237  11.054 -0.5115  0.7113 -0.1095
    2MPD1    C314122   3.272   0.260  10.997  0.4190  0.1025  0.2872
    2MPD1    C414123   3.340   0.377  11.023  0.2541 -0.1017 -0.0344
    2MPD1    C514124   3.286   0.466  11.106 -0.3935 -0.0651  0.2218
    2MPD1     H14125   3.086   0.150  11.033 -0.7879  1.4054 -2.2172
    2MPD1    H114126   3.436   0.396  10.974  0.2789  2.9173  1.1985
    2MPD1    H214127   3.120   0.535  11.201  2.0837 -0.1743  2.0396
    2MPD1    H314128   3.331   0.564  11.116  1.1473 -0.7735  0.1053
    2MPD1     N14129   3.325   0.169  10.904 -0.2064  0.2940 -0.4291
    2MPD1    H514130   3.410   0.195  10.855 -0.1963  1.4219  0.1685
    2MPD1    N114131   2.947   0.333  11.161  0.4423  0.0153  0.4872
    2MPD1    H614132   2.916   0.244  11.200  0.0092  1.4063  3.3186
    2MPD1    H714133   2.924   0.399  11.235 -0.3794  0.0264  0.2232
    3MPD1     C14134   2.826   4.115  10.572  0.5618 -0.3293 -0.0319
    3MPD1    C114135   2.870   4.153  10.700  0.1080 -0.2502 -0.0358
    3MPD1    C214136   2.967   4.246  10.709 -0.0115  0.0469  0.3416
    3MPD1    C314137   3.015   4.318  10.595  0.1172  0.6848  0.0256
    3MPD1    C414138   2.961   4.276  10.477  0.1868  1.2065 -0.1873
    3MPD1    C514139   2.872   4.177  10.463 -0.1209 -0.3510 -1.1212
    3MPD1     H14140   3.016   4.264  10.804 -0.5050  1.8129  0.2515
    3MPD1    H114141   2.995   4.323  10.386 -1.2798 -0.9258 -1.8462
    3MPD1    H214142   2.764   4.027  10.579  0.4583 -0.3313 -1.0277
    3MPD1    H314143   2.848   4.137  10.365 -0.0984  0.7524 -1.5747
    3MPD1     N14144   3.111   4.418  10.613 -0.7099 -0.2873 -0.0258
    3MPD1    H514145   3.144   4.431  10.708  2.2820 -0.8841 -0.9903
    3MPD1    N114146   2.843   4.058  10.801  0.3440  0.3243  0.0355
    3MPD1    H614147   2.744   4.034  10.796  1.4716 -4.6099  1.4626
    3MPD1    H714148   2.853   4.103  10.892 -0.4583  0.3526  0.1085
    4MPD2     C14149   3.890   0.374  11.718 -0.0019 -0.3312  0.2207
    4MPD2    C114150   3.942   0.248  11.713  0.0121 -0.2375 -0.3852
    4MPD2    C214151   4.033   0.210  11.624 -0.1659 -0.0682  0.3188
    4MPD2    C314152   4.079   0.300  11.532 -0.6206 -0.1337 -0.1239
    4MPD2    C414153   4.021   0.427  11.532  0.7185  0.1452 -0.1924
    4MPD2    C514154   3.921   0.463  11.622  0.2643  0.1117 -0.5101
    4MPD2     H14155   4.070   0.108  11.616  0.5427  0.0107  2.4066
    4MPD2    H114156   4.030   0.491  11.445 -2.5976  0.5668 -0.2433
    4MPD2    H214157   3.807   0.408  11.779  0.4875 -0.9592  1.2206
    4MPD2    H314158   3.874   0.561  11.617 -2.0163 -0.9757 -0.2322
    4MPD2     N14159   4.168   0.250  11.437  0.2606  0.4939 -0.6841
    4MPD2    H514160   4.191   0.152  11.444  2.1072  0.9136 -0.7484
    4MPD2    N114161   3.879   0.138  11.790  0.3692  0.4853  0.1765
    4MPD2    H714162   3.926   0.048  11.782 -1.0306 -0.3896  2.0684
    5TMC3    C114163   3.763   0.015  11.938  0.1231 -0.3912 -0.1219
    5TMC3    C214164   3.638   4.684  11.942 -0.3180  0.7819 -0.0862
    5TMC3    C314165   3.618   4.554  11.892  0.1153  0.5478 -0.0101
    5TMC3    C414166   3.873   4.651  11.909  0.2121 -0.9913 -0.6013
    5TMC3    C514167   3.850   4.528  11.860  0.4391  0.0207 -0.3589
    5TMC3    C614168   3.718   4.483  11.842  0.1631  0.3785 -0.1054
    5TMC3     C14169   3.770   0.142  11.870 -0.2713  0.7833 -0.4262
    5TMC3     O14170   3.687   0.230  11.891 -0.4591 -0.0033  0.5915
    5TMC3     H14171   3.561   0.039  11.959 -0.1906  0.7373  0.6596
    5TMC3    H114172   3.974   4.680  11.935  0.0414 -0.1380 -0.8692
    5TMC3    H214173   3.698   4.383  11.804 -2.2526 -0.3214  3.0235
    5TMC3    C714174   3.926   4.517  11.742  0.6392  0.0690  0.4947
    5TMC3    C814175   3.500   4.480  11.920  0.6612 -0.3198 -0.6674
    5TMC3    O114176   3.988   4.620  11.719  0.0179  0.0517  0.3759
    5TMC3    O214177   3.491   4.372  11.867 -0.2872  0.1745 -1.0781
    6TMC3    C114178   3.312   4.697  10.756 -0.1882  0.0104 -1.0483
    6TMC3    C214179   3.216   4.642  10.683 -0.4817  0.0799  0.2966
    6TMC3    C314180   3.256   4.594  10.564 -0.3712  0.3291 -0.5325
    6TMC3    C414181   3.445   4.701  10.725 -0.2877 -0.1441  0.0641
    6TMC3    C514182   3.485   4.643  10.610 -0.1105  0.5421 -0.4435
    6TMC3    C614183   3.389   4.591  10.531 -0.1085 -0.2944  0.3567
    6TMC3     C14184   3.267   0.038  10.882  0.3015 -0.3109 -0.1356
    6TMC3     O14185   3.163   4.702  10.928 -0.1626  0.0058  0.1129
    6TMC3     H14186   3.108   4.644  10.694 -0.5878 -0.2053 -0.7332
    6TMC3    H114187   3.509   0.022  10.802  1.1745 -1.5865 -0.3931
    6TMC3    H214188   3.419   4.557  10.433 -0.0649 -0.5219  0.4486
    6TMC3    C714189   3.623   4.598  10.597 -0.0633 -0.1335 -0.5507
    6TMC3    C814190   3.169   4.491  10.509 -0.1318 -0.6885 -0.5100
    6TMC3    O114191   3.640   4.520  10.505  0.4884 -0.6390  0.1164
    6TMC3    O214192   3.147   4.480  10.390 -0.2123  0.2869  0.2571
    7MPD2     C14193   4.192   4.274  11.382 -0.3095  1.1463  0.9735
    7MPD2    C114194   4.176   4.407  11.410 -0.3439  0.1486 -0.4173
    7MPD2    C214195   4.085   4.449  11.508  0.1438  0.0601  0.2916
    7MPD2    C314196   4.016   4.357  11.583 -0.0682  0.3414  0.1990
    7MPD2    C414197   4.023   4.226  11.548  0.2065  1.0025  0.2803
    7MPD2    C514198   4.110   4.186  11.449 -0.4880 -0.5993 -0.0842
    7MPD2     H14199   4.078   4.555  11.530 -0.7422  0.4494 -1.8891
    7MPD2    H114200   3.979   4.144  11.603 -0.2196  0.8949 -0.2184
    7MPD2    H214201   4.262   4.233  11.310 -0.4137 -0.5788  1.8470
    7MPD2    H314202   4.116   4.081  11.425 -0.7701  0.0285 -2.9285
    7MPD2     N14203   3.929   4.389  11.690  0.1069 -0.2155  0.5761
    7MPD2    H514204   3.887   4.312  11.742  0.5096 -0.7214  0.1524
    7MPD2    N114205   4.253   4.501  11.332 -0.3870  0.4489 -0.0009
    7MPD2    H714206   4.303   4.465  11.252 -1.7189 -1.0855 -0.1339
    8TMC3    C114207   4.349   4.716  11.264  0.5711  0.5326  0.6255
    8TMC3    C214208   4.291   4.688  11.145  0.0400  0.4250  0.7476
    8TMC3    C314209   4.251   0.071  11.066  0.4670 -0.4074  0.2809
    8TMC3    C414210   4.362   0.122  11.308  0.9898  0.2918 -0.4072
    8TMC3    C514211   4.301   0.222  11.241 -0.0670 -0.3944  0.6035
    8TMC3    C614212   4.262   0.200  11.109  0.7993  0.0391  0.3468
    8TMC3     C14213   4.277   4.635  11.366 -0.5526 -0.0134 -1.0170
    8TMC3     O14214   4.247   4.698  11.463  0.3553  0.4797  0.6765
    8TMC3     H14215   4.274   4.589  11.104  2.6271 -0.7604  2.5465
    8TMC3    H114216   4.417   0.131  11.401 -0.9888  0.1175  0.7978
    8TMC3    H214217   4.219   0.285  11.058  0.4276  0.0357  0.6438
    8TMC3    C714218   4.223   0.310  11.322  0.1883 -0.3694  0.1084
    8TMC3    C814219   4.138   0.055  10.976 -0.0467  0.6585 -0.6556
    8TMC3    O114220   4.200   0.419  11.269  0.1046  0.0254 -0.1203
    8TMC3    O214221   4.052   0.143  10.970  0.5455  0.6997  0.3166
    9MPD2     C14222   4.101   4.504  10.724 -0.9139  0.5213  0.0164
    9MPD2    C114223   4.057   4.606  10.812 -0.9554  1.3331  0.2650
    9MPD2    C214224   3.930   4.656  10.795 -0.2780 -0.1643  0.0585
    9MPD2    C314225   3.848   4.599  10.709 -0.0196  0.2646 -0.3381
    9MPD2    C414226   3.905   4.517  10.614 -0.0481  0.0017  0.2127
    9MPD2    C514227   4.029   4.455  10.625 -0.1910  0.5985  0.5890
    9MPD2     H14228   3.892   0.014  10.860 -1.8387 -1.0614  0.2077
    9MPD2    H114229   3.841   4.484  10.533 -0.8472 -0.1290  0.8973
    9MPD2    H214230   4.204   4.472  10.716 -1.3340  0.1908 -3.6909
    9MPD2    H314231   4.053   4.379  10.551  1.2974  0.9462  0.7153
    9MPD2     N14232   3.715   4.651  10.689  0.1523 -0.4833  0.0125
    9MPD2    H514233   3.689   4.718  10.761 -3.0314  0.2497 -1.8391
    9MPD2    N114234   4.152   4.661  10.894  0.2415  0.1854  0.5132
    9MPD2    H714235   4.245   4.620  10.892 -0.7562 -1.9780 -1.0811
    1MPD1     C14236   4.199   2.990  16.567  0.3457  0.3042  0.8728
    1MPD1    C114237   4.247   3.068  16.464  0.5671 -0.0694  0.2487
    1MPD1    C214238   4.231   3.212  16.477 -0.8148  0.0156  0.1666
    1MPD1    C314239   4.205   3.265  16.602  0.5727  0.8783  0.2912
    1MPD1    C414240   4.189   3.182  16.708  0.2159  0.3441 -0.5829
    1MPD1    C514241   4.191   3.047  16.687  0.4773 -0.8519  0.1235
    1MPD1     H14242   4.246   3.275  16.391 -2.2093 -0.2543 -0.2658
    1MPD1    H114243   4.187   3.205  16.813 -0.5539  0.1122 -0.5474
    1MPD1    H214244   4.191   2.882  16.563 -1.1095  0.4262  0.8171
    1MPD1    H314245   4.190   2.988  16.778  0.5789 -0.1302  0.5916
    1MPD1     N14246   4.185   3.407  16.621  0.2247  0.0206 -0.3391
    1MPD1    H514247   4.138   3.425  16.710 -1.0407  0.5703 -1.1202
    1MPD1    N114248   4.258   3.010  16.335 -0.6736 -0.0753  0.5852
    1MPD1    H614249   4.324   3.067  16.282  0.8885 -1.3759  1.1425
    1MPD1    H714250   4.284   2.912  16.341 -2.0387 -0.4734 -0.1392
    2MPD1     C14251   3.550   4.223  16.382  0.0587  0.0712  0.1003
    2MPD1    C114252   3.645   4.289  16.453  0.6372 -0.4289 -0.2057
    2MPD1    C214253   3.749   4.212  16.494  0.0439  0.2798 -0.0398
    2MPD1    C314254   3.767   4.084  16.449 -0.4039 -0.4808 -0.4902
    2MPD1    C414255   3.670   4.029  16.370 -0.5469 -0.6133  0.1562
    2MPD1    C514256   3.561   4.100  16.336  0.9085 -0.2504  0.5424
    2MPD1     H14257   3.825   4.253  16.560 -2.4279  1.4830  2.0583
    2MPD1    H114258   3.660   3.922  16.356  0.3773 -0.4666 -1.5257
    2MPD1    H214259   3.465   4.282  16.349  0.8206  0.7498 -0.6682
    2MPD1    H314260   3.480   4.043  16.292  1.9411  0.9485 -2.9419
    2MPD1     N14261   3.872   4.009  16.509 -0.5948 -0.2857 -0.4419
    2MPD1    H514262   3.936   4.054  16.574  1.2645  1.0165 -3.1900
    2MPD1    N114263   3.619   4.418  16.496  0.2608  0.1184  0.4369
    2MPD1    H614264   3.704   4.473  16.505 -0.2961  1.0674 -0.0370
    2MPD1    H714265   3.556   4.474  16.440 -0.8143  0.3527  1.8634
    3TCq2    C114266   3.897   3.880  16.483 -0.5136 -0.1417 -0.5711
    3TCq2    O214267   3.860   3.804  16.397  0.3474  0.1403 -0.3874
    3TCq2    C214268   4.013   3.822  16.551  0.1698  0.8633 -0.2349
    3TCq2    C314269   4.068   3.877  16.669 -0.4481 -0.5403 -0.5003
    3TCq2    C414270   4.160   3.800  16.742 -0.4466 -0.2137  0.0590
    3TCq2    C514271   4.189   3.673  16.704  0.2625 -0.3389  0.2587
    3TCq2    C614272   4.141   3.630  16.585 -0.6838 -0.7068  0.0085
    3TCq2    C714273   4.049   3.696  16.510  0.4116  0.2142  0.2204
    3TCq2    C814274   4.193   3.511  16.532  0.2030  0.3922 -0.0131
    3TCq2    O414275   4.210   3.504  16.411  0.4232  0.2695  0.1624
    3TCq2    C914276   4.196   3.844  16.873  0.4592 -0.7963  0.7096
    3TCq2    O514277   4.277   3.779  16.939  0.0629 -0.2072  0.0367
    3TCq2    O614278   4.156   3.957  16.907  0.2883 -0.0449 -0.4403
    3TCq2    H214279   4.037   3.972  16.710  2.5268 -0.0194  0.5129
    3TCq2    H314280   4.265   3.625  16.765  0.1339 -1.3339 -0.3712
    3TCq2    H414281   4.022   3.660  16.411 -1.4425 -0.5239  1.0094
    1TCq1    O114282   0.566   2.710  13.221  0.4935 -0.1355 -0.4912
    1TCq1    C114283   0.677   2.763  13.176  0.3925 -0.9900  0.4213
    1TCq1    O214284   0.760   2.808  13.253 -0.7193  0.1689 -0.1628
    1TCq1    C214285   0.712   2.697  13.049 -0.1777  0.2655 -0.0794
    1TCq1    C314286   0.619   2.615  12.980 -0.0618  0.8040  0.4407
    1TCq1    C414287   0.657   2.574  12.852  0.1583 -0.6269  0.5017
    1TCq1    C514288   0.777   2.609  12.800 -0.0539  0.0441  0.0998
    1TCq1    C614289   0.859   2.695  12.876 -0.6296  0.3606  0.0710
    1TCq1    C714290   0.832   2.740  13.004 -0.0665  0.9264 -0.8244
    1TCq1    C814291   0.966   2.761  12.802  0.7434  0.2326 -0.5700
    1TCq1    O414292   0.944   2.790  12.684 -0.0499  0.7410  0.6176
    1TCq1    C914293   0.565   2.487  12.789 -0.0263  0.1407  0.6268
    1TCq1    O514294   0.606   2.377  12.745  0.4424  0.4069 -0.1167
    1TCq1    O614295   0.445   2.509  12.810  0.1432 -0.3408  0.1430
    1TCq1    H114296   0.508   2.705  13.142 -1.1893  3.0393  0.5341
    1TCq1    H214297   0.522   2.583  13.015  0.3031 -2.1573 -1.2681
    1TCq1    H314298   0.796   2.569  12.701 -0.1843 -0.5534  0.3122
    1TCq1    H414299   0.886   2.816  13.059 -3.0241  0.8554  2.1476
    2MPD2     C14300   1.200   2.927  12.721 -0.0032  0.2431 -0.0646
    2MPD2    C114301   1.195   2.863  12.846  0.1961  0.5594 -0.7368
    2MPD2    C214302   1.307   2.875  12.925 -0.6758  0.1211 -0.1134
    2MPD2    C314303   1.422   2.948  12.890  0.5852  0.5520 -1.1215
    2MPD2    C414304   1.420   3.012  12.771 -0.3979  0.2904 -0.4003
    2MPD2    C514305   1.314   2.999  12.686  0.3251  0.1530 -0.9606
    2MPD2     H14306   1.303   2.826  13.022  0.4755 -0.5142 -0.3951
    2MPD2    H114307   1.495   3.086  12.744  0.7959 -0.9805 -0.5438
    2MPD2    H214308   1.124   2.905  12.647  0.0073 -0.1027  0.0277
    2MPD2    H314309   1.311   3.043  12.586  0.7150  3.5077  0.4890
    2MPD2     N14310   1.533   2.943  12.978  0.5976  0.1093 -0.1538
    2MPD2    H514311   1.516   2.903  13.070  3.3586  0.2254  0.4084
    2MPD2    N114312   1.075   2.796  12.889  0.0170  0.3307  0.7919
    2MPD2    H714313   1.081   2.744  12.977  2.1257 -0.5334  0.1391
    3TCq1    O114314   2.144   2.984  12.899  0.5265 -0.4516  0.5921
    3TCq1    C114315   2.112   2.903  13.007 -0.0138 -0.7616 -0.4435
    3TCq1    O214316   2.168   2.802  13.051 -0.0522  0.2738 -0.1985
    3TCq1    C214317   1.992   2.951  13.070  0.3158  0.0944  0.7501
    3TCq1    C314318   1.966   2.899  13.195  0.2850 -0.4510  0.4177
    3TCq1    C414319   1.844   2.871  13.243  1.7126  0.3035  0.2797
    3TCq1    C514320   1.734   2.883  13.163  0.1410  0.1685 -0.3225
    3TCq1    C614321   1.757   2.946  13.043  0.1844 -0.3816 -0.2412
    3TCq1    C714322   1.885   2.978  12.990  0.5926  0.0990 -0.7947
    3TCq1    C814323   1.656   2.995  12.948 -0.7640 -0.1784 -1.2229
    3TCq1    O414324   1.692   3.075  12.857  0.1110  0.0226 -0.0254
    3TCq1    C914325   1.833   2.813  13.367  0.4191  0.3028  0.2252
    3TCq1    O514326   1.929   2.834  13.444 -0.0368  0.1174  0.1619
    3TCq1    O614327   1.752   2.719  13.378  0.2878 -0.0404 -0.8542
    3TCq1    H114328   2.090   3.064  12.886  1.6132 -0.2155 -2.3310
    3TCq1    H214329   2.056   2.886  13.255  3.0604  1.6864 -3.2309
    3TCq1    H314330   1.635   2.850  13.192  0.3083 -1.7593 -1.8870
    3TCq1    H414331   1.896   3.001  12.885  0.0995 -2.2386 -1.3483
    1MPD2     C14332   0.226   3.302  15.114  0.1102  0.2885  0.1650
    1MPD2    C114333   0.297   3.188  15.097 -0.2993 -0.1406  0.4520
    1MPD2    C214334   0.414   3.175  15.168 -0.2891  0.2240  1.0575
    1MPD2    C314335   0.468   3.283  15.237 -0.4446  0.7941  0.0824
    1MPD2    C414336   0.391   3.398  15.266 -0.9082  0.2783  0.4153
    1MPD2    C514337   0.261   3.399  15.207 -0.0543  0.3121 -0.6692
    1MPD2     H14338   0.485   3.097  15.145 -0.7621  0.1560 -0.1873
    1MPD2    H114339   0.404   3.470  15.347 -1.3734  0.0201  0.7243
    1MPD2    H214340   0.133   3.320  15.063 -0.4938 -1.7219  0.5557
    1MPD2    H314341   0.198   3.482  15.235 -0.1349  0.8160 -2.3674
    1MPD2     N14342   0.601   3.270  15.286 -0.3009  0.6564 -0.1618
    1MPD2    H514343   0.652   3.182  15.277 -0.8760  0.1179  1.7318
    1MPD2    N114344   0.257   3.091  15.000  0.5603 -0.4816 -0.2302
    1MPD2    H714345   0.183   3.121  14.938 -1.0934 -2.2632  0.8821
    2TMC3    C114346   0.308   2.927  14.831  0.3364  0.1206  0.4105
    2TMC3    C214347   0.387   2.817  14.797 -0.3026  0.0842  0.4232
    2TMC3    C314348   0.419   2.789  14.667  0.1719 -0.0375  0.3964
    2TMC3    C414349   0.257   2.997  14.733  0.7076  0.3151  0.2538
    2TMC3    C514350   0.300   2.978  14.607  0.0444 -0.3439 -0.5430
    2TMC3    C614351   0.361   2.863  14.565 -0.3256 -0.5828 -0.3416
    2TMC3     C14352   0.332   2.984  14.966 -0.3937 -0.3473 -0.5293
    2TMC3     O14353   0.437   2.938  15.011 -0.4707  0.1135  0.4545
    2TMC3     H14354   0.419   2.748  14.874 -1.3057 -1.2822 -0.3930
    2TMC3    H114355   0.200   3.085  14.761  2.9531  1.8453  0.0955
    2TMC3    H214356   0.401   2.859  14.464  1.7695  0.4463  0.4501
    2TMC3    C714357   0.275   3.091  14.517 -0.2805  0.0288  0.3650
    2TMC3    C814358   0.558   2.815  14.650  0.4400 -0.1180 -0.2535
    2TMC3    O114359   0.239   3.075  14.402 -0.9177 -0.1353 -0.0330
    2TMC3    O214360   0.598   2.815  14.534  0.7330 -0.4564 -0.0222
    3TCq1    O114361   4.647   3.985  15.297  0.0441 -0.4540  0.0582
    3TCq1    C114362   4.598   3.964  15.174 -0.6468  0.8294 -0.8690
    3TCq1    O214363   4.478   3.971  15.141 -0.1017 -0.2339  0.3235
    3TCq1    C214364   4.700   3.924  15.085  0.8080 -0.7007  0.1171
    3TCq1    C314365   0.105   3.974  15.109 -0.0112  0.1628  0.4872
    3TCq1    C414366   0.211   3.919  15.046  0.3827 -0.5190 -0.5781
    3TCq1    C514367   0.190   3.821  14.952 -0.2863 -0.1962 -0.5102
    3TCq1    C614368   0.061   3.778  14.924 -0.0680 -0.2914  0.0044
    3TCq1    C714369   4.674   3.824  14.992 -0.1140  0.5291 -0.1261
    3TCq1    C814370   0.039   3.711  14.797  0.4095 -0.7599 -0.3271
    3TCq1    O414371   4.645   3.730  14.750 -0.0273 -0.1885 -0.0460
    3TCq1    C914372   0.339   3.971  15.066  0.7670 -0.0474 -0.1881
    3TCq1    O514373   0.433   3.900  15.021  0.8368 -0.3828 -0.2212
    3TCq1    O614374   0.349   4.078  15.122  0.0452 -0.7889  0.6827
    3TCq1    H114375   0.010   3.932  15.304  0.6615  0.4805 -0.1387
    3TCq1    H214376   0.122   4.058  15.176 -0.5801 -0.2943  1.2088
    3TCq1    H314377   0.274   3.792  14.890  0.4159  1.0483 -0.1423
    3TCq1    H414378   4.573   3.792  14.967 -1.0327  1.5634  2.3088
    4MPD2     C14379   0.009   3.544  14.569  0.0031 -0.3004  0.3353
    4MPD2    C114380   0.107   3.529  14.664  0.5914 -0.4751  0.4604
    4MPD2    C214381   0.201   3.422  14.656  0.1301 -0.0822 -0.3551
    4MPD2    C314382   0.184   3.314  14.577  0.9264 -0.9469  0.0168
    4MPD2    C414383   0.081   3.323  14.486  0.9991  0.0739 -0.3626
    4MPD2    C514384   4.716   3.439  14.480 -0.1288  0.5607  0.1644
    4MPD2     H14385   0.286   3.416  14.723  0.1998  0.2832 -0.4151
    4MPD2    H114386   0.059   3.243  14.416 -0.6214  1.0130 -0.9229
    4MPD2    H214387   4.666   3.632  14.560 -0.1331 -0.3298  0.9587
    4MPD2    H314388   4.644   3.442  14.400  0.5430  1.1438 -0.4182
    4MPD2     N14389   0.279   3.209  14.589  0.0811  0.2936  0.9579
    4MPD2    H514390   0.339   3.211  14.670  0.4316 -1.0345  0.7363
    4MPD2    N114391   0.136   3.621  14.764 -0.3837  0.1396 -0.1444
    4MPD2    H714392   0.220   3.621  14.822  0.0903 -2.4346 -0.8616
    5TMC2    C114393   0.981   3.222  15.234  0.1078  0.2220  0.1483
    5TMC2    C214394   1.066   3.327  15.266 -1.0202  0.2523 -0.4584
    5TMC2    C314395   1.023   3.424  15.345  0.5434  0.2615  0.0429
    5TMC2    C414396   0.852   3.224  15.277 -0.1119  0.3954 -0.3323
    5TMC2    C514397   0.812   3.334  15.353  0.1752  0.1415 -0.3057
    5TMC2    C614398   0.892   3.431  15.393  0.1753  0.9004 -0.4593
    5TMC2     C14399   1.010   3.158  15.107 -0.0639 -0.4560  0.5099
    5TMC2     O14400   1.095   3.213  15.045  0.9475  0.0249  0.3547
    5TMC2     H14401   1.171   3.329  15.238 -1.3079 -1.3700 -1.6675
    5TMC2    H114402   0.787   3.145  15.241  1.0892 -0.3732 -0.7741
    5TMC2    H214403   0.859   3.527  15.431  1.2519  1.9057 -2.0619
    5TMC2    C714404   0.669   3.363  15.363 -0.1438  0.0230 -0.2892
    5TMC2    C814405   1.108   3.531  15.380  0.0766 -0.3596  0.6851
    5TMC2    O114406   0.621   3.469  15.400  0.0673  0.3054 -0.4693
    5TMC2    O214407   1.072   3.636  15.438 -0.1404 -0.0640 -0.3266
    5TMC2    O514408   1.230   3.475  15.408  0.7262 -0.1770  0.0068
    5TMC2    H514409   1.233   3.382  15.378 -1.7319 -0.9183  2.0240
    6MPD2     C14410   0.836   2.917  14.673 -0.8867  0.1697  0.2454
    6MPD2    C114411   0.746   2.915  14.779 -0.0986  0.4991 -0.2143
    6MPD2    C214412   0.770   2.955  14.910 -0.4357 -0.6378  0.3145
    6MPD2    C314413   0.888   3.022  14.934  0.0320 -0.8667  0.4914
    6MPD2    C414414   0.978   3.035  14.831 -0.3250 -0.0699  0.1062
    6MPD2    C514415   0.955   2.973  14.707 -0.1555 -0.0408 -0.0748
    6MPD2     H14416   0.703   2.939  14.994 -0.4037  0.4520  0.5555
    6MPD2    H114417   1.068   3.088  14.859 -0.1259 -0.0549 -0.5560
    6MPD2    H214418   0.823   2.875  14.574  1.2834  2.0426 -0.8238
    6MPD2    H314419   1.038   2.975  14.637  0.0533 -0.2593  0.1667
    6MPD2     N14420   0.902   3.077  15.063  0.2430  0.2288 -0.1672
    6MPD2    H514421   0.842   3.043  15.137  1.5064 -0.8596  0.3613
    6MPD2    N114422   0.613   2.868  14.762 -0.5569  0.0998 -0.0715
    6MPD2    H714423   0.563   2.865  14.850 -2.6198 -1.4482 -1.2840
  945NH4     N114424   1.187   3.066  10.090 -0.1372  0.3249  0.3883
  945NH4     H214425   1.225   2.981  10.137 -2.2837 -0.1806  1.2287
  945NH4     H314426   1.250   3.079  10.009 -1.6679 -3.4101 -1.4073
  945NH4     H414427   1.199   3.147  10.154  3.1183 -0.8076  1.2432
  945NH4     H514428   1.087   3.056  10.064 -0.1615  1.0899  0.1766
  946SOD     NA14429   2.620   2.661   4.815 -0.4601 -0.0413  0.7011
  947SOD     NA14430   0.939   3.939  15.240 -0.7136  0.4805 -0.0727
  948SOD     NA14431   0.562   2.903   9.887 -0.1438  0.3028  0.0662
  949SOD     NA14432   1.716   2.765   7.533  0.2630 -0.0153 -0.2779
  950SOD     NA14433   0.035   1.913  10.353 -0.1375 -0.2312 -0.2804
  951SOD     NA14434   4.294   0.892   0.913 -0.0127 -0.1251 -0.4201
  952SOD     NA14435   1.596   4.537   0.082  0.0125 -0.2891 -0.1703
  953SOD     NA14436   0.669   1.606  10.942  0.4039 -0.2061  0.1396
  954SOD     NA14437   0.381   2.311  12.729 -0.1112  0.2960 -0.4165
  955SOD     NA14438   2.908   0.762   2.752 -0.3498  0.0105 -0.3612
  956SOD     NA14439   1.545   2.047   0.480  0.1424 -0.1335 -0.3291
  957SOD     NA14440   1.610   3.367  11.384 -0.2165  0.6862 -0.0336
  958SOD     NA14441   1.979   2.871  14.164 -0.7336 -0.2110 -0.0437
  959SOD     NA14442   1.225   1.201   3.924 -0.3673 -0.4364 -0.2796
  960SOD     NA14443   3.978   4.279   7.390 -0.2581  0.5079  0.0794
  961SOD     NA14444   3.076   1.075   1.123 -0.0714  0.0683 -0.0538
  962SOD     NA14445   0.361   3.403  10.625  0.0121  0.2180 -0.0506
  963SOD     NA14446   1.505   0.776   0.257 -0.0285 -0.3355  0.0568
  964SOD     NA14447   1.774   3.601  12.170 -0.7373 -0.0277  0.2937
  965SOD     NA14448   2.361   3.727   1.305 -0.2912  0.2376  0.2282
  966SOD     NA14449   1.853   3.430   1.698 -0.1509 -0.1173 -0.4250
  967SOD     NA14450   1.880   2.705  13.930 -0.0649  0.3612  0.8725
  968SOD     NA14451   1.193   0.524   9.924  0.2981  0.7975 -0.4009
  969SOD     NA14452   3.101   4.492  12.977 -0.3542 -0.0016 -0.5750
  970SOD     NA14453   2.585   3.793   6.602  0.0674  0.4229  0.0790
  971SOD     NA14454   0.685   1.154  10.709 -0.0528 -0.1968 -0.0349
  972SOD     NA14455   2.196   3.402  14.888  0.0193  0.2006 -0.4754
  973SOD     NA14456   2.289   0.919  13.345 -0.4563 -0.0648  0.6977
  974SOD     NA14457   2.277   2.861   2.133  0.0285 -0.4607 -0.1677
  975SOD     NA14458   0.786   2.716   9.878  0.2503 -0.0161 -0.1229
  976SOD     NA14459   1.616   3.073  11.292 -0.0078  0.4399  0.2698
  977SOD     NA14460   1.716   1.947  12.716 -0.7765 -0.6676  0.4525
  978SOD     NA14461   1.646   2.420  11.224  0.5136 -0.3704  0.4683
  979SOD     NA14462   3.225   1.420   2.414  0.0583  0.3684  0.0852
  980SOD     NA14463   3.773   2.256  13.922 -0.1034  0.4733  0.2245
  981SOD     NA14464   0.358   2.906   8.958 -0.0607 -0.2150 -0.4158
  982SOD     NA14465   0.148   3.117  10.457  0.1659 -0.0093  0.1386
  983SOD     NA14466   0.324   0.583  15.564  0.4756 -0.3014  0.2401
  984SOD     NA14467   3.009   3.158  14.745 -0.1776 -0.3627 -0.0563
  985SOD     NA14468   0.678   3.632   1.494 -0.1132  0.4903 -0.1798
  986SOD     NA14469   4.287   2.164  15.081  0.3833  0.1148  0.0336
  987SOD     NA14470   1.882   3.059  13.938  0.0679  0.0222  0.2891
  988SOD     NA14471   1.719   1.064   8.619  0.1467  0.7642 -0.0475
  989SOD     NA14472   3.727   1.879   4.002 -0.1358  0.5043 -0.0443
  990SOD     NA14473   4.077   1.314   0.618  0.1486 -0.5666 -0.3127
  991SOD     NA14474   0.218   3.062  14.177  0.8057 -0.2164 -0.1150
  992SOD     NA14475   3.023   2.242  12.231 -0.0658 -0.0893  0.0339
  993SOD     NA14476   2.302   2.205  13.452  0.1212 -0.4781 -0.1369
  994SOD     NA14477   0.839   3.910  14.974 -0.1851 -0.3950 -0.1211
  995SOD     NA14478   0.843   0.525   3.165 -0.3002  0.4633 -0.2993
  996SOD     NA14479   0.233   2.551  12.818 -0.3426 -0.1073 -0.1138
  997SOD     NA14480   2.055   3.618   2.812  0.0757  0.0649  0.1546
  998SOD     NA14481   0.863   3.007   9.856 -0.2321 -0.1509  0.4927
  999SOD     NA14482   0.838   1.967  10.492 -0.4983 -0.0488  0.0757
 1000SOD     NA14483   3.772   3.915  10.085 -0.0450  0.2580  0.4990
 1001SOD     NA14484   3.436   4.238  11.681 -0.2221  0.7853 -0.1759
 1002SOD     NA14485   3.775   2.334   0.230  0.0761 -0.0912 -0.1135
 1003SOD     NA14486   1.724   1.990   0.196 -0.3696 -0.0822  0.1868
 1004SOD     NA14487   2.587   3.778  15.895 -0.1224  0.1211 -0.3599
 1005SOD     NA14488   3.560   1.436   8.316 -0.3174  0.0372  0.1150
 1006SOD     NA14489   0.625   1.699  12.651 -0.1845 -0.1554 -0.0322
 1007SOD     NA14490   1.391   2.798  11.465  0.2583 -0.1433 -0.3552
 1008SOD     NA14491   3.094   4.307  17.592 -0.4192 -0.2071  0.0269
 1009SOD     NA14492   2.944   3.832  10.750  0.4966  0.2182  0.0394
 1010SOD     NA14493   0.086   3.712  11.032 -0.2066  0.0039 -0.5182
 1011SOL     OW14494   0.540   0.949   5.545 -0.3644  0.1896  0.0118
 1011SOL    HW114495   0.458   0.998   5.535 -0.4910  0.5692  3.0357
 1011SOL    HW214496   0.512   0.878   5.487 -0.9990 -2.8015  3.9816
 1012SOL     OW14497   0.555   1.658   8.708 -0.3376 -0.3990  0.2904
 1012SOL    HW114498   0.628   1.626   8.656 -0.6302  0.0778 -0.4071
 1012SOL    HW214499   0.535   1.740   8.662 -1.6316 -0.9603 -0.1325
 1013SOL     OW14500   2.583   1.145   4.129 -0.1369  0.0236 -0.1502
 1013SOL    HW114501   2.606   1.236   4.110  2.9098 -0.9372 -0.9797
 1013SOL    HW214502   2.614   1.134   4.219  2.0039  0.2764 -0.8800
 1014SOL     OW14503   1.865   4.717   5.289 -0.3157  0.0570 -0.4038
 1014SOL    HW114504   1.960   4.715   5.299 -0.5564 -0.4947  1.8170
 1014SOL    HW214505   1.845   0.054   5.364  0.2316 -1.0131  0.5343
 1015SOL     OW14506   2.708   4.189   3.090  0.3982 -0.1351  0.0192
 1015SOL    HW114507   2.665   4.156   3.168 -2.0977  0.3195 -1.1603
 1015SOL    HW214508   2.763   4.115   3.063  0.0326 -0.8361  1.2309
 1016SOL     OW14509   0.639   3.615   6.018 -0.0371 -0.3426 -0.2230
 1016SOL    HW114510   0.694   3.652   6.087 -0.8586 -2.9617  1.8364
 1016SOL    HW214511   0.643   3.525   6.048 -1.2377  0.0257  1.0435
 1017SOL     OW14512   3.390   1.556  10.861 -0.2849  0.0734  0.5073
 1017SOL    HW114513   3.329   1.601  10.918 -0.4926  0.3524  0.0619
 1017SOL    HW214514   3.404   1.469  10.898 -1.3490 -0.1970  0.2818
 1018SOL     OW14515   2.766   1.001   5.791  0.2577  0.5319 -0.2615
 1018SOL    HW114516   2.694   1.042   5.839 -1.9115 -0.7373 -2.4172
 1018SOL    HW214517   2.843   1.009   5.847  1.4541  2.0191 -2.1303
 1019SOL     OW14518   3.203   4.719   7.403 -0.1442  0.4126  0.2427
 1019SOL    HW114519   3.231   4.645   7.348  1.9681  1.7254 -0.4431
 1019SOL    HW214520   3.289   0.034   7.425  0.1160 -0.1516  0.1270
 1020SOL     OW14521   4.361   0.211   3.735 -0.6499 -0.4570  0.3457
 1020SOL    HW114522   4.328   0.213   3.645  1.0591  2.6470 -0.1965
 1020SOL    HW214523   4.298   0.153   3.779  0.6782 -2.0382  0.1592
 1021SOL     OW14524   3.260   0.580  17.022  0.4197  0.3650  0.0708
 1021SOL    HW114525   3.263   0.489  17.051 -1.5578 -0.1279 -1.2304
 1021SOL    HW214526   3.350   0.594  16.995  0.3175 -1.8721 -1.4999
 1022SOL     OW14527   2.626   1.230  14.513 -0.3714  0.2740 -0.2041
 1022SOL    HW114528   2.692   1.299  14.507  0.3098 -0.2374  1.5079
 1022SOL    HW214529   2.614   1.199  14.424  1.1368 -0.7880 -0.0375
 1023SOL     OW14530   1.418   4.055   0.664 -0.4143  0.3575 -0.1766
 1023SOL    HW114531   1.363   4.116   0.615 -0.5260  0.8513  0.5491
 1023SOL    HW214532   1.436   3.984   0.603  1.0798  1.0887 -0.5715
 1024SOL     OW14533   4.158   3.394  12.299  0.2927  0.4428  0.1160
 1024SOL    HW114534   4.212   3.323  12.333  0.1252  0.0312 -0.4598
 1024SOL    HW214535   4.113   3.335  12.238 -0.9513  1.3074  0.2141
 1025SOL     OW14536   2.031   1.049   3.986  0.5787  0.3496  0.0239
 1025SOL    HW114537   2.098   1.081   4.047 -0.7844 -0.5321  1.9961
 1025SOL    HW214538   2.079   0.977   3.945  2.1704  1.4418 -0.0439
 1026SOL     OW14539   2.771   3.914   5.783 -0.4465  0.3798  0.7968
 1026SOL    HW114540   2.849   3.926   5.838  1.1593 -2.1014 -0.9504
 1026SOL    HW214541   2.800   3.849   5.719 -1.5181 -0.2601  0.9752
 1027SOL     OW14542   2.394   1.838   5.241 -0.1250  0.6178 -0.4087
 1027SOL    HW114543   2.397   1.769   5.175  2.9979  0.7098 -0.3766
 1027SOL    HW214544   2.479   1.880   5.232 -1.0602  2.0438 -2.5051
 1028SOL     OW14545   3.988   1.052  12.798 -0.0141 -0.1859 -0.6444
 1028SOL    HW114546   4.054   0.983  12.793  0.2125  0.0246 -0.5576
 1028SOL    HW214547   3.978   1.070  12.892 -0.9062 -0.4982 -0.6775
 1029SOL     OW14548   3.397   0.192   1.695  0.3597  0.2135 -0.1781
 1029SOL    HW114549   3.301   0.196   1.688  0.4412  1.4483 -0.5963
 1029SOL    HW214550   3.419   0.268   1.642  2.0490 -0.5387 -0.5416
 1030SOL     OW14551   4.456   2.034   2.859 -0.0922  0.1978 -0.2205
 1030SOL    HW114552   4.501   1.986   2.928  1.4920 -0.8348 -1.9648
 1030SOL    HW214553   4.532   2.049   2.802 -0.8512  2.5049 -0.6442
 1031SOL     OW14554   0.665   1.820   0.235 -0.6198 -0.9524  0.2904
 1031SOL    HW114555   0.648   1.773   0.317 -1.2907  2.2401  2.0139
 1031SOL    HW214556   0.595   1.792   0.177 -2.0072 -2.9650  2.9250
 1032SOL     OW14557   1.061   2.600   8.121 -0.0473 -0.0799  0.2155
 1032SOL    HW114558   1.119   2.670   8.092  0.3823 -0.1157  0.9888
 1032SOL    HW214559   0.994   2.601   8.052  0.4217 -2.5235 -0.2710
 1033SOL     OW14560   1.264   4.585  12.613  0.6242  0.0333 -0.2074
 1033SOL    HW114561   1.231   4.593  12.523 -1.0253 -1.3299  0.2704
 1033SOL    HW214562   1.357   4.591  12.593  0.6308 -0.4100 -0.2943
 1034SOL     OW14563   0.322   1.572  11.897 -0.6094  0.0574 -0.4050
 1034SOL    HW114564   0.339   1.593  11.806  0.1254 -2.1100 -0.7857
 1034SOL    HW214565   0.227   1.583  11.900 -0.9171 -2.3524 -0.7931
 1035SOL     OW14566   0.898   1.504   0.647  0.9727  0.7288  0.4481
 1035SOL    HW114567   0.941   1.543   0.723  1.5491 -3.0638  2.1028
 1035SOL    HW214568   0.822   1.463   0.689 -0.6261  2.0721 -1.1451
 1036SOL     OW14569   3.783   4.649  14.658 -0.0965  0.1023 -0.5807
 1036SOL    HW114570   3.799   4.577  14.719  1.5047  0.5137 -0.5202
 1036SOL    HW214571   3.785   4.593  14.580  1.0204 -0.9365  0.1979
 1037SOL     OW14572   3.948   0.397   4.293 -0.3095  0.3118  0.1530
 1037SOL    HW114573   3.975   0.306   4.304  0.7803  0.5147 -0.8799
 1037SOL    HW214574   3.951   0.410   4.198  1.4855 -0.0918  0.1567
 1038SOL     OW14575   0.816   1.189  16.006 -0.4721  0.0538  0.2540
 1038SOL    HW114576   0.777   1.274  16.026  1.1278  0.5826  1.1569
 1038SOL    HW214577   0.909   1.209  16.015 -0.7306  1.6543 -0.6383
 1039SOL     OW14578   1.094   3.975  14.413  0.2652  0.7757  0.3139
 1039SOL    HW114579   1.067   4.066  14.424 -0.0899  0.6865  0.2019
 1039SOL    HW214580   1.184   3.976  14.381 -0.2158 -0.7072 -1.1021
 1040SOL     OW14581   4.616   3.473   7.099  0.0562  0.2217 -0.0640
 1040SOL    HW114582   4.561   3.497   7.024  0.5606 -0.1055 -0.5387
 1040SOL    HW214583   4.636   3.559   7.136  1.7575 -0.8433  1.4685
 1041SOL     OW14584   4.238   0.447  13.617  0.3308  0.3648 -0.5875
 1041SOL    HW114585   4.242   0.353  13.599 -3.2312  0.1090  0.1189
 1041SOL    HW214586   4.331   0.469  13.628  0.5305 -0.4089 -0.6756
 1042SOL     OW14587   4.529   0.588   3.477 -0.1177  0.1152 -0.2272
 1042SOL    HW114588   4.510   0.559   3.388 -0.4675 -0.4436  0.0260
 1042SOL    HW214589   4.519   0.682   3.463 -0.1833  0.3075  1.1416
 1043SOL     OW14590   3.193   2.345   1.269  0.3203 -0.3384 -0.1279
 1043SOL    HW114591   3.106   2.339   1.309  1.0265 -0.6177  1.3430
 1043SOL    HW214592   3.214   2.435   1.294 -1.6083  0.4005 -1.2092
 1044SOL     OW14593   3.843   3.768   8.956  0.0014 -0.4181  0.2165
 1044SOL    HW114594   3.845   3.801   9.046 -0.2747  0.0414  0.0573
 1044SOL    HW214595   3.904   3.695   8.966  0.5692  0.0071 -0.1208
 1045SOL     OW14596   3.367   0.078   5.038 -0.2349 -0.1422  0.1840
 1045SOL    HW114597   3.398   0.009   5.096 -2.4060 -0.6551  0.7199
 1045SOL    HW214598   3.447   0.130   5.027  1.9863 -3.1929  2.1217
 1046SOL     OW14599   0.853   4.253   8.093  0.7133 -0.2347 -0.0471
 1046SOL    HW114600   0.873   4.208   8.011  1.4305  2.1182 -1.1883
 1046SOL    HW214601   0.799   4.327   8.063  2.2612  0.4866 -1.0848
 1047SOL     OW14602   2.753   2.672   1.801  0.0912  0.2244 -0.4739
 1047SOL    HW114603   2.792   2.636   1.881  1.0778  1.0550 -0.5723
 1047SOL    HW214604   2.766   2.766   1.814  0.2665  0.2706 -0.9749
 1048SOL     OW14605   4.154   3.491   9.403  0.2323  0.2059  0.1841
 1048SOL    HW114606   4.138   3.501   9.309 -1.4137  0.4864  0.5063
 1048SOL    HW214607   4.243   3.455   9.405  0.6610  1.1682 -1.8010
 1049SOL     OW14608   1.905   2.130  13.768 -0.0875  0.1528 -0.0285
 1049SOL    HW114609   1.831   2.150  13.826  0.4749  2.0852  0.0383
 1049SOL    HW214610   1.916   2.209  13.716  1.6489 -0.1972 -0.2032
 1050SOL     OW14611   0.530   0.243  15.482  0.4130 -0.0057 -0.2354
 1050SOL    HW114612   0.577   0.305  15.539 -0.9467  0.0990  0.7612
 1050SOL    HW214613   0.509   0.179  15.550  0.7086 -0.9374 -1.0185
 1051SOL     OW14614   0.930   0.485   5.557  0.0226  0.2780  0.2586
 1051SOL    HW114615   0.913   0.427   5.483  0.8208 -0.6891  0.8384
 1051SOL    HW214616   1.015   0.518   5.529  1.3099  0.1220  4.0107
 1052SOL     OW14617   4.235   3.139   5.689  0.2564 -0.3781  0.0361
 1052SOL    HW114618   4.305   3.115   5.749  0.9961  0.5343 -0.4524
 1052SOL    HW214619   4.185   3.058   5.678  3.1630 -1.9601 -1.5385
 1053SOL     OW14620   1.526   1.215   7.210 -0.1845  0.2789 -0.2931
 1053SOL    HW114621   1.496   1.178   7.127  0.6599  1.8721 -1.3035
 1053SOL    HW214622   1.619   1.221   7.190 -0.2840  0.3242 -0.7478
 1054SOL     OW14623   3.090   1.006   9.209  0.1011  0.3536 -0.4850
 1054SOL    HW114624   3.084   1.062   9.132 -0.3358 -1.2377 -1.6056
 1054SOL    HW214625   3.038   1.061   9.268  0.8130  0.0214  0.4443
 1055SOL     OW14626   3.935   2.582   4.109 -0.1601  0.3714  0.0075
 1055SOL    HW114627   3.857   2.632   4.132 -1.2188 -0.4641 -1.6905
 1055SOL    HW214628   3.987   2.655   4.076  0.7358 -1.6720 -3.1971
 1056SOL     OW14629   1.699   0.335   2.368 -0.1643  0.2377  0.5099
 1056SOL    HW114630   1.629   0.278   2.336 -2.4969  2.1679  2.2475
 1056SOL    HW214631   1.766   0.312   2.304 -0.4359  1.1796 -0.1090
 1057SOL     OW14632   0.674   2.375  15.317  0.4066  0.2983  0.6863
 1057SOL    HW114633   0.666   2.468  15.337  2.2177  0.6038 -0.0277
 1057SOL    HW214634   0.757   2.368  15.270  1.1064 -0.0193  1.9816
 1058SOL     OW14635   0.776   3.825   1.561 -0.6982 -0.0632  0.3827
 1058SOL    HW114636   0.731   3.909   1.568  0.0559  0.4478 -0.8949
 1058SOL    HW214637   0.863   3.849   1.530 -1.3117  2.2732  0.4632
 1059SOL     OW14638   2.106   1.192   8.331 -0.0558  0.7572 -0.3888
 1059SOL    HW114639   2.181   1.166   8.384  0.9562 -0.3921 -2.3755
 1059SOL    HW214640   2.103   1.130   8.258 -0.7161 -0.5934  0.7885
 1060SOL     OW14641   4.048   2.430  13.232  0.4749  0.1294 -0.2924
 1060SOL    HW114642   4.048   2.351  13.179  0.1631 -1.7644  2.5165
 1060SOL    HW214643   3.998   2.404  13.310 -2.1864 -0.8758 -2.3596
 1061SOL     OW14644   0.423   1.941   1.378  0.0534  0.4826 -0.6701
 1061SOL    HW114645   0.376   2.003   1.435  0.8181  0.2780  0.1837
 1061SOL    HW214646   0.411   1.974   1.289 -0.5723 -1.2033 -1.2054
 1062SOL     OW14647   0.821   1.022  15.703 -0.7374 -0.7284  0.5319
 1062SOL    HW114648   0.863   1.019  15.789 -1.4104 -0.6714  0.8613
 1062SOL    HW214649   0.826   1.118  15.701 -1.6212 -0.6754  1.0131
 1063SOL     OW14650   0.046   3.146   7.081 -0.1756  0.5564 -0.1677
 1063SOL    HW114651   0.045   3.235   7.046  1.4119  1.0160  0.9673
 1063SOL    HW214652   0.065   3.157   7.174  0.3345 -0.5176 -0.1390
 1064SOL     OW14653   3.560   1.618   5.653  0.1752  0.2207  0.7637
 1064SOL    HW114654   3.562   1.537   5.704  0.7452 -0.3362 -0.1499
 1064SOL    HW214655   3.508   1.588   5.579  1.5707 -0.9392  0.2479
 1065SOL     OW14656   1.819   3.749   1.069 -0.3502 -0.4541 -0.1172
 1065SOL    HW114657   1.788   3.780   0.984  1.5116  2.4549  0.2942
 1065SOL    HW214658   1.737   3.705   1.093 -0.2437  0.3253  1.6593
 1066SOL     OW14659   0.443   3.247   7.106  0.1693 -0.0044 -0.1694
 1066SOL    HW114660   0.390   3.237   7.184  0.1577  1.4914  0.0159
 1066SOL    HW214661   0.528   3.219   7.139  0.9576  2.3975 -0.1339
 1067SOL     OW14662   2.446   4.652   7.401 -0.3816  0.2558  0.5476
 1067SOL    HW114663   2.354   4.666   7.423 -0.0061  2.4423  0.7256
 1067SOL    HW214664   2.481   4.599   7.473 -0.8001  1.1342  1.3930
 1068SOL     OW14665   2.035   1.508   6.976  0.0912  0.7461  0.2739
 1068SOL    HW114666   2.073   1.584   7.021  0.5458 -1.1226  3.0413
 1068SOL    HW214667   1.945   1.542   6.967 -0.8776 -1.3964  2.0482
 1069SOL     OW14668   1.372   3.460   4.109  0.4043  0.4451 -0.3883
 1069SOL    HW114669   1.279   3.438   4.113  1.1365 -2.6008 -0.2105
 1069SOL    HW214670   1.373   3.539   4.054 -0.8173  1.1151  0.5439
 1070SOL     OW14671   4.013   2.208  13.048 -0.4830  0.1480 -0.5109
 1070SOL    HW114672   3.947   2.170  13.106 -1.1301  2.9993  0.6411
 1070SOL    HW214673   3.964   2.212  12.966 -1.1288 -0.7231 -0.1585
 1071SOL     OW14674   3.035   0.859   5.094  0.3339 -0.5832 -0.0635
 1071SOL    HW114675   3.128   0.835   5.093  0.5180  0.2336 -2.3965
 1071SOL    HW214676   3.043   0.954   5.102  1.7298 -0.4924 -2.5299
 1072SOL     OW14677   0.438   4.198   0.946  0.5289  0.3868  0.3105
 1072SOL    HW114678   0.411   4.123   1.001  3.2533 -0.0785  1.0100
 1072SOL    HW214679   0.356   4.216   0.901  0.7821 -0.6091 -0.5542
 1073SOL     OW14680   2.288   0.205   6.486 -0.1953 -0.1015 -0.1099
 1073SOL    HW114681   2.304   0.186   6.578 -0.7904 -1.9939 -0.3841
 1073SOL    HW214682   2.192   0.209   6.485 -0.1210  0.5791 -4.4993
 1074SOL     OW14683   1.392   0.682   4.272  0.4737  0.3868  0.1010
 1074SOL    HW114684   1.486   0.672   4.262  0.3561  1.0465 -1.5760
 1074SOL    HW214685   1.396   0.769   4.312 -0.7965  0.2916  0.4336
 1075SOL     OW14686   0.620   1.404   4.915 -0.0217  0.3005  0.8358
 1075SOL    HW114687   0.589   1.488   4.879  1.2183 -0.0629 -1.1006
 1075SOL    HW214688   0.590   1.351   4.842 -0.3403  3.0486 -1.0578
 1076SOL     OW14689   1.481   1.936   9.068 -0.0409 -0.0746 -0.1737
 1076SOL    HW114690   1.512   1.859   9.020  5.1584  0.9391  1.5047
 1076SOL    HW214691   1.562   1.974   9.103 -0.1967 -1.3548  1.6015
 1077SOL     OW14692   2.255   0.795   5.702  0.3953  0.3311 -0.2163
 1077SOL    HW114693   2.338   0.796   5.654 -0.0806  0.2761 -1.0561
 1077SOL    HW214694   2.232   0.703   5.719  3.8502 -0.5342 -0.2330
 1078SOL     OW14695   3.480   2.933  17.263  0.3004  0.0028 -0.0579
 1078SOL    HW114696   3.475   3.026  17.244 -0.0501  0.0455  0.2559
 1078SOL    HW214697   3.390   2.913  17.286  0.2712  0.3807  0.1451
 1079SOL     OW14698   3.644   4.181  12.428  0.0961  0.2423 -0.1371
 1079SOL    HW114699   3.559   4.204  12.392  0.2492 -1.1418 -1.3915
 1079SOL    HW214700   3.656   4.088  12.408 -1.3341 -0.0432  0.3498
 1080SOL     OW14701   3.099   3.351   9.127  0.0469  0.2635 -0.1221
 1080SOL    HW114702   3.172   3.290   9.136  1.7751  2.6449  1.8434
 1080SOL    HW214703   3.137   3.438   9.131 -0.2610  0.4434 -1.0620
 1081SOL     OW14704   2.030   3.559   6.475  0.4514 -0.7963 -0.1058
 1081SOL    HW114705   2.032   3.470   6.510  1.6237  0.0070  1.8479
 1081SOL    HW214706   1.995   3.606   6.550 -1.2561 -1.6848 -0.3471
 1082SOL     OW14707   3.592   3.797  10.186  0.0777 -0.0230 -0.2283
 1082SOL    HW114708   3.637   3.769  10.265  0.4827  1.0354 -0.0856
 1082SOL    HW214709   3.507   3.815  10.228  0.6797 -1.0547  1.4235
 1083SOL     OW14710   1.770   1.076   2.973  0.7512 -0.4003 -0.3357
 1083SOL    HW114711   1.860   1.084   3.006  0.8125 -0.6730 -0.4332
 1083SOL    HW214712   1.706   1.099   3.039  0.1190  1.4822 -1.6138
 1084SOL     OW14713   1.542   2.790   1.411 -0.3112  0.2329  0.1193
 1084SOL    HW114714   1.605   2.721   1.430  2.4266  2.3086 -1.3128
 1084SOL    HW214715   1.508   2.749   1.332 -0.3945  0.0411  0.2562
 1085SOL     OW14716   1.000   1.796   7.642 -0.2823  0.0391 -0.1320
 1085SOL    HW114717   0.970   1.837   7.723  1.4542  0.5151  0.2702
 1085SOL    HW214718   1.089   1.775   7.670 -0.0252  2.3817  0.7934
 1086SOL     OW14719   4.108   1.332  12.176 -0.6604 -0.5046  0.2306
 1086SOL    HW114720   4.202   1.329  12.190 -0.9144 -0.2704  2.0766
 1086SOL    HW214721   4.101   1.414  12.128  0.3937 -0.6708 -0.1940
 1087SOL     OW14722   2.733   3.035   7.688  0.6437  0.0261 -0.2559
 1087SOL    HW114723   2.663   3.024   7.753 -1.0318 -0.1957 -2.1080
 1087SOL    HW214724   2.713   3.124   7.661  0.2498  0.3282  1.0093
 1088SOL     OW14725   2.529   3.748   1.455 -0.0840  0.2877  0.2582
 1088SOL    HW114726   2.535   3.785   1.543  2.1143  1.7679 -0.5039
 1088SOL    HW214727   2.623   3.743   1.435 -0.2169 -0.2673 -0.2370
 1089SOL     OW14728   3.578   4.096   4.613  0.1948  0.0577 -0.3633
 1089SOL    HW114729   3.573   4.029   4.544 -2.4437  0.1507 -0.2742
 1089SOL    HW214730   3.509   4.160   4.594  0.8364  1.2488  1.3101
 1090SOL     OW14731   1.691   0.240  17.597 -1.0740 -0.4535 -0.2170
 1090SOL    HW114732   1.753   0.227  17.525  0.9862 -0.0248  1.4489
 1090SOL    HW214733   1.757   0.269  17.660  0.7631 -2.2192 -1.3176
 1091SOL     OW14734   1.403   4.601   6.226 -0.2000 -0.9502 -0.5651
 1091SOL    HW114735   1.318   4.566   6.254 -0.9697 -0.0852 -1.7841
 1091SOL    HW214736   1.457   4.523   6.235  0.4300 -0.3491  0.8868
 1092SOL     OW14737   0.740   0.212  10.085 -0.3231  0.2548  0.7357
 1092SOL    HW114738   0.667   0.268  10.111 -2.1130 -1.9729  0.4965
 1092SOL    HW214739   0.810   0.231  10.148  1.8535 -0.3355 -1.4894
 1093SOL     OW14740   4.553   1.180   7.837 -0.0546 -0.1399 -0.1410
 1093SOL    HW114741   4.473   1.172   7.784 -1.1217 -0.3082  1.5150
 1093SOL    HW214742   4.610   1.115   7.796  1.3112  0.6492  0.5097
 1094SOL     OW14743   2.353   0.156  16.047  0.0239  0.2244 -0.0358
 1094SOL    HW114744   2.305   0.085  16.004 -0.8824  1.0911 -0.4498
 1094SOL    HW214745   2.445   0.133  16.033  0.2397  0.9746  0.1433
 1095SOL     OW14746   0.476   4.557   2.709  0.1328 -0.0895 -0.3400
 1095SOL    HW114747   0.539   4.561   2.637 -0.7645  0.6873 -1.0879
 1095SOL    HW214748   0.410   4.497   2.674 -1.7519  0.7108  1.7882
 1096SOL     OW14749   0.492   1.771   5.858  0.3274  0.6734  0.0322
 1096SOL    HW114750   0.470   1.722   5.779  0.2906 -3.2394  2.4828
 1096SOL    HW214751   0.555   1.837   5.828 -0.4256  2.2723  1.9431
 1097SOL     OW14752   0.395   1.454   8.383  0.0307 -0.0753 -0.5524
 1097SOL    HW114753   0.441   1.509   8.319 -0.7192  0.0127 -1.0240
 1097SOL    HW214754   0.382   1.513   8.457 -1.3247  0.3322 -1.1244
 1098SOL     OW14755   1.609   2.383   3.926  0.4596  0.4532  0.6585
 1098SOL    HW114756   1.648   2.440   3.859  0.3722 -1.4502 -1.0303
 1098SOL    HW214757   1.662   2.404   4.002 -0.0372 -0.5920  1.2879
 1099SOL     OW14758   2.257   3.144   4.629  0.0323  0.1386  0.6735
 1099SOL    HW114759   2.214   3.226   4.606  4.0449  2.5907  1.7816
 1099SOL    HW214760   2.186   3.081   4.643  3.2718 -3.6728 -0.0659
 1100SOL     OW14761   2.109   1.717   8.751 -0.3609 -0.1887  0.1811
 1100SOL    HW114762   2.107   1.654   8.678 -0.9353  1.1913 -0.9848
 1100SOL    HW214763   2.123   1.657   8.825  0.1203 -1.5655 -1.0151
 1101SOL     OW14764   2.047   0.060   4.593 -0.2183  0.0208 -0.1312
 1101SOL    HW114765   2.100   0.134   4.562  1.5017 -1.3412 -0.4267
 1101SOL    HW214766   1.968   0.104   4.624 -0.4642 -0.7357  0.3163
 1102SOL     OW14767   2.961   3.830   3.111  0.2338  0.3822  0.2204
 1102SOL    HW114768   2.985   3.923   3.109  2.5140 -0.1962  0.7484
 1102SOL    HW214769   2.900   3.828   3.184 -0.0456  2.6700  0.0459
 1103SOL     OW14770   2.436   3.734  11.415  0.6229 -0.2261 -0.0580
 1103SOL    HW114771   2.344   3.719  11.437  0.3970 -2.2521 -2.4432
 1103SOL    HW214772   2.447   3.824  11.447 -2.9500  0.1017  0.2735
 1104SOL     OW14773   1.279   0.330   6.797 -0.7407 -0.5826  0.5654
 1104SOL    HW114774   1.233   0.248   6.814  2.0013 -2.0664  0.8950
 1104SOL    HW214775   1.239   0.348   6.713  0.3455 -0.7548  0.0074
 1105SOL     OW14776   1.460   1.130   4.565  0.3667  0.1079 -0.0872
 1105SOL    HW114777   1.463   1.136   4.661 -0.0988 -1.8129  0.0557
 1105SOL    HW214778   1.531   1.185   4.534  0.7310 -1.9759 -2.9748
 1106SOL     OW14779   0.763   2.125  16.500  0.7873  0.1168 -0.6316
 1106SOL    HW114780   0.749   2.038  16.463 -0.5897  0.6078 -1.2771
 1106SOL    HW214781   0.794   2.168  16.420  0.9838  2.8093  0.8683
 1107SOL     OW14782   1.522   2.673   7.590 -0.5212  0.3429 -0.3334
 1107SOL    HW114783   1.450   2.703   7.535 -2.8265  0.0212  2.4828
 1107SOL    HW214784   1.507   2.578   7.598 -0.3389  0.2993 -0.5280
 1108SOL     OW14785   4.041   1.105   4.178  0.4698  0.0797  0.5486
 1108SOL    HW114786   3.981   1.139   4.112 -0.1358 -3.1611 -0.5911
 1108SOL    HW214787   4.100   1.077   4.107 -0.3243 -1.0590  0.3350
 1109SOL     OW14788   4.064   0.594  16.155 -0.1828 -0.7145 -0.0804
 1109SOL    HW114789   4.051   0.603  16.061  1.4654  0.7334 -0.1541
 1109SOL    HW214790   4.000   0.524  16.168 -1.2229  0.0460 -1.0839
 1110SOL     OW14791   2.180   1.891   8.338  0.6338 -0.0765 -0.3681
 1110SOL    HW114792   2.129   1.837   8.277  0.9125  2.1118 -2.5383
 1110SOL    HW214793   2.128   1.924   8.412 -1.9472 -0.1410 -2.1357
 1111SOL     OW14794   3.823   4.258   3.929 -0.3845  0.9521 -0.2183
 1111SOL    HW114795   3.759   4.287   3.865 -0.3645  1.4212 -0.0300
 1111SOL    HW214796   3.874   4.200   3.872 -0.0207  0.2588  0.8217
 1112SOL     OW14797   0.619   3.942   4.052  0.2432 -0.2927 -0.6024
 1112SOL    HW114798   0.685   3.941   3.983 -0.0921  0.6253 -0.9303
 1112SOL    HW214799   0.552   3.995   4.009 -0.4935 -0.2427  0.6099
 1113SOL     OW14800   3.565   3.763   7.828 -0.2341 -0.1049  0.1000
 1113SOL    HW114801   3.592   3.761   7.920 -3.0709 -2.9370  0.9046
 1113SOL    HW214802   3.469   3.768   7.830 -0.3753 -3.1816  1.2433
 1114SOL     OW14803   0.116   3.234   6.038  0.6007 -0.4394 -0.1974
 1114SOL    HW114804   0.212   3.233   6.043  0.5667 -2.4280 -0.0955
 1114SOL    HW214805   0.097   3.151   5.995  2.8757 -1.0327 -0.0740
 1115SOL     OW14806   0.225   2.654   5.111  0.4812 -0.8252  0.0733
 1115SOL    HW114807   0.151   2.657   5.050  0.5145 -0.5017  0.0509
 1115SOL    HW214808   0.178   2.643   5.193 -1.4563 -0.9871 -1.0647
 1116SOL     OW14809   0.359   4.022   7.942  0.0489 -0.0400  0.3529
 1116SOL    HW114810   0.426   4.075   7.985 -2.8885  2.1319  2.2011
 1116SOL    HW214811   0.375   3.933   7.972 -1.6232 -0.1863  0.7616
 1117SOL     OW14812   2.771   2.436  16.714  0.5611  0.2690  0.1985
 1117SOL    HW114813   2.807   2.520  16.744 -0.6489  0.2941  1.5908
 1117SOL    HW214814   2.736   2.396  16.794 -3.2520  1.9508 -0.6318
 1118SOL     OW14815   0.830   0.416   3.387  0.1969 -0.0832 -0.1829
 1118SOL    HW114816   0.750   0.382   3.347  0.1925  0.3482 -0.5374
 1118SOL    HW214817   0.879   0.336   3.409  1.5392  1.0446  0.9929
 1119SOL     OW14818   0.678   4.131   2.443 -0.1622  0.1454  0.2991
 1119SOL    HW114819   0.657   4.062   2.380 -1.1092  0.0056  0.7643
 1119SOL    HW214820   0.725   4.194   2.388  1.5494 -1.5287 -0.1587
 1120SOL     OW14821   2.065   2.259   9.223  0.1998 -0.5585  0.5260
 1120SOL    HW114822   2.103   2.278   9.309 -0.1697 -2.0099  1.0136
 1120SOL    HW214823   2.121   2.186   9.198  3.3340  1.5916  1.1674
 1121SOL     OW14824   2.649   1.543   1.061 -0.1258 -0.2975 -0.3229
 1121SOL    HW114825   2.699   1.528   0.980  0.0822  0.1107 -0.2712
 1121SOL    HW214826   2.594   1.617   1.036 -0.6929 -0.7610 -0.4272
 1122SOL     OW14827   0.922   0.009   0.669 -0.1234  0.1369 -0.0115
 1122SOL    HW114828   0.888   0.004   0.579  0.8889  0.3426 -0.3983
 1122SOL    HW214829   0.840   0.017   0.718  0.0067  1.2263  0.0283
 1123SOL     OW14830   4.588   0.300  12.596  0.4831  0.1091 -0.3707
 1123SOL    HW114831   4.553   0.388  12.601  2.1819  0.9208 -2.5085
 1123SOL    HW214832   4.632   0.296  12.511  0.1055 -0.2234 -0.5529
 1124SOL     OW14833   0.744   1.100   0.679  0.2352 -0.2951  0.2357
 1124SOL    HW114834   0.832   1.109   0.716  0.4871 -0.2900 -0.3597
 1124SOL    HW214835   0.759   1.023   0.624  1.9819 -0.8551  1.5092
 1125SOL     OW14836   4.567   1.124   0.591  0.7994  0.2988 -0.2978
 1125SOL    HW114837   4.521   1.113   0.507 -1.5944 -1.0905  1.1944
 1125SOL    HW214838   4.550   1.217   0.601  0.4681  0.3611 -1.3860
 1126SOL     OW14839   3.791   2.868   2.385 -0.1138  0.0410 -0.0800
 1126SOL    HW114840   3.869   2.921   2.401  0.5568 -0.6318 -1.1790
 1126SOL    HW214841   3.833   2.806   2.326  0.1606  0.9366 -0.8160
 1127SOL     OW14842   0.635   1.050   4.709  0.5359 -0.1154  0.7224
 1127SOL    HW114843   0.577   1.065   4.635  0.7944 -1.6311  0.2121
 1127SOL    HW214844   0.672   0.967   4.678  1.7662  1.1142 -1.0834
 1128SOL     OW14845   0.935   0.211  11.559 -0.3564  0.0999  0.4294
 1128SOL    HW114846   0.957   0.173  11.474  1.0123  2.6454 -0.3673
 1128SOL    HW214847   0.943   0.305  11.542  1.2515 -0.1234 -0.0483
 1129SOL     OW14848   0.498   3.015  10.447  0.2882  0.5453 -0.5478
 1129SOL    HW114849   0.421   3.029  10.502 -0.9300 -0.9741 -1.8674
 1129SOL    HW214850   0.521   2.928  10.479  1.1252  0.5752 -1.0501
 1130SOL     OW14851   1.416   2.947  13.225  0.0810  0.0561 -0.1320
 1130SOL    HW114852   1.424   2.980  13.315  1.6957 -2.2494  0.5625
 1130SOL    HW214853   1.394   3.026  13.176  1.0699  1.5482  1.8380
 1131SOL     OW14854   0.283   0.889   4.821 -0.8990  0.1754  0.0757
 1131SOL    HW114855   0.218   0.887   4.892  1.2202 -0.1623  1.9972
 1131SOL    HW214856   0.229   0.877   4.743  0.5571 -2.5929 -0.4992
 1132SOL     OW14857   1.186   0.507   6.571 -0.1930  0.3184 -0.0918
 1132SOL    HW114858   1.267   0.549   6.599  0.8342 -2.3423  0.9419
 1132SOL    HW214859   1.201   0.520   6.478 -1.8968 -2.7070 -0.7919
 1133SOL     OW14860   2.246   2.798   7.480 -0.6093  0.9063 -0.0024
 1133SOL    HW114861   2.302   2.857   7.429  1.4098  0.3018  1.5237
 1133SOL    HW214862   2.243   2.742   7.402  1.0062  2.2431 -1.0214
 1134SOL     OW14863   0.468   0.981  14.972  0.6910  0.5140 -0.0653
 1134SOL    HW114864   0.432   0.935  14.897  0.2747  0.4575  0.1686
 1134SOL    HW214865   0.535   0.924  15.010  0.5741  0.6223  0.3016
 1135SOL     OW14866   2.126   4.413  17.472 -0.4225  0.6009  0.4551
 1135SOL    HW114867   2.120   4.334  17.417  0.7482  2.4416 -2.2957
 1135SOL    HW214868   2.038   4.451  17.480 -1.1950 -1.5635  2.3699
 1136SOL     OW14869   3.504   1.390   4.332 -0.0408 -0.1994 -0.1327
 1136SOL    HW114870   3.476   1.425   4.247  1.0689 -0.9279 -0.7922
 1136SOL    HW214871   3.553   1.468   4.359 -1.0188  1.1233 -2.1281
 1137SOL     OW14872   4.265   1.394  14.063  0.5092 -0.3526 -0.4304
 1137SOL    HW114873   4.196   1.335  14.032  0.1129 -0.0144 -0.1840
 1137SOL    HW214874   4.245   1.475  14.016 -0.1881 -1.4375 -2.0122
 1138SOL     OW14875   1.064   0.360   4.933  0.1308  0.3441  0.8695
 1138SOL    HW114876   1.088   0.447   4.965  0.8963 -0.4529  2.4603
 1138SOL    HW214877   0.993   0.374   4.871  1.1883  1.1818 -0.1594
 1139SOL     OW14878   0.731   1.286   7.826 -0.4133 -0.1356 -0.0553
 1139SOL    HW114879   0.657   1.245   7.869  0.6515 -2.6549 -0.6661
 1139SOL    HW214880   0.789   1.213   7.806 -1.8502 -0.3989 -3.2663
 1140SOL     OW14881   1.667   4.547   0.575 -0.0076  0.0766  0.3465
 1140SOL    HW114882   1.656   4.494   0.496 -1.9279  0.5878  0.2481
 1140SOL    HW214883   1.598   4.507   0.628  0.2268  0.3111  0.8188
 1141SOL     OW14884   0.222   2.509  14.588 -0.0796  0.4086  0.2921
 1141SOL    HW114885   0.303   2.534  14.544 -0.7629  1.9868 -0.0711
 1141SOL    HW214886   0.175   2.592  14.579 -0.3019  0.4340  1.8221
 1142SOL     OW14887   2.108   2.521  13.704  0.1712 -0.2753 -0.3590
 1142SOL    HW114888   2.019   2.494  13.727  0.2139 -0.2196 -0.1378
 1142SOL    HW214889   2.100   2.555  13.614  0.4939 -1.7835 -0.9643
 1143SOL     OW14890   2.589   0.729  14.792 -0.1954  0.4010  0.0704
 1143SOL    HW114891   2.516   0.753  14.736 -0.4646  1.6204  0.9416
 1143SOL    HW214892   2.569   0.784  14.868  1.4138  0.7521  0.2504
 1144SOL     OW14893   4.677   4.706   6.218  0.1456 -0.1942 -0.4278
 1144SOL    HW114894   4.641   0.047   6.282  1.6032 -0.4414  0.6346
 1144SOL    HW214895   0.013   0.045   6.167 -1.5770 -0.3120 -2.4016
 1145SOL     OW14896   1.506   0.999   5.032 -0.2150 -0.6101  0.3809
 1145SOL    HW114897   1.554   0.924   4.995  2.3022  0.1261  2.1705
 1145SOL    HW214898   1.489   0.969   5.121  0.6249 -1.0554  0.3995
 1146SOL     OW14899   3.715   0.167  10.308 -0.5193  0.6140 -0.1122
 1146SOL    HW114900   3.639   0.172  10.250 -0.1419  3.3207 -0.3798
 1146SOL    HW214901   3.676   0.199  10.389  0.2718 -0.1351  0.5643
 1147SOL     OW14902   4.623   2.988  14.494 -0.0140 -0.1674  0.8688
 1147SOL    HW114903   4.528   2.994  14.485  0.1036 -2.0494 -1.7133
 1147SOL    HW214904   4.640   3.068  14.544  0.0250 -0.0521  0.6715
 1148SOL     OW14905   4.122   3.583   8.860  0.1976  0.2806  0.2363
 1148SOL    HW114906   4.093   3.557   8.773  0.8822 -0.8046  0.3245
 1148SOL    HW214907   4.194   3.642   8.839  0.9875 -0.9063 -0.4363
 1149SOL     OW14908   3.966   3.654   6.045 -0.3660 -0.3909 -0.7222
 1149SOL    HW114909   3.926   3.729   6.001 -0.2714 -0.4244 -0.8639
 1149SOL    HW214910   4.031   3.630   5.979  2.6698 -0.2910  2.2304
 1150SOL     OW14911   1.550   1.853   7.883 -0.5851  0.6829 -0.4866
 1150SOL    HW114912   1.478   1.836   7.944  0.2080 -2.4137 -0.3934
 1150SOL    HW214913   1.611   1.786   7.914  0.0503  1.5135  0.0234
 1151SOL     OW14914   4.441   3.497   6.869  0.3939 -0.0546  0.3954
 1151SOL    HW114915   4.379   3.445   6.920  1.3238 -3.4216 -1.9109
 1151SOL    HW214916   4.441   3.441   6.791  2.0651 -0.2267  0.5286
 1152SOL     OW14917   3.829   0.132   7.480  0.0803 -0.1848 -0.4727
 1152SOL    HW114918   3.781   0.066   7.529 -0.4055  0.6383  0.1539
 1152SOL    HW214919   3.830   0.194   7.553 -0.6373  1.0073 -1.4790
 1153SOL     OW14920   0.269   3.411   4.883  0.2639 -0.0064 -0.4482
 1153SOL    HW114921   0.217   3.333   4.861  2.1263 -0.7602 -2.2580
 1153SOL    HW214922   0.330   3.388   4.953 -0.6115 -2.9954 -0.6627
 1154SOL     OW14923   1.253   2.836   0.574  0.5462 -0.0535  0.0205
 1154SOL    HW114924   1.176   2.880   0.610  1.1710  1.7451 -0.8761
 1154SOL    HW214925   1.271   2.759   0.628  2.1502 -0.7495 -1.4973
 1155SOL     OW14926   3.884   1.204  15.880 -0.2609  0.1033  0.0038
 1155SOL    HW114927   3.898   1.294  15.909 -0.5881  0.7788 -1.9358
 1155SOL    HW214928   3.792   1.205  15.855 -0.1259  1.0605 -0.4793
 1156SOL     OW14929   2.497   1.251   7.024 -0.0833 -0.8942 -0.2227
 1156SOL    HW114930   2.521   1.179   6.966 -0.5126 -1.4506  0.2879
 1156SOL    HW214931   2.571   1.311   7.015  0.3211 -1.5799 -1.3952
 1157SOL     OW14932   2.566   1.361   5.104 -0.3123  0.2871  0.6519
 1157SOL    HW114933   2.594   1.296   5.040  0.5422  1.4261 -0.1341
 1157SOL    HW214934   2.496   1.313   5.147  0.1258 -1.4579 -0.5887
 1158SOL     OW14935   3.988   1.107   6.481 -0.2197  0.0042  0.6010
 1158SOL    HW114936   3.980   1.095   6.576  1.2789  2.6199  1.0562
 1158SOL    HW214937   3.979   1.017   6.449 -2.5554  0.0532  1.0919
 1159SOL     OW14938   0.922   3.734   3.750 -0.3986  0.0467 -0.3790
 1159SOL    HW114939   0.860   3.673   3.790  1.6464 -0.8866  1.3519
 1159SOL    HW214940   0.974   3.768   3.824 -0.4764 -1.2279  0.2597
 1160SOL     OW14941   2.721   2.937  10.277 -0.2016 -0.2081  0.3262
 1160SOL    HW114942   2.702   3.024  10.313  3.1776  0.5707  0.2586
 1160SOL    HW214943   2.646   2.930  10.218 -1.4669  1.6856  1.6862
 1161SOL     OW14944   2.838   0.961   2.666 -0.0210  0.1414 -0.3152
 1161SOL    HW114945   2.848   1.003   2.581 -1.0562  1.6687  0.3139
 1161SOL    HW214946   2.782   1.026   2.708 -0.7935  1.5716 -3.6307
 1162SOL     OW14947   0.250   4.146   2.766 -0.2632 -0.5663  0.0100
 1162SOL    HW114948   0.332   4.171   2.725  0.9652 -0.3153  2.6148
 1162SOL    HW214949   0.268   4.057   2.794  2.5375 -0.3401 -1.0899
 1163SOL     OW14950   3.362   0.949   1.929  0.0546 -0.2437 -0.3595
 1163SOL    HW114951   3.297   0.899   1.881 -2.3191 -0.8221  3.4438
 1163SOL    HW214952   3.376   1.014   1.860 -1.3637  0.6385  0.1823
 1164SOL     OW14953   2.085   2.153   6.896 -0.0957 -0.2882 -0.0240
 1164SOL    HW114954   2.022   2.210   6.852 -2.5745 -1.6583  1.7199
 1164SOL    HW214955   2.169   2.177   6.857 -0.3064  0.4377 -0.0251
 1165SOL     OW14956   3.532   2.238   8.256 -0.2379 -0.3086 -0.3122
 1165SOL    HW114957   3.495   2.228   8.343  0.3440 -0.3650 -0.0730
 1165SOL    HW214958   3.451   2.215   8.210 -0.9557  1.1441  0.2222
 1166SOL     OW14959   1.351   2.196  11.054 -0.2791  0.4988  0.3263
 1166SOL    HW114960   1.275   2.200  11.112 -1.2113 -0.1947 -0.8424
 1166SOL    HW214961   1.311   2.219  10.971 -0.6519  0.6596  0.5497
 1167SOL     OW14962   0.878   2.225  14.905 -0.0626 -0.0143  0.8315
 1167SOL    HW114963   0.813   2.293  14.886  1.6169  1.2922 -0.1668
 1167SOL    HW214964   0.916   2.262  14.985  0.1077 -1.9511  1.6405
 1168SOL     OW14965   4.316   0.109   5.392 -0.7317 -0.0509 -0.3942
 1168SOL    HW114966   4.348   0.117   5.482 -0.6428 -1.1513 -0.3242
 1168SOL    HW214967   4.348   0.022   5.368 -0.0803  0.3967 -1.1293
 1169SOL     OW14968   3.725   1.638   4.051 -0.0123  0.6720 -0.4392
 1169SOL    HW114969   3.785   1.572   4.085  1.5344  1.6979 -1.2048
 1169SOL    HW214970   3.684   1.595   3.977 -2.5691  1.7393  0.3415
 1170SOL     OW14971   4.684   3.094   5.360 -0.1231 -0.0723 -0.3224
 1170SOL    HW114972   4.704   3.124   5.272 -0.4086  1.3688  0.1180
 1170SOL    HW214973   4.608   3.148   5.379  2.2025  2.0671  2.8374
 1171SOL     OW14974   2.947   2.151  10.354 -0.7136  0.3087  0.1101
 1171SOL    HW114975   2.948   2.243  10.380 -1.0880  0.4354 -0.3120
 1171SOL    HW214976   2.882   2.124  10.419  1.3626  0.2456  2.1215
 1172SOL     OW14977   0.742   2.686   5.181  0.4281 -0.2819 -0.1965
 1172SOL    HW114978   0.677   2.635   5.133 -1.2397  0.2194  1.5643
 1172SOL    HW214979   0.715   2.775   5.157  2.6637  0.9261  1.8382
 1173SOL     OW14980   2.436   2.492   4.259  0.2160 -0.0403 -0.4662
 1173SOL    HW114981   2.341   2.486   4.274  0.3388  0.7680  0.6203
 1173SOL    HW214982   2.466   2.403   4.278  0.6576 -0.0039 -1.0044
 1174SOL     OW14983   3.362   1.354   6.541 -0.0702  0.2189  0.2653
 1174SOL    HW114984   3.304   1.424   6.514  0.5007 -0.1445 -1.9533
 1174SOL    HW214985   3.354   1.354   6.636 -0.2140 -0.2438  0.2545
 1175SOL     OW14986   4.374   4.232  16.603 -0.5368 -0.2440 -0.8125
 1175SOL    HW114987   4.466   4.211  16.585  0.2923  1.1980  1.8557
 1175SOL    HW214988   4.367   4.200  16.693 -1.7583  0.8494 -0.5227
 1176SOL     OW14989   0.308   2.404  11.543  0.1519  0.5429 -0.2873
 1176SOL    HW114990   0.374   2.370  11.604 -1.3335  0.3419  1.2189
 1176SOL    HW214991   0.329   2.497  11.544 -4.8153  1.6888  0.9206
 1177SOL     OW14992   1.136   2.662  16.043 -0.3341  0.1479  0.0074
 1177SOL    HW114993   1.196   2.632  16.112  0.5151  0.1505 -0.7291
 1177SOL    HW214994   1.138   2.756  16.058  1.8062 -0.0210  0.8587
 1178SOL     OW14995   3.157   3.376   4.229 -0.3070 -0.6132 -0.3832
 1178SOL    HW114996   3.196   3.295   4.194  1.4686 -1.2743  3.0509
 1178SOL    HW214997   3.144   3.351   4.321 -2.3855  3.5614  0.4309
 1179SOL     OW14998   1.968   1.217   0.915  0.2650  0.6601  0.2796
 1179SOL    HW114999   2.032   1.215   0.844 -2.2183 -0.7909 -1.9362
 1179SOL    HW215000   1.890   1.250   0.870 -0.2133 -0.3972  0.3199
 1180SOL     OW15001   4.238   0.765   3.128 -0.3798  0.6148 -0.1041
 1180SOL    HW115002   4.304   0.724   3.072 -0.5945  2.3865 -1.6752
 1180SOL    HW215003   4.187   0.818   3.066 -0.4346 -1.0883 -1.5370
 1181SOL     OW15004   3.498   3.986   5.295  0.4344 -0.3463  0.2079
 1181SOL    HW115005   3.500   3.940   5.210 -0.9061 -0.3393  0.1733
 1181SOL    HW215006   3.542   4.067   5.270 -0.6667  0.2178  0.0970
 1182SOL     OW15007   0.833   1.641   3.742 -0.2744  0.2662 -0.2080
 1182SOL    HW115008   0.874   1.584   3.678 -1.3841 -1.3722  0.5452
 1182SOL    HW215009   0.865   1.619   3.830  0.4505  0.0681 -0.5287
 1183SOL     OW15010   0.525   2.887   7.526  0.1568 -0.2244  0.0872
 1183SOL    HW115011   0.540   2.887   7.432 -0.8551 -1.0233 -0.0726
 1183SOL    HW215012   0.547   2.794   7.538 -0.1662 -0.3158 -0.0281
 1184SOL     OW15013   3.707   1.590   7.892  0.1769  0.1716 -0.6261
 1184SOL    HW115014   3.753   1.674   7.889  1.3527 -0.5744 -3.4598
 1184SOL    HW215015   3.642   1.608   7.825  0.7688 -0.8083 -1.4765
 1185SOL     OW15016   1.034   1.243   7.730  0.0762  0.0370  0.5053
 1185SOL    HW115017   1.070   1.283   7.651 -0.8935 -0.4268 -0.1797
 1185SOL    HW215018   1.032   1.149   7.710 -0.4801 -0.0464  0.9493
 1186SOL     OW15019   3.350   0.730   5.657 -0.6310  0.2027 -0.4558
 1186SOL    HW115020   3.351   0.661   5.723  1.9533  0.4461 -0.2407
 1186SOL    HW215021   3.429   0.712   5.608 -0.2467 -0.8058  0.5499
 1187SOL     OW15022   2.727   3.468   5.379 -0.2688  0.1202  0.1350
 1187SOL    HW115023   2.675   3.548   5.388  1.8597  1.5071  0.1352
 1187SOL    HW215024   2.771   3.461   5.464  1.1626  0.5619 -0.5714
 1188SOL     OW15025   3.182   0.373   5.300  0.3314  0.7048 -0.1693
 1188SOL    HW115026   3.123   0.415   5.237  1.3321  1.0776 -0.8596
 1188SOL    HW215027   3.161   0.427   5.376  0.2434  0.9181 -0.3433
 1189SOL     OW15028   2.735   3.963   7.148  0.0252  0.0704 -0.2645
 1189SOL    HW115029   2.660   4.018   7.125  1.3766  1.2879 -1.7581
 1189SOL    HW215030   2.776   4.024   7.209  0.4739 -0.9314  0.4238
 1190SOL     OW15031   1.223   4.569   6.738  0.1310 -0.1558  0.2481
 1190SOL    HW115032   1.236   4.503   6.670  1.7979 -0.9760  1.3611
 1190SOL    HW215033   1.135   4.544   6.767 -0.3945 -1.2127 -2.2803
 1191SOL     OW15034   2.399   0.373  13.624 -0.7410 -0.2817 -0.0754
 1191SOL    HW115035   2.461   0.398  13.693 -0.0555 -0.6892 -0.5456
 1191SOL    HW215036   2.328   0.431  13.651 -0.2308  0.3090 -0.0034
 1192SOL     OW15037   4.319   1.840   7.657 -0.7058 -0.5768  0.2740
 1192SOL    HW115038   4.398   1.802   7.619  1.4475  2.1079  2.1345
 1192SOL    HW215039   4.261   1.853   7.582  2.2847 -2.5691 -2.4077
 1193SOL     OW15040   3.898   1.832   5.102  0.4351 -0.0506 -0.3016
 1193SOL    HW115041   3.941   1.774   5.165 -0.7280  0.0173  0.5581
 1193SOL    HW215042   3.870   1.906   5.156  2.4675  0.9302 -0.5844
 1194SOL     OW15043   2.589   3.149   8.265 -0.1337 -0.9948  0.2616
 1194SOL    HW115044   2.644   3.077   8.296  0.3660  0.4741  2.7218
 1194SOL    HW215045   2.613   3.160   8.173 -1.8906 -2.8557 -0.4328
 1195SOL     OW15046   1.428   0.708   1.891 -0.8131 -0.5453  0.0027
 1195SOL    HW115047   1.357   0.746   1.943  0.5133 -0.2735  1.6053
 1195SOL    HW215048   1.444   0.785   1.837 -1.0194  0.9443  2.0459
 1196SOL     OW15049   2.260   1.979   7.185  0.3818 -0.3820 -0.3256
 1196SOL    HW115050   2.230   1.984   7.276  0.0761  0.6165 -0.4749
 1196SOL    HW215051   2.186   2.030   7.151  1.6145  2.4606  1.2141
 1197SOL     OW15052   4.678   3.934  11.856 -0.4336  0.1691  0.3500
 1197SOL    HW115053   4.602   3.875  11.856  1.0608 -1.7333 -0.2591
 1197SOL    HW215054   4.643   3.993  11.923  1.9111  0.8575  0.9556
 1198SOL     OW15055   3.737   2.399   2.831  0.1756 -0.0150  0.0941
 1198SOL    HW115056   3.691   2.471   2.875 -0.0405  2.0189 -3.4948
 1198SOL    HW215057   3.670   2.330   2.840  0.3631  0.2007  3.1376
 1199SOL     OW15058   0.812   1.685   4.937 -0.5776  0.1607  0.4053
 1199SOL    HW115059   0.839   1.760   4.990 -0.2313  0.0102  0.4419
 1199SOL    HW215060   0.720   1.708   4.943 -0.6115 -0.0161  0.5417
 1200SOL     OW15061   0.269   4.222  17.361  0.3748  0.2744 -0.4664
 1200SOL    HW115062   0.249   4.185  17.275 -1.5386  1.0637 -0.3639
 1200SOL    HW215063   0.345   4.169  17.385  1.0386  0.1240 -2.8853
 1201SOL     OW15064   1.925   3.854  15.670  0.4513 -0.3357 -0.4097
 1201SOL    HW115065   1.905   3.940  15.633  0.5053  0.0391  0.4382
 1201SOL    HW215066   1.937   3.863  15.764  1.9661  0.6854 -0.7120
 1202SOL     OW15067   0.443   0.818   5.315 -0.5015 -0.7635  0.6162
 1202SOL    HW115068   0.527   0.843   5.276 -1.0735  1.6486  0.9272
 1202SOL    HW215069   0.379   0.861   5.258  1.7698 -0.5663 -1.7767
 1203SOL     OW15070   3.637   2.444   8.537 -0.5795  0.1348  0.3145
 1203SOL    HW115071   3.654   2.359   8.577 -1.3436  0.1409  0.6596
 1203SOL    HW215072   3.696   2.431   8.463  0.2349  0.7071  0.8655
 1204SOL     OW15073   2.954   4.024  16.849 -0.2120  0.6532  0.1369
 1204SOL    HW115074   2.995   3.942  16.819  0.2522  2.5872 -4.5969
 1204SOL    HW215075   2.909   4.001  16.930 -0.1369 -1.8680 -0.5131
 1205SOL     OW15076   1.698   2.448  15.225  0.1507  0.2258  0.0601
 1205SOL    HW115077   1.777   2.503  15.220  0.0342  0.3462 -0.4310
 1205SOL    HW215078   1.657   2.479  15.306  0.7968  0.7210  0.2012
 1206SOL     OW15079   3.197   4.167   9.612 -0.7953 -0.1729 -0.3458
 1206SOL    HW115080   3.245   4.171   9.530  0.0117 -0.0835  0.1327
 1206SOL    HW215081   3.234   4.092   9.658 -1.0054  0.3698  0.7343
 1207SOL     OW15082   0.051   3.148   0.510 -0.6836  0.0230 -0.1258
 1207SOL    HW115083   0.055   3.172   0.417 -0.1883  0.6454  0.0551
 1207SOL    HW215084   4.688   3.184   0.543 -0.5736 -0.1650  0.3542
 1208SOL     OW15085   0.653   2.558   3.711  0.3294 -0.3689 -0.3312
 1208SOL    HW115086   0.684   2.512   3.633 -1.7441 -1.3887 -0.5613
 1208SOL    HW215087   0.677   2.495   3.780  1.2383  0.0308 -0.2863
 1209SOL     OW15088   0.396   2.995   4.994 -0.0573 -0.4433 -0.9600
 1209SOL    HW115089   0.389   3.058   5.066 -1.2486 -1.6506 -0.0109
 1209SOL    HW215090   0.304   2.994   4.969 -0.2670 -1.6623 -0.1366
 1210SOL     OW15091   4.338   0.974   6.961  0.4093 -0.0022  0.5322
 1210SOL    HW115092   4.430   0.950   6.977  0.1795 -1.4625 -0.3367
 1210SOL    HW215093   4.337   0.991   6.867 -1.2765  0.4958  0.6455
 1211SOL     OW15094   2.017   0.463   2.227  0.2638  0.4473 -0.0189
 1211SOL    HW115095   2.084   0.490   2.164  1.3915  0.0134  1.0012
 1211SOL    HW215096   1.980   0.404   2.162  3.4847 -0.5609 -0.9321
 1212SOL     OW15097   0.617   2.386   9.438  0.4385 -0.3548 -0.1703
 1212SOL    HW115098   0.563   2.396   9.516  1.1191  0.1515  0.2301
 1212SOL    HW215099   0.662   2.303   9.454 -0.1919 -0.8075 -0.7254
 1213SOL     OW15100   0.013   2.932   2.274  0.4980  0.3498  0.0916
 1213SOL    HW115101   0.046   2.896   2.192  0.1167  1.5678 -0.5989
 1213SOL    HW215102   4.667   2.870   2.308 -0.9501  1.4093 -0.7645
 1214SOL     OW15103   3.541   0.965  12.347 -0.2232 -0.1767  0.4984
 1214SOL    HW115104   3.497   0.981  12.264 -0.4556  2.0219  1.0612
 1214SOL    HW215105   3.523   1.047  12.393 -0.3632  0.0783 -0.0141
 1215SOL     OW15106   1.118   1.925   2.982 -0.2687  0.3468 -0.1745
 1215SOL    HW115107   1.164   1.848   2.949 -0.3677 -0.1061  0.7502
 1215SOL    HW215108   1.079   1.962   2.903 -1.4688  1.2766  0.8440
 1216SOL     OW15109   1.132   1.392   3.344 -0.1847  0.5971 -0.2882
 1216SOL    HW115110   1.135   1.485   3.321  2.6927  0.4951 -0.3634
 1216SOL    HW215111   1.101   1.368   3.257  5.2405  0.6973 -2.2940
 1217SOL     OW15112   2.078   3.811   5.065 -0.1452 -0.2628  0.4616
 1217SOL    HW115113   2.014   3.883   5.071  1.4300  1.1562  0.3617
 1217SOL    HW215114   2.039   3.775   4.985  1.4745 -1.4124  0.2006
 1218SOL     OW15115   0.409   2.862   2.707  0.9044 -0.3405 -0.2267
 1218SOL    HW115116   0.493   2.870   2.663 -0.5509  2.2075 -2.5427
 1218SOL    HW215117   0.352   2.851   2.631  2.1528 -1.1522 -1.0401
 1219SOL     OW15118   2.694   1.349   6.515  0.0356  0.5537  0.6406
 1219SOL    HW115119   2.645   1.368   6.595 -1.9044  0.1605 -0.4437
 1219SOL    HW215120   2.634   1.397   6.457  3.1943 -0.0361 -3.0710
 1220SOL     OW15121   3.937   0.914   8.222  0.5351  0.1152  0.2916
 1220SOL    HW115122   3.954   0.993   8.273 -0.1163  0.8135 -0.5708
 1220SOL    HW215123   4.002   0.850   8.249  0.8222  0.0806 -0.4929
 1221SOL     OW15124   3.479   1.652   8.176  0.1287  0.5986  0.1445
 1221SOL    HW115125   3.403   1.636   8.119  1.1057  2.3957 -1.6748
 1221SOL    HW215126   3.437   1.669   8.261  3.1313 -1.8524  2.0821
 1222SOL     OW15127   0.969   2.731   4.263 -0.2993 -0.3610  0.4154
 1222SOL    HW115128   0.979   2.799   4.329 -1.7709 -0.5113  0.8054
 1222SOL    HW215129   1.014   2.772   4.189  0.3592 -1.1243  0.3882
 1223SOL     OW15130   1.279   0.786   6.705  0.2220 -0.7003 -0.5524
 1223SOL    HW115131   1.245   0.751   6.787 -0.0168  0.3577 -0.2035
 1223SOL    HW215132   1.345   0.725   6.672  1.4007  0.7010 -0.7839
 1224SOL     OW15133   3.663   1.700   5.229 -0.1118 -0.1062 -0.2525
 1224SOL    HW115134   3.671   1.604   5.231  1.5489  0.0242 -1.1896
 1224SOL    HW215135   3.693   1.719   5.141 -0.2378  0.2416 -0.2230
 1225SOL     OW15136   0.014   2.787   5.335  0.5859  0.4462  1.0400
 1225SOL    HW115137   0.082   2.852   5.352  1.5072 -0.5159  1.0271
 1225SOL    HW215138   4.690   2.821   5.257 -0.6801 -1.6122  0.8301
 1226SOL     OW15139   0.302   0.854   8.000 -0.1712 -0.1802  0.1442
 1226SOL    HW115140   0.269   0.772   7.964  2.9712 -1.5590  0.3875
 1226SOL    HW215141   0.343   0.829   8.083 -1.6370  0.1597  0.9658
 1227SOL     OW15142   4.231   4.194   7.670  0.2642 -0.3899  0.4726
 1227SOL    HW115143   4.207   4.270   7.723 -0.7331 -1.1286  1.0762
 1227SOL    HW215144   4.161   4.139   7.704  1.8863 -0.8072  3.1205
 1228SOL     OW15145   2.884   0.750  11.539 -0.4531  0.6176  0.3997
 1228SOL    HW115146   2.938   0.801  11.599 -0.2242  0.0358  0.6782
 1228SOL    HW215147   2.796   0.744  11.577 -0.2204 -0.0728  0.8204
 1229SOL     OW15148   1.079   1.482   6.567 -0.3013  0.3764 -0.4519
 1229SOL    HW115149   1.012   1.501   6.501  1.1595  0.7893 -1.8327
 1229SOL    HW215150   1.104   1.398   6.527 -1.2240  1.0640 -2.4683
 1230SOL     OW15151   0.074   2.305   1.899 -0.5955  0.1220 -0.0414
 1230SOL    HW115152   0.022   2.267   1.828 -1.3341  2.5484 -0.8146
 1230SOL    HW215153   0.041   2.395   1.902 -3.0454 -0.8632  2.2277
 1231SOL     OW15154   3.526   3.621   0.442 -0.3458 -0.3582  0.1488
 1231SOL    HW115155   3.542   3.691   0.506  1.3865 -0.5456 -0.0647
 1231SOL    HW215156   3.579   3.548   0.474  0.1557  0.0225  0.1912
 1232SOL     OW15157   2.911   0.068   9.725  0.1517  0.5589  0.2343
 1232SOL    HW115158   2.905   0.147   9.779 -2.5564  0.1936  0.4598
 1232SOL    HW215159   2.928   0.002   9.793 -0.5872  0.6423  0.5030
 1233SOL     OW15160   3.747   0.009   2.102  0.0625  0.1896 -0.3143
 1233SOL    HW115161   3.711   4.649   2.142 -1.5028  0.2236 -1.6863
 1233SOL    HW215162   3.680   0.032   2.038 -1.4351 -0.3454  1.0726
 1234SOL     OW15163   0.040   0.743   8.223 -0.4684 -0.0599  0.6299
 1234SOL    HW115164   0.116   0.760   8.168 -0.2931 -0.6469  0.6873
 1234SOL    HW215165   4.699   0.817   8.214 -0.4267  0.0863  1.4863
 1235SOL     OW15166   2.478   1.051   1.842 -0.2209 -0.1346  0.2862
 1235SOL    HW115167   2.491   0.988   1.772 -0.7546  0.1104 -0.0344
 1235SOL    HW215168   2.518   1.124   1.796 -1.9421  0.2833 -0.5472
 1236SOL     OW15169   4.610   1.327   1.758  0.1696  0.1769 -0.7715
 1236SOL    HW115170   4.690   1.355   1.801 -0.7725 -0.8846  1.6450
 1236SOL    HW215171   4.617   1.389   1.685  0.3555  0.4591 -0.5117
 1237SOL     OW15172   2.533   1.048  11.503 -0.6102  0.1490  0.2213
 1237SOL    HW115173   2.455   0.993  11.511 -0.9811  0.5236 -0.8385
 1237SOL    HW215174   2.591   0.994  11.557  0.0807 -0.3515 -1.0271
 1238SOL     OW15175   1.642   2.431   7.802 -0.7382 -0.6972 -0.5154
 1238SOL    HW115176   1.678   2.384   7.878 -1.9089 -1.4575 -0.4272
 1238SOL    HW215177   1.698   2.508   7.804 -0.3688 -0.9896  0.6842
 1239SOL     OW15178   4.464   2.166   7.857  0.0598 -0.1203  0.2801
 1239SOL    HW115179   4.495   2.191   7.944 -0.9078  1.5928  0.1213
 1239SOL    HW215180   4.399   2.099   7.877  0.7281 -0.4574  1.3114
 1240SOL     OW15181   3.556   2.721   5.039  0.1015 -0.2953 -0.0568
 1240SOL    HW115182   3.532   2.807   5.074 -0.5025  0.5428 -2.5384
 1240SOL    HW215183   3.642   2.721   5.079  0.1976  0.2659 -0.2691
 1241SOL     OW15184   3.613   1.305   7.895  0.8063 -0.5067 -0.0774
 1241SOL    HW115185   3.600   1.301   7.990 -2.3524  0.0247 -0.4920
 1241SOL    HW215186   3.613   1.400   7.885 -2.1586 -0.3082  1.8633
 1242SOL     OW15187   3.386   3.854  10.618 -0.2830  0.3009  0.3052
 1242SOL    HW115188   3.326   3.786  10.649  1.0403 -0.8457  0.3389
 1242SOL    HW215189   3.432   3.878  10.698 -0.1238 -1.0438  0.6089
 1243SOL     OW15190   3.027   0.313   4.687 -0.2491  0.0022  0.6829
 1243SOL    HW115191   3.080   0.278   4.616  0.3704 -0.4876  1.3925
 1243SOL    HW215192   2.940   0.301   4.648 -0.0563  0.6270  0.0746
 1244SOL     OW15193   4.315   3.286   4.293  0.2071 -0.4061 -0.0912
 1244SOL    HW115194   4.356   3.367   4.263 -1.0436  0.1571 -0.2595
 1244SOL    HW215195   4.341   3.223   4.225  1.8516  0.2512 -0.0791
 1245SOL     OW15196   1.942   3.078  14.764 -0.1142 -0.4895 -0.1131
 1245SOL    HW115197   1.890   3.154  14.736 -0.6644 -1.2713 -1.2089
 1245SOL    HW215198   2.026   3.117  14.787  0.0970 -0.7359 -0.4848
 1246SOL     OW15199   2.888   1.766   8.947 -0.4027 -0.6982  0.2035
 1246SOL    HW115200   2.925   1.855   8.950 -2.5731  0.2353 -0.4377
 1246SOL    HW215201   2.799   1.777   8.980 -0.4091  0.7928 -0.2843
 1247SOL     OW15202   1.657   2.838   3.185  0.0803 -0.1677  0.2333
 1247SOL    HW115203   1.639   2.930   3.166 -0.2760 -0.3234 -0.1841
 1247SOL    HW215204   1.616   2.790   3.113 -1.1545 -0.0348  0.8482
 1248SOL     OW15205   2.069   0.877   8.643  0.5490  0.8875 -0.1101
 1248SOL    HW115206   2.094   0.939   8.574  0.7259  1.1249  0.1662
 1248SOL    HW215207   2.147   0.867   8.698 -0.3684  1.8974  1.3607
 1249SOL     OW15208   1.538   3.925   5.425  0.2077  0.0218 -0.2006
 1249SOL    HW115209   1.514   3.952   5.514  0.8107  1.4163 -0.4652
 1249SOL    HW215210   1.513   3.997   5.368  0.6853 -1.2534 -2.0018
 1250SOL     OW15211   4.698   0.675   5.242 -0.3766 -0.6777 -0.3002
 1250SOL    HW115212   4.625   0.694   5.301  1.3818  0.2059  1.5844
 1250SOL    HW215213   0.047   0.670   5.308  2.2643  1.2377 -2.8845
 1251SOL     OW15214   1.444   0.683   1.180 -0.1558 -0.2182  0.3843
 1251SOL    HW115215   1.434   0.597   1.220 -1.3833 -0.9106 -1.4416
 1251SOL    HW215216   1.480   0.740   1.249  2.9229 -0.9481 -0.6198
 1252SOL     OW15217   4.321   4.602   0.127  0.0135  0.3865 -0.0704
 1252SOL    HW115218   4.408   4.600   0.088 -1.4360 -0.8027 -3.2171
 1252SOL    HW215219   4.298   4.694   0.115 -0.2276  0.3978  0.4554
 1253SOL     OW15220   2.933   3.472   6.222  0.5799  0.3244 -0.0727
 1253SOL    HW115221   3.012   3.526   6.229  1.2697 -0.8145  0.9953
 1253SOL    HW215222   2.971   3.390   6.252 -0.2352 -0.8733 -2.3284
 1254SOL     OW15223   3.485   2.097   1.932 -0.0510 -0.5957 -0.2233
 1254SOL    HW115224   3.497   2.012   1.889  2.4760 -0.0264 -0.6436
 1254SOL    HW215225   3.567   2.104   1.981  1.5524 -0.8577 -2.8214
 1255SOL     OW15226   0.639   0.224   8.528  0.2886 -0.1248  0.2915
 1255SOL    HW115227   0.637   0.130   8.545 -2.9000 -0.2316 -0.7458
 1255SOL    HW215228   0.691   0.265   8.598 -1.3367 -0.8327  1.9219
 1256SOL     OW15229   2.559   0.834   7.389  0.0741 -0.3457 -0.8218
 1256SOL    HW115230   2.490   0.769   7.379 -1.5299  1.4294 -1.2551
 1256SOL    HW215231   2.618   0.778   7.440 -0.7419  0.6035  1.1842
 1257SOL     OW15232   3.622   2.133   3.882 -0.5530  0.3634  0.2045
 1257SOL    HW115233   3.646   2.065   3.819  1.8222  0.1033  1.3713
 1257SOL    HW215234   3.684   2.203   3.861  0.5518 -0.1028  1.9135
 1258SOL     OW15235   1.961   2.314   8.614 -0.0995  0.9373  0.2559
 1258SOL    HW115236   1.875   2.355   8.603 -0.8074 -0.5162  0.3450
 1258SOL    HW215237   2.012   2.376   8.562  1.6243 -1.0313 -0.4057
 1259SOL     OW15238   4.671   0.880   4.059 -0.6443  0.3848 -0.2521
 1259SOL    HW115239   4.668   0.930   4.140  1.1794 -1.6768  1.1031
 1259SOL    HW215240   4.590   0.898   4.011 -0.5180  0.2429 -0.5228
 1260SOL     OW15241   2.391   3.772   8.067 -0.1213 -0.0266 -0.3549
 1260SOL    HW115242   2.325   3.769   8.137 -0.2572  1.7674 -0.3915
 1260SOL    HW215243   2.464   3.813   8.114 -0.9369  1.1075 -0.0810
 1261SOL     OW15244   1.098   3.517   0.438  0.6224  0.3846  0.4169
 1261SOL    HW115245   1.006   3.497   0.457  1.4626 -2.3781  1.6151
 1261SOL    HW215246   1.111   3.457   0.365 -2.0721  1.1400 -0.6675
 1262SOL     OW15247   2.589   4.323   1.556 -0.7841  0.3418  0.1223
 1262SOL    HW115248   2.515   4.269   1.527 -0.0547 -0.2635 -0.6210
 1262SOL    HW215249   2.565   4.332   1.648  1.8197  1.3218  0.7080
 1263SOL     OW15250   3.938   2.704   3.477  0.5552 -0.0876 -0.2596
 1263SOL    HW115251   4.015   2.651   3.459  0.2682  0.4128 -2.9429
 1263SOL    HW215252   3.873   2.648   3.435  1.4472 -0.2867 -1.3518
 1264SOL     OW15253   3.645   0.118   3.040 -0.1189 -0.1976  0.5763
 1264SOL    HW115254   3.669   0.092   2.951  2.2934  1.0133  0.8479
 1264SOL    HW215255   3.603   0.198   3.011  0.3873  0.2262  1.0073
 1265SOL     OW15256   2.441   4.369   5.210 -0.3909  0.8911  0.3132
 1265SOL    HW115257   2.451   4.336   5.120  1.3022  0.6376  0.6045
 1265SOL    HW215258   2.453   4.285   5.254 -2.9980 -1.1989 -2.9055
 1266SOL     OW15259   1.108   0.267   1.708 -0.0162  0.0406 -0.4870
 1266SOL    HW115260   1.135   0.357   1.730  0.9855 -0.0783 -1.2318
 1266SOL    HW215261   1.049   0.257   1.783  0.5281  0.0249 -0.0642
 1267SOL     OW15262   1.606   1.992  12.297 -0.6172  0.4806  0.0870
 1267SOL    HW115263   1.563   2.037  12.370 -1.0382  0.8742 -0.3993
 1267SOL    HW215264   1.545   2.015  12.227  0.1002 -0.3330 -0.8032
 1268SOL     OW15265   1.172   2.630  17.462  0.5716 -0.3959  0.4687
 1268SOL    HW115266   1.236   2.611  17.530 -0.2754 -1.6381  0.9321
 1268SOL    HW215267   1.099   2.573  17.485 -0.0183 -0.3039 -1.1635
 1269SOL     OW15268   0.370   3.672   6.172 -0.1992  0.4540 -0.4270
 1269SOL    HW115269   0.373   3.730   6.096  0.1943 -1.2821 -1.7181
 1269SOL    HW215270   0.459   3.639   6.165 -0.2332  0.1250  0.7196
 1270SOL     OW15271   1.982   3.959  14.782  0.3429  0.0224  0.4045
 1270SOL    HW115272   1.989   4.055  14.780  2.0239 -0.1064  0.1110
 1270SOL    HW215273   2.015   3.933  14.696 -0.1556 -0.1531  0.2720
 1271SOL     OW15274   0.774   4.332   2.248  0.3592  0.2378 -0.6584
 1271SOL    HW115275   0.784   4.255   2.192 -0.8397 -1.6442  1.7240
 1271SOL    HW215276   0.862   4.367   2.229  1.7596 -3.2071 -0.4770
 1272SOL     OW15277   3.332   3.699  14.002 -0.4507 -0.4235 -0.1132
 1272SOL    HW115278   3.257   3.704  13.943 -0.0938 -0.2697 -0.5573
 1272SOL    HW215279   3.309   3.614  14.040  0.8346  0.5451  2.8410
 1273SOL     OW15280   4.652   4.273   3.221  0.0530 -0.1680  0.4877
 1273SOL    HW115281   0.000   4.269   3.153 -0.6228 -0.3068 -0.1774
 1273SOL    HW215282   4.579   4.322   3.183 -0.1123 -1.0738 -0.3676
 1274SOL     OW15283   2.879   2.676   3.043  0.2358  0.3799  0.2547
 1274SOL    HW115284   2.860   2.770   3.040 -1.6905 -0.0134  0.2163
 1274SOL    HW215285   2.809   2.646   2.986 -0.1426  1.1655  0.3128
 1275SOL     OW15286   0.083   2.458   8.156  0.1908 -0.5297  0.2143
 1275SOL    HW115287   4.708   2.463   8.140  0.4529  4.0786  0.1007
 1275SOL    HW215288   0.096   2.391   8.223  2.7005 -1.2171 -0.9785
 1276SOL     OW15289   1.856   2.440  13.758  1.5290  0.1798 -0.3510
 1276SOL    HW115290   1.884   2.456  13.848 -0.4902 -0.0887  0.3275
 1276SOL    HW215291   1.767   2.468  13.780  1.5245  1.0265 -1.4423
 1277SOL     OW15292   2.425   0.674   6.439 -0.3894 -0.1505  0.3758
 1277SOL    HW115293   2.421   0.718   6.354 -0.7383 -1.2005 -0.1502
 1277SOL    HW215294   2.440   0.586   6.404 -0.7461  0.7062 -1.9772
 1278SOL     OW15295   0.518   3.747   1.373  0.0219  0.2327  0.4017
 1278SOL    HW115296   0.448   3.765   1.436  0.4641 -0.3572  1.0643
 1278SOL    HW215297   0.480   3.802   1.304  1.5847  0.8987  0.0807
 1279SOL     OW15298   2.906   0.844  10.730 -0.3328  0.8579  1.1000
 1279SOL    HW115299   2.916   0.866  10.822  0.2329  2.7151  0.5955
 1279SOL    HW215300   2.816   0.811  10.725 -0.3186  1.2381 -1.9625
 1280SOL     OW15301   1.466   4.297   1.651  0.1539 -0.3617 -0.1727
 1280SOL    HW115302   1.508   4.383   1.642  1.8036 -1.1015  0.4867
 1280SOL    HW215303   1.379   4.319   1.619 -0.1628 -0.7006  0.4638
 1281SOL     OW15304   1.066   3.066  17.039 -0.0078 -0.0362 -0.0335
 1281SOL    HW115305   1.052   2.972  17.051  0.1924  0.2308  2.2892
 1281SOL    HW215306   1.093   3.062  16.947 -0.4156 -4.1600  0.0024
 1282SOL     OW15307   0.482   1.204   6.588  0.3565 -0.1138  0.2062
 1282SOL    HW115308   0.430   1.124   6.584 -0.4845  0.4269  0.3910
 1282SOL    HW215309   0.490   1.216   6.683 -0.7505  1.7315  0.0515
 1283SOL     OW15310   3.516   0.530   3.776 -0.1674 -0.4446 -0.4053
 1283SOL    HW115311   3.480   0.443   3.756  1.0142 -1.1563  0.5277
 1283SOL    HW215312   3.475   0.566   3.855 -1.4835  0.9026 -1.7096
 1284SOL     OW15313   3.638   3.330   7.835  0.4446 -0.0482 -0.3229
 1284SOL    HW115314   3.687   3.395   7.784 -1.1711  3.1482  2.1575
 1284SOL    HW215315   3.695   3.255   7.849  1.4070  0.6193 -0.6190
 1285SOL     OW15316   0.853   1.318   8.184 -0.2373 -0.1588 -0.6083
 1285SOL    HW115317   0.912   1.280   8.250  2.1487 -0.7584 -3.1278
 1285SOL    HW215318   0.807   1.238   8.159 -0.7325  0.4045 -1.4808
 1286SOL     OW15319   0.735   4.210  11.208 -0.3675 -0.3429 -0.3694
 1286SOL    HW115320   0.688   4.209  11.291 -0.5206 -1.1209 -0.4686
 1286SOL    HW215321   0.705   4.130  11.166 -0.9983  0.2968 -1.1478
 1287SOL     OW15322   2.021   4.188   4.379  0.2066 -0.1104  0.4708
 1287SOL    HW115323   1.992   4.279   4.391 -1.4193 -0.2392 -2.4632
 1287SOL    HW215324   1.967   4.138   4.440  0.7324  1.1918  2.0225
 1288SOL     OW15325   1.036   0.830  10.355 -0.0737  0.0313 -0.1653
 1288SOL    HW115326   1.001   0.919  10.366  0.9520  0.1617  2.0237
 1288SOL    HW215327   1.127   0.852  10.336 -1.5373  4.3992 -2.1946
 1289SOL     OW15328   2.580   1.835   8.683  0.0113 -0.5633  0.4822
 1289SOL    HW115329   2.594   1.758   8.628 -1.9690 -0.3449 -0.3494
 1289SOL    HW215330   2.486   1.845   8.669  0.0868  0.6455  0.8496
 1290SOL     OW15331   0.973   3.321   7.321  0.5550 -0.1924 -0.6040
 1290SOL    HW115332   0.897   3.269   7.346 -1.3384  2.8430  0.0216
 1290SOL    HW215333   0.945   3.345   7.232  1.1464  1.2759 -0.3913
 1291SOL     OW15334   3.241   1.093   9.951  0.7839  0.3885  0.4674
 1291SOL    HW115335   3.273   1.181   9.970 -0.4907  0.7311  1.0206
 1291SOL    HW215336   3.261   1.046  10.032 -2.4862 -1.8283 -0.0269
 1292SOL     OW15337   3.582   3.496   2.636  0.2256 -0.3694 -0.0161
 1292SOL    HW115338   3.545   3.496   2.548 -2.2361  0.7289  1.0160
 1292SOL    HW215339   3.512   3.538   2.687  1.3364  1.7050 -0.1944
 1293SOL     OW15340   0.249   3.972  10.430 -0.4786  0.4238  0.3379
 1293SOL    HW115341   0.237   4.057  10.388  1.0602  1.2876  1.6391
 1293SOL    HW215342   0.343   3.964  10.409 -0.2151  0.1695  1.6458
 1294SOL     OW15343   4.307   2.278   2.976 -0.2070 -0.5668 -0.0697
 1294SOL    HW115344   4.364   2.335   2.924  0.3360 -0.8692  0.1865
 1294SOL    HW215345   4.330   2.195   2.933  1.6979  0.1322 -0.4198
 1295SOL     OW15346   1.759   2.123   2.352  0.0427  0.3290 -0.0002
 1295SOL    HW115347   1.684   2.096   2.405  0.1121  0.2318  0.0482
 1295SOL    HW215348   1.789   2.033   2.338 -0.1496  0.0441  1.4731
 1296SOL     OW15349   2.678   3.078   1.583  0.5710  0.4995  0.2482
 1296SOL    HW115350   2.656   3.144   1.517 -0.7855 -0.4853 -0.2839
 1296SOL    HW215351   2.626   3.002   1.559 -4.5264  3.4068  1.9170
 1297SOL     OW15352   3.843   3.687  16.150  0.4740 -0.5996 -0.0221
 1297SOL    HW115353   3.851   3.735  16.232 -0.9213  0.4169 -0.5009
 1297SOL    HW215354   3.936   3.663  16.148  0.3872 -0.8814 -0.8271
 1298SOL     OW15355   3.996   3.201   8.960  0.0318  0.3552 -0.1270
 1298SOL    HW115356   3.948   3.275   8.923 -0.2433  0.4678  0.4617
 1298SOL    HW215357   4.023   3.165   8.875 -2.5084  0.3616 -0.9151
 1299SOL     OW15358   0.881   2.822   5.380 -0.0571 -0.2292  0.1188
 1299SOL    HW115359   0.907   2.756   5.443  0.5933  0.7276  0.8564
 1299SOL    HW215360   0.848   2.767   5.309 -1.2898 -0.4142  0.8386
 1300SOL     OW15361   1.769   1.274   7.075  0.1945 -0.7526 -0.3388
 1300SOL    HW115362   1.818   1.240   7.000  0.5570  0.4269 -0.6260
 1300SOL    HW215363   1.785   1.368   7.067  0.2894 -0.8016 -0.7203
 1301SOL     OW15364   2.195   1.809  16.723  0.1146 -0.4630 -0.0429
 1301SOL    HW115365   2.278   1.814  16.770 -0.7318  1.0241  1.3158
 1301SOL    HW215366   2.191   1.719  16.692 -1.6430 -0.4565  0.1724
 1302SOL     OW15367   4.607   1.935  13.230  0.0694 -0.0122 -0.3910
 1302SOL    HW115368   4.562   1.982  13.300 -0.7431 -1.9522  0.4093
 1302SOL    HW215369   4.612   1.846  13.266 -0.1613  0.5889  1.1425
 1303SOL     OW15370   4.313   0.601   5.122 -0.2225  0.3259 -0.1067
 1303SOL    HW115371   4.377   0.564   5.184 -0.9398 -0.5338  0.1263
 1303SOL    HW215372   4.232   0.560   5.152 -0.4882  2.0329  1.5406
 1304SOL     OW15373   0.757   2.333   6.035 -0.8038  0.1998  0.1724
 1304SOL    HW115374   0.832   2.379   5.998 -2.3750  2.0284 -0.6994
 1304SOL    HW215375   0.795   2.323   6.123 -0.6944  2.6811  0.4284
 1305SOL     OW15376   1.184   3.800   2.345  0.2199  0.2185 -0.0184
 1305SOL    HW115377   1.177   3.798   2.440 -0.4301 -0.8847 -0.0985
 1305SOL    HW215378   1.268   3.761   2.324 -0.5591 -0.9001 -1.0528
 1306SOL     OW15379   3.812   0.436  16.208  0.2103  0.5103  0.0826
 1306SOL    HW115380   3.757   0.360  16.186  1.6931 -0.9041  1.2643
 1306SOL    HW215381   3.755   0.497  16.255 -0.2699 -0.0042  0.1712
 1307SOL     OW15382   2.128   1.739   3.596  0.2768 -0.3249 -0.0047
 1307SOL    HW115383   2.171   1.823   3.580  2.0763 -1.5594 -1.6185
 1307SOL    HW215384   2.155   1.716   3.685 -0.3657 -1.3248 -0.0695
 1308SOL     OW15385   4.713   0.477   4.782  0.1822  0.0350 -0.2353
 1308SOL    HW115386   4.652   0.408   4.755  0.6566 -0.1368 -0.8540
 1308SOL    HW215387   4.646   0.526   4.830  0.4798 -1.4592  1.6649
 1309SOL     OW15388   1.053   4.592  14.255  0.3635 -0.0957 -0.0436
 1309SOL    HW115389   0.968   4.628  14.230 -0.5974 -1.6878  0.9651
 1309SOL    HW215390   1.089   4.675  14.287 -0.1027 -0.4340  1.3630
 1310SOL     OW15391   4.349   0.438   9.196 -0.1371 -0.0349  0.3565
 1310SOL    HW115392   4.286   0.458   9.266  1.1588 -2.1353  2.1006
 1310SOL    HW215393   4.430   0.481   9.226 -0.6786  1.0777  0.2365
 1311SOL     OW15394   2.198   2.095   3.995  0.1038 -0.5054 -0.3218
 1311SOL    HW115395   2.117   2.049   4.018 -0.6512  1.0895  0.2375
 1311SOL    HW215396   2.264   2.026   3.992  0.5759  0.0586 -2.3363
 1312SOL     OW15397   4.493   0.817   7.556  0.2607 -0.2585  0.0877
 1312SOL    HW115398   4.500   0.834   7.650  1.1795 -0.8102  0.1132
 1312SOL    HW215399   4.518   0.725   7.556 -1.7500 -0.8114  0.4670
 1313SOL     OW15400   1.392   1.441   8.471 -0.5786 -0.2556 -0.1742
 1313SOL    HW115401   1.303   1.476   8.478 -0.4305  0.2452 -0.8674
 1313SOL    HW215402   1.431   1.460   8.556  0.3245 -1.4729 -0.3108
 1314SOL     OW15403   1.899   3.633  14.606  0.3075 -0.1493 -0.1460
 1314SOL    HW115404   1.811   3.620  14.570 -0.4739  1.5707  1.0956
 1314SOL    HW215405   1.886   3.670  14.693  0.7759 -2.0859  0.7351
 1315SOL     OW15406   3.945   3.231   7.205  0.0890 -0.1462 -0.1891
 1315SOL    HW115407   3.927   3.239   7.299  1.0540  0.2329 -0.0422
 1315SOL    HW215408   4.037   3.256   7.203  0.0934 -0.3885 -2.8413
 1316SOL     OW15409   1.706   2.703   1.046 -0.2929  0.1368 -0.2233
 1316SOL    HW115410   1.788   2.701   1.095  0.8066 -3.3851 -2.1883
 1316SOL    HW215411   1.721   2.773   0.982  2.3464 -0.2122 -0.0140
 1317SOL     OW15412   1.745   4.048   7.823  0.0723 -0.3396  0.2103
 1317SOL    HW115413   1.835   4.050   7.857  0.1478  2.6831 -0.1187
 1317SOL    HW215414   1.718   4.114   7.887  3.4135 -1.1366  2.4278
 1318SOL     OW15415   3.267   4.703  13.749 -0.2722  0.1370  0.0722
 1318SOL    HW115416   3.334   4.673  13.687 -0.5620  0.2386 -0.2938
 1318SOL    HW215417   3.211   0.017  13.678  2.2230  1.5455 -1.2416
 1319SOL     OW15418   3.637   2.908   3.049  0.2098 -0.3301  0.4020
 1319SOL    HW115419   3.612   2.875   3.135 -1.9014 -2.4579 -1.0374
 1319SOL    HW215420   3.676   2.828   3.014 -0.5718  0.1498 -1.5754
 1320SOL     OW15421   1.206   3.320   6.167 -0.0486  0.2062  0.1267
 1320SOL    HW115422   1.296   3.345   6.144  0.0323  0.9574  1.2619
 1320SOL    HW215423   1.170   3.293   6.082 -1.3283 -1.7430  1.2977
 1321SOL     OW15424   2.496   2.665   2.560  0.4091  0.4052  0.3294
 1321SOL    HW115425   2.583   2.658   2.521  0.7678  0.2253  1.1529
 1321SOL    HW215426   2.512   2.719   2.637 -1.9329  0.8484  0.5268
 1322SOL     OW15427   3.866   3.113  13.992  0.4107 -0.0193  0.5006
 1322SOL    HW115428   3.784   3.102  13.944  1.9381  0.1662 -2.1152
 1322SOL    HW215429   3.929   3.134  13.923 -0.7625 -0.4613 -0.6936
 1323SOL     OW15430   4.181   2.739   3.711  0.5930  0.2537 -0.4318
 1323SOL    HW115431   4.196   2.702   3.798 -0.9642 -0.8253 -0.6275
 1323SOL    HW215432   4.213   2.668   3.656  2.5785 -0.2422  1.4003
 1324SOL     OW15433   0.084   0.514   7.502 -0.2054  0.2128 -0.1695
 1324SOL    HW115434   0.160   0.561   7.537 -0.0634  1.6039 -2.3098
 1324SOL    HW215435   0.123   0.444   7.450 -0.3592  1.4142 -1.8996
 1325SOL     OW15436   2.082   2.763   5.000  0.7450 -0.0235 -0.3378
 1325SOL    HW115437   2.009   2.702   5.003 -0.4250  1.3595 -0.7973
 1325SOL    HW215438   2.052   2.840   5.049  0.8160  0.5167 -1.1483
 1326SOL     OW15439   3.340   3.973   9.744  0.9331 -0.6570 -0.2901
 1326SOL    HW115440   3.319   3.893   9.792  0.1589 -1.3277 -1.7467
 1326SOL    HW215441   3.352   3.940   9.655 -0.5763 -0.5343 -0.5436
 1327SOL     OW15442   0.371   4.654   6.930 -0.3202  0.0922  0.4375
 1327SOL    HW115443   0.341   0.025   6.944 -0.0481  0.2994 -0.2954
 1327SOL    HW215444   0.359   4.615   7.016  0.5343 -0.3317  0.3632
 1328SOL     OW15445   0.171   0.071   0.338 -0.6785 -0.3522 -0.3236
 1328SOL    HW115446   0.155   0.142   0.401  0.8142 -1.1765  0.9870
 1328SOL    HW215447   0.262   0.092   0.315 -0.4321  0.6702  1.5855
 1329SOL     OW15448   2.482   0.246   4.121 -0.4742 -0.3173 -0.4804
 1329SOL    HW115449   2.476   0.269   4.214  1.4999 -4.4359  0.6774
 1329SOL    HW215450   2.433   0.321   4.086  0.9078  0.6771 -0.2716
 1330SOL     OW15451   4.301   0.396   2.917  0.0949 -0.1166 -0.4975
 1330SOL    HW115452   4.325   0.313   2.878  1.0638 -1.0336  2.0299
 1330SOL    HW215453   4.355   0.456   2.866  0.1538  0.3680  0.1247
 1331SOL     OW15454   3.221   4.245   1.934  0.3430  0.6000  0.3466
 1331SOL    HW115455   3.220   4.195   2.015 -2.5114 -2.2069 -1.4272
 1331SOL    HW215456   3.144   4.300   1.950  0.6878  1.6318 -1.5826
 1332SOL     OW15457   4.686   4.472   9.018 -0.1287 -0.3187  0.1164
 1332SOL    HW115458   4.636   4.397   9.048 -0.5357  0.1545  0.6181
 1332SOL    HW215459   4.618   4.540   9.010  1.9576  1.7613 -0.0936
 1333SOL     OW15460   1.042   1.498  16.179  0.5789  0.2407 -0.7978
 1333SOL    HW115461   1.127   1.460  16.156  1.2864 -0.1039  2.4908
 1333SOL    HW215462   0.985   1.436  16.134  0.2747  0.0327 -0.1166
 1334SOL     OW15463   3.237   1.380   9.912 -0.4968  0.7009 -0.3381
 1334SOL    HW115464   3.218   1.457   9.966 -0.2668 -0.8285  1.9062
 1334SOL    HW215465   3.149   1.348   9.888 -0.0779 -0.5978 -0.1194
 1335SOL     OW15466   4.073   3.654  12.099 -0.7246  0.1664 -0.6870
 1335SOL    HW115467   4.147   3.602  12.068  1.0577  1.7165  0.9711
 1335SOL    HW215468   4.083   3.633  12.192 -1.0332  0.2503 -0.6317
 1336SOL     OW15469   1.017   1.989   4.831 -0.3825 -0.1253 -0.7603
 1336SOL    HW115470   1.004   1.928   4.759 -0.5895 -2.7881  1.4950
 1336SOL    HW215471   0.963   2.062   4.803  2.3654  2.2188  0.0115
 1337SOL     OW15472   2.141   4.061   1.494 -0.0327 -0.1380  0.0982
 1337SOL    HW115473   2.092   4.141   1.476  0.0534  0.2409  1.5766
 1337SOL    HW215474   2.121   4.056   1.588 -1.0851 -1.2007 -0.1726
 1338SOL     OW15475   4.638   2.879   5.092 -0.5642 -0.2155 -0.7795
 1338SOL    HW115476   4.625   2.974   5.080  0.9127  0.1471  0.4609
 1338SOL    HW215477   4.563   2.840   5.048 -1.6977 -0.7641  1.6368
 1339SOL     OW15478   2.735   3.651   7.980 -0.0531 -0.3013 -0.2622
 1339SOL    HW115479   2.713   3.733   7.935  1.6881  0.3412  0.0541
 1339SOL    HW215480   2.648   3.612   7.989 -0.7832  1.7430  1.5064
 1340SOL     OW15481   3.502   4.638   9.338  0.1129 -0.1426  0.0895
 1340SOL    HW115482   3.492   4.641   9.243 -0.1196  0.8328  0.1376
 1340SOL    HW215483   3.513   4.546   9.362 -1.7094 -0.5170 -0.5119
 1341SOL     OW15484   2.353   4.518   6.656 -0.5273  0.1489  0.1790
 1341SOL    HW115485   2.414   4.518   6.582  1.3351 -1.9951  1.7145
 1341SOL    HW215486   2.328   4.610   6.649 -2.2963 -0.3109  0.4167
 1342SOL     OW15487   0.887   2.044   3.730  0.0333 -0.1355  0.1809
 1342SOL    HW115488   0.901   2.024   3.638 -0.5965  3.0362 -0.5928
 1342SOL    HW215489   0.975   2.029   3.764 -0.3588 -0.7888  0.9146
 1343SOL     OW15490   1.929   4.227  12.689  0.4890  0.2648  0.1860
 1343SOL    HW115491   1.961   4.183  12.767 -0.8323  0.6552  0.9478
 1343SOL    HW215492   1.852   4.272  12.724 -0.1576 -0.3194 -0.4926
 1344SOL     OW15493   1.904   3.216   1.487 -0.0957  0.1201 -0.2308
 1344SOL    HW115494   1.912   3.285   1.421 -0.0525  0.8243  0.5265
 1344SOL    HW215495   1.824   3.173   1.459 -1.9457  2.5235  1.3866
 1345SOL     OW15496   1.465   1.166   6.092 -0.1559 -0.0538  0.1513
 1345SOL    HW115497   1.416   1.118   6.025  2.6620  0.6391 -2.4183
 1345SOL    HW215498   1.393   1.193   6.149 -1.4066 -0.4499 -1.2444
 1346SOL     OW15499   2.055   3.425  14.732 -0.0423  0.0423  0.5977
 1346SOL    HW115500   2.023   3.513  14.715  0.0827 -0.6526 -3.3775
 1346SOL    HW215501   2.012   3.385  14.656 -1.2165 -1.0885  1.8509
 1347SOL     OW15502   0.049   1.629  11.865  0.3346 -0.3035 -0.2687
 1347SOL    HW115503   4.679   1.627  11.832  0.0675 -1.0109  0.5076
 1347SOL    HW215504   0.055   1.720  11.894 -2.7488  0.5831 -2.4657
 1348SOL     OW15505   4.055   3.765   8.581  0.6602  0.5057  0.1547
 1348SOL    HW115506   3.971   3.793   8.616 -1.4449 -4.3032 -0.9488
 1348SOL    HW215507   4.053   3.669   8.591 -0.9668  0.5924  0.6955
 1349SOL     OW15508   1.037   4.597   5.784  0.2946  0.3991 -0.3362
 1349SOL    HW115509   0.993   4.639   5.709  0.4453 -0.9181 -1.1652
 1349SOL    HW215510   1.123   4.636   5.772  0.3710 -0.7415 -3.4397
 1350SOL     OW15511   4.267   3.036   6.657 -0.1583  0.6571 -0.1439
 1350SOL    HW115512   4.185   3.085   6.645 -0.0157  0.9512  0.0680
 1350SOL    HW215513   4.282   3.014   6.565  0.6289 -1.1518  0.4193
 1351SOL     OW15514   2.328   2.383   3.784  0.0747  0.2372 -0.3273
 1351SOL    HW115515   2.292   2.409   3.869 -0.9722 -2.1110 -0.0449
 1351SOL    HW215516   2.419   2.407   3.801 -0.4294  1.2611  0.8787
 1352SOL     OW15517   3.527   2.554  11.094 -0.1560  0.1853 -0.2338
 1352SOL    HW115518   3.459   2.597  11.041  1.7103  1.7484 -1.3639
 1352SOL    HW215519   3.576   2.510  11.025  0.1564 -0.7709  0.6050
 1353SOL     OW15520   2.951   1.732   4.105  0.7037  0.1761  0.7480
 1353SOL    HW115521   2.879   1.684   4.064  3.7367 -2.9655 -0.9408
 1353SOL    HW215522   2.915   1.722   4.193  1.9598 -0.4740  1.1953
 1354SOL     OW15523   1.779   2.786  16.109  0.1058 -0.1243  0.2683
 1354SOL    HW115524   1.793   2.763  16.200 -1.6087 -0.1632  0.5081
 1354SOL    HW215525   1.686   2.768  16.098 -0.1546  0.4424  1.5724
 1355SOL     OW15526   4.513   4.626   2.899  0.5361 -0.1088  0.2716
 1355SOL    HW115527   4.589   4.626   2.956 -0.5742 -2.0469  1.7526
 1355SOL    HW215528   4.453   4.576   2.955  1.1852  0.7126  1.6978
 1356SOL     OW15529   2.127   3.648   7.023  1.1670  0.1912  0.6420
 1356SOL    HW115530   2.141   3.576   7.085  0.1486  0.8311  1.6070
 1356SOL    HW215531   2.210   3.696   7.035  1.1358  0.3418  0.2455
 1357SOL     OW15532   0.210   2.527   8.746  0.5104  0.4296 -0.0579
 1357SOL    HW115533   0.262   2.559   8.819 -0.4073  0.4068  0.6177
 1357SOL    HW215534   0.164   2.456   8.791  0.5141 -0.1571 -0.9656
 1358SOL     OW15535   1.885   1.974  16.024  0.0549 -0.0214  0.4500
 1358SOL    HW115536   1.952   1.980  15.955 -0.1069 -0.9322  0.2114
 1358SOL    HW215537   1.810   1.971  15.964  0.8641  1.2414 -0.6385
 1359SOL     OW15538   1.748   2.534   8.313 -0.3432  0.2244 -0.0731
 1359SOL    HW115539   1.818   2.600   8.316  0.9337 -1.1771  0.7775
 1359SOL    HW215540   1.784   2.463   8.261 -2.0431 -0.6579 -0.0413
 1360SOL     OW15541   1.897   0.926   4.865  1.0480 -0.0077  0.1896
 1360SOL    HW115542   1.971   0.884   4.821  0.1437 -1.4495  0.0607
 1360SOL    HW215543   1.908   0.913   4.959 -0.7613  2.7346  0.7962
 1361SOL     OW15544   4.386   2.147   1.509 -0.1887  0.0617  0.4409
 1361SOL    HW115545   4.470   2.193   1.502 -0.3609  0.3365  0.1501
 1361SOL    HW215546   4.378   2.100   1.425  1.7619  1.2839 -0.4358
 1362SOL     OW15547   4.065   2.159   2.524  0.3133  0.0327 -0.1572
 1362SOL    HW115548   3.989   2.115   2.564 -0.0592  1.7551  1.0295
 1362SOL    HW215549   4.082   2.097   2.453  0.8951  0.7996 -0.6826
 1363SOL     OW15550   4.188   2.293  16.518 -0.7496  0.2764 -0.2830
 1363SOL    HW115551   4.198   2.354  16.592 -2.4062 -1.6887  1.5740
 1363SOL    HW215552   4.210   2.341  16.438 -0.2554  0.3198 -0.1202
 1364SOL     OW15553   0.622   3.716   8.108  0.1629  0.1087 -0.2264
 1364SOL    HW115554   0.670   3.711   8.190  0.4810 -2.2491 -0.5748
 1364SOL    HW215555   0.651   3.801   8.073 -2.3211  0.7908 -0.6912
 1365SOL     OW15556   2.356   3.083  11.393 -0.0303  0.1402  0.2697
 1365SOL    HW115557   2.450   3.068  11.402 -0.0416 -0.2650 -0.3105
 1365SOL    HW215558   2.338   3.097  11.301 -1.3467  0.6722  0.6066
 1366SOL     OW15559   1.067   0.556  10.670 -0.1176 -0.6513  0.7318
 1366SOL    HW115560   1.100   0.505  10.596  0.8427 -0.3404  0.9451
 1366SOL    HW215561   1.067   0.476  10.722  0.8871 -2.1022 -1.4687
 1367SOL     OW15562   1.353   1.786   9.252  0.1826 -0.2339 -0.1545
 1367SOL    HW115563   1.410   1.854   9.216 -1.5661  1.6149  0.5424
 1367SOL    HW215564   1.283   1.840   9.289 -0.0550  0.1562 -1.1738
 1368SOL     OW15565   0.494   4.516  14.570 -0.3635  0.7104 -0.1572
 1368SOL    HW115566   0.419   4.574  14.579 -1.7489 -0.8019 -2.1573
 1368SOL    HW215567   0.482   4.442  14.631  1.8435  0.5196  0.0621
 1369SOL     OW15568   3.821   0.312   4.515  0.2539  0.3478 -0.1083
 1369SOL    HW115569   3.890   0.345   4.573 -1.7387  0.2361  2.2914
 1369SOL    HW215570   3.844   0.353   4.431  0.7723  1.7700  0.7225
 1370SOL     OW15571   1.997   2.991   9.977 -0.5310 -0.1300 -0.6715
 1370SOL    HW115572   1.983   3.049  10.052 -0.7338 -0.3739 -0.5232
 1370SOL    HW215573   2.030   2.915  10.025 -0.7115  1.5764  2.1412
 1371SOL     OW15574   3.683   3.472   7.293  0.0570  0.4516  0.4385
 1371SOL    HW115575   3.768   3.454   7.332 -0.4007 -0.4481  1.0236
 1371SOL    HW215576   3.672   3.567   7.303 -2.2656  0.3734 -1.2553
 1372SOL     OW15577   2.546   4.196   6.194 -0.3183 -0.2065  0.1286
 1372SOL    HW115578   2.464   4.158   6.224 -0.1976  0.9746  1.9481
 1372SOL    HW215579   2.541   4.187   6.099 -0.2425 -2.1743  0.3090
 1373SOL     OW15580   2.077   4.138   6.657 -0.4214  0.8808 -0.0740
 1373SOL    HW115581   2.099   4.231   6.650  0.4692  0.6132 -0.9147
 1373SOL    HW215582   1.988   4.141   6.691 -1.1855  1.4725 -2.1432
 1374SOL     OW15583   1.637   3.058   8.104  0.3332  0.0205  0.3054
 1374SOL    HW115584   1.542   3.067   8.097  0.3305 -0.3082 -0.0961
 1374SOL    HW215585   1.647   3.073   8.198  0.6370  0.6802  0.1709
 1375SOL     OW15586   0.422   0.306   9.432  0.1002  0.5113  0.0568
 1375SOL    HW115587   0.494   0.271   9.485 -1.6991 -2.0271  0.8574
 1375SOL    HW215588   0.474   0.334   9.357 -0.2994  0.2530 -0.3196
 1376SOL     OW15589   4.482   2.090   3.606 -0.2769  0.3968  0.2518
 1376SOL    HW115590   4.522   2.167   3.648  0.0447 -0.0889  0.8273
 1376SOL    HW215591   4.552   2.027   3.594  1.2286  1.7243  1.9904
 1377SOL     OW15592   2.984   3.551   9.313 -0.0896 -0.0828 -0.2767
 1377SOL    HW115593   3.046   3.574   9.244 -0.7032  1.2851 -0.3618
 1377SOL    HW215594   2.995   3.619   9.378 -0.3946 -0.1374 -0.1690
 1378SOL     OW15595   1.918   1.769   6.897 -0.4847 -0.3420  0.2529
 1378SOL    HW115596   2.007   1.773   6.862  0.4214  0.6968  2.6832
 1378SOL    HW215597   1.870   1.780   6.815  1.1041  0.5908 -0.5521
 1379SOL     OW15598   3.716   0.167  10.919  0.1016 -0.2045 -0.1318
 1379SOL    HW115599   3.687   0.089  10.966 -0.0767  0.0367  0.1564
 1379SOL    HW215600   3.738   0.227  10.990 -2.3278  1.5114 -0.7939
 1380SOL     OW15601   3.322   2.284   8.806 -0.2377  0.0817 -0.4260
 1380SOL    HW115602   3.300   2.320   8.892  3.7944 -2.2889  1.6215
 1380SOL    HW215603   3.328   2.370   8.764 -1.3678  0.5980  0.4443
 1381SOL     OW15604   1.432   2.083   7.558 -0.3942  0.2780  0.0217
 1381SOL    HW115605   1.472   2.140   7.492 -3.7231  1.5650 -0.8970
 1381SOL    HW215606   1.352   2.135   7.567 -1.3376 -1.2340  0.2311
 1382SOL     OW15607   2.857   0.795  14.730 -0.6752  0.1597 -0.3022
 1382SOL    HW115608   2.763   0.781  14.741 -0.3210  0.2049  2.9137
 1382SOL    HW215609   2.845   0.861  14.662 -0.0893  1.3586  0.7405
 1383SOL     OW15610   2.845   2.016  10.613 -0.3371 -0.2673  0.3703
 1383SOL    HW115611   2.767   1.967  10.639  0.4986 -3.1709 -2.4807
 1383SOL    HW215612   2.901   1.943  10.641  1.1150  0.5295 -0.4313
 1384SOL     OW15613   4.525   2.956   5.569 -0.2500 -0.2624 -0.3689
 1384SOL    HW115614   4.484   3.034   5.606  1.1139  0.1584  0.2352
 1384SOL    HW215615   4.591   2.992   5.510 -0.5749 -0.8858 -1.1264
 1385SOL     OW15616   4.259   0.051   6.640  0.5206  1.0263  0.0015
 1385SOL    HW115617   4.281   0.133   6.596  0.5662  1.3903  0.6971
 1385SOL    HW215618   4.251   0.075   6.732 -1.5565 -1.9264  0.5602
 1386SOL     OW15619   0.822   4.469   6.413  0.4203  0.5146  0.4416
 1386SOL    HW115620   0.739   4.514   6.395 -0.2322 -0.6085  0.6553
 1386SOL    HW215621   0.862   4.551   6.441  2.1019 -0.5616  1.2298
 1387SOL     OW15622   2.528   0.984   3.914  0.6836  0.0364 -0.2897
 1387SOL    HW115623   2.586   1.041   3.965 -0.9372  2.1400 -0.8136
 1387SOL    HW215624   2.494   1.053   3.858 -1.5104 -0.3473  0.5606
 1388SOL     OW15625   4.360   4.163   1.320  0.8103  0.5445  0.0389
 1388SOL    HW115626   4.327   4.073   1.323  2.1862  0.0330 -0.1163
 1388SOL    HW215627   4.320   4.202   1.398 -0.1654  0.1347 -0.2556
 1389SOL     OW15628   0.315   2.975   6.045  0.1265 -0.1228 -0.0242
 1389SOL    HW115629   0.393   2.928   6.018  0.5970  0.2906  0.6126
 1389SOL    HW215630   0.332   2.991   6.138  0.6973 -0.6787 -0.0381
 1390SOL     OW15631   2.650   2.604   4.541 -0.1314 -0.0394  0.1733
 1390SOL    HW115632   2.564   2.613   4.500 -0.7070 -1.0756  1.1955
 1390SOL    HW215633   2.696   2.651   4.470  2.0129 -1.0221  0.9180
 1391SOL     OW15634   2.956   0.155   0.508 -0.2046  0.0251 -0.4587
 1391SOL    HW115635   3.007   0.187   0.434  2.0711  0.9594  1.5286
 1391SOL    HW215636   2.931   0.241   0.541  1.3175  0.1593  0.3296
 1392SOL     OW15637   3.702   4.699   2.794 -0.0673  0.5687  0.0040
 1392SOL    HW115638   3.730   4.618   2.837  0.2675  0.6010 -0.1566
 1392SOL    HW215639   3.752   4.700   2.712 -0.3888 -0.0084 -0.1987
 1393SOL     OW15640   1.881   4.455   1.621 -0.3058  0.1915 -0.6571
 1393SOL    HW115641   1.910   4.428   1.534  0.4222 -1.0034 -0.0484
 1393SOL    HW215642   1.836   4.375   1.650 -0.2558  0.0035 -1.1050
 1394SOL     OW15643   2.293   0.430   7.225 -0.2780 -0.2048  0.3247
 1394SOL    HW115644   2.205   0.402   7.199  0.9513  0.3465 -4.5342
 1394SOL    HW215645   2.335   0.344   7.229  0.1391  0.0483  1.2946
 1395SOL     OW15646   4.009   1.991   7.896 -0.6554  0.0499  0.1417
 1395SOL    HW115647   4.098   1.958   7.884  0.1034  2.1158  0.0716
 1395SOL    HW215648   4.003   2.035   7.811  1.1704 -2.5755 -1.3477
 1396SOL     OW15649   4.297   1.877  13.680 -0.0896  0.7947 -0.2847
 1396SOL    HW115650   4.224   1.839  13.728  0.7528  1.4280  1.5050
 1396SOL    HW215651   4.370   1.854  13.738  0.0454  1.1690 -0.3087
 1397SOL     OW15652   1.854   3.904   8.750  0.4201 -0.5394  0.0452
 1397SOL    HW115653   1.838   3.882   8.841  0.2711  1.0355  0.3972
 1397SOL    HW215654   1.878   3.819   8.712  0.0246 -1.3068  1.5441
 1398SOL     OW15655   3.194   2.383  12.168  0.4582 -0.7027  0.0675
 1398SOL    HW115656   3.284   2.376  12.136  0.7182  0.6620  0.5170
 1398SOL    HW215657   3.171   2.469  12.133  0.0309 -0.2618  1.4499
 1399SOL     OW15658   0.040   0.092  10.372  0.4131 -0.5385 -0.3300
 1399SOL    HW115659   0.136   0.088  10.376  0.4275 -0.5982 -0.6766
 1399SOL    HW215660   0.012   0.004  10.397  1.7697 -0.7147  0.5526
 1400SOL     OW15661   4.648   3.958   9.881 -0.5996 -0.1018  0.7826
 1400SOL    HW115662   4.590   3.942   9.955 -0.3125 -2.1919  0.5516
 1400SOL    HW215663   4.586   3.996   9.819  2.5146  0.8426 -1.7120
 1401SOL     OW15664   0.257   0.185   5.661 -0.6815 -0.0281 -0.4434
 1401SOL    HW115665   0.219   0.266   5.694  2.9566  0.5611  2.2534
 1401SOL    HW215666   0.211   0.179   5.577 -1.7133 -1.1506  0.1924
 1402SOL     OW15667   0.697   1.367   0.793 -0.0311 -0.6685 -0.2223
 1402SOL    HW115668   0.691   1.275   0.768 -3.5294  0.0398 -1.9350
 1402SOL    HW215669   0.735   1.355   0.880 -2.5678  0.4578  1.0233
 1403SOL     OW15670   4.531   3.211   4.536 -0.0847  0.3188  0.0702
 1403SOL    HW115671   4.444   3.240   4.564  0.4387 -1.1217  3.1999
 1403SOL    HW215672   4.583   3.231   4.614  2.2063 -2.1172 -0.8282
 1404SOL     OW15673   0.690   0.459  11.808  0.3006 -0.2298 -0.2281
 1404SOL    HW115674   0.639   0.538  11.823  2.3706  0.8088  1.4501
 1404SOL    HW215675   0.641   0.413  11.740 -2.0188  0.4760  0.9565
 1405SOL     OW15676   2.266   2.281   6.707  0.2226  0.2004 -0.1819
 1405SOL    HW115677   2.253   2.374   6.725  0.0797  0.1165  0.1557
 1405SOL    HW215678   2.337   2.291   6.644  0.1223  1.7120 -0.0486
 1406SOL     OW15679   0.156   2.133   4.545 -0.3536 -0.0324  0.1332
 1406SOL    HW115680   0.084   2.077   4.515 -1.4561  0.6091  1.5712
 1406SOL    HW215681   0.234   2.096   4.504 -0.8434  0.1992 -1.0073
 1407SOL     OW15682   0.928   4.526  15.879  1.0336  0.2985  0.0747
 1407SOL    HW115683   0.924   4.471  15.800 -0.3173 -0.0979  0.4185
 1407SOL    HW215684   0.852   4.486  15.921  1.7345 -0.7950  0.3082
 1408SOL     OW15685   3.008   1.330   4.202  0.8584  0.0764  0.3063
 1408SOL    HW115686   2.920   1.347   4.169  0.8757  2.3951  1.4547
 1408SOL    HW215687   3.004   1.235   4.205  1.2789 -0.0776 -4.0356
 1409SOL     OW15688   1.996   3.125   8.590 -0.8012  0.2477  0.0649
 1409SOL    HW115689   2.049   3.108   8.668 -2.1020  2.6453  1.4802
 1409SOL    HW215690   1.913   3.088   8.620 -0.5778 -0.1236  0.2227
 1410SOL     OW15691   4.688   1.199   7.466 -0.3886 -0.2436  0.1031
 1410SOL    HW115692   4.599   1.166   7.459  0.0581 -1.3341 -0.4305
 1410SOL    HW215693   0.002   1.135   7.529 -2.0763 -1.3824 -0.1586
 1411SOL     OW15694   1.105   3.382   4.428 -0.1114 -0.2394  0.0821
 1411SOL    HW115695   1.041   3.451   4.443 -0.8406 -0.8141 -0.3769
 1411SOL    HW215696   1.051   3.304   4.421 -0.6514  0.1323  0.1343
 1412SOL     OW15697   3.858   2.886   8.518 -0.6383  0.0179 -0.7460
 1412SOL    HW115698   3.776   2.853   8.481 -1.1166  1.7790 -1.2607
 1412SOL    HW215699   3.886   2.937   8.441 -1.6557  1.6410 -0.0453
 1413SOL     OW15700   1.712   3.474  15.660  0.2400 -0.3379 -0.3219
 1413SOL    HW115701   1.633   3.519  15.690 -0.3638 -1.5271 -0.1339
 1413SOL    HW215702   1.700   3.485  15.566  2.5908 -0.3207 -0.6241
 1414SOL     OW15703   2.466   0.493   3.046  0.4406  0.5237  0.0150
 1414SOL    HW115704   2.436   0.459   2.962  1.3510  2.5361 -1.0960
 1414SOL    HW215705   2.561   0.502   3.041  0.4182 -0.0838 -1.4944
 1415SOL     OW15706   3.112   0.249  17.307  0.4084  0.2419  0.2326
 1415SOL    HW115707   3.173   0.305  17.259  1.4714 -1.5590 -0.5078
 1415SOL    HW215708   3.048   0.313  17.339 -0.7675 -0.3808 -0.8734
 1416SOL     OW15709   0.201   0.582   7.950 -0.1300  0.1306 -0.3198
 1416SOL    HW115710   0.237   0.515   8.008 -0.2137  0.2861 -0.0892
 1416SOL    HW215711   0.107   0.566   7.954 -0.1071 -0.0027 -0.2960
 1417SOL     OW15712   0.425   2.932   5.580  0.7142  0.1338 -0.1706
 1417SOL    HW115713   0.343   2.947   5.533 -0.3328  3.3942  2.6326
 1417SOL    HW215714   0.494   2.930   5.514  0.4892 -1.9717 -0.3274
 1418SOL     OW15715   4.110   0.872  16.195  0.5025  0.2755 -0.4657
 1418SOL    HW115716   4.068   0.899  16.113 -0.4345 -0.1749 -0.1442
 1418SOL    HW215717   4.079   0.781  16.202 -0.8285  0.6077 -1.9819
 1419SOL     OW15718   3.260   4.319   4.773 -0.6851 -0.4073  0.3635
 1419SOL    HW115719   3.315   4.301   4.697 -0.1455 -0.4335  0.7505
 1419SOL    HW215720   3.295   4.252   4.832 -2.0537  0.7936  2.5374
 1420SOL     OW15721   2.185   0.250   3.035 -0.0393 -0.2814  0.6311
 1420SOL    HW115722   2.147   0.328   2.996 -0.0428 -1.8370 -2.5381
 1420SOL    HW215723   2.217   0.206   2.956  0.2090 -1.5967  1.4551
 1421SOL     OW15724   1.442   1.770  11.202  0.0415 -0.1697 -0.2201
 1421SOL    HW115725   1.425   1.810  11.117 -1.6905  0.3741  0.3848
 1421SOL    HW215726   1.372   1.814  11.250  1.0859 -0.2248  1.3319
 1422SOL     OW15727   0.255   0.924   6.446  0.3645  0.4888  0.3753
 1422SOL    HW115728   0.349   0.906   6.443  0.2393  0.0818 -1.0911
 1422SOL    HW215729   0.217   0.882   6.369  0.5519 -0.1642  0.6442
 1423SOL     OW15730   1.607   0.083  12.858  0.3251  0.4074 -0.0314
 1423SOL    HW115731   1.595   0.096  12.952  2.0254  1.6764  0.0098
 1423SOL    HW215732   1.701   0.101  12.859  0.5370 -0.6610 -0.3028
 1424SOL     OW15733   4.545   4.110   1.485  0.3570 -0.2024  0.0650
 1424SOL    HW115734   4.496   4.128   1.405 -0.3457 -0.1243  0.5037
 1424SOL    HW215735   4.567   4.017   1.482  2.5729  0.3089  0.7100
 1425SOL     OW15736   0.411   1.858   7.690 -0.6190 -0.0121  0.4776
 1425SOL    HW115737   0.506   1.852   7.688 -0.6751 -1.2448  1.5509
 1425SOL    HW215738   0.394   1.950   7.672 -1.2883 -0.2215  0.0532
 1426SOL     OW15739   1.130   1.653   3.310  0.1477 -0.2160  0.0455
 1426SOL    HW115740   1.143   1.740   3.350  1.8434 -0.6517  0.4383
 1426SOL    HW215741   1.075   1.673   3.234  1.0690  0.4936 -0.4524
 1427SOL     OW15742   3.308   2.325   7.291  0.3887 -0.4991 -0.3558
 1427SOL    HW115743   3.226   2.276   7.297  0.0297  0.1220 -0.1284
 1427SOL    HW215744   3.316   2.340   7.197  0.6277  0.9069 -0.1148
 1428SOL     OW15745   3.119   2.284  13.153  0.3129 -0.3968 -0.0221
 1428SOL    HW115746   3.134   2.221  13.223 -0.8993 -0.1188  0.4887
 1428SOL    HW215747   3.212   2.300  13.138 -0.1442  0.5645 -1.9316
 1429SOL     OW15748   2.137   2.549  12.917  0.4366  0.4485 -0.0640
 1429SOL    HW115749   2.204   2.576  12.855  0.4395  1.9796  0.5922
 1429SOL    HW215750   2.181   2.565  13.001 -0.3031 -1.2461  0.6562
 1430SOL     OW15751   4.103   1.546   6.649  0.2313  0.2929  0.1316
 1430SOL    HW115752   4.039   1.481   6.619 -1.9701  2.9323 -0.9016
 1430SOL    HW215753   4.145   1.557   6.564 -4.9902 -0.4222 -2.5682
 1431SOL     OW15754   0.484   1.554   0.723  0.6262 -0.5431  0.0138
 1431SOL    HW115755   0.562   1.499   0.715  0.0984 -1.4298  1.0607
 1431SOL    HW215756   0.444   1.518   0.802  0.5412 -0.4990 -0.0088
 1432SOL     OW15757   4.174   1.450   2.544  0.7233  0.1827 -0.0682
 1432SOL    HW115758   4.178   1.497   2.461  1.2831  1.4533  0.6841
 1432SOL    HW215759   4.203   1.365   2.511 -0.5720 -0.3854  0.2439
 1433SOL     OW15760   2.288   0.406  13.082  0.0039 -0.6948  0.0577
 1433SOL    HW115761   2.323   0.413  13.171  0.8133  1.1248 -0.3995
 1433SOL    HW215762   2.331   0.480  13.039 -0.2179 -1.0773 -0.8178
 1434SOL     OW15763   3.075   2.314   7.764  0.1034 -0.3253  0.1643
 1434SOL    HW115764   3.131   2.239   7.742  0.3378 -0.5731  1.5978
 1434SOL    HW215765   2.987   2.287   7.792 -0.2127  0.8299  0.2913
 1435SOL     OW15766   2.755   2.212  16.944 -0.2386  0.2879  0.0143
 1435SOL    HW115767   2.706   2.290  16.968 -0.7630 -0.5444  1.6793
 1435SOL    HW215768   2.843   2.248  16.938  0.3531 -1.0160  0.8272
 1436SOL     OW15769   2.468   2.589   1.481  0.1264 -0.9132  0.3598
 1436SOL    HW115770   2.375   2.575   1.463 -0.1470 -1.8771  2.5270
 1436SOL    HW215771   2.482   2.527   1.552 -2.1531  1.0314  2.5145
 1437SOL     OW15772   2.530   0.152   4.688 -0.1504  0.1920 -0.1474
 1437SOL    HW115773   2.470   0.227   4.688  2.1700  2.0768 -1.7846
 1437SOL    HW215774   2.469   0.082   4.712  0.7135  0.4965  2.9380
 1438SOL     OW15775   1.825   0.718  14.159  0.0863 -0.4928 -0.2538
 1438SOL    HW115776   1.852   0.633  14.194 -1.3340 -1.1127 -0.6788
 1438SOL    HW215777   1.898   0.773  14.188 -0.7608 -0.7261  2.3100
 1439SOL     OW15778   0.589   4.089   4.871 -0.2963 -0.4564 -0.3148
 1439SOL    HW115779   0.651   4.037   4.923 -2.3197 -2.2797  0.2955
 1439SOL    HW215780   0.604   4.180   4.894  0.7881 -0.2338 -1.9473
 1440SOL     OW15781   1.078   3.836   3.978  0.0811  0.5413  0.4452
 1440SOL    HW115782   1.100   3.812   4.067  1.8077  1.6344  0.3046
 1440SOL    HW215783   1.140   3.905   3.954  0.7490  0.0899  0.8832
 1441SOL     OW15784   0.952   4.692   7.224 -0.3744 -0.0727 -0.5853
 1441SOL    HW115785   0.872   0.002   7.180  0.0658 -0.1037 -1.4143
 1441SOL    HW215786   0.943   4.600   7.199 -1.5134  0.3868 -1.8993
 1442SOL     OW15787   3.870   3.292   4.804 -0.1684  0.5256 -0.1288
 1442SOL    HW115788   3.879   3.306   4.898  0.8456  1.3696 -0.3557
 1442SOL    HW215789   3.943   3.234   4.783 -0.5769  0.1698 -0.5480
 1443SOL     OW15790   0.046   1.692  16.542  1.6414  0.0195  0.2614
 1443SOL    HW115791   0.135   1.681  16.575  1.4467  0.1241  0.8375
 1443SOL    HW215792   0.014   1.757  16.605  1.3780 -1.1252  1.3174
 1444SOL     OW15793   3.423   1.143   1.047 -0.3042 -0.8013  0.3441
 1444SOL    HW115794   3.354   1.108   1.103 -1.6528  0.4421 -0.5212
 1444SOL    HW215795   3.491   1.158   1.112 -1.8265  1.6989  1.3358
 1445SOL     OW15796   1.522   3.940   3.327  0.4765 -0.2812  0.1523
 1445SOL    HW115797   1.432   3.941   3.360  0.4619 -0.1770  0.1076
 1445SOL    HW215798   1.560   4.003   3.387  2.0360 -1.0367 -0.0330
 1446SOL     OW15799   4.450   0.860   1.069  0.0857  0.1172 -0.0817
 1446SOL    HW115800   4.395   0.813   1.132  0.9920  1.7693  1.9440
 1446SOL    HW215801   4.492   0.782   1.033  3.4475  1.3849  1.0766
 1447SOL     OW15802   3.345   1.860   5.585  0.5600  0.5351 -0.4030
 1447SOL    HW115803   3.438   1.873   5.601  0.7107 -0.1784 -0.6838
 1447SOL    HW215804   3.308   1.870   5.673  0.1229  1.4336 -0.6837
 1448SOL     OW15805   0.951   2.393  17.200 -0.1289 -0.3195 -0.3434
 1448SOL    HW115806   1.009   2.406  17.126  0.6018 -2.7841 -0.1860
 1448SOL    HW215807   1.000   2.363  17.276 -0.6566 -2.1831 -0.7529
 1449SOL     OW15808   2.620   3.022   9.628  0.0299  0.4355 -0.1995
 1449SOL    HW115809   2.657   2.938   9.604 -0.3445  0.1146  0.3483
 1449SOL    HW215810   2.687   3.054   9.689 -0.0760  0.9299 -0.3452
 1450SOL     OW15811   3.748   3.855  17.486  0.5535  0.1765  0.1635
 1450SOL    HW115812   3.668   3.812  17.518 -0.1463 -0.2146 -2.1140
 1450SOL    HW215813   3.747   3.939  17.532  0.6128  1.3501 -1.9533
 1451SOL     OW15814   1.128   1.797   5.324  0.0936  0.1044  0.1407
 1451SOL    HW115815   1.044   1.808   5.281  0.2287  2.5534  0.5394
 1451SOL    HW215816   1.182   1.812   5.247 -1.3090  2.5159 -0.3347
 1452SOL     OW15817   1.234   0.278   5.675 -0.1666  0.8956  0.3121
 1452SOL    HW115818   1.327   0.280   5.652 -0.5728  1.0216 -1.3408
 1452SOL    HW215819   1.230   0.368   5.706 -1.4450  0.3876  1.6138
 1453SOL     OW15820   0.972   3.973   0.744  0.4396  0.1418 -0.0762
 1453SOL    HW115821   0.897   4.022   0.711  1.0324  0.5611 -0.7976
 1453SOL    HW215822   0.996   4.034   0.813  0.2342  0.3352 -0.1796
 1454SOL     OW15823   3.272   3.940  16.763  0.7114  0.1508 -0.0990
 1454SOL    HW115824   3.355   3.930  16.716  0.1177  0.0590 -1.1232
 1454SOL    HW215825   3.249   3.847  16.769  0.2472  0.3260  0.7317
 1455SOL     OW15826   2.127   3.695   8.797 -0.6314 -0.3498 -0.0877
 1455SOL    HW115827   2.137   3.602   8.820 -1.5086 -0.1380  1.1932
 1455SOL    HW215828   2.060   3.679   8.730 -1.8263  0.1933  0.9691
 1456SOL     OW15829   1.693   3.776  11.527  0.0554 -0.1152 -0.0518
 1456SOL    HW115830   1.712   3.867  11.508 -0.8119 -0.0592 -0.6473
 1456SOL    HW215831   1.632   3.758  11.455 -0.3823  0.1741  0.2429
 1457SOL     OW15832   1.368   1.792   8.743  0.4502 -0.5237  0.2720
 1457SOL    HW115833   1.344   1.859   8.679 -0.7321 -2.1823 -0.9979
 1457SOL    HW215834   1.284   1.753   8.764  0.5674  0.1525  2.0047
 1458SOL     OW15835   2.914   1.187   9.668  0.1896  0.0382 -0.0054
 1458SOL    HW115836   2.918   1.092   9.661 -0.5478  0.0465 -0.5099
 1458SOL    HW215837   2.892   1.201   9.760 -1.1387  1.6715 -0.5715
 1459SOL     OW15838   3.180   2.320   3.457  0.4169 -0.5069  0.1634
 1459SOL    HW115839   3.136   2.379   3.519  1.0289  1.7558 -1.5300
 1459SOL    HW215840   3.271   2.346   3.470  0.4649  0.8766 -2.9166
 1460SOL     OW15841   0.993   4.654  16.102  0.3609  0.4384 -0.3597
 1460SOL    HW115842   0.920   4.709  16.076  0.7215  1.5250  0.9037
 1460SOL    HW215843   0.982   4.584  16.037  1.8736 -1.0097  0.9295
 1461SOL     OW15844   2.543   3.892   1.688  0.3059  0.3930 -0.0979
 1461SOL    HW115845   2.636   3.899   1.711  0.1864 -1.9949  1.1232
 1461SOL    HW215846   2.529   3.986   1.681  0.5619  0.2725 -2.1747
 1462SOL     OW15847   2.290   4.064  14.805  0.6843 -0.6905 -0.6261
 1462SOL    HW115848   2.254   3.989  14.756  1.8962 -2.4440  1.1816
 1462SOL    HW215849   2.307   4.136  14.744 -1.7824  1.0827  0.8115
 1463SOL     OW15850   4.238   0.243   6.871 -0.7418  0.2719  0.5056
 1463SOL    HW115851   4.181   0.286   6.807 -0.9334  1.0904  1.2335
 1463SOL    HW215852   4.307   0.310   6.882 -1.3521  0.9517  0.2085
 1464SOL     OW15853   4.418   3.903   7.047  0.2417 -0.5424 -0.4476
 1464SOL    HW115854   4.441   3.965   6.977  5.3456 -1.1393  0.6980
 1464SOL    HW215855   4.452   3.825   7.004  1.2415 -0.6137  0.4824
 1465SOL     OW15856   3.557   0.868   3.390  0.6204  0.2912  0.0780
 1465SOL    HW115857   3.579   0.791   3.443 -2.1028 -1.4976 -1.3958
 1465SOL    HW215858   3.644   0.907   3.401  0.4920  0.8864 -1.0338
 1466SOL     OW15859   2.122   3.719   5.564  0.2986  0.2942  0.1632
 1466SOL    HW115860   2.088   3.630   5.572  3.7243 -0.9366  1.0971
 1466SOL    HW215861   2.175   3.706   5.486  2.2926  1.1770  1.3912
 1467SOL     OW15862   2.655   3.879   4.161 -0.2329 -0.2246 -0.0557
 1467SOL    HW115863   2.587   3.946   4.167  1.9351  1.8862  0.6654
 1467SOL    HW215864   2.604   3.799   4.143  1.0920 -0.7771 -1.3367
 1468SOL     OW15865   3.331   3.998   7.778 -0.4086  0.2381  0.1095
 1468SOL    HW115866   3.400   3.974   7.716 -2.2334  0.7694 -2.1408
 1468SOL    HW215867   3.295   3.915   7.810 -1.2649 -0.2304 -2.0545
 1469SOL     OW15868   1.089   0.246   7.111  0.4306 -1.2613 -0.8207
 1469SOL    HW115869   1.106   0.205   7.026 -2.2772 -2.4470 -0.7835
 1469SOL    HW215870   1.131   0.183   7.170  0.3643 -0.8177 -0.2987
 1470SOL     OW15871   4.509   0.840   7.866 -0.0513 -0.3442 -0.9745
 1470SOL    HW115872   4.472   0.880   7.945 -0.7900 -0.0213 -1.4881
 1470SOL    HW215873   4.598   0.818   7.896 -0.4058  1.5234  1.4620
 1471SOL     OW15874   0.478   2.942  10.101 -0.0049 -0.0302  0.0572
 1471SOL    HW115875   0.387   2.916  10.120  0.1910  0.3419  1.5572
 1471SOL    HW215876   0.506   2.984  10.182  2.4717  0.3920 -1.0237
 1472SOL     OW15877   4.219   3.337   4.895 -0.3441  0.5021  0.2229
 1472SOL    HW115878   4.232   3.344   4.989  2.5232  1.1840 -0.2154
 1472SOL    HW215879   4.189   3.246   4.887  1.6398 -0.3811  2.9939
 1473SOL     OW15880   4.291   0.656  11.162 -0.8991 -0.6186 -0.7931
 1473SOL    HW115881   4.241   0.581  11.194 -3.0385  1.3661  0.4563
 1473SOL    HW215882   4.227   0.726  11.150 -1.8561 -1.0077  2.1872
 1474SOL     OW15883   3.162   0.349   7.750  0.5520 -0.0924 -0.1398
 1474SOL    HW115884   3.115   0.303   7.681  2.1931 -2.3648  0.2783
 1474SOL    HW215885   3.248   0.307   7.755  1.2727  1.2910 -0.6419
 1475SOL     OW15886   2.353   2.092   5.837 -0.3016  0.8049  0.1015
 1475SOL    HW115887   2.326   2.007   5.801  1.2894  0.7094 -0.8762
 1475SOL    HW215888   2.275   2.113   5.889 -1.8141 -2.6980 -0.7264
 1476SOL     OW15889   3.875   3.580   8.214 -0.5042 -0.2047 -0.5533
 1476SOL    HW115890   3.839   3.584   8.303  0.1190 -0.5398 -0.2840
 1476SOL    HW215891   3.967   3.601   8.226 -1.0266  1.6046  0.3233
 1477SOL     OW15892   0.205   0.220   6.324 -0.4503  0.3070  0.0162
 1477SOL    HW115893   0.234   0.305   6.359 -1.1989  0.2921  0.6786
 1477SOL    HW215894   0.165   0.181   6.402  0.8599 -0.2529  0.4001
 1478SOL     OW15895   1.163   4.200   0.915 -0.3108 -0.2140  0.4149
 1478SOL    HW115896   1.214   4.276   0.889 -0.9072 -0.2699 -0.9687
 1478SOL    HW215897   1.075   4.233   0.896  0.0216  0.4874  0.1000
 1479SOL     OW15898   1.608   4.527   1.598  0.6072 -0.1689  0.4484
 1479SOL    HW115899   1.703   4.514   1.602  0.7950  0.4710 -1.8186
 1479SOL    HW215900   1.600   4.594   1.665  1.0546  0.9805 -0.6593
 1480SOL     OW15901   0.117   0.569  17.404  0.1598 -0.2251  0.4678
 1480SOL    HW115902   0.119   0.587  17.499 -1.6651  3.5639 -0.2008
 1480SOL    HW215903   0.123   0.657  17.367 -1.1931  0.0995  1.0410
 1481SOL     OW15904   3.818   1.578   0.908  0.0569 -0.0194  0.1554
 1481SOL    HW115905   3.738   1.624   0.935  0.3613  1.1630 -0.9819
 1481SOL    HW215906   3.824   1.496   0.958 -0.2660  0.2063  0.5669
 1482SOL     OW15907   4.687   1.047   9.413  0.2344 -0.2522 -0.0567
 1482SOL    HW115908   4.647   0.979   9.360  0.9094 -0.7640  0.0874
 1482SOL    HW215909   4.653   1.022   9.498  2.1772  0.0638  0.8257
 1483SOL     OW15910   3.576   1.641   2.185  0.3602  0.0993  0.2625
 1483SOL    HW115911   3.636   1.567   2.191 -1.1281 -0.9449  2.8558
 1483SOL    HW215912   3.645   1.706   2.192 -1.2827  1.9064 -0.4101
 1484SOL     OW15913   4.118   1.925  12.240  0.2136  0.1715 -0.9001
 1484SOL    HW115914   4.056   1.854  12.254 -1.4597  1.3031 -2.4619
 1484SOL    HW215915   4.086   1.944  12.151  0.4541  4.3239 -0.1042
 1485SOL     OW15916   4.472   2.668  11.413  0.1947  0.3403 -0.6101
 1485SOL    HW115917   4.400   2.711  11.458  0.1030 -0.0198 -0.4072
 1485SOL    HW215918   4.505   2.732  11.350 -0.9993  2.0523  0.5158
 1486SOL     OW15919   2.855   4.463   0.910 -0.5506 -0.0400  0.4911
 1486SOL    HW115920   2.820   4.517   0.839  0.6240 -0.3578 -0.3215
 1486SOL    HW215921   2.777   4.429   0.955 -1.0178  0.3336 -0.0368
 1487SOL     OW15922   0.765   3.680  17.162  0.1110  0.2942  0.3738
 1487SOL    HW115923   0.823   3.750  17.192 -0.5357  0.6021  0.8951
 1487SOL    HW215924   0.749   3.641  17.248  1.1246  0.6287  0.7112
 1488SOL     OW15925   4.697   0.737   2.703  0.0505  0.3431  0.0683
 1488SOL    HW115926   4.690   0.652   2.746 -2.0191  0.7370  0.5447
 1488SOL    HW215927   4.654   0.716   2.620 -0.0869 -3.3000  1.0621
 1489SOL     OW15928   2.098   4.199  16.807  0.2345 -0.2718 -0.5124
 1489SOL    HW115929   2.067   4.124  16.856  0.3127  0.0936  0.0947
 1489SOL    HW215930   2.135   4.251  16.878  2.0901  0.1043 -1.7363
 1490SOL     OW15931   0.100   2.251   3.824 -0.4642  0.6071  0.2954
 1490SOL    HW115932   0.057   2.278   3.743  0.3891 -1.5401 -0.8872
 1490SOL    HW215933   0.128   2.164   3.794 -2.3678  0.0155  0.2650
 1491SOL     OW15934   4.535   0.561   8.249  0.1271 -0.9328 -0.1800
 1491SOL    HW115935   4.465   0.570   8.183 -1.2160  2.9494  1.8154
 1491SOL    HW215936   4.580   0.645   8.244 -0.7515 -0.3863  0.9777
 1492SOL     OW15937   3.034   2.889   5.447  0.2699  0.1008  0.3573
 1492SOL    HW115938   2.956   2.907   5.500  1.1211 -1.0844  1.9903
 1492SOL    HW215939   3.091   2.959   5.480  1.6789 -1.1299  0.5414
 1493SOL     OW15940   4.416   3.755   7.910 -0.1283  0.5959  0.1129
 1493SOL    HW115941   4.408   3.671   7.865 -2.1313  0.7069  0.2899
 1493SOL    HW215942   4.474   3.721   7.979 -1.0468 -1.1862 -0.0012
 1494SOL     OW15943   3.735   3.415   0.494  0.0555 -0.1787  0.0612
 1494SOL    HW115944   3.789   3.492   0.472  0.2222  0.2283  1.8888
 1494SOL    HW215945   3.776   3.392   0.577 -1.6630 -2.1092  0.3489
 1495SOL     OW15946   1.571   1.607  16.718  0.5262 -0.6913 -0.5233
 1495SOL    HW115947   1.487   1.562  16.730 -0.4419  1.6590  1.3956
 1495SOL    HW215948   1.560   1.695  16.684  1.2111 -0.8372 -1.1393
 1496SOL     OW15949   1.222   3.217  16.357  0.1760 -0.2040  0.3965
 1496SOL    HW115950   1.200   3.199  16.265  0.4983  5.1508 -0.7116
 1496SOL    HW215951   1.240   3.310  16.353 -0.3137 -0.1972 -2.1281
 1497SOL     OW15952   1.798   1.674   3.811 -0.2230  0.1311  0.0309
 1497SOL    HW115953   1.810   1.671   3.906  1.7643 -1.4964 -0.2600
 1497SOL    HW215954   1.848   1.602   3.772 -1.2542 -1.0409  0.8958
 1498SOL     OW15955   2.631   3.503   7.477 -0.5872  0.5018  0.4035
 1498SOL    HW115956   2.654   3.575   7.535 -0.5390  2.1467 -1.6746
 1498SOL    HW215957   2.699   3.518   7.411 -1.0023 -2.0718 -0.6344
 1499SOL     OW15958   2.729   1.653  14.815  0.8012  0.0936  0.3752
 1499SOL    HW115959   2.726   1.723  14.750  1.2535 -1.0691 -0.8831
 1499SOL    HW215960   2.755   1.705  14.891 -0.2360  0.9010  0.1814
 1500SOL     OW15961   4.613   2.919   1.743  0.0565 -0.1977  0.3414
 1500SOL    HW115962   4.598   3.014   1.741 -1.5294 -0.4637 -0.2848
 1500SOL    HW215963   4.659   2.918   1.827 -1.0148  0.6981  0.9384
 1501SOL     OW15964   4.093   4.550   6.544 -0.2083  0.1342  0.1052
 1501SOL    HW115965   4.087   4.591   6.458  2.7779 -0.5528 -0.4144
 1501SOL    HW215966   4.143   4.625   6.579 -0.9514 -0.3379  2.1940
 1502SOL     OW15967   4.075   0.920   0.836  0.6282 -0.5844  0.8755
 1502SOL    HW115968   4.010   0.862   0.795 -0.6582 -0.7284  3.1107
 1502SOL    HW215969   4.026   0.937   0.916  0.1852 -0.5335  0.5919
 1503SOL     OW15970   3.446   3.480  13.411 -0.0967  0.2280  0.1791
 1503SOL    HW115971   3.383   3.409  13.400  0.7472 -0.7190  1.4458
 1503SOL    HW215972   3.517   3.435  13.456  0.6318  1.2783  0.0803
 1504SOL     OW15973   0.741   3.071  16.116  0.1389  0.3705 -0.0448
 1504SOL    HW115974   0.724   3.000  16.054 -0.3051 -0.5060  1.0831
 1504SOL    HW215975   0.835   3.051  16.119  0.8310  3.2262 -2.4387
 1505SOL     OW15976   4.028   3.097   9.227 -0.7238 -0.5322 -0.1787
 1505SOL    HW115977   4.042   3.071   9.136 -0.9942  0.1178 -0.4121
 1505SOL    HW215978   3.946   3.147   9.219 -0.2829  0.2240  0.0760
 1506SOL     OW15979   3.662   3.914  12.377 -0.0016  0.3443 -0.1347
 1506SOL    HW115980   3.696   3.839  12.426 -0.7101  1.5612  2.2502
 1506SOL    HW215981   3.582   3.877  12.340 -0.8154  1.2656  0.6917
 1507SOL     OW15982   1.213   4.383   7.891  0.3894 -0.4462  0.0502
 1507SOL    HW115983   1.185   4.351   7.977 -0.1781 -0.1816 -0.0329
 1507SOL    HW215984   1.287   4.325   7.874 -0.5321 -1.3774 -0.8717
 1508SOL     OW15985   3.335   0.804  16.635  0.2327  0.3748  0.5299
 1508SOL    HW115986   3.341   0.709  16.646  0.1080  0.3019 -0.0435
 1508SOL    HW215987   3.427   0.825  16.621  0.6764 -2.0794 -0.2824
 1509SOL     OW15988   3.741   0.399  11.317  0.0514 -0.3853 -0.7754
 1509SOL    HW115989   3.675   0.424  11.381  0.2197  0.1476 -0.8131
 1509SOL    HW215990   3.793   0.477  11.296 -0.6288 -0.2195 -1.8537
 1510SOL     OW15991   3.790   2.207   5.755 -0.4275  0.5167 -0.0266
 1510SOL    HW115992   3.763   2.117   5.774  0.8156 -0.1043 -1.1622
 1510SOL    HW215993   3.843   2.203   5.675 -0.4287 -0.2107  0.0114
 1511SOL     OW15994   3.237   3.055   3.374 -0.0195 -0.4093  0.3096
 1511SOL    HW115995   3.169   3.068   3.309  0.0439 -0.6591  0.1909
 1511SOL    HW215996   3.212   2.970   3.411  2.0929  0.4736  3.7530
 1512SOL     OW15997   4.578   0.421   5.382  0.2756 -0.0556  0.5322
 1512SOL    HW115998   4.655   0.412   5.440  1.0752  0.4531 -0.4588
 1512SOL    HW215999   4.504   0.439   5.440  0.3987  0.7020  0.4643
 1513SOL     OW16000   1.827   2.752   4.575  0.3835 -0.1867 -0.1082
 1513SOL    HW116001   1.840   2.777   4.667 -3.1498 -1.8813  0.8477
 1513SOL    HW216002   1.755   2.807   4.546  1.3413  0.3891 -1.4025
 1514SOL     OW16003   2.924   0.223   7.316 -0.3101 -0.5041  0.8873
 1514SOL    HW116004   2.953   0.234   7.225 -0.5105  2.7161  1.2005
 1514SOL    HW216005   2.855   0.289   7.316 -1.0375 -1.2661  0.9485
 1515SOL     OW16006   2.017   1.658   2.780  0.7109  0.1321  0.2746
 1515SOL    HW116007   2.063   1.651   2.696  1.8007  2.1151  0.7006
 1515SOL    HW216008   2.081   1.709   2.830 -0.0333 -0.6034  1.9536
 1516SOL     OW16009   0.617   4.134  11.749 -0.7896 -0.6011  0.2572
 1516SOL    HW116010   0.707   4.167  11.757 -1.3361  1.5917 -2.7331
 1516SOL    HW216011   0.567   4.187  11.811  0.1013 -2.9418  3.0066
 1517SOL     OW16012   1.071   0.494   2.525  0.9598 -0.2041 -0.7688
 1517SOL    HW116013   1.152   0.536   2.552  1.9547 -1.7428 -1.3168
 1517SOL    HW216014   1.039   0.549   2.453  1.8403  1.8664  0.4481
 1518SOL     OW16015   0.257   4.479  17.465  0.5732  0.1568 -0.5550
 1518SOL    HW116016   0.258   4.410  17.398  1.0018  1.7151 -2.1638
 1518SOL    HW216017   0.186   4.537  17.434 -0.6577 -0.7528  0.5920
 1519SOL     OW16018   2.821   2.588   7.257  0.1057  0.4430  0.1702
 1519SOL    HW116019   2.886   2.625   7.317 -0.4456 -0.0330  1.0661
 1519SOL    HW216020   2.801   2.505   7.301  4.9019  0.1624  1.7616
 1520SOL     OW16021   0.655   4.326   5.002 -0.6578 -0.0966  0.0163
 1520SOL    HW116022   0.729   4.332   5.062 -0.2626 -1.4886 -0.3226
 1520SOL    HW216023   0.586   4.306   5.064 -0.9771 -0.1951 -0.3687
 1521SOL     OW16024   2.668   0.007   4.450  0.0666 -0.5855 -0.5503
 1521SOL    HW116025   2.582   0.017   4.491 -0.9383 -1.9086 -2.3085
 1521SOL    HW216026   2.721   0.082   4.474 -0.4573 -0.8614  1.4842
 1522SOL     OW16027   0.304   3.560   7.120  0.7508  0.0442  0.2021
 1522SOL    HW116028   0.294   3.618   7.195 -1.3858 -0.6045  0.4132
 1522SOL    HW216029   0.395   3.575   7.096  0.9742 -1.2793  0.2289
 1523SOL     OW16030   3.589   1.291   3.474 -0.5328  0.1155  0.1453
 1523SOL    HW116031   3.569   1.366   3.531 -1.3965 -1.5322  2.0086
 1523SOL    HW216032   3.566   1.325   3.388  0.0615  0.3131  0.0580
 1524SOL     OW16033   4.159   3.117  17.245 -0.4032  0.7592  0.5149
 1524SOL    HW116034   4.065   3.104  17.229  0.2605 -1.4149 -1.7015
 1524SOL    HW216035   4.156   3.171  17.324  1.5247  0.4253  0.7947
 1525SOL     OW16036   0.038   3.510  11.155 -0.4135 -0.5437 -0.1082
 1525SOL    HW116037   0.021   3.423  11.119 -0.6614 -1.5813  2.5094
 1525SOL    HW216038   0.087   3.492  11.235  1.3538 -1.6841 -1.4539
 1526SOL     OW16039   2.275   0.987   4.494 -0.4363  0.1404 -0.4503
 1526SOL    HW116040   2.333   0.947   4.559  0.4459  0.9727 -0.7315
 1526SOL    HW216041   2.302   0.943   4.414 -2.7087  0.1271 -1.2224
 1527SOL     OW16042   4.260   4.147  12.794  0.8750  0.2499 -0.1122
 1527SOL    HW116043   4.222   4.216  12.849  0.0457 -1.2435  1.1877
 1527SOL    HW216044   4.198   4.138  12.721 -0.8250  2.2512  1.0909
 1528SOL     OW16045   2.031   4.206  11.038 -0.1381 -0.1873 -0.4135
 1528SOL    HW116046   1.949   4.244  11.007  0.0602 -0.3674 -1.1459
 1528SOL    HW216047   2.039   4.233  11.130 -0.0140  1.1793 -0.8234
 1529SOL     OW16048   2.513   3.037   2.454 -0.5229 -0.1075  0.3190
 1529SOL    HW116049   2.425   3.072   2.472 -0.9884 -1.4081  0.5433
 1529SOL    HW216050   2.551   3.029   2.541  0.4873 -1.0728 -0.2151
 1530SOL     OW16051   3.788   4.247   2.589  0.0527 -0.2675  0.2078
 1530SOL    HW116052   3.718   4.202   2.543  0.9888  1.8231 -3.3007
 1530SOL    HW216053   3.755   4.242   2.679 -0.5731  1.3049  0.0719
 1531SOL     OW16054   2.989   0.160   2.997  0.5801 -0.5065  0.9154
 1531SOL    HW116055   3.075   0.195   2.974  1.8869 -3.6229  1.1954
 1531SOL    HW216056   2.940   0.192   2.921  0.2304 -0.2703  1.2399
 1532SOL     OW16057   3.939   3.380   1.954 -0.5360  0.0631  0.1815
 1532SOL    HW116058   3.997   3.429   1.895 -0.8033 -0.7154 -0.7180
 1532SOL    HW216059   3.893   3.322   1.895  1.8547 -1.7137  0.0590
 1533SOL     OW16060   4.128   4.278  16.556  0.7507  0.1882 -0.7510
 1533SOL    HW116061   4.219   4.262  16.579 -0.0317 -1.5129  1.2196
 1533SOL    HW216062   4.090   4.267  16.643  2.3844  1.2090  0.0725
 1534SOL     OW16063   2.968   1.228   7.253 -0.0283  0.4560 -0.3950
 1534SOL    HW116064   2.886   1.180   7.268  0.3093 -0.2493 -0.8189
 1534SOL    HW216065   2.953   1.241   7.160  1.6481 -0.8825 -0.8576
 1535SOL     OW16066   1.942   0.171  12.227 -0.3874 -0.0723  0.2007
 1535SOL    HW116067   1.856   0.193  12.191  0.4855 -0.1988 -1.9796
 1535SOL    HW216068   1.917   0.168  12.319  0.3352 -1.5628  0.3526
 1536SOL     OW16069   3.445   4.320   4.557  0.2471  0.5163  0.3231
 1536SOL    HW116070   3.423   4.380   4.485  0.0875 -0.1904 -0.2191
 1536SOL    HW216071   3.539   4.339   4.561  0.8216 -2.3279  0.0822
 1537SOL     OW16072   2.870   1.445   3.510  0.5670  0.3841  0.4272
 1537SOL    HW116073   2.939   1.512   3.506 -0.7301  1.7644  1.1313
 1537SOL    HW216074   2.895   1.382   3.443 -1.2445 -1.8986  1.9080
 1538SOL     OW16075   3.586   1.996  12.569  0.4234 -0.1466  0.5559
 1538SOL    HW116076   3.542   1.989  12.654 -1.2124  1.3043 -0.1570
 1538SOL    HW216077   3.654   2.060  12.588  1.2276 -0.8311 -0.0387
 1539SOL     OW16078   1.299   3.692   6.912 -0.1285  0.3194 -0.3294
 1539SOL    HW116079   1.302   3.747   6.990 -1.2131  0.3053 -0.2705
 1539SOL    HW216080   1.203   3.682   6.914 -0.1380  0.5988  0.8517
 1540SOL     OW16081   1.427   2.574  17.567 -0.0917  0.0402 -0.3116
 1540SOL    HW116082   1.423   2.670  17.566 -1.2474  0.0094  2.1663
 1540SOL    HW216083   1.498   2.549  17.507 -1.7609 -1.5431 -1.6030
 1541SOL     OW16084   0.443   3.323   2.120  0.1544 -0.2421  0.6590
 1541SOL    HW116085   0.364   3.327   2.066  0.2598  2.2822  0.7033
 1541SOL    HW216086   0.422   3.250   2.178 -0.9162 -0.0249  0.5526
 1542SOL     OW16087   2.697   2.854   9.331 -0.0917  0.1831  0.5664
 1542SOL    HW116088   2.710   2.833   9.424 -1.4482  1.0803  0.9605
 1542SOL    HW216089   2.722   2.947   9.330  1.3578 -0.2375 -1.5686
 1543SOL     OW16090   2.984   3.364  14.441 -0.1750 -0.4052 -0.1922
 1543SOL    HW116091   3.034   3.283  14.451  1.0686  0.3368 -0.4689
 1543SOL    HW216092   2.950   3.372  14.530  0.1862  1.1459 -0.2018
 1544SOL     OW16093   2.620   0.699  11.606 -0.4770 -0.7069  0.0544
 1544SOL    HW116094   2.573   0.716  11.524  0.1809  2.6648  0.3868
 1544SOL    HW216095   2.556   0.738  11.665  1.0068  1.3276  0.3418
 1545SOL     OW16096   4.091   1.360   2.223  0.2475 -0.2166 -0.1226
 1545SOL    HW116097   4.084   1.267   2.245 -2.1930 -0.1214 -0.4767
 1545SOL    HW216098   4.128   1.352   2.135 -0.3995 -1.7819 -0.2550
 1546SOL     OW16099   3.574   2.870   3.313 -0.2883  0.1568 -0.2578
 1546SOL    HW116100   3.482   2.879   3.289 -0.7821 -1.0801  1.1649
 1546SOL    HW216101   3.575   2.911   3.400 -0.9563 -0.2209 -0.0733
 1547SOL     OW16102   1.472   2.649   1.172 -0.2032 -0.4749  0.0266
 1547SOL    HW116103   1.462   2.556   1.195  0.3521  0.0155  2.1849
 1547SOL    HW216104   1.558   2.657   1.131 -1.2926  4.4829 -1.2420
 1548SOL     OW16105   3.606   3.909  15.360 -0.2706  0.2972 -0.4381
 1548SOL    HW116106   3.586   3.857  15.438  1.3946 -0.1939 -0.3454
 1548SOL    HW216107   3.515   3.935  15.344 -0.1697  0.1782 -1.2009
 1549SOL     OW16108   3.468   3.932   8.172 -0.0570  0.1743  0.2277
 1549SOL    HW116109   3.547   3.890   8.139  0.8422  0.7995  1.6229
 1549SOL    HW216110   3.502   4.013   8.209  1.4983 -0.2798 -0.2348
 1550SOL     OW16111   3.139   4.513   3.310  0.0410 -0.4627 -0.2991
 1550SOL    HW116112   3.118   4.471   3.227  0.2925  0.0414 -0.6191
 1550SOL    HW216113   3.088   4.459   3.370 -1.5276  0.2672 -0.9633
 1551SOL     OW16114   0.359   1.191   1.447 -0.2733  0.3117  0.2325
 1551SOL    HW116115   0.419   1.263   1.430  1.5312 -0.8106  1.9666
 1551SOL    HW216116   0.357   1.198   1.542  0.6219  1.5421  0.1622
 1552SOL     OW16117   1.397   2.845   5.286 -0.0731  0.3446 -0.7421
 1552SOL    HW116118   1.490   2.851   5.307 -0.9112  0.8344  2.8143
 1552SOL    HW216119   1.395   2.903   5.210  0.3508  1.7228  0.2991
 1553SOL     OW16120   0.680   3.100   7.163 -0.1087 -0.3965  0.6317
 1553SOL    HW116121   0.708   3.125   7.251 -1.2097 -1.7249  1.3554
 1553SOL    HW216122   0.622   3.027   7.184 -1.6362  0.8275  0.6947
 1554SOL     OW16123   0.893   3.834  15.455  0.1031 -0.6554 -0.3669
 1554SOL    HW116124   0.948   3.761  15.428  1.8489  0.1615  0.9902
 1554SOL    HW216125   0.846   3.792  15.528  1.8564 -3.6137 -0.9250
 1555SOL     OW16126   3.155   1.779  15.352  0.0893 -0.0601 -0.0730
 1555SOL    HW116127   3.094   1.763  15.280  1.5915 -2.4153 -0.8305
 1555SOL    HW216128   3.234   1.753  15.305  0.6510  0.2595  0.6737
 1556SOL     OW16129   2.285   0.433  10.097  0.4989  0.4337  0.0453
 1556SOL    HW116130   2.211   0.455  10.154 -0.4897 -0.8147 -0.7509
 1556SOL    HW216131   2.235   0.417  10.017  1.2022 -1.4245 -0.0213
 1557SOL     OW16132   4.362   0.636  10.676 -0.0268  0.4960 -0.7619
 1557SOL    HW116133   4.426   0.577  10.716 -0.8386  0.5617  0.6308
 1557SOL    HW216134   4.304   0.573  10.634  2.6975 -2.1247 -0.5778
 1558SOL     OW16135   1.157   2.041  16.262 -0.4713  0.4896  0.1189
 1558SOL    HW116136   1.068   2.073  16.277 -0.8533 -0.4525 -0.1822
 1558SOL    HW216137   1.140   1.960  16.214 -0.0705 -0.1334  1.0350
 1559SOL     OW16138   3.225   0.105   4.077  0.3549 -0.2332 -0.4078
 1559SOL    HW116139   3.287   0.144   4.138  0.4688  1.0754 -1.3364
 1559SOL    HW216140   3.268   0.122   3.993  0.2132 -3.1954 -1.0880
 1560SOL     OW16141   3.701   3.503   3.735 -0.0344 -0.4721  0.6006
 1560SOL    HW116142   3.750   3.545   3.664 -2.3027  1.5024  0.2387
 1560SOL    HW216143   3.625   3.464   3.691 -0.3404 -0.6292  1.2672
 1561SOL     OW16144   3.377   2.523   4.989  0.1214 -0.1069 -0.0066
 1561SOL    HW116145   3.447   2.580   5.022 -1.6536  2.1598 -0.1371
 1561SOL    HW216146   3.303   2.582   4.974 -0.4474 -0.8853 -0.2336
 1562SOL     OW16147   2.982   0.226   6.838  0.5258 -0.6807 -0.2451
 1562SOL    HW116148   2.927   0.184   6.773 -2.1008 -0.7642  2.0361
 1562SOL    HW216149   3.017   0.157   6.894  0.9123  1.0789  1.6893
 1563SOL     OW16150   3.434   0.585   4.018  0.0607  0.6090 -0.3878
 1563SOL    HW116151   3.394   0.672   4.024  0.3612  0.6849  0.5258
 1563SOL    HW216152   3.457   0.574   4.110 -1.5428 -0.4264 -0.1083
 1564SOL     OW16153   2.871   1.440   8.895 -0.1511  0.4670  0.4021
 1564SOL    HW116154   2.924   1.519   8.878 -1.6413  1.5905  1.0080
 1564SOL    HW216155   2.852   1.454   8.988  1.0248 -1.2143  0.9026
 1565SOL     OW16156   4.246   3.837   6.611 -0.1116 -0.1809  0.1492
 1565SOL    HW116157   4.222   3.744   6.608 -0.1534 -0.1939  0.8046
 1565SOL    HW216158   4.340   3.822   6.618 -0.0448  0.2737  0.2643
 1566SOL     OW16159   4.463   4.393   4.135  0.0979  0.2658 -0.1433
 1566SOL    HW116160   4.538   4.348   4.097  0.9105  0.7966  0.8462
 1566SOL    HW216161   4.452   4.346   4.218 -0.5473  1.0234  0.2023
 1567SOL     OW16162   2.277   0.728  16.421 -0.1227 -0.1684 -0.6625
 1567SOL    HW116163   2.311   0.792  16.484 -0.6756 -0.8293  0.2964
 1567SOL    HW216164   2.359   0.678  16.415  0.4224  0.5372  0.9728
 1568SOL     OW16165   2.151   0.743   8.863 -0.3927 -0.0260 -0.8381
 1568SOL    HW116166   2.199   0.781   8.937 -0.2941 -0.0771 -0.8755
 1568SOL    HW216167   2.069   0.791   8.869 -0.0878  0.5360 -1.2447
 1569SOL     OW16168   0.640   1.360   7.570 -0.1783 -0.4802 -0.0259
 1569SOL    HW116169   0.681   1.364   7.656 -0.1472 -1.0809 -0.0107
 1569SOL    HW216170   0.628   1.455   7.564  0.8799 -0.2354  2.0485
 1570SOL     OW16171   4.309   1.158   7.206 -0.2160  0.0006  0.0124
 1570SOL    HW116172   4.353   1.098   7.266 -0.0344  2.5572  2.4282
 1570SOL    HW216173   4.329   1.124   7.119  0.2913  0.8775 -0.2055
 1571SOL     OW16174   3.917   0.322   2.718  0.6551 -0.1292 -0.8049
 1571SOL    HW116175   3.877   0.257   2.659  1.1560 -0.8541 -0.3389
 1571SOL    HW216176   3.994   0.279   2.755 -0.8905 -1.8982  0.4096
 1572SOL     OW16177   0.320   4.074  15.894 -0.0069 -0.1467  0.3986
 1572SOL    HW116178   0.313   4.069  15.798  0.8861  0.1292  0.3201
 1572SOL    HW216179   0.415   4.078  15.895  0.0002  0.0516 -0.7747
 1573SOL     OW16180   3.248   2.874  17.680  0.4767 -0.0225  0.2152
 1573SOL    HW116181   3.307   2.869  17.604 -0.6023  1.7019 -0.7213
 1573SOL    HW216182   3.180   2.930  17.644  0.7249  1.5709  2.2120
 1574SOL     OW16183   1.535   3.188   5.131 -0.2583 -0.6007  0.0229
 1574SOL    HW116184   1.496   3.273   5.108  1.5452  0.2815  0.2467
 1574SOL    HW216185   1.613   3.225   5.171  1.1533 -1.4147 -2.0115
 1575SOL     OW16186   1.083   4.660   9.285 -0.4580  0.5124 -0.0291
 1575SOL    HW116187   1.007   4.605   9.305 -0.1751  0.8061  1.8458
 1575SOL    HW216188   1.110   4.673   9.376  2.5016 -0.3007 -0.8209
 1576SOL     OW16189   0.119   2.321   5.040  0.1391 -0.3989  0.2394
 1576SOL    HW116190   0.112   2.404   4.994 -0.5603 -0.1307  0.8266
 1576SOL    HW216191   0.115   2.350   5.132  1.5844 -0.0428  0.1865
 1577SOL     OW16192   3.985   2.337   7.250 -0.2380  0.2019 -0.0083
 1577SOL    HW116193   3.960   2.416   7.203 -1.2304  0.5441  1.0961
 1577SOL    HW216194   3.901   2.318   7.291 -0.9739  0.7651 -1.2579
 1578SOL     OW16195   2.672   0.411  10.674  0.4363 -0.4361 -0.1891
 1578SOL    HW116196   2.607   0.479  10.696  1.4834  0.2265  0.8654
 1578SOL    HW216197   2.676   0.416  10.579  0.4575  0.4247 -0.1472
 1579SOL     OW16198   2.667   3.868   4.806 -0.0257  0.1235 -0.0406
 1579SOL    HW116199   2.738   3.833   4.752 -0.5037 -2.9708  1.3556
 1579SOL    HW216200   2.648   3.943   4.749  0.3732 -0.3936 -0.8649
 1580SOL     OW16201   0.097   0.558   3.317 -0.2603 -0.2151  0.0583
 1580SOL    HW116202   0.079   0.579   3.225 -0.8267  0.9217  0.4187
 1580SOL    HW216203   0.010   0.581   3.352 -1.2502  0.6077 -2.9567
 1581SOL     OW16204   1.590   2.924   8.438  0.6797  0.2440  0.4519
 1581SOL    HW116205   1.505   2.912   8.482  1.6550  1.1514  2.5750
 1581SOL    HW216206   1.594   3.019   8.422  0.3820 -0.1109 -1.6802
 1582SOL     OW16207   2.033   0.646   8.467 -0.6101 -0.0836  0.7293
 1582SOL    HW116208   2.109   0.653   8.410 -1.4211 -1.2081 -0.4927
 1582SOL    HW216209   2.040   0.721   8.527  0.1418  0.2914  0.1666
 1583SOL     OW16210   1.318   3.289   1.120 -0.0165 -0.0768  0.0394
 1583SOL    HW116211   1.259   3.304   1.046 -0.4312  1.4490  0.6799
 1583SOL    HW216212   1.355   3.204   1.097  1.6960  0.1981  1.7919
 1584SOL     OW16213   0.134   1.398   4.289  0.5695 -0.2542  0.4797
 1584SOL    HW116214   0.068   1.452   4.246  0.4136 -0.9966 -0.2169
 1584SOL    HW216215   0.123   1.320   4.235  0.9108  0.7809 -1.0555
 1585SOL     OW16216   1.302   0.372  16.277  0.5434  0.9480  0.5730
 1585SOL    HW116217   1.386   0.325  16.271 -1.2081 -1.6966 -2.8626
 1585SOL    HW216218   1.269   0.319  16.349  1.1297 -2.1659 -1.4488
 1586SOL     OW16219   4.343   3.730   8.771 -0.4039  0.0274 -0.2241
 1586SOL    HW116220   4.357   3.785   8.695  0.7016  0.2169  0.1218
 1586SOL    HW216221   4.413   3.665   8.763  0.4749  0.8671  0.7799
 1587SOL     OW16222   0.435   3.639   2.922 -0.2828 -0.4254 -0.1928
 1587SOL    HW116223   0.484   3.557   2.922 -1.4828 -1.1341  0.7505
 1587SOL    HW216224   0.421   3.648   2.827 -1.5576  0.8618  0.1098
 1588SOL     OW16225   3.912   0.335   0.492  0.2460 -0.1664  0.2292
 1588SOL    HW116226   3.912   0.311   0.584 -0.4436  1.9103  0.7844
 1588SOL    HW216227   3.976   0.269   0.466  0.9660  0.7189 -0.2345
 1589SOL     OW16228   2.130   3.284  15.079  0.0766  0.2589 -0.1756
 1589SOL    HW116229   2.147   3.346  15.149  0.8671  0.5158 -0.5931
 1589SOL    HW216230   2.088   3.209  15.120  1.3362  0.8968  2.2579
 1590SOL     OW16231   2.454   3.465  17.222 -0.3364  0.1189  0.6348
 1590SOL    HW116232   2.521   3.462  17.154 -1.1768  2.3492 -0.3072
 1590SOL    HW216233   2.482   3.538  17.277 -1.7941  0.0299  1.5107
 1591SOL     OW16234   2.688   0.292   8.995 -0.0883 -0.2063 -0.2788
 1591SOL    HW116235   2.644   0.339   9.066  0.9761 -0.9833  0.8856
 1591SOL    HW216236   2.625   0.220   8.988 -1.3302  1.1152 -2.7416
 1592SOL     OW16237   0.705   0.394   7.695 -0.3921 -0.4051  0.1669
 1592SOL    HW116238   0.725   0.467   7.637 -1.4895  0.5088  0.9386
 1592SOL    HW216239   0.796   0.375   7.718  1.3534  1.9974 -4.8206
 1593SOL     OW16240   1.234   2.887   8.288  0.3101 -0.4942  0.3213
 1593SOL    HW116241   1.237   2.978   8.259 -1.3608 -0.3256  0.7123
 1593SOL    HW216242   1.281   2.846   8.214  0.8407  1.7970 -0.6125
 1594SOL     OW16243   4.484   3.520   6.360 -0.5670  0.2605  0.0365
 1594SOL    HW116244   4.507   3.427   6.349  2.2154  0.8616  0.8626
 1594SOL    HW216245   4.570   3.555   6.380  0.4851 -0.6279 -2.9310
 1595SOL     OW16246   2.869   0.789  13.559 -0.3626 -0.1350  0.3705
 1595SOL    HW116247   2.936   0.787  13.628 -1.3221  0.5280  1.3365
 1595SOL    HW216248   2.870   0.881  13.535 -2.3691  0.2570  1.7579
 1596SOL     OW16249   2.111   2.206   8.908  0.2596  0.2795  0.0845
 1596SOL    HW116250   2.027   2.239   8.876  0.8576  0.1535 -1.6282
 1596SOL    HW216251   2.160   2.288   8.910  0.3532  0.2313 -0.2441
 1597SOL     OW16252   3.678   4.426   3.105  0.7030  0.1761  0.2423
 1597SOL    HW116253   3.742   4.453   3.039 -0.3077  2.1878  0.1040
 1597SOL    HW216254   3.675   4.508   3.154 -0.1224 -0.3003  0.9839
 1598SOL     OW16255   2.829   4.036   4.023  0.3770 -0.7870  0.6782
 1598SOL    HW116256   2.785   3.980   4.087 -1.7580  0.6557  0.4290
 1598SOL    HW216257   2.764   4.080   3.969 -0.9754 -2.7480  0.7075
 1599SOL     OW16258   0.525   2.033   3.631  0.1265 -0.1364  0.2623
 1599SOL    HW116259   0.523   2.069   3.542 -1.2348  0.9843  0.7511
 1599SOL    HW216260   0.620   2.027   3.644  0.3238  1.4530 -0.4672
 1600SOL     OW16261   0.495   4.288   5.629  0.5128 -0.4032  0.2497
 1600SOL    HW116262   0.541   4.371   5.643 -0.0616 -0.3699  1.9402
 1600SOL    HW216263   0.471   4.270   5.720  0.8633 -1.3374  0.1538
 1601SOL     OW16264   2.820   2.772   4.745  0.3689 -0.2868 -0.1455
 1601SOL    HW116265   2.873   2.777   4.665 -1.2699  0.2555 -1.2041
 1601SOL    HW216266   2.869   2.838   4.794  2.8266 -3.2891  1.3686
 1602SOL     OW16267   4.324   4.565   7.631 -0.3536  0.2168 -0.3965
 1602SOL    HW116268   4.351   4.565   7.722  0.4398 -0.5466 -0.6260
 1602SOL    HW216269   4.408   4.576   7.587  0.2468  2.9593  1.4846
 1603SOL     OW16270   3.236   3.301   3.495 -0.4475 -0.1696  0.3329
 1603SOL    HW116271   3.142   3.302   3.511 -0.0819 -0.6810  2.5965
 1603SOL    HW216272   3.253   3.231   3.432 -1.3338  1.0215 -1.2346
 1604SOL     OW16273   3.038   4.707   0.718 -0.4313 -0.8798  0.3638
 1604SOL    HW116274   3.014   0.024   0.632  0.9573  0.4986  0.5616
 1604SOL    HW216275   3.131   0.005   0.707 -1.2219  3.8148  1.0972
 1605SOL     OW16276   1.232   1.415   3.853  0.2640  0.0778 -0.0180
 1605SOL    HW116277   1.210   1.472   3.779 -2.8082  0.8005  1.4751
 1605SOL    HW216278   1.304   1.463   3.893 -0.5406  0.3936  1.0484
 1606SOL     OW16279   2.803   3.732  12.159  0.1344  0.9158  0.0905
 1606SOL    HW116280   2.815   3.717  12.253  0.1407  1.5885  0.1992
 1606SOL    HW216281   2.720   3.687  12.150  1.4699 -1.5752  0.3478
 1607SOL     OW16282   3.269   4.397   6.665 -0.1297 -0.1012 -0.2634
 1607SOL    HW116283   3.221   4.479   6.657  0.0270 -0.1874 -1.9591
 1607SOL    HW216284   3.283   4.374   6.574  1.8438 -0.3254  0.0911
 1608SOL     OW16285   2.539   2.427   9.652  0.4302  0.6083  0.0079
 1608SOL    HW116286   2.579   2.403   9.568 -0.6654  3.2119 -1.2424
 1608SOL    HW216287   2.474   2.359   9.669  0.3577  0.2350 -1.7525
 1609SOL     OW16288   2.946   4.026   2.413  0.5402 -0.6545 -0.4446
 1609SOL    HW116289   2.958   4.085   2.339  0.5237 -1.6916 -1.2805
 1609SOL    HW216290   2.856   3.994   2.412  1.1516 -2.3503 -1.1796
 1610SOL     OW16291   2.215   4.182   7.084  0.6139  0.0676  0.6359
 1610SOL    HW116292   2.208   4.230   7.001  1.1171 -1.2180 -0.1564
 1610SOL    HW216293   2.125   4.188   7.116 -0.9560  0.9127 -3.9003
 1611SOL     OW16294   2.038   0.556   3.725  0.0272 -0.2478  0.3038
 1611SOL    HW116295   2.104   0.622   3.743 -0.9272  0.8934 -0.3689
 1611SOL    HW216296   1.966   0.606   3.764  0.8968  1.7059 -0.5604
 1612SOL     OW16297   3.527   0.311  10.468 -0.0982 -0.3726 -0.0857
 1612SOL    HW116298   3.476   0.387  10.438  0.3046  0.1210  0.4640
 1612SOL    HW216299   3.499   0.291  10.557 -1.2268  2.6072  0.2498
 1613SOL     OW16300   1.956   3.757   4.817  0.3887 -0.5526 -0.0407
 1613SOL    HW116301   1.882   3.697   4.807 -0.3054  0.4558 -0.8770
 1613SOL    HW216302   1.916   3.843   4.803 -2.2304 -1.5560  1.2196
 1614SOL     OW16303   2.674   2.660  10.365  0.8550 -0.1422  0.2656
 1614SOL    HW116304   2.682   2.649  10.271  0.8163 -0.1374  0.2618
 1614SOL    HW216305   2.697   2.753  10.361  0.0003  0.0346 -0.4781
 1615SOL     OW16306   0.322   2.890   3.392 -0.3182 -0.0136  0.7900
 1615SOL    HW116307   0.256   2.842   3.442 -0.1117 -1.2109 -0.0819
 1615SOL    HW216308   0.289   2.880   3.303  1.8612  0.3462 -0.0779
 1616SOL     OW16309   0.371   0.815   8.269  0.0448  0.4941  0.3489
 1616SOL    HW116310   0.460   0.845   8.287  1.0916 -1.5891 -1.4125
 1616SOL    HW216311   0.375   0.721   8.283  2.0181  0.3192 -1.3948
 1617SOL     OW16312   1.467   1.992   7.038  0.6298  0.2785 -0.3096
 1617SOL    HW116313   1.393   1.936   7.061 -0.3710  1.1417 -1.4391
 1617SOL    HW216314   1.500   2.020   7.123 -0.7931  1.0030  0.0026
 1618SOL     OW16315   0.511   3.292   7.464 -0.1216 -0.0256 -0.8954
 1618SOL    HW116316   0.461   3.217   7.496 -0.7943  0.2056 -1.4163
 1618SOL    HW216317   0.456   3.358   7.507 -1.2844 -0.5369 -1.6319
 1619SOL     OW16318   4.536   1.459   3.294  0.3343 -0.0195 -0.2785
 1619SOL    HW116319   4.543   1.514   3.216 -0.7999 -0.7928 -0.9290
 1619SOL    HW216320   4.589   1.383   3.271  0.6243  0.0064  0.2896
 1620SOL     OW16321   3.978   3.553  12.431  0.0303 -0.6606  0.3205
 1620SOL    HW116322   4.041   3.501  12.380 -0.4966 -0.7554 -0.2299
 1620SOL    HW216323   3.909   3.488  12.425  0.7879 -1.3395 -1.2360
 1621SOL     OW16324   0.270   0.086   6.110 -0.7202  0.1719  0.2837
 1621SOL    HW116325   0.240   0.154   6.170  0.3851  0.4279  0.5505
 1621SOL    HW216326   0.351   0.130   6.082 -3.2952  3.7201 -1.5924
 1622SOL     OW16327   1.188   3.182   9.309  0.0292 -0.1631 -0.2244
 1622SOL    HW116328   1.129   3.129   9.364  0.4865 -1.1429 -0.6689
 1622SOL    HW216329   1.194   3.118   9.238  0.5233  0.5481 -0.8225
 1623SOL     OW16330   3.008   4.596   9.886 -0.0486  0.1105  0.4544
 1623SOL    HW116331   3.087   4.546   9.864 -0.7637 -0.6040 -0.4369
 1623SOL    HW216332   3.010   4.580   9.981 -1.5841 -2.0518  0.1150
 1624SOL     OW16333   3.034   3.456  16.620 -0.5585 -0.2658 -0.6821
 1624SOL    HW116334   3.102   3.427  16.559  0.0748  1.8427 -0.9845
 1624SOL    HW216335   2.954   3.426  16.578 -0.3502  0.6529 -1.7318
 1625SOL     OW16336   2.393   0.273   3.788 -0.7804 -0.1665  0.1283
 1625SOL    HW116337   2.414   0.238   3.702  0.7382 -1.0215  0.8566
 1625SOL    HW216338   2.462   0.335   3.812 -0.5517  0.3413 -1.8525
 1626SOL     OW16339   3.609   3.058   6.537  0.0225  0.7344 -0.2348
 1626SOL    HW116340   3.555   3.073   6.459 -1.7156  1.5507  1.1189
 1626SOL    HW216341   3.600   2.962   6.538 -0.0048  0.7107 -2.5287
 1627SOL     OW16342   2.105   4.010  16.019  0.5167 -0.6080 -1.0655
 1627SOL    HW116343   2.164   4.028  15.946  0.1858 -2.0219 -1.6897
 1627SOL    HW216344   2.142   4.062  16.090  0.1097 -2.3149  0.3792
 1628SOL     OW16345   1.622   3.052   4.157  0.1486  0.2677 -0.2771
 1628SOL    HW116346   1.645   3.133   4.204  2.5057  0.0043 -0.9564
 1628SOL    HW216347   1.542   3.017   4.197  0.7973 -0.3427  0.4945
 1629SOL     OW16348   3.996   0.259  16.291  0.0425  0.2693 -0.5429
 1629SOL    HW116349   3.930   0.321  16.260 -0.2799 -0.8296 -1.9847
 1629SOL    HW216350   4.031   0.304  16.368 -0.5825  0.8890 -0.6190
 1630SOL     OW16351   4.634   3.383   4.063  0.0236  0.0397  0.2263
 1630SOL    HW116352   4.640   3.411   4.154 -1.0486 -1.8135  0.8405
 1630SOL    HW216353   4.664   3.293   4.071  0.2333  0.3597  2.8180
 1631SOL     OW16354   0.503   1.433  13.372 -0.9228  0.0872  0.2419
 1631SOL    HW116355   0.503   1.522  13.338  0.4060  0.5983  1.5829
 1631SOL    HW216356   0.572   1.392  13.320  0.3348  0.8197  1.3303
 1632SOL     OW16357   4.632   3.791   3.296  0.0277  0.1360  0.8791
 1632SOL    HW116358   0.006   3.809   3.307  0.3652 -1.0362 -0.1187
 1632SOL    HW216359   4.645   3.697   3.283 -1.6009 -0.1890  1.7110
 1633SOL     OW16360   3.325   4.002  13.546  0.3380 -0.3653  0.5869
 1633SOL    HW116361   3.380   3.931  13.513 -0.7526 -0.8407 -0.2206
 1633SOL    HW216362   3.375   4.027  13.623  2.2292 -0.0299 -0.7363
 1634SOL     OW16363   2.740   4.431  16.662 -0.1812  0.3852 -0.1920
 1634SOL    HW116364   2.748   4.524  16.642 -2.4371  0.2545 -1.6781
 1634SOL    HW216365   2.831   4.403  16.668  0.2796  1.5992 -1.6836
 1635SOL     OW16366   4.114   2.625   7.393 -0.3832 -0.0471 -0.1393
 1635SOL    HW116367   4.139   2.633   7.301 -0.3843 -0.4255 -0.1728
 1635SOL    HW216368   4.175   2.688   7.432 -1.1002  0.2290  0.5491
 1636SOL     OW16369   4.067   2.949   3.136 -0.2700 -0.5725 -0.7215
 1636SOL    HW116370   4.076   2.854   3.129 -0.0297 -0.7156  1.5391
 1636SOL    HW216371   4.070   2.949   3.232  0.7785 -2.6993 -0.7493
 1637SOL     OW16372   2.406   1.891  15.319 -0.0936 -0.0006 -0.1493
 1637SOL    HW116373   2.489   1.916  15.360 -0.6099 -2.3142  2.3354
 1637SOL    HW216374   2.433   1.871  15.230  0.5347 -2.6893  0.6349
 1638SOL     OW16375   2.979   0.416   4.226 -0.6871  0.3928 -0.9521
 1638SOL    HW116376   2.960   0.323   4.221 -1.5873  0.4716  1.1312
 1638SOL    HW216377   3.018   0.433   4.140  0.0460 -1.1242 -0.9296
 1639SOL     OW16378   2.016   4.086   7.892 -0.2330 -0.3339 -0.2971
 1639SOL    HW116379   2.067   4.063   7.970  2.2146 -0.4715 -1.9375
 1639SOL    HW216380   2.061   4.165   7.863 -0.2543 -0.0948  0.3236
 1640SOL     OW16381   1.160   2.872  11.469 -0.4834 -0.2975 -0.3609
 1640SOL    HW116382   1.137   2.935  11.401  0.2709  1.8174  1.3515
 1640SOL    HW216383   1.069   2.847  11.482 -0.6140  0.4434  0.1620
 1641SOL     OW16384   2.922   4.609   5.821 -0.2935  0.2046  0.0148
 1641SOL    HW116385   2.992   4.591   5.757 -0.3924  0.4128 -0.1535
 1641SOL    HW216386   2.879   4.690   5.793 -1.2004 -1.4152 -3.2821
 1642SOL     OW16387   2.534   2.220  11.100  0.2343 -0.0036 -0.1288
 1642SOL    HW116388   2.601   2.159  11.069 -0.5130 -0.3514 -1.0350
 1642SOL    HW216389   2.586   2.290  11.141  2.3760 -3.0133  2.2824
 1643SOL     OW16390   3.970   3.154   3.527  0.4869 -0.0559  0.0145
 1643SOL    HW116391   3.971   3.220   3.458 -3.0733  0.1364  0.1429
 1643SOL    HW216392   4.005   3.073   3.491  0.3866 -0.1670  0.1634
 1644SOL     OW16393   0.455   2.006   7.352 -0.9298 -0.0537 -0.2861
 1644SOL    HW116394   0.387   2.065   7.383  0.5202  1.5957 -0.2173
 1644SOL    HW216395   0.394   1.948   7.307 -1.4040  0.4390 -0.2796
 1645SOL     OW16396   1.893   2.465   1.145  0.0248 -0.0188  0.1631
 1645SOL    HW116397   1.851   2.429   1.067 -0.3464 -2.3990  1.4674
 1645SOL    HW216398   1.977   2.421   1.133 -1.3678 -2.1705 -1.7656
 1646SOL     OW16399   1.792   2.214  17.613  0.3885  0.4443  0.3871
 1646SOL    HW116400   1.752   2.246   0.013 -0.1924  2.1083 -0.5577
 1646SOL    HW216401   1.877   2.256  17.620  0.2322  0.8899 -0.3736
 1647SOL     OW16402   3.020   3.089  13.415  0.4082  0.0703  0.5496
 1647SOL    HW116403   2.995   3.110  13.505 -1.1357  2.5867 -0.4666
 1647SOL    HW216404   2.938   3.112  13.372 -0.4801  0.2235  2.3378
 1648SOL     OW16405   4.245   2.194  13.140  0.8084 -0.1542 -0.3034
 1648SOL    HW116406   4.159   2.200  13.098  0.0931  0.7787  1.2967
 1648SOL    HW216407   4.288   2.273  13.107  1.1573  0.1137  0.7822
 1649SOL     OW16408   3.164   0.576   6.287  0.1620 -0.1018 -0.2515
 1649SOL    HW116409   3.086   0.602   6.337 -0.0872 -1.6572  0.1528
 1649SOL    HW216410   3.200   0.517   6.353 -0.0718  1.2158  1.0542
 1650SOL     OW16411   0.560   0.927   6.805 -0.5440  0.2722  0.0665
 1650SOL    HW116412   0.604   0.956   6.885  0.3081 -1.0936  0.0872
 1650SOL    HW216413   0.475   0.971   6.813 -0.7490 -0.2489  0.7369
 1651SOL     OW16414   0.343   3.874   7.061 -0.6135 -0.0884  0.6149
 1651SOL    HW116415   0.325   3.798   7.005 -0.7308  1.3762 -1.3619
 1651SOL    HW216416   0.264   3.928   7.062  0.5824  1.6163  2.6958
 1652SOL     OW16417   0.127   0.512   0.207 -0.0092 -0.4671  0.1413
 1652SOL    HW116418   0.041   0.501   0.247  0.6466 -1.4005  1.3239
 1652SOL    HW216419   0.129   0.442   0.142 -0.9619 -0.0768 -0.3009
 1653SOL     OW16420   2.069   3.504  10.760  0.2818  0.3345  0.2735
 1653SOL    HW116421   2.103   3.555  10.687 -1.7694 -1.0530 -1.6488
 1653SOL    HW216422   2.139   3.509  10.825  1.5824 -3.1635 -0.8724
 1654SOL     OW16423   1.189   2.222   4.144  0.7560 -0.3113  0.3299
 1654SOL    HW116424   1.227   2.258   4.063  0.7829  0.4699  0.6917
 1654SOL    HW216425   1.261   2.174   4.184  1.7610  0.1900 -0.8742
 1655SOL     OW16426   2.920   2.558   6.235  0.3154  0.2947  0.1061
 1655SOL    HW116427   2.870   2.622   6.286  1.0456  1.6809 -0.9470
 1655SOL    HW216428   3.003   2.562   6.282  0.1307 -0.4630  0.5017
 1656SOL     OW16429   4.091   1.047   5.294  0.5508 -1.0525 -0.3148
 1656SOL    HW116430   4.176   1.024   5.256  1.4774 -1.4145  1.9637
 1656SOL    HW216431   4.043   0.972   5.259 -0.2634 -0.7481  0.1517
 1657SOL     OW16432   2.616   2.438   1.714  0.2706 -0.1529 -0.8761
 1657SOL    HW116433   2.700   2.481   1.728 -0.1164  0.8194 -1.5221
 1657SOL    HW216434   2.563   2.508   1.751  0.0015 -0.7346 -0.1759
 1658SOL     OW16435   2.350   3.841   5.025 -0.2063  0.0617 -0.1496
 1658SOL    HW116436   2.381   3.759   4.988  0.6712  0.7485 -0.9576
 1658SOL    HW216437   2.255   3.830   5.025 -0.3213  1.1061  2.2518
 1659SOL     OW16438   4.431   1.743   5.564 -0.3143  0.1657  0.2199
 1659SOL    HW116439   4.442   1.707   5.476 -1.3276  0.8601 -0.1873
 1659SOL    HW216440   4.338   1.733   5.583 -0.3398  0.2241  0.1291
 1660SOL     OW16441   1.810   0.691   3.414  0.4300  0.0596 -0.4486
 1660SOL    HW116442   1.828   0.622   3.478  1.2485 -0.1281 -0.8785
 1660SOL    HW216443   1.779   0.650   3.334  0.3104 -2.5766  0.9714
 1661SOL     OW16444   2.767   4.032   1.834 -0.3018 -0.1622 -0.5037
 1661SOL    HW116445   2.834   3.979   1.878 -0.7482  0.6850  1.1801
 1661SOL    HW216446   2.813   4.108   1.800 -3.0463  2.5166  1.7964
 1662SOL     OW16447   4.374   1.468   9.697  0.2457 -0.0457 -0.4215
 1662SOL    HW116448   4.460   1.510   9.698  0.8242 -1.2872  1.7736
 1662SOL    HW216449   4.341   1.515   9.621 -0.7732  0.3223  0.2475
 1663SOL     OW16450   1.214   1.770   4.566  1.0714 -0.2946  1.3166
 1663SOL    HW116451   1.119   1.782   4.567  1.0021 -1.0218  2.3807
 1663SOL    HW216452   1.251   1.844   4.517 -0.3231 -0.2214  0.3606
 1664SOL     OW16453   0.839   3.678   6.178  0.7527  0.0572 -0.0095
 1664SOL    HW116454   0.920   3.629   6.170  0.3958 -0.5554  0.1437
 1664SOL    HW216455   0.870   3.754   6.226  0.0708  2.1182 -2.8106
 1665SOL     OW16456   4.709   2.724   2.765 -0.7286  0.0719  0.3787
 1665SOL    HW116457   4.696   2.650   2.706 -0.7571  0.7678 -0.4955
 1665SOL    HW216458   4.707   2.676   2.848 -0.6690  0.7684  0.7832
 1666SOL     OW16459   2.697   4.390   2.010 -0.5510  0.3780  0.4970
 1666SOL    HW116460   2.792   4.406   2.006 -1.1477  3.5360 -1.6434
 1666SOL    HW216461   2.675   4.430   2.094  1.8238 -2.4533  2.4823
 1667SOL     OW16462   3.724   3.250   4.242  0.2808 -0.1447 -0.0681
 1667SOL    HW116463   3.787   3.290   4.182  0.4883 -0.9020 -0.3541
 1667SOL    HW216464   3.721   3.158   4.216  1.5307 -0.8591  2.2129
 1668SOL     OW16465   2.166   3.604  11.468  0.5720  0.0142  0.4965
 1668SOL    HW116466   2.172   3.509  11.471 -0.5405 -0.1337 -1.9017
 1668SOL    HW216467   2.070   3.610  11.471  0.5927  0.4797  0.2335
 1669SOL     OW16468   0.228   0.500   8.969  0.0870  0.0615 -0.2415
 1669SOL    HW116469   0.182   0.535   8.893 -1.5497  0.1403  0.7859
 1669SOL    HW216470   0.281   0.580   8.974 -1.1516  0.8522  0.1928
 1670SOL     OW16471   4.028   1.155  16.536  0.2047  0.0265 -0.0294
 1670SOL    HW116472   4.105   1.144  16.481 -1.4228 -1.2909 -2.0506
 1670SOL    HW216473   4.003   1.247  16.530 -1.1681 -0.3579 -0.1562
 1671SOL     OW16474   0.779   4.623   7.961  0.5628 -0.0453 -0.0095
 1671SOL    HW116475   0.839   4.620   8.036  0.5225 -0.7759 -0.0052
 1671SOL    HW216476   0.741   4.535   7.965 -3.9766  1.8536 -1.5977
 1672SOL     OW16477   3.896   3.408   1.363  0.1257 -0.1168  0.0669
 1672SOL    HW116478   3.814   3.396   1.410  0.0830 -1.6979 -0.4145
 1672SOL    HW216479   3.882   3.392   1.270 -0.0884  0.2677  0.0340
 1673SOL     OW16480   3.834   4.436   6.577  0.2252  0.2102  0.3141
 1673SOL    HW116481   3.925   4.458   6.557  0.0455 -0.0241 -0.7833
 1673SOL    HW216482   3.855   4.413   6.667 -0.2624  1.8758  0.8472
 1674SOL     OW16483   0.200   1.352  16.638  0.1692 -1.0178  0.2218
 1674SOL    HW116484   0.222   1.411  16.710 -0.1253  0.5597 -0.9880
 1674SOL    HW216485   0.106   1.363  16.635  0.2201 -0.4913  0.7339
 1675SOL     OW16486   2.453   2.267   0.243  0.0191  0.2419  0.2755
 1675SOL    HW116487   2.418   2.177   0.246  1.6209 -0.3249  1.5892
 1675SOL    HW216488   2.528   2.254   0.186 -0.6876  1.2159 -0.8922
 1676SOL     OW16489   3.538   3.717  15.551  0.2011  0.5744 -0.3255
 1676SOL    HW116490   3.609   3.655  15.569  0.2444  0.1445 -1.9654
 1676SOL    HW216491   3.478   3.673  15.490 -1.1213 -0.2170  1.5573
 1677SOL     OW16492   4.333   0.229   1.781 -0.2268  0.8087 -0.2107
 1677SOL    HW116493   4.427   0.211   1.783 -0.8923 -2.7578 -0.5085
 1677SOL    HW216494   4.295   0.141   1.777 -0.2841  0.8211  0.0834
 1678SOL     OW16495   0.893   3.701   7.138 -0.0746 -0.0867  0.0022
 1678SOL    HW116496   0.954   3.773   7.152 -0.0968  0.0194 -0.4397
 1678SOL    HW216497   0.823   3.706   7.203  0.2380  0.4341  0.2938
 1679SOL     OW16498   1.212   0.565   3.766  0.4248  0.0030 -0.8915
 1679SOL    HW116499   1.226   0.590   3.674 -0.1279  0.0901 -0.9511
 1679SOL    HW216500   1.117   0.553   3.766  0.6735 -1.8610  1.1262
 1680SOL     OW16501   4.631   3.573   8.061 -0.0327  0.2567  0.3690
 1680SOL    HW116502   0.002   3.544   8.051  0.5468  2.2540 -0.2453
 1680SOL    HW216503   4.585   3.494   8.035  1.8834 -0.4151 -1.0481
 1681SOL     OW16504   2.170   2.068   2.250  0.3382 -0.3255  0.0002
 1681SOL    HW116505   2.243   2.113   2.293 -1.2956  0.8318  1.5347
 1681SOL    HW216506   2.110   2.051   2.322  2.5501  1.6623  2.3048
 1682SOL     OW16507   2.636   1.512   2.179  1.1466 -0.6591 -0.1259
 1682SOL    HW116508   2.662   1.461   2.102  1.5975  2.0175 -1.7639
 1682SOL    HW216509   2.600   1.588   2.133  0.5218 -0.9690 -0.1429
 1683SOL     OW16510   1.781   0.002  10.801  0.1423 -0.0965 -0.8217
 1683SOL    HW116511   1.778   4.702  10.708 -0.3320 -0.2129 -0.7833
 1683SOL    HW216512   1.701   4.676  10.827 -0.0250  0.9415  0.4858
 1684SOL     OW16513   2.082   0.130   5.036 -0.0861  0.5515  0.0325
 1684SOL    HW116514   2.104   0.049   4.989  0.8932  2.8923 -3.5381
 1684SOL    HW216515   2.088   0.108   5.129  0.1960  0.7850  0.0688
 1685SOL     OW16516   3.076   3.791  12.207 -0.3502  0.0195  0.0310
 1685SOL    HW116517   2.994   3.747  12.231 -0.0995 -1.9039 -2.6031
 1685SOL    HW216518   3.069   3.866  12.265 -0.1282 -0.5533  0.8008
 1686SOL     OW16519   3.732   1.211   2.867 -0.6485 -0.3394 -0.4942
 1686SOL    HW116520   3.724   1.304   2.887 -0.9984  0.0245 -2.3421
 1686SOL    HW216521   3.642   1.178   2.866 -1.1636  1.0273  0.5644
 1687SOL     OW16522   4.170   3.279   8.471  0.0303  0.3766 -0.0864
 1687SOL    HW116523   4.138   3.210   8.528 -3.8049  1.6471 -0.7017
 1687SOL    HW216524   4.113   3.281   8.394 -0.8283 -0.5043  0.5336
 1688SOL     OW16525   2.519   2.793   9.136 -0.2096  0.0909  0.1352
 1688SOL    HW116526   2.576   2.800   9.213  2.4970  3.2275 -2.1566
 1688SOL    HW216527   2.489   2.702   9.145 -0.1763  0.3134  2.5397
 1689SOL     OW16528   3.597   3.295   4.698  0.2358  0.2556 -0.1939
 1689SOL    HW116529   3.526   3.232   4.717  0.3342  0.3585  0.5098
 1689SOL    HW216530   3.681   3.254   4.720  0.1680  0.7798  1.0260
 1690SOL     OW16531   1.277   3.909   0.868 -0.4862  0.3033 -0.2469
 1690SOL    HW116532   1.297   3.953   0.785 -0.5914  1.0407  0.1180
 1690SOL    HW216533   1.215   3.970   0.908  0.3832  0.3695  0.9807
 1691SOL     OW16534   1.307   4.119   1.145  0.2871 -0.1742 -0.9984
 1691SOL    HW116535   1.277   4.157   1.063 -2.0069 -0.5399 -0.3462
 1691SOL    HW216536   1.221   4.131   1.186  0.4082  1.2527 -1.1374
 1692SOL     OW16537   1.828   1.428  15.601  0.3737 -0.2852 -0.3910
 1692SOL    HW116538   1.767   1.436  15.528 -1.8852 -0.2988  1.4764
 1692SOL    HW216539   1.772   1.438  15.678  0.3625  2.4977 -0.7645
 1693SOL     OW16540   0.698   3.566   7.526  0.5265 -0.9593 -0.1735
 1693SOL    HW116541   0.778   3.601   7.566 -0.1453  0.8635 -0.4110
 1693SOL    HW216542   0.678   3.500   7.592  0.3459 -0.7059  0.0274
 1694SOL     OW16543   2.499   4.584   7.694 -0.5853  0.1509 -0.1951
 1694SOL    HW116544   2.502   4.589   7.789 -0.9967  0.4467 -0.2003
 1694SOL    HW216545   2.572   4.525   7.677  0.2277  0.4582  2.3504
 1695SOL     OW16546   1.453   1.280  12.057  0.5163  0.2001  0.0929
 1695SOL    HW116547   1.548   1.288  12.051  0.5334  1.4640  1.9396
 1695SOL    HW216548   1.421   1.358  12.011  0.5081  0.7226  0.9714
 1696SOL     OW16549   2.999   0.028   3.358 -0.1060  0.0246 -0.6598
 1696SOL    HW116550   2.924   0.021   3.298 -1.8106  0.1559  1.4815
 1696SOL    HW216551   3.054   4.673   3.334 -0.4061 -0.2349 -0.5456
 1697SOL     OW16552   4.658   2.391   6.418 -0.1729 -0.3961  0.1444
 1697SOL    HW116553   4.668   2.481   6.446 -0.1804 -0.1994 -0.4756
 1697SOL    HW216554   4.564   2.395   6.400 -0.6906 -1.5915  2.5854
 1698SOL     OW16555   2.299   3.911   8.762  0.2828 -0.1171  0.5604
 1698SOL    HW116556   2.341   3.925   8.847  3.0964  1.4155 -1.0465
 1698SOL    HW216557   2.259   3.825   8.774 -0.9075  0.6333  1.9335
 1699SOL     OW16558   3.865   3.906   5.928  0.6510 -0.4717  0.5207
 1699SOL    HW116559   3.808   3.975   5.892 -0.9725 -1.1263  1.8396
 1699SOL    HW216560   3.919   3.960   5.986  0.9481 -0.4097  0.1837
 1700SOL     OW16561   1.672   0.799   3.959  0.0540 -0.2594 -0.0136
 1700SOL    HW116562   1.613   0.828   3.889  0.3807 -1.3780 -0.7447
 1700SOL    HW216563   1.716   0.730   3.910  2.6043  0.3112  1.4816
 1701SOL     OW16564   1.253   2.768  12.464 -0.7450 -0.2664  0.2256
 1701SOL    HW116565   1.341   2.745  12.494 -0.2132  1.0634 -0.3141
 1701SOL    HW216566   1.210   2.718  12.533 -1.8425  3.5988  2.3413
 1702SOL     OW16567   1.941   1.999  14.580  0.5114 -0.1687 -0.1192
 1702SOL    HW116568   1.971   1.951  14.502  0.9926  2.3642 -1.4867
 1702SOL    HW216569   1.920   2.085  14.544 -0.9520 -0.5076 -0.0787
 1703SOL     OW16570   4.210   4.354   7.429  0.6744  1.1182 -1.2458
 1703SOL    HW116571   4.199   4.432   7.483  6.9982 -0.0241  1.7283
 1703SOL    HW216572   4.225   4.292   7.501  0.2581  1.7246 -0.6450
 1704SOL     OW16573   3.953   1.034   1.098 -0.1099 -0.2240  0.0062
 1704SOL    HW116574   4.029   1.032   1.156 -0.7227 -1.7064  0.7694
 1704SOL    HW216575   3.893   0.991   1.160  2.8722 -0.1051  2.9367
 1705SOL     OW16576   4.534   2.768   7.500 -0.0561 -0.0915  0.0096
 1705SOL    HW116577   4.578   2.828   7.439  0.2408 -0.1651  0.1498
 1705SOL    HW216578   4.541   2.682   7.459 -2.1275 -0.4994  0.5176
 1706SOL     OW16579   4.586   4.098   4.009  0.1018  0.6535 -0.0158
 1706SOL    HW116580   4.493   4.087   4.032 -0.7205  0.4515 -3.3333
 1706SOL    HW216581   4.600   4.074   3.917  1.4131 -1.1927  0.6621
 1707SOL     OW16582   0.966   3.091   7.113 -0.2259 -0.3715  0.2616
 1707SOL    HW116583   0.914   3.148   7.056  1.1750  1.5282  0.9238
 1707SOL    HW216584   1.034   3.154   7.135  0.7610 -1.0847 -0.7650
 1708SOL     OW16585   1.668   3.430  16.841 -0.2938  0.2280 -0.5340
 1708SOL    HW116586   1.653   3.344  16.802 -0.5976  0.6998 -1.4724
 1708SOL    HW216587   1.741   3.408  16.898 -1.0210  2.1278  1.1239
 1709SOL     OW16588   2.138   1.102   8.087 -0.2844  0.0555 -0.6496
 1709SOL    HW116589   2.189   1.030   8.049  1.1556 -0.3032  2.0089
 1709SOL    HW216590   2.093   1.129   8.007  0.3371  0.4551 -0.8627
 1710SOL     OW16591   1.686   2.935  10.345 -0.3437  0.0865  0.0327
 1710SOL    HW116592   1.707   3.013  10.397  3.7551 -1.0148  0.0419
 1710SOL    HW216593   1.591   2.933  10.352 -0.6490  2.5278 -3.4614
 1711SOL     OW16594   0.865   3.756   0.225 -0.2299  0.0326 -0.2004
 1711SOL    HW116595   0.834   3.812   0.297 -1.4166 -1.2186  0.2631
 1711SOL    HW216596   0.814   3.676   0.229 -1.7742  1.0208 -0.3359
 1712SOL     OW16597   1.276   3.681   3.212  0.1599  0.1425 -0.3525
 1712SOL    HW116598   1.354   3.628   3.192  1.4464  1.7021  0.6215
 1712SOL    HW216599   1.301   3.770   3.189 -0.2548  0.4808  0.5476
 1713SOL     OW16600   0.699   4.593   0.471  0.0014 -0.1272  0.2348
 1713SOL    HW116601   0.622   4.547   0.439 -0.0428  0.4995 -0.5426
 1713SOL    HW216602   0.735   4.637   0.395 -3.0691  0.2237 -1.0038
 1714SOL     OW16603   0.418   3.929   1.700  0.4717  0.2180  0.1481
 1714SOL    HW116604   0.391   3.878   1.776 -0.3155 -0.1726 -0.3991
 1714SOL    HW216605   0.349   3.902   1.641  2.5584 -1.8370 -1.3374
 1715SOL     OW16606   1.251   4.558   4.506 -0.7121  0.2579  0.2394
 1715SOL    HW116607   1.175   4.572   4.563 -1.5278 -2.0798 -0.2933
 1715SOL    HW216608   1.318   4.604   4.556 -0.3774  0.9025 -0.8027
 1716SOL     OW16609   3.508   3.943  11.321  0.8549  1.0110  0.0313
 1716SOL    HW116610   3.489   3.849  11.314  0.7742  1.1185 -1.1604
 1716SOL    HW216611   3.538   3.960  11.232  1.3575  0.5290  0.1065
 1717SOL     OW16612   3.134   3.099  11.327 -0.6336 -0.3214  0.1069
 1717SOL    HW116613   3.202   3.054  11.278 -0.6382 -0.6792  0.4230
 1717SOL    HW216614   3.114   3.187  11.296  3.4452 -0.0662 -1.6970
 1718SOL     OW16615   2.371   3.018   9.055  0.5208  0.6075 -0.3686
 1718SOL    HW116616   2.405   2.937   9.095 -0.8701 -0.4973 -1.4071
 1718SOL    HW216617   2.443   3.081   9.054  1.8000 -0.8064  2.1461
 1719SOL     OW16618   2.437   4.627   5.330 -0.1378 -0.3128 -0.1741
 1719SOL    HW116619   2.514   4.631   5.274  0.4618 -1.1019  0.5891
 1719SOL    HW216620   2.404   4.548   5.287  1.4874 -0.1817 -1.6511
 1720SOL     OW16621   3.087   4.046   4.054 -0.3774 -0.3914 -0.2272
 1720SOL    HW116622   2.993   4.053   4.040 -0.4004  0.3467  0.2649
 1720SOL    HW216623   3.101   3.951   4.059 -1.0714 -0.4582  0.4872
 1721SOL     OW16624   4.120   1.882   4.622  0.3766 -0.6401 -0.2120
 1721SOL    HW116625   4.121   1.953   4.686  1.3039 -1.1634  0.3548
 1721SOL    HW216626   4.032   1.890   4.586 -0.0064  0.4129  0.9814
 1722SOL     OW16627   1.870   0.114  12.946  0.0261  0.2038 -0.4116
 1722SOL    HW116628   1.907   0.028  12.969 -1.0517  0.6458  2.8850
 1722SOL    HW216629   1.948   0.165  12.923  1.4328 -1.3373  0.8754
 1723SOL     OW16630   2.626   3.977   6.737  0.7672 -0.1841 -0.4232
 1723SOL    HW116631   2.712   4.019   6.738  0.7158  0.0049 -2.9472
 1723SOL    HW216632   2.571   4.046   6.699 -1.0845 -0.0734  2.4111
 1724SOL     OW16633   2.329   0.272   0.451 -0.6425 -0.6198 -0.4785
 1724SOL    HW116634   2.371   0.192   0.420  1.5249  0.8685 -1.3712
 1724SOL    HW216635   2.353   0.339   0.387  1.4651 -2.2473 -1.3973
 1725SOL     OW16636   2.454   0.971   5.949 -0.0321  1.1283 -0.0113
 1725SOL    HW116637   2.369   1.011   5.932 -0.7346  0.0639  0.9445
 1725SOL    HW216638   2.506   1.051   5.950 -0.8394  1.6447  1.3717
 1726SOL     OW16639   0.959   4.493   4.023 -0.0718 -0.6787 -0.1530
 1726SOL    HW116640   1.045   4.503   3.982 -0.4326 -2.3512 -1.3384
 1726SOL    HW216641   0.966   4.573   4.076  0.6124 -1.0588  0.3236
 1727SOL     OW16642   0.779   0.481  15.592 -0.0184  0.4846  0.1429
 1727SOL    HW116643   0.869   0.511  15.605  0.5457 -1.5124  0.8122
 1727SOL    HW216644   0.768   0.485  15.497  0.2771 -0.2970  0.0772
 1728SOL     OW16645   1.630   0.558   4.711  0.0392 -0.6357 -0.6602
 1728SOL    HW116646   1.542   0.523   4.701 -0.1705 -0.0437 -0.8734
 1728SOL    HW216647   1.675   0.522   4.635  1.9793  0.0194  0.1613
 1729SOL     OW16648   2.625   0.254   7.056  0.2298 -0.4741  0.1855
 1729SOL    HW116649   2.645   0.276   7.147 -2.4771  2.0040  0.1694
 1729SOL    HW216650   2.572   0.176   7.075  0.2387 -0.9391 -1.6842
 1730SOL     OW16651   1.311   2.867   8.547 -0.3466  0.2426 -0.2670
 1730SOL    HW116652   1.230   2.839   8.589  0.6123 -0.9601  0.7722
 1730SOL    HW216653   1.275   2.889   8.461 -2.8656  2.6669  1.4044
 1731SOL     OW16654   3.353   0.227   0.772 -0.2667  0.3517 -0.1375
 1731SOL    HW116655   3.312   0.238   0.858  1.1722 -2.8595  0.9638
 1731SOL    HW216656   3.339   0.135   0.751  1.9871 -0.0603  0.1562
 1732SOL     OW16657   1.948   2.447  13.095  0.4160 -0.1411 -0.3780
 1732SOL    HW116658   2.008   2.510  13.055  0.8008  2.3582  4.1491
 1732SOL    HW216659   1.941   2.480  13.184 -0.4905 -0.3396 -0.3792
 1733SOL     OW16660   0.527   0.550   3.588  0.5584  0.4053  0.1192
 1733SOL    HW116661   0.462   0.558   3.518  0.7564  1.7159  0.0840
 1733SOL    HW216662   0.477   0.569   3.667 -0.1608  0.3725 -0.3300
 1734SOL     OW16663   3.809   2.822   5.628 -0.4481 -0.1049  0.5484
 1734SOL    HW116664   3.801   2.742   5.576 -0.5362  0.0857  0.2687
 1734SOL    HW216665   3.903   2.840   5.633 -0.6183  1.0391 -0.3687
 1735SOL     OW16666   0.390   3.115   8.890  0.1292  0.2604  0.0442
 1735SOL    HW116667   0.368   3.204   8.917 -1.0556 -0.0179  0.0033
 1735SOL    HW216668   0.462   3.116   8.827 -1.0911  0.3364 -1.3539
 1736SOL     OW16669   1.331   0.222   2.976  0.1378 -0.5715  0.5436
 1736SOL    HW116670   1.272   0.195   3.046 -0.8005  0.3725  0.1277
 1736SOL    HW216671   1.395   0.151   2.970  1.4493  0.4965  1.9969
 1737SOL     OW16672   1.265   1.787   1.902 -0.1591  0.0086 -0.2334
 1737SOL    HW116673   1.283   1.875   1.934  1.5582  0.2728 -1.9606
 1737SOL    HW216674   1.278   1.804   1.809 -0.0185  2.0095  0.1624
 1738SOL     OW16675   0.465   2.361  11.817  0.1094  0.2281 -0.0609
 1738SOL    HW116676   0.473   2.383  11.910 -1.5664  0.7092 -0.0222
 1738SOL    HW216677   0.551   2.376  11.779 -0.3634 -1.4973 -1.8146
 1739SOL     OW16678   2.332   2.972   1.581  0.8552 -0.2771  0.3055
 1739SOL    HW116679   2.364   2.899   1.528  0.2970 -0.9212  0.8612
 1739SOL    HW216680   2.289   3.028   1.516  0.1670 -0.1427  0.8695
 1740SOL     OW16681   1.738   0.245  15.253  1.0298  0.2506 -0.3667
 1740SOL    HW116682   1.677   0.251  15.180  2.5120 -2.4235 -1.8186
 1740SOL    HW216683   1.692   0.180  15.306  2.4761  1.7376  2.7491
 1741SOL     OW16684   3.575   2.018   5.315 -0.4380 -0.2156  0.3265
 1741SOL    HW116685   3.607   2.086   5.375  0.7917  0.8252 -1.4963
 1741SOL    HW216686   3.582   1.938   5.367 -1.6499 -0.4637  0.1071
 1742SOL     OW16687   1.894   4.488   1.171 -0.0832  0.3494  0.2661
 1742SOL    HW116688   1.832   4.480   1.099 -1.8550 -1.1826  1.9644
 1742SOL    HW216689   1.968   4.538   1.137  1.1542 -0.3766  1.8712
 1743SOL     OW16690   4.587   2.276   5.342 -0.0569  0.0051 -0.1027
 1743SOL    HW116691   4.589   2.182   5.327  1.1436 -0.1175  0.8453
 1743SOL    HW216692   4.682   2.287   5.342 -0.0873  0.2858  0.0504
 1744SOL     OW16693   4.523   2.956  10.204 -0.6899 -0.6553  0.0816
 1744SOL    HW116694   4.442   2.910  10.185 -0.7999  0.2110 -1.5553
 1744SOL    HW216695   4.563   2.952  10.117 -1.4173  1.9443 -0.3883
 1745SOL     OW16696   0.889   4.711   4.181 -0.4039 -0.1825 -0.0355
 1745SOL    HW116697   0.964   4.709   4.240  0.0011  1.3281 -0.4790
 1745SOL    HW216698   0.908   0.070   4.129  1.6674 -2.1071 -2.1762
 1746SOL     OW16699   0.925   2.913   1.404 -0.2160  0.4272  0.7766
 1746SOL    HW116700   0.840   2.922   1.447 -0.3854  2.4311  0.0378
 1746SOL    HW216701   0.975   2.986   1.440  0.8205  1.6564 -3.1176
 1747SOL     OW16702   0.576   0.297   0.147 -0.0073 -0.3706 -0.3463
 1747SOL    HW116703   0.659   0.273   0.107  0.6519 -1.9941  2.0498
 1747SOL    HW216704   0.555   0.376   0.097 -0.3195 -0.8042 -0.8927
 1748SOL     OW16705   2.259   1.227   3.446 -0.0883  0.2704  0.0425
 1748SOL    HW116706   2.212   1.149   3.477  3.1038 -1.2576  1.0257
 1748SOL    HW216707   2.294   1.198   3.362  1.0222 -1.8651  1.2493
 1749SOL     OW16708   0.428   3.579   7.479  0.0223 -0.2219  0.0020
 1749SOL    HW116709   0.430   3.633   7.399  1.1640  0.8349  0.7559
 1749SOL    HW216710   0.521   3.564   7.493  0.2261  0.5870 -0.4920
 1750SOL     OW16711   1.706   3.824  17.487  0.3473 -0.7250 -0.0866
 1750SOL    HW116712   1.708   3.885  17.561  0.9420 -1.2111  0.2997
 1750SOL    HW216713   1.614   3.829  17.462 -0.0663 -1.9619  1.2071
 1751SOL     OW16714   0.325   0.443   4.490  0.0457  0.6667 -0.5230
 1751SOL    HW116715   0.388   0.498   4.537  0.0400  0.2467 -0.0277
 1751SOL    HW216716   0.244   0.492   4.506  0.9232  2.2277 -0.7702
 1752SOL     OW16717   1.642   1.466   4.175 -0.4219  0.1825 -0.2464
 1752SOL    HW116718   1.730   1.499   4.158  0.3072 -0.6969  1.6960
 1752SOL    HW216719   1.602   1.544   4.212 -0.9460  0.1426 -0.7359
 1753SOL     OW16720   1.532   2.897   5.707 -0.1676 -0.4323  0.7689
 1753SOL    HW116721   1.444   2.917   5.675 -0.3841 -1.2764  0.8453
 1753SOL    HW216722   1.550   2.818   5.656  1.9108  0.5871 -0.0451
 1754SOL     OW16723   0.254   2.312   3.158 -0.1786  0.5913 -0.6271
 1754SOL    HW116724   0.253   2.407   3.146 -0.0268  0.8547  1.6162
 1754SOL    HW216725   0.340   2.298   3.118  0.4635  1.7320  0.3289
 1755SOL     OW16726   0.949   0.837   6.399  0.1660 -0.5966 -0.0415
 1755SOL    HW116727   0.902   0.862   6.478  0.2971  0.7634 -0.3999
 1755SOL    HW216728   1.028   0.890   6.408 -0.8501  1.0455 -0.9595
 1756SOL     OW16729   1.266   1.503   2.230 -0.3175 -0.0135 -0.1405
 1756SOL    HW116730   1.197   1.546   2.280  1.2983  2.9706 -0.4599
 1756SOL    HW216731   1.319   1.469   2.302 -0.0672 -1.2091 -0.8952
 1757SOL     OW16732   3.766   2.982   1.939  0.1528  0.5581 -0.6171
 1757SOL    HW116733   3.837   3.014   1.994  0.4795 -2.0368  0.4242
 1757SOL    HW216734   3.781   2.892   1.912  1.1516  0.3479  0.6631
 1758SOL     OW16735   0.259   2.516  15.922 -0.9353  0.2756  0.1276
 1758SOL    HW116736   0.346   2.479  15.910 -0.1388  2.0276  0.5491
 1758SOL    HW216737   0.220   2.493  15.838 -0.5888  0.4832 -0.0910
 1759SOL     OW16738   0.366   4.417   8.443 -0.3187 -0.0121 -0.7051
 1759SOL    HW116739   0.436   4.379   8.390  0.4657  1.5640 -0.7996
 1759SOL    HW216740   0.292   4.378   8.397 -1.3438 -0.1442  1.0929
 1760SOL     OW16741   0.985   2.460   5.991 -0.1640 -0.2471  0.0014
 1760SOL    HW116742   1.060   2.441   5.935  1.2286  0.6136  1.6060
 1760SOL    HW216743   0.944   2.536   5.948 -0.8518 -0.5389  0.1343
 1761SOL     OW16744   1.506   0.240   7.883 -0.2090 -0.2274  0.5885
 1761SOL    HW116745   1.581   0.298   7.871 -0.4769  0.3064  1.4284
 1761SOL    HW216746   1.497   0.190   7.802 -2.1021 -0.0188  0.6638
 1762SOL     OW16747   1.004   4.377   6.140 -0.1249 -0.3157 -0.0595
 1762SOL    HW116748   1.004   4.394   6.234 -2.1178  0.1798 -0.1396
 1762SOL    HW216749   0.969   4.456   6.099 -0.2583 -1.5379 -2.2884
 1763SOL     OW16750   1.381   2.805   1.828  0.3154  0.2867 -0.5680
 1763SOL    HW116751   1.322   2.730   1.831  1.4726 -0.5640  0.1990
 1763SOL    HW216752   1.345   2.854   1.902  0.2507 -1.3752  0.4761
 1764SOL     OW16753   1.015   0.492   0.833  0.2399  0.3418 -0.1483
 1764SOL    HW116754   0.950   0.543   0.881  0.5259  0.2554  0.3293
 1764SOL    HW216755   0.960   0.441   0.774  0.1210  0.0435  0.2232
 1765SOL     OW16756   4.444   4.092   8.077  0.2190  0.2717 -0.0257
 1765SOL    HW116757   4.503   4.021   8.103 -0.0332  0.3461  0.7503
 1765SOL    HW216758   4.493   4.132   8.006  2.2870 -0.9294  0.7227
 1766SOL     OW16759   0.993   0.698   8.000 -0.9898  0.1187 -0.0687
 1766SOL    HW116760   0.926   0.631   8.011  0.2762 -0.9629  1.0698
 1766SOL    HW216761   0.999   0.735   8.088  3.2843 -1.2784  0.2117
 1767SOL     OW16762   2.994   0.768   8.596  0.2896  0.1874  0.2202
 1767SOL    HW116763   3.052   0.696   8.624  0.2956  0.5562  1.1769
 1767SOL    HW216764   2.918   0.717   8.570 -0.0705 -0.0411  1.6949
 1768SOL     OW16765   3.628   0.379   2.390  0.2002  0.6294  0.5315
 1768SOL    HW116766   3.677   0.361   2.310 -0.0554 -0.1187  0.5455
 1768SOL    HW216767   3.573   0.449   2.354  0.2705  0.8643  0.8827
 1769SOL     OW16768   2.789   3.258   7.219  0.5956  0.1891  0.5279
 1769SOL    HW116769   2.873   3.231   7.182  0.8464 -1.1427  2.0748
 1769SOL    HW216770   2.734   3.256   7.141  0.8154  0.2652  0.3693
 1770SOL     OW16771   2.084   0.401   2.481  0.3943 -0.3776 -0.0429
 1770SOL    HW116772   2.008   0.432   2.530  0.0481 -0.8305 -0.2914
 1770SOL    HW216773   2.072   0.445   2.397  0.2529 -1.6696 -0.7049
 1771SOL     OW16774   3.723   4.658   7.674  0.1778  0.2575 -0.2114
 1771SOL    HW116775   3.666   4.629   7.745  2.0641 -0.7052  0.9011
 1771SOL    HW216776   3.809   4.676   7.710 -0.1360  1.2849  0.0189
 1772SOL     OW16777   3.462   0.975   5.248  0.0243 -0.3751 -0.1179
 1772SOL    HW116778   3.389   0.983   5.310 -0.5105  2.6142 -1.1782
 1772SOL    HW216779   3.422   0.977   5.162  0.0203 -0.4109 -0.1170
 1773SOL     OW16780   2.922   3.662  16.222 -0.3002  0.1000  0.0583
 1773SOL    HW116781   2.893   3.699  16.306  0.1128 -1.8779  1.0547
 1773SOL    HW216782   2.997   3.610  16.251  0.0847 -1.2612 -3.4595
 1774SOL     OW16783   2.477   2.363   7.583 -0.1740 -0.6301  0.7854
 1774SOL    HW116784   2.508   2.433   7.526  0.1544 -2.0474 -0.7888
 1774SOL    HW216785   2.504   2.288   7.530 -1.5461 -1.8952  1.8846
 1775SOL     OW16786   4.038   0.341  10.318  0.4054 -0.3648 -0.2597
 1775SOL    HW116787   4.017   0.263  10.369 -1.5469  1.0191  1.0812
 1775SOL    HW216788   4.073   0.397  10.387  0.4512 -1.2265  0.4170
 1776SOL     OW16789   4.069   0.326   8.009  0.3294 -0.4352  0.0226
 1776SOL    HW116790   4.128   0.326   7.934 -2.2920 -1.2748 -2.0209
 1776SOL    HW216791   4.121   0.283   8.076 -0.5250 -0.0739  0.9195
 1777SOL     OW16792   4.575   2.249   0.685 -0.1968 -0.1126  0.3603
 1777SOL    HW116793   4.572   2.265   0.779 -1.3161 -1.0120  0.4646
 1777SOL    HW216794   4.482   2.250   0.665 -0.6872  0.4324  2.6690
 1778SOL     OW16795   1.200   1.365   4.416 -0.4073 -0.2915  0.0846
 1778SOL    HW116796   1.158   1.318   4.489 -1.0311 -1.9861 -1.3715
 1778SOL    HW216797   1.280   1.391   4.462 -0.3783  0.5786 -0.4683
 1779SOL     OW16798   2.238   1.069  15.122 -0.4418  0.1352  0.0652
 1779SOL    HW116799   2.171   1.105  15.064 -0.0311  1.0438  0.1520
 1779SOL    HW216800   2.228   1.131  15.195  2.2203 -0.7683  1.1799
 1780SOL     OW16801   2.591   3.527  15.230 -0.4179  0.0198  0.4340
 1780SOL    HW116802   2.621   3.601  15.177  1.6350 -0.0444  1.4604
 1780SOL    HW216803   2.516   3.566  15.274 -1.6425  0.1245 -1.7747
 1781SOL     OW16804   2.736   4.153   8.900  0.0290 -0.2480 -0.0078
 1781SOL    HW116805   2.814   4.177   8.850  1.3317 -0.2853  2.0112
 1781SOL    HW216806   2.699   4.089   8.840 -1.5987  0.3565  0.3442
 1782SOL     OW16807   2.001   4.360  11.261  0.0057 -0.1076  0.2976
 1782SOL    HW116808   1.908   4.357  11.282 -0.5296  2.8086 -1.7082
 1782SOL    HW216809   2.017   4.433  11.320  1.4945  0.6223 -1.0005
 1783SOL     OW16810   2.820   2.868   3.525  0.0474  0.0765  0.0962
 1783SOL    HW116811   2.743   2.853   3.471 -0.7018 -1.2194  1.5442
 1783SOL    HW216812   2.848   2.781   3.552  0.3586 -0.6580 -2.5453
 1784SOL     OW16813   4.145   3.545   9.135  0.0994 -0.6406 -0.0803
 1784SOL    HW116814   4.054   3.529   9.112 -0.3532  1.4323  0.2738
 1784SOL    HW216815   4.167   3.580   9.049  0.1253 -2.2154 -0.6998
 1785SOL     OW16816   4.384   1.615  12.490 -0.0172  0.0278 -0.5070
 1785SOL    HW116817   4.368   1.673  12.415 -0.7480  0.2142 -0.2069
 1785SOL    HW216818   4.346   1.536  12.452  0.5509 -1.9425  3.0420
 1786SOL     OW16819   3.523   3.601   4.011  0.1425 -0.0775 -0.4171
 1786SOL    HW116820   3.480   3.621   4.095 -1.0162 -1.1761 -0.7358
 1786SOL    HW216821   3.605   3.562   4.041  0.4240 -0.5718 -1.8161
 1787SOL     OW16822   0.761   1.620   4.224  0.0143  0.5579 -0.1101
 1787SOL    HW116823   0.806   1.550   4.272 -1.6312  0.5089  1.3358
 1787SOL    HW216824   0.817   1.608   4.147 -0.5886 -0.4374 -0.3852
 1788SOL     OW16825   1.750   0.038   6.679  0.1937  0.3445  0.5339
 1788SOL    HW116826   1.803   0.105   6.722  2.5373 -0.3681 -1.2591
 1788SOL    HW216827   1.686   0.040   6.750 -1.1200  1.9074 -0.7088
 1789SOL     OW16828   0.380   3.077   4.357  0.0608 -0.2248  0.0896
 1789SOL    HW116829   0.363   3.058   4.265 -0.1700 -1.3204  0.3527
 1789SOL    HW216830   0.471   3.109   4.361 -0.4243  0.8748  2.3724
 1790SOL     OW16831   4.261   0.780  13.594  0.7317  0.8415  0.6796
 1790SOL    HW116832   4.272   0.856  13.651  2.1388 -0.3108  1.9407
 1790SOL    HW216833   4.334   0.792  13.534  2.4080 -3.2798  1.8872
 1791SOL     OW16834   0.032   0.424   9.689 -0.4075  0.9120  0.0135
 1791SOL    HW116835   0.012   0.397   9.599  0.5688 -0.2584  0.1491
 1791SOL    HW216836   0.103   0.361   9.703 -0.1369  1.5658  1.5037
 1792SOL     OW16837   2.277   2.846  17.397  0.3040  0.0131 -0.0798
 1792SOL    HW116838   2.349   2.900  17.430 -0.1974  0.4260  0.3338
 1792SOL    HW216839   2.243   2.797  17.472  1.7416 -1.4307 -0.3690
 1793SOL     OW16840   3.531   4.168   0.674  0.1095 -0.2661  0.3195
 1793SOL    HW116841   3.469   4.226   0.631  0.2024 -1.8691 -1.9606
 1793SOL    HW216842   3.471   4.151   0.746 -0.8626 -1.3689 -0.7548
 1794SOL     OW16843   4.303   0.345   4.864  0.3972 -0.6311  0.5007
 1794SOL    HW116844   4.293   0.294   4.945 -0.9907 -1.4883 -0.2106
 1794SOL    HW216845   4.211   0.373   4.860  1.2756  2.7673  3.4264
 1795SOL     OW16846   3.088   0.532   0.230 -0.2692  0.2479 -0.4685
 1795SOL    HW116847   3.142   0.582   0.169 -0.0435  1.3210  0.5995
 1795SOL    HW216848   3.150   0.508   0.300  1.2573  1.2642 -1.4675
 1796SOL     OW16849   0.370   1.746   6.456  0.3462  0.1799  0.0155
 1796SOL    HW116850   0.427   1.787   6.522  1.0540 -0.6007 -0.1190
 1796SOL    HW216851   0.354   1.660   6.496 -0.3211  0.9341  1.3934
 1797SOL     OW16852   0.288   1.033   4.282  0.3564 -0.3121  0.4070
 1797SOL    HW116853   0.217   0.969   4.274 -0.5240  0.9482 -1.7577
 1797SOL    HW216854   0.304   1.051   4.189 -0.8237  2.4209  0.7469
 1798SOL     OW16855   1.712   3.424   3.130  0.2720  0.2005 -0.7842
 1798SOL    HW116856   1.705   3.429   3.225 -2.6264  3.0444 -1.1590
 1798SOL    HW216857   1.620   3.421   3.105  0.1519 -4.1161  0.1892
 1799SOL     OW16858   2.128   2.452  15.690  0.2349  0.0865  0.1416
 1799SOL    HW116859   2.166   2.502  15.618 -0.3488 -0.1411 -0.3266
 1799SOL    HW216860   2.065   2.517  15.721 -0.4867 -0.3615 -0.3738
 1800SOL     OW16861   3.892   4.248  12.502 -0.1394  0.4867  0.0054
 1800SOL    HW116862   3.889   4.343  12.509  1.6022  0.4564  1.1512
 1800SOL    HW216863   3.805   4.222  12.471 -0.9529  2.9859  0.2229
 1801SOL     OW16864   0.559   2.535   7.268 -0.5268  0.2628 -0.3940
 1801SOL    HW116865   0.512   2.595   7.210 -1.4950  0.0463  0.1723
 1801SOL    HW216866   0.540   2.449   7.231 -2.1335  0.9583 -1.1971
 1802SOL     OW16867   2.914   2.482   1.993  0.2788  0.2395 -0.5420
 1802SOL    HW116868   2.856   2.414   1.959  1.7816 -0.3150 -2.0381
 1802SOL    HW216869   2.985   2.431   2.032  0.2533  0.7290  0.1518
 1803SOL     OW16870   3.804   0.078  16.459  0.0266 -0.2327  0.1632
 1803SOL    HW116871   3.770   0.063  16.371 -1.2199 -1.2001  0.8182
 1803SOL    HW216872   3.772   0.165  16.484 -0.0881  0.0306 -0.9196
 1804SOL     OW16873   4.013   1.737  10.403  0.1205  0.5814 -0.2917
 1804SOL    HW116874   3.934   1.709  10.358  0.3778 -0.0713 -0.3391
 1804SOL    HW216875   3.981   1.696  10.484 -1.4769  0.0880 -1.1788
 1805SOL     OW16876   1.478   3.447   5.069  0.3625  0.5391  0.1981
 1805SOL    HW116877   1.414   3.517   5.056  2.5736  2.4327 -0.5687
 1805SOL    HW216878   1.562   3.491   5.083  0.3161  0.4717  0.7035
 1806SOL     OW16879   4.175   1.447   7.314 -0.1799  0.2552 -0.3757
 1806SOL    HW116880   4.142   1.415   7.229 -2.0401  0.3623  0.2981
 1806SOL    HW216881   4.172   1.541   7.302  0.4239  0.4195  0.7977
 1807SOL     OW16882   4.352   0.789  16.834  0.4426 -0.0583  0.1660
 1807SOL    HW116883   4.433   0.823  16.873 -0.4275  1.7392  0.3947
 1807SOL    HW216884   4.385   0.725  16.770  2.6676  0.4244  0.8305
 1808SOL     OW16885   1.718   2.775   4.225 -0.2309 -0.2260  0.2211
 1808SOL    HW116886   1.651   2.707   4.219 -2.4365  1.8880  0.8227
 1808SOL    HW216887   1.674   2.843   4.278 -0.8378 -0.5713  0.1646
 1809SOL     OW16888   1.953   3.817   6.065 -0.9189 -0.0103  0.1287
 1809SOL    HW116889   1.872   3.863   6.086 -0.7525 -0.2077  1.2257
 1809SOL    HW216890   1.927   3.730   6.095 -0.1107  1.0206  3.8940
 1810SOL     OW16891   0.088   0.276   4.465 -0.0331 -0.4653 -0.0661
 1810SOL    HW116892   0.104   0.196   4.515  0.6035 -0.1319  0.2768
 1810SOL    HW216893   0.108   0.353   4.520  1.2997 -0.2374 -0.8672
 1811SOL     OW16894   1.680   2.416   5.965  0.2273 -0.5961  0.0908
 1811SOL    HW116895   1.596   2.404   5.920  0.1073 -0.6906  0.3420
 1811SOL    HW216896   1.719   2.487   5.914  0.8531 -0.4216  0.8223
 1812SOL     OW16897   4.292   3.130   0.017  0.1928 -0.3868  0.4704
 1812SOL    HW116898   4.264   3.173  17.617 -0.7823 -1.6654  0.1236
 1812SOL    HW216899   4.332   3.046  17.673  2.1391  0.2571  1.4503
 1813SOL     OW16900   1.544   2.046   2.512 -0.5140 -0.4100  0.0755
 1813SOL    HW116901   1.501   2.006   2.587 -0.1856 -1.3406 -0.2317
 1813SOL    HW216902   1.568   2.131   2.548 -1.8130 -0.4706  1.0588
 1814SOL     OW16903   0.212   3.629   4.670 -1.0459  0.0270 -0.3980
 1814SOL    HW116904   0.220   3.559   4.735  0.3282  2.1756  1.7521
 1814SOL    HW216905   0.286   3.687   4.687 -2.3184  0.7196  2.8652
 1815SOL     OW16906   3.313   1.521   2.182 -0.3395 -0.1294 -0.3154
 1815SOL    HW116907   3.396   1.569   2.183 -1.1844  1.3206  0.3855
 1815SOL    HW216908   3.245   1.587   2.171  1.3543  1.4479 -1.3689
 1816SOL     OW16909   1.748   3.155   4.876  0.2990  0.3345  0.0559
 1816SOL    HW116910   1.699   3.187   4.952 -0.2919 -0.0552 -0.1521
 1816SOL    HW216911   1.688   3.164   4.802 -1.8154 -2.1268  1.4440
 1817SOL     OW16912   2.342   1.502   2.242 -0.1633  0.5238 -0.5116
 1817SOL    HW116913   2.424   1.503   2.192 -1.1522  0.8201 -2.1151
 1817SOL    HW216914   2.377   1.562   2.308 -0.7692  3.0160 -2.4786
 1818SOL     OW16915   0.686   1.303   6.424  0.5803 -0.4162  0.0042
 1818SOL    HW116916   0.634   1.269   6.497 -1.3768  0.9138 -0.8040
 1818SOL    HW216917   0.646   1.382   6.388 -0.2323 -0.2695  1.2203
 1819SOL     OW16918   4.489   4.185   9.796  0.4284 -0.4978 -0.7020
 1819SOL    HW116919   4.495   4.210   9.704 -3.5747  1.0167 -0.5216
 1819SOL    HW216920   4.519   4.264   9.840  0.9184  0.1545 -2.2139
 1820SOL     OW16921   1.654   2.367   9.021 -0.5513  0.1883  0.4190
 1820SOL    HW116922   1.731   2.369   9.077 -0.7132  0.0265  0.6499
 1820SOL    HW216923   1.678   2.301   8.956 -1.7140  0.2026 -0.0340
 1821SOL     OW16924   1.894   2.621   2.484  0.0611  0.4912 -0.2091
 1821SOL    HW116925   1.876   2.530   2.463 -1.1651  1.2722 -2.5623
 1821SOL    HW216926   1.856   2.632   2.570  1.9419  2.5350  0.3881
 1822SOL     OW16927   2.907   1.956   8.534  0.2450 -0.2550 -0.7694
 1822SOL    HW116928   2.862   2.038   8.552 -1.2970 -1.0650 -0.8715
 1822SOL    HW216929   3.000   1.975   8.540  0.2822 -0.7015  0.0472
 1823SOL     OW16930   0.389   2.640   5.403  0.3752  0.2540 -0.0547
 1823SOL    HW116931   0.481   2.650   5.426 -0.0876  0.0687  1.8846
 1823SOL    HW216932   0.390   2.688   5.321  0.3003 -0.8925 -0.7265
 1824SOL     OW16933   1.960   1.377  14.173 -0.7106 -0.2231  0.2297
 1824SOL    HW116934   1.951   1.298  14.226  1.8495  0.1376  1.1951
 1824SOL    HW216935   1.918   1.442  14.228  0.1674  1.5463 -1.1532
 1825SOL     OW16936   0.936   0.686   9.224  0.2451  0.7461 -0.0071
 1825SOL    HW116937   1.024   0.668   9.257  0.2439  1.2782  0.2962
 1825SOL    HW216938   0.961   0.775   9.198 -0.3997  0.2502 -2.3322
 1826SOL     OW16939   1.911   2.937   8.117 -0.2506 -0.2842  0.3873
 1826SOL    HW116940   1.899   3.012   8.175  1.2344 -0.1467  0.5241
 1826SOL    HW216941   1.882   2.973   8.033 -3.0255 -0.4473  1.2669
 1827SOL     OW16942   0.294   0.006   9.621  0.0919  0.8615 -1.0556
 1827SOL    HW116943   0.284   4.671   9.699  0.4167  0.4724 -1.2790
 1827SOL    HW216944   0.262   4.669   9.550 -1.5102 -0.5945  0.8513
 1828SOL     OW16945   4.267   1.469   5.997 -0.1970  0.6715 -0.2454
 1828SOL    HW116946   4.274   1.424   5.912 -1.3362  4.0042 -2.1207
 1828SOL    HW216947   4.177   1.451   6.025 -0.0344 -0.2576 -0.3063
 1829SOL     OW16948   2.671   3.071  15.245 -0.1985 -0.0662  0.2589
 1829SOL    HW116949   2.644   3.063  15.154 -1.1084  0.6653  0.4694
 1829SOL    HW216950   2.762   3.098  15.237  0.4034 -1.7433  1.2896
 1830SOL     OW16951   1.090   0.739   9.905 -1.1471  0.4031 -0.6515
 1830SOL    HW116952   1.089   0.820   9.956 -0.8292  1.6823 -2.6866
 1830SOL    HW216953   1.035   0.771   9.834 -2.3654 -1.6800 -0.6374
 1831SOL     OW16954   2.773   2.525   5.966  0.4011  1.0182  0.0835
 1831SOL    HW116955   2.715   2.461   6.008  2.3252 -1.6059 -1.2113
 1831SOL    HW216956   2.834   2.543   6.038  2.6698 -0.3984 -1.4838
 1832SOL     OW16957   3.892   3.911   4.399 -0.2209  0.2890 -0.6598
 1832SOL    HW116958   3.916   3.909   4.492  0.2296  2.5366 -0.7288
 1832SOL    HW216959   3.976   3.919   4.355  0.2111  1.0210  0.2918
 1833SOL     OW16960   2.656   3.999  16.982  0.2762  0.5411  0.1640
 1833SOL    HW116961   2.696   4.078  16.946  2.1955 -0.5575 -0.1091
 1833SOL    HW216962   2.566   4.009  16.950  0.9773 -0.7411 -2.1944
 1834SOL     OW16963   2.443   3.854  11.995 -0.0308 -0.4548 -0.0617
 1834SOL    HW116964   2.421   3.831  11.905  1.5428  1.5618 -0.9620
 1834SOL    HW216965   2.402   3.941  11.994 -0.9065 -0.8477  0.8082
 1835SOL     OW16966   2.346   0.633   7.395  0.2760  0.4761  0.4296
 1835SOL    HW116967   2.280   0.693   7.362  0.1281  0.2976  0.4026
 1835SOL    HW216968   2.336   0.546   7.356  1.7081  0.4178  0.1717
 1836SOL     OW16969   1.658   3.313   2.364  0.0177 -0.2534  0.3790
 1836SOL    HW116970   1.578   3.353   2.328  0.8440  1.0889  0.0265
 1836SOL    HW216971   1.632   3.222   2.355  1.9354 -0.8850  1.2543
 1837SOL     OW16972   4.597   0.909   3.676 -0.5869 -0.0508  0.0373
 1837SOL    HW116973   4.563   0.822   3.698  1.8935 -0.8625  0.6279
 1837SOL    HW216974   4.617   0.900   3.583  2.3342  0.9789  0.5835
 1838SOL     OW16975   3.470   2.102   3.332  0.0612  0.3089 -0.4964
 1838SOL    HW116976   3.490   2.183   3.378  0.7873 -1.3498  2.1215
 1838SOL    HW216977   3.449   2.045   3.406  1.0513 -1.0548 -1.2652
 1839SOL     OW16978   1.615   1.083   6.872 -0.0522  0.1064  0.4131
 1839SOL    HW116979   1.611   1.054   6.780  0.0348  0.8194  0.1845
 1839SOL    HW216980   1.592   1.175   6.862 -1.2516 -0.2853 -0.4508
 1840SOL     OW16981   4.502   2.740   3.753  0.2085 -0.4458  0.0532
 1840SOL    HW116982   4.563   2.676   3.789 -0.2528 -2.8869 -3.5068
 1840SOL    HW216983   4.467   2.688   3.681 -1.7937 -0.4087  1.0208
 1841SOL     OW16984   3.606   1.643  15.189 -0.0594  0.5438  0.2093
 1841SOL    HW116985   3.665   1.591  15.135 -0.8122  0.6647 -0.7214
 1841SOL    HW216986   3.609   1.730  15.150 -0.2609 -0.5701 -2.2551
 1842SOL     OW16987   3.954   0.299   6.041 -0.1704  0.3699 -0.0988
 1842SOL    HW116988   3.930   0.219   6.086  0.3402  0.6006  0.5868
 1842SOL    HW216989   3.977   0.362   6.109 -3.3954  1.3317  0.0889
 1843SOL     OW16990   1.815   4.237  17.493  0.7315 -0.6485 -0.0213
 1843SOL    HW116991   1.749   4.193  17.439  0.3044  0.1993 -0.1893
 1843SOL    HW216992   1.795   4.331  17.499  0.0619 -0.6219 -2.8988
 1844SOL     OW16993   2.948   2.519   9.056 -0.1634  0.1981 -0.2976
 1844SOL    HW116994   2.946   2.499   8.962 -1.0937 -1.6264  0.1145
 1844SOL    HW216995   3.032   2.565   9.063 -0.0548 -0.4748  2.8708
 1845SOL     OW16996   4.142   1.598   3.221 -0.1405 -0.4430 -0.0101
 1845SOL    HW116997   4.131   1.504   3.235 -0.9798 -0.3594 -0.1106
 1845SOL    HW216998   4.135   1.597   3.126 -0.4896  0.6469  0.0039
 1846SOL     OW16999   0.707   2.177  17.312 -0.0812  0.1304  0.3793
 1846SOL    HW117000   0.643   2.135  17.255 -1.8725  0.5683  2.0647
 1846SOL    HW217001   0.647   2.210  17.379  1.5508  0.4130  1.7071
 1847SOL     OW17002   0.815   3.707   1.895 -0.2376  0.5463 -0.3461
 1847SOL    HW117003   0.770   3.719   1.978  3.3933  2.1480  1.3747
 1847SOL    HW217004   0.744   3.727   1.833  0.4440  0.2234 -1.2345
 1848SOL     OW17005   1.175   1.710   4.835 -0.2872  0.2108 -0.1879
 1848SOL    HW117006   1.107   1.649   4.806 -0.5919  0.5425 -0.1707
 1848SOL    HW217007   1.196   1.735   4.745  0.5604  0.8191  0.1854
 1849SOL     OW17008   4.695   2.790   4.741 -0.0432 -0.5843  0.7119
 1849SOL    HW117009   0.028   2.766   4.665 -1.0652 -1.2296  0.2112
 1849SOL    HW217010   4.623   2.847   4.712  1.2261 -0.3195 -1.9630
 1850SOL     OW17011   1.580   4.269   4.943 -0.4557 -0.0314  0.2847
 1850SOL    HW117012   1.587   4.252   4.849 -0.1882 -0.4874  0.3859
 1850SOL    HW217013   1.546   4.358   4.953 -2.5797 -1.0358  1.9242
 1851SOL     OW17014   0.494   2.311  14.044  0.3420 -0.1917 -0.0474
 1851SOL    HW117015   0.463   2.281  13.959  0.0230 -0.0702  0.0243
 1851SOL    HW217016   0.587   2.290  14.039  1.1732  2.4308  3.7762
 1852SOL     OW17017   0.853   2.532   7.240  0.2915 -0.3967 -0.1193
 1852SOL    HW117018   0.758   2.538   7.231 -0.1740 -2.1144  3.5958
 1852SOL    HW217019   0.867   2.622   7.210 -2.3052 -0.2157 -0.8098
 1853SOL     OW17020   2.916   0.106  15.308 -0.2295  0.2894  0.7130
 1853SOL    HW117021   2.834   0.153  15.294  0.8454  1.8088 -0.5297
 1853SOL    HW217022   2.923   0.061  15.223 -1.1449 -1.2782  1.4712
 1854SOL     OW17023   1.843   1.074  11.318  0.3820  0.1227  0.4708
 1854SOL    HW117024   1.755   1.064  11.353  0.0419 -1.8473 -0.9611
 1854SOL    HW217025   1.826   1.052  11.226 -1.1112 -0.6089  0.9343
 1855SOL     OW17026   1.753   1.600  14.280  0.5357  0.2987  0.1448
 1855SOL    HW117027   1.762   1.540  14.354 -0.0668 -1.8079 -1.4662
 1855SOL    HW217028   1.703   1.544  14.219 -0.5937  1.6901 -0.1979
 1856SOL     OW17029   4.272   4.717   4.322 -0.1031  0.1803 -0.3850
 1856SOL    HW117030   4.283   4.637   4.271  0.5845 -0.0502  0.1287
 1856SOL    HW217031   4.178   0.006   4.305 -0.4241  0.0154  1.2353
 1857SOL     OW17032   4.490   2.535   5.597  0.2856 -0.3388  0.1874
 1857SOL    HW117033   4.571   2.552   5.646  0.1191 -1.9115  0.9887
 1857SOL    HW217034   4.480   2.441   5.611  0.2393 -0.4707 -0.6753
 1858SOL     OW17035   3.733   4.020   6.911 -0.0141  0.5008  0.2461
 1858SOL    HW117036   3.820   3.991   6.936 -0.3302 -0.5275  0.1632
 1858SOL    HW217037   3.754   4.070   6.833  1.6903 -0.3579  0.1522
 1859SOL     OW17038   3.348   1.058  12.621 -0.1939 -0.1338 -0.2933
 1859SOL    HW117039   3.430   1.101  12.598  1.0278 -3.2682 -1.7805
 1859SOL    HW217040   3.289   1.130  12.598  1.2259  1.9611  2.7222
 1860SOL     OW17041   1.599   3.687  16.992  0.0046 -0.1462  0.7843
 1860SOL    HW117042   1.674   3.628  17.005  0.2899 -0.6516 -3.2007
 1860SOL    HW217043   1.616   3.709  16.901  0.2034  0.6496  1.0156
 1861SOL     OW17044   3.278   3.269   0.265 -0.2735 -0.0627  0.2061
 1861SOL    HW117045   3.203   3.251   0.322 -1.4915  0.4420 -1.2149
 1861SOL    HW217046   3.348   3.246   0.325  0.4137  0.5946 -0.3456
 1862SOL     OW17047   1.956   0.806   5.901  0.0861  0.3621 -0.1649
 1862SOL    HW117048   2.041   0.849   5.891 -0.3966  1.1904 -0.7194
 1862SOL    HW217049   1.944   0.760   5.818  2.1875  1.0014 -0.8419
 1863SOL     OW17050   3.326   4.337  17.554 -0.5678 -0.1084 -0.2411
 1863SOL    HW117051   3.383   4.265  17.581 -0.7289  0.0059  0.4007
 1863SOL    HW217052   3.391   4.408  17.550  0.5262 -0.9893  2.0669
 1864SOL     OW17053   4.449   4.505  10.486  0.2210  0.3299  0.0248
 1864SOL    HW117054   4.405   4.583  10.519 -1.6235 -0.8034  0.2431
 1864SOL    HW217055   4.449   4.446  10.562 -1.4313  1.8369  1.1992
 1865SOL     OW17056   0.884   0.921   2.530  0.4047  0.0192  0.1816
 1865SOL    HW117057   0.830   0.996   2.508  0.8850 -0.3072 -2.1514
 1865SOL    HW217058   0.971   0.959   2.520  0.1803  0.7572  1.0419
 1866SOL     OW17059   2.749   4.508   7.261  0.1609  0.4920 -0.5009
 1866SOL    HW117060   2.789   4.450   7.326 -3.1799  0.7718  1.7929
 1866SOL    HW217061   2.724   4.585   7.311  0.3194  0.0195  0.3049
 1867SOL     OW17062   1.336   3.830   1.884  0.0578 -0.3792  0.4559
 1867SOL    HW117063   1.264   3.885   1.916 -0.2045 -1.0875  1.0957
 1867SOL    HW217064   1.408   3.893   1.885  0.6899 -1.0836 -1.1618
 1868SOL     OW17065   0.750   4.670  14.587  0.6270  0.1188 -0.9361
 1868SOL    HW117066   0.669   4.621  14.575  0.8709 -0.8345  1.3979
 1868SOL    HW217067   0.722   0.029  14.633 -0.8276 -0.8872 -0.1013
 1869SOL     OW17068   1.560   0.086   6.979 -0.4279  0.2136 -0.2769
 1869SOL    HW117069   1.560   0.181   6.983  1.5740  0.2828 -1.6739
 1869SOL    HW217070   1.501   0.064   6.907 -0.3634 -1.0672  0.0548
 1870SOL     OW17071   1.968   2.295   7.146 -0.2496 -0.1012 -0.3344
 1870SOL    HW117072   1.874   2.309   7.157  0.0024  0.8550  0.5476
 1870SOL    HW217073   1.984   2.285   7.052 -0.1417  0.1906 -0.3468
 1871SOL     OW17074   1.851   1.737  10.677 -0.3392 -0.4596 -0.0359
 1871SOL    HW117075   1.913   1.752  10.748  0.8592 -2.0737 -0.7312
 1871SOL    HW217076   1.793   1.812  10.688 -0.4978 -0.2823 -2.0825
 1872SOL     OW17077   0.058   0.227   6.851 -0.2422  0.4054 -0.4152
 1872SOL    HW117078   0.011   0.300   6.810  1.4025  0.7792 -1.6518
 1872SOL    HW217079   0.023   0.165   6.787  2.3516 -0.4901 -0.9594
 1873SOL     OW17080   4.607   1.849   3.624 -0.1958  0.2939  0.3363
 1873SOL    HW117081   4.673   1.793   3.583  0.1248  0.5840  0.4542
 1873SOL    HW217082   4.574   1.787   3.689  2.6549  0.2747  1.7298
 1874SOL     OW17083   1.376   1.213   3.468  0.6363  0.2938  0.2159
 1874SOL    HW117084   1.302   1.259   3.429  1.5544  1.7211  0.1639
 1874SOL    HW217085   1.336   1.169   3.543  1.6235  1.3057  1.3484
 1875SOL     OW17086   2.620   0.745   3.176 -0.1848 -0.2052  0.2395
 1875SOL    HW117087   2.664   0.707   3.252 -0.7053 -3.4887 -1.0996
 1875SOL    HW217088   2.528   0.738   3.201 -0.0640 -1.5880  0.2945
 1876SOL     OW17089   3.013   0.128  13.819 -0.1980 -0.5333  0.6886
 1876SOL    HW117090   3.011   0.097  13.729 -1.5989 -1.6313  1.1038
 1876SOL    HW217091   3.100   0.094  13.844  0.5696 -1.0197 -2.7196
 1877SOL     OW17092   0.645   2.081   0.125  0.1710  0.2570 -0.0331
 1877SOL    HW117093   0.654   1.991   0.155  1.4992  0.9910  1.8490
 1877SOL    HW217094   0.711   2.122   0.182 -0.0921  0.7932 -0.1165
 1878SOL     OW17095   3.556   0.058   1.901  0.3467 -0.1218  0.2037
 1878SOL    HW117096   3.519   4.689   1.906 -1.0565  0.4707  0.0456
 1878SOL    HW217097   3.512   0.099   1.827 -0.5329  1.7302  1.7487
 1879SOL     OW17098   1.155   0.287   0.610  0.5456  0.1005 -0.3624
 1879SOL    HW117099   1.207   0.327   0.680  1.2952 -0.3886 -0.6345
 1879SOL    HW217100   1.069   0.275   0.650  0.5730  0.4990 -0.1860
 1880SOL     OW17101   2.760   2.992  13.156 -0.4758  0.0037  0.1296
 1880SOL    HW117102   2.757   3.086  13.172 -2.0946 -0.0462  0.1217
 1880SOL    HW217103   2.842   2.983  13.107 -0.9822 -1.1642 -0.5243
 1881SOL     OW17104   3.092   3.045   7.084 -0.3922 -0.4781  0.4520
 1881SOL    HW117105   3.087   3.141   7.075 -1.0379 -0.7044 -1.5201
 1881SOL    HW217106   3.183   3.037   7.112  0.5119  1.1395 -2.0518
 1882SOL     OW17107   0.484   1.682   4.298  0.1704  0.1843  0.0966
 1882SOL    HW117108   0.453   1.752   4.241 -0.3229 -1.2227 -1.3698
 1882SOL    HW217109   0.575   1.669   4.269 -0.8062 -0.2479 -2.8068
 1883SOL     OW17110   0.156   2.185  12.374  0.3952 -0.2373 -0.6137
 1883SOL    HW117111   0.069   2.172  12.336  0.0016 -1.2137  0.6011
 1883SOL    HW217112   0.179   2.273  12.346  0.2128  0.1078  0.3310
 1884SOL     OW17113   2.210   2.514   1.417  0.3768 -0.1839  0.1448
 1884SOL    HW117114   2.179   2.451   1.352 -2.5016 -0.1467  1.4866
 1884SOL    HW217115   2.135   2.507   1.477 -0.0667  0.3241 -0.3405
 1885SOL     OW17116   3.722   1.102  17.154  0.3345 -0.0357 -0.2257
 1885SOL    HW117117   3.782   1.028  17.143  0.2865 -0.0761 -0.2135
 1885SOL    HW217118   3.762   1.162  17.090  1.3925 -3.7263 -3.0038
 1886SOL     OW17119   3.723   1.944   5.873  0.1309 -0.8933  0.0781
 1886SOL    HW117120   3.776   1.875   5.912  0.3290 -1.0268 -0.4254
 1886SOL    HW217121   3.711   2.000   5.950 -0.9426 -2.2937  0.9284
 1887SOL     OW17122   0.185   4.415   3.102 -0.9324 -0.5607 -0.1959
 1887SOL    HW117123   0.218   4.326   3.117 -0.4821 -0.6361 -1.6486
 1887SOL    HW217124   0.182   4.420   3.006 -0.1019  2.8988 -0.0450
 1888SOL     OW17125   0.014   1.660   2.085 -0.2586  0.4583 -0.2230
 1888SOL    HW117126   4.653   1.711   2.077 -0.7521 -0.2101  0.4805
 1888SOL    HW217127   0.077   1.732   2.079  2.4850 -2.0243 -1.0125
 1889SOL     OW17128   4.123   1.407   3.572 -0.9783  0.3797  0.8853
 1889SOL    HW117129   4.055   1.342   3.556 -0.0764 -0.0745 -0.9850
 1889SOL    HW217130   4.077   1.471   3.628  0.2937  2.4598 -0.4580
 1890SOL     OW17131   0.694   3.270  11.355  0.3142 -0.0724 -0.6036
 1890SOL    HW117132   0.761   3.309  11.298  0.6649 -1.5924 -1.2333
 1890SOL    HW217133   0.752   3.235  11.423  0.8555  1.8484 -0.0916
 1891SOL     OW17134   2.426   2.909   8.110  0.2796  0.1799 -0.2606
 1891SOL    HW117135   2.485   2.889   8.183  1.0528 -1.5920 -1.3780
 1891SOL    HW217136   2.345   2.870   8.141  1.1130  1.7981  3.9322
 1892SOL     OW17137   2.930   0.283   5.130  0.2510 -0.7285 -0.3783
 1892SOL    HW117138   2.944   0.346   5.059  0.2169  2.0803  2.1509
 1892SOL    HW217139   2.872   0.227   5.078  0.6289  0.0269 -1.6225
 1893SOL     OW17140   1.344   2.392   3.490  0.2494 -0.1396 -0.3092
 1893SOL    HW117141   1.268   2.360   3.538  0.7151 -2.9025 -1.4352
 1893SOL    HW217142   1.346   2.482   3.524  0.7177 -0.7238  1.2059
 1894SOL     OW17143   2.325   2.996   7.684  0.0643 -0.2998  0.8209
 1894SOL    HW117144   2.237   3.008   7.719 -0.4519 -2.7524  0.3714
 1894SOL    HW217145   2.315   2.905   7.656  1.9050  0.1979 -1.4560
 1895SOL     OW17146   1.118   1.575   8.473 -0.6613  0.5311  0.1792
 1895SOL    HW117147   1.036   1.527   8.463 -2.2043  2.5941  2.5674
 1895SOL    HW217148   1.111   1.611   8.562  0.7547 -0.9411  0.8792
 1896SOL     OW17149   1.423   2.509   2.693  0.4617  0.1118  0.0126
 1896SOL    HW117150   1.386   2.500   2.781 -1.2179  0.1324 -0.6908
 1896SOL    HW217151   1.469   2.426   2.682 -1.8709 -1.4448  1.8345
 1897SOL     OW17152   3.277   4.296   8.434 -0.6690 -0.0464 -0.2907
 1897SOL    HW117153   3.184   4.307   8.415 -0.9371 -0.7071  0.6366
 1897SOL    HW217154   3.284   4.262   8.524 -0.2306  1.0332  0.0782
 1898SOL     OW17155   2.179   2.250   4.804  0.3167  0.1437 -0.7500
 1898SOL    HW117156   2.181   2.333   4.852 -1.0981 -0.2707  0.0370
 1898SOL    HW217157   2.134   2.278   4.724  1.8985  0.8336 -1.3841
 1899SOL     OW17158   0.914   4.680   6.776 -0.3991  0.6148  0.4264
 1899SOL    HW117159   0.897   4.586   6.782 -2.2431  0.9317  0.3014
 1899SOL    HW217160   0.830   0.001   6.755 -1.1710 -0.6339  1.1278
 1900SOL     OW17161   2.964   2.284   2.194  0.2918 -0.6888 -0.3368
 1900SOL    HW117162   2.972   2.212   2.131  1.1465 -0.2745 -0.6962
 1900SOL    HW217163   3.043   2.335   2.177  0.6296 -0.1543  2.8669
 1901SOL     OW17164   1.351   2.688   4.417 -0.0989  0.1022  0.2958
 1901SOL    HW117165   1.359   2.713   4.510  0.4645  1.4209 -0.0962
 1901SOL    HW217166   1.267   2.644   4.414  0.6975 -1.5522  2.5827
 1902SOL     OW17167   3.588   2.987  10.572 -0.6351  0.1940 -0.1689
 1902SOL    HW117168   3.673   2.954  10.543 -2.4840 -1.3620 -3.8337
 1902SOL    HW217169   3.535   2.915  10.537 -0.6545 -0.0890  0.4467
 1903SOL     OW17170   3.179   0.422  10.727 -0.2119 -0.3365 -0.1884
 1903SOL    HW117171   3.135   0.499  10.762  0.4904  0.1913 -0.4690
 1903SOL    HW217172   3.154   0.352  10.787  0.2799  0.8520  1.3843
 1904SOL     OW17173   2.721   0.131   8.677 -0.0753 -0.0391 -0.2316
 1904SOL    HW117174   2.705   0.047   8.721 -0.5027 -0.1296 -0.5598
 1904SOL    HW217175   2.785   0.099   8.614  0.8903 -1.6395  1.5400
 1905SOL     OW17176   1.433   4.461   0.216  0.3353  0.1277 -0.5207
 1905SOL    HW117177   1.360   4.414   0.177 -0.7637 -0.1236  1.8500
 1905SOL    HW217178   1.400   4.511   0.291  3.4503 -0.7831  1.4470
 1906SOL     OW17179   3.334   0.885   7.688 -0.3756  0.4947 -0.4948
 1906SOL    HW117180   3.330   0.926   7.775  0.5910 -0.3988 -0.0341
 1906SOL    HW217181   3.299   0.802   7.722  0.6702 -0.0567 -0.7946
 1907SOL     OW17182   0.478   1.336   3.477 -0.7295 -0.0548 -0.4870
 1907SOL    HW117183   0.427   1.300   3.550 -3.2703  1.4084 -1.5141
 1907SOL    HW217184   0.425   1.311   3.401  0.1510 -0.4131 -0.9765
 1908SOL     OW17185   1.266   2.401   8.789 -0.4561  0.0253 -0.1501
 1908SOL    HW117186   1.322   2.332   8.826  0.7759  1.4865  0.7110
 1908SOL    HW217187   1.230   2.433   8.871 -0.8450  0.2086 -0.3955
 1909SOL     OW17188   4.689   4.655   9.668  0.1011  0.1970 -0.0345
 1909SOL    HW117189   4.612   4.599   9.673  0.6150 -0.3038  2.5250
 1909SOL    HW217190   0.021   4.634   9.590 -1.5495  0.6469 -1.2241
 1910SOL     OW17191   2.008   0.213   6.002 -0.0363 -0.2350 -0.1968
 1910SOL    HW117192   2.055   0.296   6.011 -0.4573  0.0427 -0.5307
 1910SOL    HW217193   1.950   0.203   6.078 -0.3276  0.6019 -0.3059
 1911SOL     OW17194   0.711   1.312   5.688 -0.2514 -0.6423  0.1629
 1911SOL    HW117195   0.761   1.386   5.723  0.9680 -0.8367 -1.1725
 1911SOL    HW217196   0.652   1.344   5.619 -0.8406 -0.9184  0.5419
 1912SOL     OW17197   2.222   4.320  12.299  0.2089  0.2781  0.2167
 1912SOL    HW117198   2.289   4.281  12.244  1.2331 -1.9442  3.0335
 1912SOL    HW217199   2.203   4.399  12.248 -1.0207 -0.6183 -0.7281
 1913SOL     OW17200   2.430   1.180   9.226  0.0866 -0.3481 -0.0484
 1913SOL    HW117201   2.466   1.144   9.145  2.4771  3.2752 -0.6150
 1913SOL    HW217202   2.492   1.253   9.238  0.2772 -0.5819  0.4071
 1914SOL     OW17203   4.641   1.344   8.317 -0.0631 -0.4861 -0.3286
 1914SOL    HW117204   4.716   1.394   8.285  0.1004 -0.6269 -0.1678
 1914SOL    HW217205   4.579   1.413   8.343 -1.0797 -1.8501  0.8334
 1915SOL     OW17206   0.390   0.424   5.282  0.7797 -0.2758  0.3105
 1915SOL    HW117207   0.323   0.415   5.214 -0.0594  1.8807  0.8453
 1915SOL    HW217208   0.386   0.340   5.326 -1.0535  0.5586  1.7512
 1916SOL     OW17209   0.195   2.790  17.511  0.0322  0.1956 -0.1039
 1916SOL    HW117210   0.290   2.791  17.499  0.1238 -0.0097  0.6150
 1916SOL    HW217211   0.184   2.780  17.606  0.6747  0.7510  0.0260
 1917SOL     OW17212   1.435   1.705   4.976 -0.1289  0.4970 -0.6613
 1917SOL    HW117213   1.383   1.699   4.895 -1.7946 -1.1635  0.5309
 1917SOL    HW217214   1.439   1.610   4.990 -1.5068  0.4295 -0.7047
 1918SOL     OW17215   2.092   3.673   3.024  0.4065  0.2750 -0.6111
 1918SOL    HW117216   2.021   3.640   3.078  0.8812  1.4246  0.7065
 1918SOL    HW217217   2.155   3.706   3.088 -1.7889  1.7288  0.7784
 1919SOL     OW17218   0.280   0.249   2.838 -0.1558  0.2071  0.4331
 1919SOL    HW117219   0.339   0.219   2.907  0.7499 -1.0214 -0.8588
 1919SOL    HW217220   0.345   0.227   2.770  0.7314  1.2506  0.9320
 1920SOL     OW17221   0.060   3.193   9.077 -0.0559  0.2444  0.4009
 1920SOL    HW117222   0.114   3.124   9.117  0.2029  0.5302  0.5567
 1920SOL    HW217223   0.005   3.146   9.015 -0.5710 -1.1396  1.9218
 1921SOL     OW17224   3.421   4.477   0.854 -0.1190  0.2179  0.8616
 1921SOL    HW117225   3.370   4.474   0.935  0.7716 -1.4864  1.3668
 1921SOL    HW217226   3.486   4.537   0.889 -0.3669  0.7610  0.3847
 1922SOL     OW17227   3.328   1.687   4.494 -0.6524 -0.1374  0.2935
 1922SOL    HW117228   3.385   1.654   4.563 -1.3583  2.7540  2.2090
 1922SOL    HW217229   3.243   1.679   4.535 -0.4138 -1.3314  0.5540
 1923SOL     OW17230   1.941   3.581   6.194  0.4035 -0.0257 -0.4464
 1923SOL    HW117231   1.941   3.602   6.287  1.6615  3.4752 -1.2298
 1923SOL    HW217232   2.036   3.580   6.184  0.3697  0.7959 -0.8615
 1924SOL     OW17233   1.950   1.571   7.507  0.0043 -0.8008 -0.5367
 1924SOL    HW117234   2.014   1.640   7.490 -1.7599  0.9921  0.1988
 1924SOL    HW217235   1.872   1.605   7.464  0.7214  0.5067 -0.8285
 1925SOL     OW17236   1.694   1.807  12.917 -0.2102 -0.2001 -0.0323
 1925SOL    HW117237   1.719   1.722  12.881 -0.3664 -0.5834  0.7738
 1925SOL    HW217238   1.614   1.785  12.964 -0.7216 -0.8626 -1.2263
 1926SOL     OW17239   1.085   4.451   8.960  0.1306 -0.2051 -0.3991
 1926SOL    HW117240   1.012   4.414   8.910  0.5028  0.3094 -1.3336
 1926SOL    HW217241   1.107   4.376   9.015 -0.1514  0.2880  0.3808
 1927SOL     OW17242   1.164   0.932   8.742 -0.9204 -0.7711 -0.0343
 1927SOL    HW117243   1.073   0.909   8.762 -0.8972 -0.9278 -0.1082
 1927SOL    HW217244   1.185   0.895   8.657 -0.5760 -0.2126 -0.1906
 1928SOL     OW17245   0.964   4.412  14.720  0.3587 -1.1889 -0.0851
 1928SOL    HW117246   0.870   4.417  14.738  0.6842 -0.0275  1.2930
 1928SOL    HW217247   0.985   4.326  14.755  2.4382 -0.7922 -0.3132
 1929SOL     OW17248   3.206   1.685   9.568  0.1132  0.0247  0.2313
 1929SOL    HW117249   3.123   1.711   9.608  1.3170  0.4345  2.4640
 1929SOL    HW217250   3.199   1.745   9.493  0.3967 -1.9386 -1.3883
 1930SOL     OW17251   2.557   3.194   9.099  0.0314 -0.3508  0.1054
 1930SOL    HW117252   2.632   3.164   9.151  0.0780 -2.8919 -1.3986
 1930SOL    HW217253   2.520   3.254   9.163 -2.4996 -3.4005  1.5472
 1931SOL     OW17254   4.133   4.610   6.278  0.0515  0.3717  0.0287
 1931SOL    HW117255   4.071   4.570   6.218 -0.1050 -0.2899  0.6363
 1931SOL    HW217256   4.171   4.679   6.224  0.5769  0.5022  0.5652
 1932SOL     OW17257   0.316   1.271   5.049 -0.0420  0.2173 -0.1610
 1932SOL    HW117258   0.373   1.195   5.052 -2.9145 -1.9472  0.0207
 1932SOL    HW217259   0.271   1.264   4.965  1.2638 -0.2240 -0.8214
 1933SOL     OW17260   4.500   1.898   4.669  0.1669  0.2623  0.2784
 1933SOL    HW117261   4.495   1.804   4.686  1.1019  0.2780  0.6353
 1933SOL    HW217262   4.543   1.902   4.583  2.1104 -0.6779  1.2013
 1934SOL     OW17263   0.943   2.254   4.009  0.7014 -0.3621 -0.3443
 1934SOL    HW117264   0.955   2.162   3.984  1.0427 -0.4595  0.1705
 1934SOL    HW217265   1.005   2.261   4.081  0.3041  0.2942 -0.0679
 1935SOL     OW17266   0.571   4.019   5.582  0.2124 -0.1890  0.3231
 1935SOL    HW117267   0.527   4.103   5.579  2.7051  1.0574 -1.1038
 1935SOL    HW217268   0.507   3.950   5.564 -0.9155  0.5099  1.7139
 1936SOL     OW17269   0.760   3.180   7.427  0.1328 -0.3390 -0.2735
 1936SOL    HW117270   0.775   3.165   7.521 -1.9335  0.0335  0.1157
 1936SOL    HW217271   0.676   3.222   7.443 -0.2910 -0.8492 -1.2277
 1937SOL     OW17272   3.305   0.662   7.410 -0.1126 -0.5059  0.0106
 1937SOL    HW117273   3.400   0.660   7.395 -0.2874  0.5753 -1.2914
 1937SOL    HW217274   3.285   0.574   7.441  1.4156 -0.9589 -0.2724
 1938SOL     OW17275   1.789   2.931   8.618 -0.2301 -0.2113 -0.2535
 1938SOL    HW117276   1.726   2.929   8.546 -0.0281  0.7115 -0.4548
 1938SOL    HW217277   1.853   2.863   8.596 -0.8585 -1.0703  0.5988
 1939SOL     OW17278   2.725   1.046   5.531 -0.7855  0.0772 -0.3636
 1939SOL    HW117279   2.820   1.043   5.523 -0.9363  1.7417 -2.8155
 1939SOL    HW217280   2.730   1.027   5.624 -1.9410  0.0198 -0.3066
 1940SOL     OW17281   1.611   0.341   0.252 -0.1992 -0.6684  0.0209
 1940SOL    HW117282   1.539   0.279   0.263 -0.9009  0.6255  2.8259
 1940SOL    HW217283   1.660   0.279   0.199 -2.0188 -1.4885 -0.7210
 1941SOL     OW17284   4.294   3.638   3.111  0.4099 -0.2676 -0.1130
 1941SOL    HW117285   4.288   3.692   3.033 -1.0564 -2.8091 -1.7706
 1941SOL    HW217286   4.329   3.558   3.071  0.6480  0.1225 -0.6662
 1942SOL     OW17287   2.464   4.067   9.837 -0.0452  0.5132  0.8744
 1942SOL    HW117288   2.421   4.152   9.839  0.0013  0.4926  2.8913
 1942SOL    HW217289   2.410   4.016   9.776  0.5834  0.6770  0.1763
 1943SOL     OW17290   1.732   1.098   1.821  0.9792 -0.3756  0.3323
 1943SOL    HW117291   1.721   1.123   1.913  0.9074 -0.2305  0.2847
 1943SOL    HW217292   1.775   1.177   1.787 -0.7380  0.6799  0.6369
 1944SOL     OW17293   0.496   3.233  14.782  0.4436  0.4770 -0.1097
 1944SOL    HW117294   0.511   3.251  14.875 -0.7834 -3.5147  0.8851
 1944SOL    HW217295   0.585   3.223  14.749  0.1783 -2.9726  0.1674
 1945SOL     OW17296   1.368   0.931  10.393 -0.1875  0.0384  0.0303
 1945SOL    HW117297   1.356   0.837  10.410 -0.3352 -0.3052 -1.9514
 1945SOL    HW217298   1.393   0.929  10.300  0.4196 -3.4507  0.2497
 1946SOL     OW17299   1.588   3.915  17.126 -0.1269  0.2333 -0.1905
 1946SOL    HW117300   1.519   3.957  17.074 -1.3573 -0.1914  1.0866
 1946SOL    HW217301   1.594   3.832  17.079  1.7778  1.1037 -1.4518
 1947SOL     OW17302   1.857   2.632   3.723  0.6762 -0.0408  0.2579
 1947SOL    HW117303   1.827   2.670   3.805 -0.0899  1.5224 -0.7307
 1947SOL    HW217304   1.946   2.663   3.705  0.3501  1.3523  1.0453
 1948SOL     OW17305   2.692   2.581   7.036 -0.3638  0.1998  0.4829
 1948SOL    HW117306   2.676   2.664   6.991 -0.1753 -0.1539 -0.2335
 1948SOL    HW217307   2.736   2.599   7.119  0.5729  0.9546 -0.1745
 1949SOL     OW17308   4.634   1.864  12.432 -0.3886  0.3500  0.7575
 1949SOL    HW117309   4.553   1.814  12.444  0.1157 -0.2398  1.6577
 1949SOL    HW217310   4.616   1.907  12.349  2.8968  1.9918  0.8970
 1950SOL     OW17311   0.584   2.309  15.564  0.1613  0.3119  0.2643
 1950SOL    HW117312   0.617   2.333  15.477 -0.3691  0.3929  0.0884
 1950SOL    HW217313   0.505   2.361  15.576  2.0885  2.8203  2.1829
 1951SOL     OW17314   1.362   4.632   2.816  0.4168  0.1113 -0.5260
 1951SOL    HW117315   1.433   4.584   2.859 -0.9672  0.3925  2.0245
 1951SOL    HW217316   1.407   4.717   2.813 -0.6607  0.7027  0.3973
 1952SOL     OW17317   3.485   1.479   2.745  0.3844 -0.1227  0.0218
 1952SOL    HW117318   3.414   1.542   2.751  0.1640 -0.3918  0.2733
 1952SOL    HW217319   3.517   1.454   2.659 -3.7552 -1.0274 -1.2843
 1953SOL     OW17320   3.482   0.987   2.166  0.0935 -0.3020 -0.5909
 1953SOL    HW117321   3.570   0.955   2.143  1.2018  4.1358 -2.5916
 1953SOL    HW217322   3.437   0.961   2.085  0.0914  0.5851 -0.8723
 1954SOL     OW17323   2.989   4.218  11.680 -0.0727 -0.7639 -0.2419
 1954SOL    HW117324   2.936   4.205  11.758 -0.5384 -2.5924 -0.8741
 1954SOL    HW217325   2.946   4.297  11.645  0.7466  0.1172  0.7341
 1955SOL     OW17326   3.839   2.509   9.786 -0.7253 -0.5567  0.2788
 1955SOL    HW117327   3.829   2.559   9.705  2.5417 -0.4010 -0.0382
 1955SOL    HW217328   3.853   2.420   9.754 -1.9483 -0.6334 -0.0263
 1956SOL     OW17329   3.799   0.569   2.263 -0.2384  0.4067  0.6730
 1956SOL    HW117330   3.820   0.631   2.194  0.1351 -0.2011  0.2380
 1956SOL    HW217331   3.812   0.478   2.235 -3.1809  0.5784 -1.2981
 1957SOL     OW17332   2.211   1.982   3.549  0.0621 -0.3097  0.0292
 1957SOL    HW117333   2.250   2.027   3.474  2.5667 -2.2675  0.1731
 1957SOL    HW217334   2.274   1.997   3.620  0.2726  1.1024 -0.4523
 1958SOL     OW17335   1.422   1.979  12.986 -0.1868 -0.2517 -0.6295
 1958SOL    HW117336   1.500   2.026  13.014 -1.0415 -0.0097  1.3440
 1958SOL    HW217337   1.433   1.892  13.025  0.3705  0.3045  0.4551
 1959SOL     OW17338   3.870   1.143   5.061 -0.1969 -0.5084 -0.2283
 1959SOL    HW117339   3.936   1.074   5.054 -1.1428 -1.1557 -2.7398
 1959SOL    HW217340   3.899   1.192   4.984 -2.1151  2.1470  0.7517
 1960SOL     OW17341   3.490   1.297   8.498 -0.0816 -0.2372  0.2826
 1960SOL    HW117342   3.427   1.229   8.471 -0.2714  0.0861 -0.0872
 1960SOL    HW217343   3.435   1.346   8.559  0.7151  1.4193 -0.3407
 1961SOL     OW17344   0.700   3.868   7.726 -0.3725  0.3844 -0.0020
 1961SOL    HW117345   0.654   3.798   7.772 -1.8802  0.1798 -1.8007
 1961SOL    HW217346   0.630   3.917   7.682  1.0337  1.6283 -0.8870
 1962SOL     OW17347   1.005   1.177   9.007  0.3769  0.6479 -0.4526
 1962SOL    HW117348   1.061   1.253   8.991 -1.3585  1.8477 -0.8233
 1962SOL    HW217349   1.009   1.120   8.930  1.0228 -0.5255  0.4434
 1963SOL     OW17350   3.877   1.326   4.377 -0.1141  0.4205  0.3289
 1963SOL    HW117351   3.870   1.410   4.422 -0.6114  0.0735  0.9005
 1963SOL    HW217352   3.956   1.286   4.413 -0.4179  1.5092  2.2105
 1964SOL     OW17353   1.167   0.893   3.275 -0.5428  0.1920  0.0567
 1964SOL    HW117354   1.258   0.871   3.292 -0.7195 -0.2217  0.4765
 1964SOL    HW217355   1.185   0.981   3.241  0.1884  0.4293  1.0788
 1965SOL     OW17356   1.843   2.790   9.492 -0.7014  0.1828  0.4513
 1965SOL    HW117357   1.843   2.798   9.587  0.2523 -0.9272  0.5368
 1965SOL    HW217358   1.838   2.885   9.483  3.7943  0.3867  0.1714
 1966SOL     OW17359   3.988   0.106   4.282 -0.1682 -0.5472 -0.0401
 1966SOL    HW117360   3.959   0.016   4.267  0.1059 -0.8547  1.3340
 1966SOL    HW217361   3.990   0.130   4.189  2.7307  1.0886  0.4370
 1967SOL     OW17362   4.335   2.388   6.506 -0.8293 -0.0922 -0.1425
 1967SOL    HW117363   4.372   2.302   6.526 -2.8564 -1.2774 -1.5083
 1967SOL    HW217364   4.308   2.374   6.415 -1.7092 -2.2587  0.4487
 1968SOL     OW17365   3.841   0.376   7.039 -0.0138 -0.3192 -0.1761
 1968SOL    HW117366   3.784   0.327   7.098  1.3986 -1.8704 -0.0934
 1968SOL    HW217367   3.930   0.342   7.053  0.2518  0.4191 -0.0943
 1969SOL     OW17368   4.155   1.179   3.916 -0.1101  0.0503  0.5967
 1969SOL    HW117369   4.081   1.230   3.884 -0.5940 -1.0487 -0.0185
 1969SOL    HW217370   4.231   1.237   3.906 -0.3063  0.0661 -0.7417
 1970SOL     OW17371   3.497   4.448   9.801 -0.1616  0.2030 -0.2618
 1970SOL    HW117372   3.548   4.450   9.882  0.7618 -1.9775 -0.7779
 1970SOL    HW217373   3.539   4.515   9.747 -0.2178 -0.0345 -0.5991
 1971SOL     OW17374   1.977   4.143   5.346 -0.3878  0.1947 -0.3380
 1971SOL    HW117375   2.071   4.157   5.336 -0.4335  0.7885  0.0673
 1971SOL    HW217376   1.977   4.093   5.428 -0.6173 -1.1727 -1.1631
 1972SOL     OW17377   3.457   2.798   2.724 -0.7359 -0.5333  0.1665
 1972SOL    HW117378   3.428   2.753   2.644  0.0572 -0.0793 -0.3722
 1972SOL    HW217379   3.542   2.834   2.697  0.3525 -3.3822 -0.2394
 1973SOL     OW17380   4.640   2.284   8.364  0.1943 -0.2258  0.1513
 1973SOL    HW117381   4.632   2.197   8.404 -0.6807 -0.8081 -1.3033
 1973SOL    HW217382   4.702   2.324   8.425 -0.8847  0.9765  0.4532
 1974SOL     OW17383   3.864   0.788   0.040  0.2818 -0.5977 -0.2583
 1974SOL    HW117384   3.891   0.797  17.629  0.8481  1.6270  0.1446
 1974SOL    HW217385   3.819   0.872   0.049 -1.7255 -1.7922  0.8645
 1975SOL     OW17386   4.054   0.824  11.105 -0.8818 -0.0176 -0.0408
 1975SOL    HW117387   4.054   0.839  11.010 -0.0454 -0.5046 -0.1234
 1975SOL    HW217388   3.970   0.781  11.121 -0.9895 -0.9631 -3.0650
 1976SOL     OW17389   3.190   0.686   8.037 -0.3629  0.5661 -0.5301
 1976SOL    HW117390   3.253   0.631   8.084 -2.0111 -0.0059  1.0452
 1976SOL    HW217391   3.200   0.664   7.945 -0.5258 -0.5228 -0.2837
 1977SOL     OW17392   1.115   4.580   1.124  0.2290  0.3039 -0.1379
 1977SOL    HW117393   1.063   4.626   1.059  0.0470  0.3520  0.0401
 1977SOL    HW217394   1.066   4.499   1.138  0.2411 -0.0237 -1.9850
 1978SOL     OW17395   0.527   0.327  14.370 -0.1948  0.3930  0.0089
 1978SOL    HW117396   0.578   0.372  14.437 -0.1504  0.9448 -0.3916
 1978SOL    HW217397   0.440   0.336  14.410 -0.3448  0.8554 -0.4216
 1979SOL     OW17398   3.737   0.886   5.484  0.0614 -0.4369 -0.0588
 1979SOL    HW117399   3.721   0.949   5.414 -1.2580 -0.3820  0.3006
 1979SOL    HW217400   3.765   0.942   5.557 -0.9027  1.5054 -1.1704
 1980SOL     OW17401   3.100   2.706   2.252  0.2583 -0.6699  0.3739
 1980SOL    HW117402   3.008   2.720   2.232  0.0338 -1.0427  1.1249
 1980SOL    HW217403   3.144   2.785   2.221  0.4812 -0.9588 -0.0405
 1981SOL     OW17404   0.832   0.974  10.707  0.5922 -0.0992  0.9785
 1981SOL    HW117405   0.922   0.975  10.741  0.1125 -0.4307  2.2550
 1981SOL    HW217406   0.804   0.883  10.720 -0.6021 -0.0227 -1.1479
 1982SOL     OW17407   0.881   2.024   9.786 -0.5143 -0.1644  0.4267
 1982SOL    HW117408   0.834   1.943   9.772  2.4355 -1.5489 -1.3786
 1982SOL    HW217409   0.821   2.080   9.737  0.6041  0.8497  0.1925
 1983SOL     OW17410   3.846   0.222   3.247 -0.2698  0.5139  0.6135
 1983SOL    HW117411   3.923   0.166   3.258  0.4284  1.7145  1.8925
 1983SOL    HW217412   3.844   0.240   3.152 -1.1216  1.4249  0.8060
 1984SOL     OW17413   1.823   1.351   5.469  0.7456 -0.5958 -0.8819
 1984SOL    HW117414   1.853   1.442   5.464 -0.4239 -0.0185  2.3243
 1984SOL    HW217415   1.776   1.357   5.552 -0.8100  2.1388 -1.9815
 1985SOL     OW17416   2.511   3.086   5.952  0.1693 -0.2134  0.2858
 1985SOL    HW117417   2.516   3.180   5.937  0.4976 -0.1613  0.7265
 1985SOL    HW217418   2.447   3.092   6.023 -0.4733 -0.1033 -0.3028
 1986SOL     OW17419   2.750   0.433  11.589  0.1468  0.2553  0.4176
 1986SOL    HW117420   2.833   0.458  11.629  1.2963 -2.1883 -0.4721
 1986SOL    HW217421   2.696   0.512  11.597  0.0792 -0.0785  2.9959
 1987SOL     OW17422   2.244   3.787   2.463  0.1546  0.0222 -0.1310
 1987SOL    HW117423   2.164   3.757   2.421 -0.7798  0.7144  1.1350
 1987SOL    HW217424   2.236   3.883   2.459 -1.1849  0.0386  2.7654
 1988SOL     OW17425   4.463   1.305  14.718  0.1719 -0.2077  0.2795
 1988SOL    HW117426   4.494   1.246  14.786 -1.1979  0.0689  1.1457
 1988SOL    HW217427   4.505   1.384  14.752  1.4595 -0.4692 -0.6991
 1989SOL     OW17428   3.319   1.434   1.071  0.4985 -0.2692 -0.5969
 1989SOL    HW117429   3.248   1.429   1.008 -0.2326  0.8333  0.1380
 1989SOL    HW217430   3.272   1.392   1.144  1.6620  2.1703  1.5679
 1990SOL     OW17431   4.578   4.676   4.334  0.2888 -0.2967  0.4720
 1990SOL    HW117432   4.595   4.634   4.418  2.4723 -0.1703  0.0945
 1990SOL    HW217433   4.484   4.683   4.350  0.4068  0.5621  0.8157
 1991SOL     OW17434   1.494   3.858   8.453 -0.3815 -0.0497 -0.0138
 1991SOL    HW117435   1.557   3.903   8.509 -2.3495  0.2831  1.9293
 1991SOL    HW217436   1.418   3.884   8.505  0.0226 -0.7534  0.9114
 1992SOL     OW17437   0.132   1.753   4.176  0.0588  0.0392 -0.4673
 1992SOL    HW117438   0.069   1.792   4.115 -1.3083  1.6221  1.9602
 1992SOL    HW217439   0.215   1.770   4.133 -0.3836  0.9257 -0.9661
 1993SOL     OW17440   1.293   3.930   0.437  0.6405  0.6917  0.1254
 1993SOL    HW117441   1.267   3.889   0.354  0.9917 -2.4778  1.6006
 1993SOL    HW217442   1.263   3.873   0.508  1.2609 -0.6875 -0.7257
 1994SOL     OW17443   2.442   3.736  14.850  0.1260 -0.2347 -0.2422
 1994SOL    HW117444   2.455   3.831  14.848 -0.7741 -0.1872 -2.8721
 1994SOL    HW217445   2.366   3.742  14.792 -1.7599 -2.6180  1.9472
 1995SOL     OW17446   0.711   0.891  11.938  0.3073 -0.0713 -0.3591
 1995SOL    HW117447   0.716   0.969  11.992 -1.1401  0.7984 -1.4586
 1995SOL    HW217448   0.801   0.859  11.948 -0.2962 -2.3217 -2.0913
 1996SOL     OW17449   1.172   4.579   1.614  0.4849 -0.1380 -0.2299
 1996SOL    HW117450   1.126   4.661   1.598 -0.8517 -0.5429  1.6192
 1996SOL    HW217451   1.182   4.581   1.709  0.7506  0.0035 -0.2616
 1997SOL     OW17452   2.832   3.100   3.839 -0.6410 -0.4800 -0.0890
 1997SOL    HW117453   2.882   3.034   3.790  1.6379  1.4033 -0.3177
 1997SOL    HW217454   2.778   3.145   3.774  0.4992 -2.7380 -2.5723
 1998SOL     OW17455   2.028   1.236   7.004  0.0439  0.1482 -0.4476
 1998SOL    HW117456   2.044   1.327   6.977 -1.6134  0.8528  0.8744
 1998SOL    HW217457   2.090   1.235   7.077 -0.8824  1.4284  0.3746
 1999SOL     OW17458   1.005   4.245   3.348 -0.2992 -0.1328  0.0571
 1999SOL    HW117459   1.051   4.297   3.282 -2.1757  0.2338 -0.9415
 1999SOL    HW217460   1.064   4.263   3.422 -1.6407  0.3034  1.0291
 2000SOL     OW17461   2.415   3.074  14.507 -0.7243 -0.2635  0.0628
 2000SOL    HW117462   2.482   3.026  14.457  0.1917  1.3886 -0.2760
 2000SOL    HW217463   2.472   3.116  14.571 -2.4303 -1.0769  2.1192
 2001SOL     OW17464   0.305   2.969   4.589  0.3136  0.7858 -0.9793
 2001SOL    HW117465   0.213   2.994   4.583 -0.0776 -0.3122  0.3152
 2001SOL    HW217466   0.344   3.001   4.508 -1.8362  2.1193 -1.4871
 2002SOL     OW17467   4.229   3.433  11.977 -0.0576  0.6538 -0.0727
 2002SOL    HW117468   4.227   3.339  11.997  0.4302  1.0456  1.7485
 2002SOL    HW217469   4.181   3.435  11.894 -0.2018 -0.6267 -0.0235
 2003SOL     OW17470   1.606   3.703  12.306 -0.0050 -0.3294  0.0671
 2003SOL    HW117471   1.566   3.761  12.241  2.4564  1.7448  0.4203
 2003SOL    HW217472   1.603   3.752  12.388  1.7257 -0.9412  0.4987
 2004SOL     OW17473   0.901   3.864   4.562  0.0791  0.3656 -0.4131
 2004SOL    HW117474   0.816   3.846   4.600 -0.5717 -0.5452 -2.2855
 2004SOL    HW217475   0.893   3.940   4.504  3.1279 -0.5636 -2.0525
 2005SOL     OW17476   1.735   1.645   3.330  0.0736  0.5421 -0.2076
 2005SOL    HW117477   1.725   1.555   3.361  0.6363  0.2870 -0.7538
 2005SOL    HW217478   1.767   1.698   3.403 -1.1870 -0.6662  1.2129
 2006SOL     OW17479   1.617   0.018   1.778  0.0529  1.0072  0.3556
 2006SOL    HW117480   1.523   0.035   1.769  0.0038 -0.2457 -1.5179
 2006SOL    HW217481   1.659   0.104   1.770 -0.3977  1.2057  0.1259
 2007SOL     OW17482   2.382   0.849   4.265 -0.1074 -0.3500 -0.7971
 2007SOL    HW117483   2.475   0.871   4.269 -0.4300  0.6793  0.9233
 2007SOL    HW217484   2.374   0.755   4.245  0.5822 -0.7967  1.0371
 2008SOL     OW17485   3.262   1.257   5.528  0.3045 -0.3211 -0.0932
 2008SOL    HW117486   3.278   1.281   5.436  3.2305 -1.3008  0.1339
 2008SOL    HW217487   3.307   1.172   5.525  1.9937  0.5674 -0.1927
 2009SOL     OW17488   2.263   2.873   8.729 -0.2191 -0.1653  0.5711
 2009SOL    HW117489   2.284   2.966   8.723 -1.2303  0.0336  0.1331
 2009SOL    HW217490   2.170   2.870   8.753 -1.0642 -0.2593 -2.7740
 2010SOL     OW17491   0.339   3.938  13.508 -0.0234  0.9259  0.3631
 2010SOL    HW117492   0.434   3.951  13.514 -0.3535  2.9157  1.5063
 2010SOL    HW217493   0.317   4.027  13.481 -3.5676 -0.6578 -2.0418
 2011SOL     OW17494   1.978   4.160  12.274  0.1784 -0.6667  0.0250
 2011SOL    HW117495   2.034   4.117  12.209 -1.5586 -2.7569 -0.0897
 2011SOL    HW217496   2.052   4.209  12.312  1.6966 -2.8455 -0.1029
 2012SOL     OW17497   1.185   2.733   8.897 -0.6048  0.2458 -0.5352
 2012SOL    HW117498   1.239   2.807   8.871 -1.3918  0.6291 -1.0737
 2012SOL    HW217499   1.139   2.715   8.815 -0.0571 -1.4195 -0.4799
 2013SOL     OW17500   0.527   1.459   1.990 -0.1059 -0.1960 -0.0420
 2013SOL    HW117501   0.471   1.488   1.917 -0.8220  0.2930  0.7049
 2013SOL    HW217502   0.466   1.411   2.046  0.9480 -2.2771 -0.6700
 2014SOL     OW17503   0.272   1.700   8.969  0.5502 -0.7422  0.0790
 2014SOL    HW117504   0.299   1.621   8.921 -0.7162 -0.9413 -0.2932
 2014SOL    HW217505   0.284   1.761   8.896  1.1356 -0.4016  0.4609
 2015SOL     OW17506   2.706   3.130   4.907  0.1578 -0.3696 -0.7289
 2015SOL    HW117507   2.680   3.222   4.912 -1.1154 -0.7616 -0.0647
 2015SOL    HW217508   2.624   3.091   4.938 -0.1744  1.5130  0.7857
 2016SOL     OW17509   1.570   3.686   6.054 -0.2289 -0.2282  0.1203
 2016SOL    HW117510   1.575   3.720   5.965 -1.2862  0.6509  0.3926
 2016SOL    HW217511   1.486   3.639   6.054 -0.4475  0.1685  0.0578
 2017SOL     OW17512   1.949   2.284   3.118  0.2482  0.0630  0.3537
 2017SOL    HW117513   1.931   2.238   3.200 -1.0423  0.7349  0.4582
 2017SOL    HW217514   1.931   2.216   3.054 -1.7218  0.9352 -0.0162
 2018SOL     OW17515   4.274   2.356  16.272  0.0696  0.4427  0.0601
 2018SOL    HW117516   4.345   2.395  16.323  0.9032 -1.1462  0.0812
 2018SOL    HW217517   4.274   2.400  16.187  1.1711  0.5786  0.1385
 2019SOL     OW17518   3.887   4.426   5.753 -0.0227 -0.3987  0.2871
 2019SOL    HW117519   3.811   4.399   5.703  1.2511 -0.9652 -1.3419
 2019SOL    HW217520   3.853   4.498   5.805  2.6324  0.5907  0.6763
 2020SOL     OW17521   1.972   1.250   7.288  0.6812  0.4218 -0.3623
 2020SOL    HW117522   2.022   1.325   7.320  0.2086  1.6135 -2.4212
 2020SOL    HW217523   1.915   1.284   7.218 -0.5664  0.4010  0.6546
 2021SOL     OW17524   4.286   1.307   5.719 -0.0613 -0.6359  0.3656
 2021SOL    HW117525   4.215   1.356   5.677  0.1359 -0.8287 -0.1948
 2021SOL    HW217526   4.366   1.347   5.686 -0.0090  0.0500  1.3211
 2022SOL     OW17527   4.467   2.281   5.617  0.5987 -0.4485 -0.1413
 2022SOL    HW117528   4.539   2.224   5.590  0.4474 -0.9314  0.4894
 2022SOL    HW217529   4.410   2.263   5.543  0.0493  1.0969 -0.1003
 2023SOL     OW17530   2.438   4.220  12.105  0.3861  0.3678  0.1350
 2023SOL    HW117531   2.413   4.158  12.037  0.4135 -1.3461  1.6762
 2023SOL    HW217532   2.517   4.174  12.132 -1.1226 -2.3985 -0.1320
 2024SOL     OW17533   0.226   1.658   7.964 -0.3597  0.1692  0.0278
 2024SOL    HW117534   0.318   1.653   7.938 -0.0211 -1.5837  1.6003
 2024SOL    HW217535   0.199   1.745   7.933  1.1372  0.4652 -0.4532
 2025SOL     OW17536   2.927   3.806  17.063  0.0615  0.7790 -0.2675
 2025SOL    HW117537   2.937   3.773  16.974 -1.7813 -2.7832  0.8199
 2025SOL    HW217538   2.997   3.764  17.113 -0.0173  1.1153  0.1187
 2026SOL     OW17539   4.221   2.368   3.211 -0.1716 -0.5790 -0.3534
 2026SOL    HW117540   4.147   2.307   3.210 -0.2020 -0.5290 -0.8950
 2026SOL    HW217541   4.258   2.342   3.127  0.8454 -1.2130  0.2822
 2027SOL     OW17542   2.962   1.013  13.079 -0.5398  0.0907  0.0824
 2027SOL    HW117543   3.038   0.963  13.048 -0.9325 -1.1572  1.1287
 2027SOL    HW217544   2.971   1.013  13.174  0.1664  0.8784  0.0133
 2028SOL     OW17545   2.405   3.892  15.842 -0.0722  0.3381 -0.2601
 2028SOL    HW117546   2.346   3.909  15.769  1.4871  1.7615 -1.1979
 2028SOL    HW217547   2.390   3.970  15.896 -1.7820  0.0919 -0.3794
 2029SOL     OW17548   2.629   2.826   1.174 -0.4151  0.1309  0.1682
 2029SOL    HW117549   2.724   2.836   1.184 -0.4942  2.2666 -1.1240
 2029SOL    HW217550   2.634   2.778   1.092  0.2782  0.7622 -0.1588
 2030SOL     OW17551   2.480   4.214   1.212  0.5212 -0.0881  0.3368
 2030SOL    HW117552   2.534   4.135   1.202  0.0871 -0.4021  0.4506
 2030SOL    HW217553   2.490   4.240   1.303 -0.5860  0.9423  0.1546
 2031SOL     OW17554   2.274   1.251   5.360 -0.0399  0.7768  0.1035
 2031SOL    HW117555   2.366   1.254   5.386 -0.0055  0.0855  0.0617
 2031SOL    HW217556   2.245   1.332   5.400 -0.9768  0.4019  0.1675
 2032SOL     OW17557   2.953   0.971   4.673  0.0809  0.1311 -0.1423
 2032SOL    HW117558   2.916   0.920   4.745  0.9412 -0.9387 -0.4452
 2032SOL    HW217559   3.042   0.963   4.708  0.0480 -1.4422 -0.4290
 2033SOL     OW17560   1.631   0.727  14.746  0.6855 -0.2241 -0.4804
 2033SOL    HW117561   1.560   0.663  14.742 -0.1895  0.6715  0.7360
 2033SOL    HW217562   1.594   0.802  14.698 -1.2587  0.5550  2.2676
 2034SOL     OW17563   2.444   0.115   3.428  0.4107 -0.1189  0.4128
 2034SOL    HW117564   2.455   0.061   3.350 -1.1450  0.3848 -0.1433
 2034SOL    HW217565   2.366   0.164   3.400  0.8943  0.6584  0.4052
 2035SOL     OW17566   2.129   3.837  17.392  0.2521 -0.4501  0.1628
 2035SOL    HW117567   2.112   3.923  17.430 -0.4437 -0.4489 -0.1529
 2035SOL    HW217568   2.202   3.862  17.336 -0.0115  2.2020  0.9953
 2036SOL     OW17569   3.233   4.436   9.754  0.1464 -0.1513 -0.2708
 2036SOL    HW117570   3.327   4.450   9.764  0.2310 -0.4678 -0.6279
 2036SOL    HW217571   3.229   4.347   9.719  1.9416 -0.6851  0.8683
 2037SOL     OW17572   1.036   3.684   6.902  0.7204 -0.6628 -0.2222
 2037SOL    HW117573   0.970   3.664   6.968 -1.4131  0.2097 -2.0830
 2037SOL    HW217574   0.995   3.759   6.859 -0.6728 -0.7882  0.8892
 2038SOL     OW17575   4.454   1.870  15.897  0.5878 -0.0749  0.4024
 2038SOL    HW117576   4.521   1.835  15.955  1.3452  1.7134  0.6044
 2038SOL    HW217577   4.449   1.807  15.825 -0.8558  2.0267 -1.3678
 2039SOL     OW17578   1.388   1.515   4.549 -0.0164 -0.0551  0.0546
 2039SOL    HW117579   1.305   1.552   4.577  0.5409 -0.1824  1.8626
 2039SOL    HW217580   1.428   1.530   4.634 -0.4344  0.9284  0.0868
 2040SOL     OW17581   0.334   1.514   1.788 -0.3457  0.2690  0.3561
 2040SOL    HW117582   0.362   1.606   1.787 -0.3207  0.2475 -1.8459
 2040SOL    HW217583   0.291   1.501   1.704  0.9057  0.8632 -0.3841
 2041SOL     OW17584   0.833   3.016   5.617  0.6074 -0.1096  0.6913
 2041SOL    HW117585   0.767   3.083   5.637  1.2101 -0.0172  2.3581
 2041SOL    HW217586   0.853   3.034   5.525 -1.7521 -0.9452  0.0136
 2042SOL     OW17587   0.399   3.445   1.165 -0.0151  0.1959  0.0890
 2042SOL    HW117588   0.419   3.422   1.074 -2.4626 -2.5609  0.2295
 2042SOL    HW217589   0.481   3.461   1.211 -0.7972  0.0655  1.5375
 2043SOL     OW17590   4.357   2.624   2.526  0.5331  0.0684  0.7107
 2043SOL    HW117591   4.360   2.533   2.555  0.4232 -0.2839 -0.4199
 2043SOL    HW217592   4.353   2.676   2.607  0.5620  0.4118  0.4917
 2044SOL     OW17593   4.692   2.759   6.131 -0.1481 -0.1620  0.2223
 2044SOL    HW117594   0.003   2.796   6.214  1.7630  0.6257 -0.8309
 2044SOL    HW217595   4.665   2.670   6.157 -0.0418 -0.3995 -0.4912
 2045SOL     OW17596   2.030   3.226   2.679  0.1760  0.4056  0.5645
 2045SOL    HW117597   1.940   3.196   2.691 -0.4719  1.6714 -0.9896
 2045SOL    HW217598   2.035   3.238   2.584 -0.7880 -1.4793  0.2931
 2046SOL     OW17599   3.165   3.598   0.740 -0.0862 -0.2970 -0.6487
 2046SOL    HW117600   3.116   3.544   0.677  0.6422 -1.1804 -0.4586
 2046SOL    HW217601   3.248   3.552   0.750 -0.7937 -0.8091  2.8762
 2047SOL     OW17602   3.403   2.956   9.334 -0.2372  0.1892 -0.1140
 2047SOL    HW117603   3.342   2.926   9.266 -0.0322 -0.6720  0.0873
 2047SOL    HW217604   3.441   2.872   9.357 -2.5613 -0.8529 -0.1287
 2048SOL     OW17605   0.478   3.475  10.420  0.3755 -0.0669  0.8381
 2048SOL    HW117606   0.533   3.412  10.374  0.1635  1.1652 -1.1447
 2048SOL    HW217607   0.508   3.560  10.386  0.6346 -0.8195 -0.8422
 2049SOL     OW17608   3.221   1.959  12.274 -0.4058 -0.5777 -0.0070
 2049SOL    HW117609   3.215   1.923  12.186 -1.2071  1.5619 -0.8250
 2049SOL    HW217610   3.313   1.987  12.276 -0.5891  0.0167  0.2106
 2050SOL     OW17611   2.255   4.189  11.340 -0.3421  0.1052 -0.2671
 2050SOL    HW117612   2.266   4.109  11.288  0.9527 -1.6563  2.7371
 2050SOL    HW217613   2.190   4.234  11.286 -1.4077  0.5830  1.3998
 2051SOL     OW17614   1.394   2.988  16.335 -0.3526 -0.0533  0.4706
 2051SOL    HW117615   1.333   2.945  16.275 -0.7701  0.3179  0.6272
 2051SOL    HW217616   1.330   3.052  16.367 -0.7141  0.2053 -0.7300
 2052SOL     OW17617   2.274   1.851   5.729 -0.3318  0.1286  0.6986
 2052SOL    HW117618   2.233   1.817   5.650  0.9248  2.0791 -0.7818
 2052SOL    HW217619   2.253   1.781   5.791  0.6772  0.3031  1.2447
 2053SOL     OW17620   1.070   0.968   8.224 -0.1596  0.5693 -0.0455
 2053SOL    HW117621   1.010   0.914   8.276  0.1458  0.2937  0.0210
 2053SOL    HW217622   1.052   1.058   8.249  1.8058  1.4013 -1.5870
 2054SOL     OW17623   0.402   2.810   4.778  0.2563  0.0006  0.6880
 2054SOL    HW117624   0.364   2.877   4.721  1.0902  0.1031  0.2499
 2054SOL    HW217625   0.393   2.846   4.866  3.3143  1.9238  0.2117
 2055SOL     OW17626   3.768   2.628  12.360  0.4729  0.4869  0.8900
 2055SOL    HW117627   3.843   2.644  12.418 -0.3943  0.5631  2.0068
 2055SOL    HW217628   3.703   2.614  12.429  1.3926 -1.8125  1.2579
 2056SOL     OW17629   4.506   4.683   0.360 -0.8483  0.4126 -0.1849
 2056SOL    HW117630   4.492   4.590   0.375  2.3213 -0.1914 -1.1419
 2056SOL    HW217631   4.444   0.010   0.417  0.3648  1.0327  0.6094
 2057SOL     OW17632   1.379   0.653   7.974  0.0121 -0.0339  0.2966
 2057SOL    HW117633   1.350   0.706   8.048 -0.2830 -1.3035  1.0825
 2057SOL    HW217634   1.472   0.652   7.996 -0.3763 -2.8227  1.7477
 2058SOL     OW17635   0.838   1.054   4.471 -0.0857  0.4902  0.3880
 2058SOL    HW117636   0.773   1.043   4.401  0.1986 -1.3294  0.4153
 2058SOL    HW217637   0.911   1.071   4.412 -1.4600 -0.4931 -1.6136
 2059SOL     OW17638   0.694   0.770   2.347  0.0012 -0.0507  0.7828
 2059SOL    HW117639   0.649   0.770   2.432 -0.6415 -0.4837  0.4410
 2059SOL    HW217640   0.649   0.840   2.302 -2.4523 -1.8430  0.4515
 2060SOL     OW17641   0.900   2.163   9.181  1.4097  0.3742 -0.3314
 2060SOL    HW117642   0.964   2.207   9.236 -0.2039  1.6692  0.5170
 2060SOL    HW217643   0.826   2.223   9.188  0.5664 -0.4196 -2.3494
 2061SOL     OW17644   3.179   0.930   6.817  0.5114 -0.1770 -0.3336
 2061SOL    HW117645   3.121   0.963   6.886 -0.8554  0.7515 -1.9315
 2061SOL    HW217646   3.254   0.895   6.866  0.1162  0.7102  0.9262
 2062SOL     OW17647   1.884   0.793   4.519  0.1366  0.2228  0.0224
 2062SOL    HW117648   1.806   0.756   4.560 -0.4701  1.8814  0.3304
 2062SOL    HW217649   1.875   0.888   4.522 -2.0193 -0.0233  1.2039
 2063SOL     OW17650   3.210   4.039   1.759 -0.0202  0.1361 -0.0663
 2063SOL    HW117651   3.287   4.006   1.713  0.8212  0.9499  0.7664
 2063SOL    HW217652   3.249   4.106   1.815  0.6105  0.7219 -1.1980
 2064SOL     OW17653   1.623   3.607   6.482  0.3933 -0.1450 -0.0673
 2064SOL    HW117654   1.690   3.579   6.545 -0.3102  0.2317  0.8460
 2064SOL    HW217655   1.676   3.668   6.430  1.0379 -0.7202 -0.0900
 2065SOL     OW17656   1.032   4.304  15.383 -0.0855  0.1566  0.2435
 2065SOL    HW117657   1.123   4.275  15.372  0.0773  0.6097  0.3602
 2065SOL    HW217658   0.983   4.241  15.331  1.8170 -0.6601 -0.5892
 2066SOL     OW17659   1.659   4.540  10.421 -0.9236  0.1740  0.4949
 2066SOL    HW117660   1.618   4.577  10.343 -0.4148 -0.8373 -0.2514
 2066SOL    HW217661   1.628   4.603  10.487  0.5002  0.1659  1.1726
 2067SOL     OW17662   0.179   2.289   3.437 -0.0816 -0.1727 -0.4515
 2067SOL    HW117663   0.203   2.199   3.461  0.3433  0.0732  0.0557
 2067SOL    HW217664   0.201   2.296   3.344 -2.0675  0.3052 -0.8718
 2068SOL     OW17665   3.553   3.613   2.358  0.1898 -0.0420 -0.1850
 2068SOL    HW117666   3.611   3.546   2.321 -1.9293 -0.7492 -2.2000
 2068SOL    HW217667   3.484   3.632   2.295  0.1913 -0.6722 -0.3785
 2069SOL     OW17668   0.626   2.347   9.161 -0.8597  0.0785  0.2292
 2069SOL    HW117669   0.598   2.372   9.249  0.2060 -2.4567  1.2971
 2069SOL    HW217670   0.634   2.432   9.119  0.3786  0.4675  1.2565
 2070SOL     OW17671   1.913   2.220   3.917 -0.7968  0.2584  0.1918
 2070SOL    HW117672   1.929   2.208   3.824  2.8368 -1.6482  1.0854
 2070SOL    HW217673   1.966   2.297   3.936  0.5540 -0.8985  1.1077
 2071SOL     OW17674   2.399   2.506   7.943  0.2262 -0.1115  0.0485
 2071SOL    HW117675   2.355   2.549   7.870 -0.6616  1.3934  1.4623
 2071SOL    HW217676   2.342   2.529   8.017  1.1123  0.9838  0.3873
 2072SOL     OW17677   4.181   0.616   3.893 -0.3702  0.4585  0.8004
 2072SOL    HW117678   4.184   0.712   3.891  1.9008  0.3560 -0.5064
 2072SOL    HW217679   4.183   0.598   3.799 -1.6520  3.1197  0.2439
 2073SOL     OW17680   1.806   1.257   1.403 -0.1133 -0.7832  0.4393
 2073SOL    HW117681   1.855   1.201   1.464 -0.5990 -1.1074  0.5310
 2073SOL    HW217682   1.836   1.214   1.323 -0.0969 -1.7699  0.9809
 2074SOL     OW17683   4.212   0.396   6.141  0.2875 -0.2947  0.2576
 2074SOL    HW117684   4.292   0.445   6.124  2.1359 -3.4886 -0.3316
 2074SOL    HW217685   4.243   0.306   6.150  0.1005 -0.2957  0.9169
 2075SOL     OW17686   3.192   3.924  13.758  0.0187  0.5128 -0.6820
 2075SOL    HW117687   3.187   4.018  13.776  1.7248  0.3189  0.7940
 2075SOL    HW217688   3.224   3.919  13.668  1.2205 -0.3701 -0.2065
 2076SOL     OW17689   0.105   0.293   0.017 -0.2439  0.3090  0.2108
 2076SOL    HW117690   0.072   0.295  17.608  0.4445  4.6337  0.0410
 2076SOL    HW217691   0.049   0.222   0.049  0.8666 -1.3343 -1.5672
 2077SOL     OW17692   4.582   2.831   1.474 -0.4216 -0.0496 -0.0295
 2077SOL    HW117693   4.613   2.915   1.439 -1.1736 -0.7355 -2.3377
 2077SOL    HW217694   4.589   2.852   1.568  1.6894 -1.8090  0.2130
 2078SOL     OW17695   4.630   2.011   6.290 -0.3134  0.2610  0.0127
 2078SOL    HW117696   4.698   1.961   6.335 -1.0879 -1.6380 -0.9429
 2078SOL    HW217697   4.615   1.954   6.215 -0.3892  0.8953 -0.4493
 2079SOL     OW17698   3.679   1.835  10.565  0.0298  0.2716 -0.2432
 2079SOL    HW117699   3.726   1.895  10.624 -2.6207  3.6874 -1.6310
 2079SOL    HW217700   3.633   1.782  10.630  0.9301  2.2635  2.0466
 2080SOL     OW17701   3.696   0.996   8.651 -0.0202  0.3096 -0.1995
 2080SOL    HW117702   3.703   1.048   8.732  1.6044  0.3368 -0.3543
 2080SOL    HW217703   3.620   0.942   8.671  0.7872 -0.2476  1.3544
 2081SOL     OW17704   3.510   1.003   1.652  0.4673  0.8754  0.2492
 2081SOL    HW117705   3.432   0.977   1.603  0.5296  0.5579  0.3194
 2081SOL    HW217706   3.496   1.097   1.663 -1.1041  0.5929  0.6117
 2082SOL     OW17707   0.841   2.334   4.428 -0.5642  0.3058  0.1788
 2082SOL    HW117708   0.922   2.301   4.467  0.3077  0.8244 -1.1923
 2082SOL    HW217709   0.872   2.362   4.341 -1.0748 -1.3947 -0.5509
 2083SOL     OW17710   0.853   1.710   2.095 -0.1564 -0.0001 -0.4012
 2083SOL    HW117711   0.855   1.644   2.164  0.6041 -0.9498 -1.3248
 2083SOL    HW217712   0.921   1.769   2.126  0.3764 -1.2846  0.8778
 2084SOL     OW17713   1.645   3.706   1.699 -0.2369 -0.0921  0.0079
 2084SOL    HW117714   1.550   3.697   1.687 -0.3647  0.4221  0.6148
 2084SOL    HW217715   1.675   3.704   1.608 -1.6754  1.1289 -0.5053
 2085SOL     OW17716   3.897   2.306   9.186  0.4132  0.2141 -0.6890
 2085SOL    HW117717   3.973   2.274   9.138  0.0382 -2.1050  0.2970
 2085SOL    HW217718   3.938   2.380   9.230  2.8027 -1.2270 -0.5267
 2086SOL     OW17719   3.139   4.030   8.880 -0.8082  0.3192  0.3667
 2086SOL    HW117720   3.114   4.092   8.949 -0.3201  1.1935 -0.2409
 2086SOL    HW217721   3.083   3.955   8.900 -0.2885 -0.3975 -0.8591
 2087SOL     OW17722   1.318   3.611   5.897 -0.4686  0.0463 -0.4990
 2087SOL    HW117723   1.289   3.549   5.964 -0.0857  0.9193  0.4631
 2087SOL    HW217724   1.231   3.634   5.862 -0.8531 -1.0142 -0.2478
 2088SOL     OW17725   0.206   2.321  12.880 -0.1032  0.4227 -0.2140
 2088SOL    HW117726   0.124   2.277  12.856  0.7179 -2.0784  1.5463
 2088SOL    HW217727   0.206   2.286  12.969  1.5091  0.7644 -0.0781
 2089SOL     OW17728   2.664   0.541  12.978 -0.1058 -0.3362 -0.0874
 2089SOL    HW117729   2.739   0.596  13.003 -0.3423  0.7020 -1.7181
 2089SOL    HW217730   2.641   0.500  13.062  0.7236  0.5154  0.5649
 2090SOL     OW17731   3.776   3.155   6.300  0.0144 -0.1411  0.0720
 2090SOL    HW117732   3.792   3.062   6.315 -1.4280 -0.2809  0.8537
 2090SOL    HW217733   3.864   3.183   6.276 -0.5625 -0.9429 -2.8678
 2091SOL     OW17734   0.137   3.142  17.439 -0.2912 -0.2971 -0.4016
 2091SOL    HW117735   0.172   3.112  17.522 -0.7283  3.0816  1.0298
 2091SOL    HW217736   0.105   3.058  17.407  1.7650 -1.7707  1.4260
 2092SOL     OW17737   3.868   3.511   4.613  0.6492 -0.9832 -1.0180
 2092SOL    HW117738   3.919   3.576   4.662 -1.2214 -0.1808 -0.1325
 2092SOL    HW217739   3.839   3.462   4.689  0.3224 -1.7753 -1.6502
 2093SOL     OW17740   1.768   1.961   9.852  0.3579 -0.0883 -0.4404
 2093SOL    HW117741   1.692   1.983   9.906  0.8805 -1.5701  0.8642
 2093SOL    HW217742   1.728   1.943   9.767  0.5788 -2.9551  0.0662
 2094SOL     OW17743   1.703   3.906   6.166 -0.1300 -0.6178  0.1544
 2094SOL    HW117744   1.661   3.830   6.125  0.9223 -0.7553 -0.6672
 2094SOL    HW217745   1.631   3.969   6.168  0.5670  0.2173 -0.7621
 2095SOL     OW17746   1.266   0.569   7.543  0.0234 -0.2906 -0.3353
 2095SOL    HW117747   1.321   0.552   7.466 -0.0283 -1.5196 -0.0964
 2095SOL    HW217748   1.180   0.535   7.519 -0.6487  0.7131  0.6546
 2096SOL     OW17749   3.770   2.362   6.471  0.0849 -0.1447  0.2086
 2096SOL    HW117750   3.773   2.351   6.376  2.9431 -1.6618  0.4928
 2096SOL    HW217751   3.724   2.446   6.468 -0.9980 -0.7221  0.6210
 2097SOL     OW17752   3.537   3.426   7.075 -0.0903 -0.0319 -0.3478
 2097SOL    HW117753   3.585   3.484   7.016 -0.0652 -2.0343 -2.2781
 2097SOL    HW217754   3.602   3.432   7.146 -0.4116  0.3471 -0.0829
 2098SOL     OW17755   0.761   0.903   0.477  0.0746  0.0166 -0.0959
 2098SOL    HW117756   0.687   0.874   0.424  0.5299 -1.2672 -0.0426
 2098SOL    HW217757   0.832   0.871   0.421 -0.6070  1.0980 -1.5781
 2099SOL     OW17758   3.197   3.633   2.506 -0.3912 -0.2616 -0.4491
 2099SOL    HW117759   3.147   3.626   2.588 -2.4588 -1.2424 -1.7837
 2099SOL    HW217760   3.230   3.543   2.499 -1.9371 -0.9599  1.0922
 2100SOL     OW17761   0.404   1.876  17.021  0.9309  0.0492 -0.6782
 2100SOL    HW117762   0.403   1.968  17.049 -1.1914 -0.2081  0.0981
 2100SOL    HW217763   0.318   1.871  16.981  0.8387  2.1747 -0.7692
 2101SOL     OW17764   3.724   2.292   8.835  0.3617  0.1136  0.4711
 2101SOL    HW117765   3.777   2.217   8.809  2.3319  1.2969  1.0634
 2101SOL    HW217766   3.667   2.263   8.907  1.7537  1.1348  1.9901
 2102SOL     OW17767   0.849   0.822   5.314 -0.0715  0.1240  0.5107
 2102SOL    HW117768   0.844   0.864   5.399  1.2228  1.2119  0.0418
 2102SOL    HW217769   0.944   0.810   5.320  0.1506  1.8722  0.4004
 2103SOL     OW17770   1.409   1.939  10.990  0.9856 -0.3318  0.1891
 2103SOL    HW117771   1.388   2.027  11.021 -0.2998  0.5550 -3.2435
 2103SOL    HW217772   1.368   1.929  10.904  0.1045 -1.9570  0.7920
 2104SOL     OW17773   3.137   4.406   6.377  0.1181 -0.6359 -0.2952
 2104SOL    HW117774   3.132   4.314   6.403 -0.3649  0.5380  3.7241
 2104SOL    HW217775   3.172   4.403   6.288  1.4524 -1.1482  0.2547
 2105SOL     OW17776   1.764   2.933  16.743  0.3633 -0.2708 -0.2722
 2105SOL    HW117777   1.818   2.865  16.704 -0.5243 -0.4478 -1.1720
 2105SOL    HW217778   1.698   2.945  16.676  0.4949  2.1818  0.0064
 2106SOL     OW17779   3.930   0.818  11.662 -0.0310  0.2204  0.0039
 2106SOL    HW117780   3.930   0.822  11.567 -0.3289  1.0888  0.0415
 2106SOL    HW217781   4.020   0.795  11.686 -0.2915 -2.2052 -1.2813
 2107SOL     OW17782   0.146   4.003  11.419  0.5524 -0.2934 -0.1142
 2107SOL    HW117783   0.218   4.017  11.480  0.6877 -3.2621  0.4211
 2107SOL    HW217784   0.075   3.977  11.478  0.0905 -0.3608 -0.7030
 2108SOL     OW17785   0.977   3.431  17.520  0.4390 -0.2523  0.7538
 2108SOL    HW117786   1.027   3.448  17.440  1.1244 -2.3063  0.7640
 2108SOL    HW217787   0.897   3.479  17.501 -0.0079 -1.5513 -0.6358
 2109SOL     OW17788   1.914   4.293   1.390  0.4696  0.0959 -0.7522
 2109SOL    HW117789   1.830   4.249   1.404  1.2090 -1.5664 -1.5379
 2109SOL    HW217790   1.916   4.326   1.300  1.0317  0.5162 -0.5826
 2110SOL     OW17791   3.490   0.719   3.173  0.0470  0.1949 -0.7033
 2110SOL    HW117792   3.515   0.767   3.252  3.1350 -0.6432 -1.1855
 2110SOL    HW217793   3.521   0.786   3.112 -1.1041  0.2293 -1.2499
 2111SOL     OW17794   3.770   3.055   7.608  0.0550  0.4253 -0.7748
 2111SOL    HW117795   3.706   3.049   7.537  0.0817 -0.4605 -0.7250
 2111SOL    HW217796   3.842   2.999   7.578  1.1501 -0.3165  3.2903
 2112SOL     OW17797   0.530   3.219   6.244 -0.3837  0.2463 -0.4047
 2112SOL    HW117798   0.607   3.172   6.278 -1.7004  0.0300  2.2713
 2112SOL    HW217799   0.539   3.312   6.264 -0.0200  0.3277 -0.9465
 2113SOL     OW17800   0.247   0.245   4.229  0.3061 -0.1713  0.3602
 2113SOL    HW117801   0.194   0.186   4.282 -0.7033  2.1624  1.9456
 2113SOL    HW217802   0.267   0.175   4.167 -2.0499  0.3448 -0.9881
 2114SOL     OW17803   0.595   4.707   5.012 -0.7347 -0.5545  0.2346
 2114SOL    HW117804   0.572   4.717   4.919 -0.3358  1.9386  0.3917
 2114SOL    HW217805   0.612   0.079   5.037  1.5693 -0.7249 -0.6735
 2115SOL     OW17806   0.500   2.396  12.082 -0.1565  0.5412 -0.3871
 2115SOL    HW117807   0.538   2.442  12.157 -0.7748 -0.9901  0.8818
 2115SOL    HW217808   0.451   2.474  12.056  1.2532  1.2216 -0.9645
 2116SOL     OW17809   1.899   0.287  16.520  0.3756  0.1065  0.3725
 2116SOL    HW117810   1.958   0.361  16.510  0.5303 -0.1227 -0.4932
 2116SOL    HW217811   1.834   0.310  16.453 -0.4410 -1.7808  0.5060
 2117SOL     OW17812   3.130   0.053  12.670  0.6700 -0.6337 -0.5579
 2117SOL    HW117813   3.038   0.079  12.661  1.3055  1.2403 -1.7238
 2117SOL    HW217814   3.159   0.063  12.579 -0.5835 -0.0143 -0.8859
 2118SOL     OW17815   3.551   0.628  15.991 -0.5131  0.2110  0.1883
 2118SOL    HW117816   3.460   0.647  16.013 -0.2810  0.4221  0.9566
 2118SOL    HW217817   3.576   0.562  16.055 -2.6145 -0.9490 -0.1695
 2119SOL     OW17818   4.106   1.766   0.209  0.5123 -0.2273  0.7608
 2119SOL    HW117819   4.078   1.676   0.224  0.9307 -0.3071  1.0484
 2119SOL    HW217820   4.023   1.814   0.209  1.7326  1.8569 -0.7781
 2120SOL     OW17821   2.819   1.679  15.548  0.0306  0.5065 -0.8164
 2120SOL    HW117822   2.904   1.634  15.543  0.0955  0.2968  2.4126
 2120SOL    HW217823   2.832   1.755  15.490  3.4749  0.6477  0.1127
 2121SOL     OW17824   3.379   4.372   7.938 -0.0604 -0.1483  0.3151
 2121SOL    HW117825   3.458   4.353   7.989  2.2079  3.9246 -1.6635
 2121SOL    HW217826   3.314   4.346   8.003 -0.1515 -1.2581 -0.2147
 2122SOL     OW17827   3.291   4.672   4.512  0.1578 -0.0281  0.0301
 2122SOL    HW117828   3.291   4.615   4.435  0.7778  1.7270 -1.2614
 2122SOL    HW217829   3.384   4.686   4.529  0.5828 -1.0774 -1.4240
 2123SOL     OW17830   1.855   3.507   4.482 -0.0189  0.3529  0.5890
 2123SOL    HW117831   1.897   3.592   4.469 -1.9686  1.1417 -0.4584
 2123SOL    HW217832   1.790   3.503   4.413 -0.0512 -0.6840  0.6771
 2124SOL     OW17833   0.861   0.327   5.309 -0.2433 -0.0178  0.1606
 2124SOL    HW117834   0.948   0.362   5.286  0.0298 -0.2490  0.8336
 2124SOL    HW217835   0.879   0.236   5.287 -0.2604 -0.3105  1.3628
 2125SOL     OW17836   2.120   0.620  16.231  0.1724  0.4157  0.9265
 2125SOL    HW117837   2.119   0.687  16.162  0.8631  0.4015  0.9014
 2125SOL    HW217838   2.194   0.652  16.282 -0.3780 -1.8039  3.0922
 2126SOL     OW17839   0.974   3.537   4.067 -0.0568 -0.3827  0.2369
 2126SOL    HW117840   0.992   3.572   4.154 -1.1662  2.1982 -0.5620
 2126SOL    HW217841   0.978   3.616   4.014  1.6131 -1.4492 -1.2128
 2127SOL     OW17842   4.331   4.211   5.103 -0.2380 -0.5433  0.3347
 2127SOL    HW117843   4.299   4.280   5.161 -1.2877  2.1648 -3.4679
 2127SOL    HW217844   4.348   4.259   5.022 -1.2426  1.5616  1.3856
 2128SOL     OW17845   1.018   2.923   4.689  0.5561 -0.0262  0.4170
 2128SOL    HW117846   1.037   2.856   4.754  0.5061  0.2934  0.7601
 2128SOL    HW217847   1.023   3.006   4.736 -0.8183  1.4440 -2.0195
 2129SOL     OW17848   3.135   1.663   4.691  0.3446 -0.3518 -0.5363
 2129SOL    HW117849   3.077   1.587   4.684  2.4592 -1.9141 -1.1395
 2129SOL    HW217850   3.205   1.633   4.749  0.1029 -0.3572 -0.2528
 2130SOL     OW17851   2.677   4.382   1.133  0.3489 -0.2390  0.2547
 2130SOL    HW117852   2.610   4.338   1.186  0.0753 -0.8998 -0.6498
 2130SOL    HW217853   2.727   4.305   1.105  1.0320  0.2009  0.2674
 2131SOL     OW17854   4.318   2.198  15.309  0.1420 -0.1505  0.1547
 2131SOL    HW117855   4.224   2.215  15.313  0.3855  1.6650 -1.3834
 2131SOL    HW217856   4.357   2.285  15.295  0.4811 -0.4424 -0.7395
 2132SOL     OW17857   0.381   2.818  13.031  0.6081 -0.1881 -0.0676
 2132SOL    HW117858   0.383   2.877  12.956  1.2149 -0.7105 -0.4658
 2132SOL    HW217859   0.303   2.765  13.018 -1.5879  3.1347 -0.3013
 2133SOL     OW17860   3.575   1.528   6.170 -0.1524  0.3845 -0.1175
 2133SOL    HW117861   3.505   1.483   6.123 -0.2611  1.8757 -1.3944
 2133SOL    HW217862   3.635   1.552   6.099 -0.6366  0.5772 -0.4617
 2134SOL     OW17863   0.035   4.458   4.892 -0.0228  0.0311 -0.0935
 2134SOL    HW117864   0.129   4.473   4.882 -0.1303  0.6876 -0.1164
 2134SOL    HW217865   4.712   4.469   4.806 -1.3808  0.5154  0.6380
 2135SOL     OW17866   0.600   4.357   2.880  0.2805 -0.5364 -0.3515
 2135SOL    HW117867   0.691   4.383   2.896  0.7601 -2.6902  0.4744
 2135SOL    HW217868   0.541   4.419   2.923  0.9158 -0.6462  0.6900
 2136SOL     OW17869   3.472   4.324   4.110  0.3266 -0.0292 -0.2582
 2136SOL    HW117870   3.455   4.256   4.045  0.4812 -1.0363  0.7554
 2136SOL    HW217871   3.463   4.404   4.058  0.1658  0.5910  0.7319
 2137SOL     OW17872   0.704   2.295   0.532 -0.2622  0.2623  0.4282
 2137SOL    HW117873   0.700   2.199   0.534  0.9074  0.1569 -1.8568
 2137SOL    HW217874   0.610   2.313   0.531 -0.0441  1.4329  1.0382
 2138SOL     OW17875   1.907   2.684  16.634  0.3668 -0.0374  0.1445
 2138SOL    HW117876   1.925   2.594  16.607 -2.9291  0.5369 -3.8716
 2138SOL    HW217877   1.957   2.735  16.570 -0.1239  0.3988  0.1056
 2139SOL     OW17878   3.553   4.631   7.459  0.0817  0.4914 -0.3678
 2139SOL    HW117879   3.514   4.717   7.439  2.4374  2.1747  2.2053
 2139SOL    HW217880   3.611   4.659   7.530 -1.6313  1.1086  0.8047
 2140SOL     OW17881   1.852   1.113  17.211  0.4403 -0.6123 -0.2963
 2140SOL    HW117882   1.911   1.187  17.200 -0.6016  0.6853  3.2233
 2140SOL    HW217883   1.883   1.055  17.141  3.1462  1.1929 -0.5514
 2141SOL     OW17884   3.070   4.234  12.905  0.5722 -0.3508  0.0420
 2141SOL    HW117885   3.090   4.256  12.996 -0.8655 -1.5662  0.6457
 2141SOL    HW217886   3.003   4.166  12.911 -1.8252  1.9576 -1.0285
 2142SOL     OW17887   0.613   2.228   4.513  0.2059 -0.0021  0.0117
 2142SOL    HW117888   0.692   2.273   4.482 -0.7404  1.9874  0.4983
 2142SOL    HW217889   0.556   2.300   4.487 -1.1973 -1.9537 -2.2983
 2143SOL     OW17890   3.147   2.333  13.619  0.6408 -0.1923 -0.2909
 2143SOL    HW117891   3.144   2.427  13.601 -0.9367  0.1126  1.5182
 2143SOL    HW217892   3.139   2.285  13.537  0.7574 -1.7545  0.5960
 2144SOL     OW17893   2.949   0.541   8.270  0.0389 -0.7512 -0.0827
 2144SOL    HW117894   2.902   0.624   8.260  0.9176 -0.1451  0.7158
 2144SOL    HW217895   3.012   0.547   8.198  0.9205  0.3739  0.7788
 2145SOL     OW17896   1.362   0.114  12.222 -0.3415  0.3045 -0.6951
 2145SOL    HW117897   1.276   0.098  12.261 -0.2584  0.1209 -0.5886
 2145SOL    HW217898   1.336   0.114  12.130 -0.5053 -0.4097 -0.6536
 2146SOL     OW17899   0.057   3.639  15.817  0.4503  0.0258 -0.1624
 2146SOL    HW117900   0.050   3.727  15.778 -0.9533 -1.6763 -3.7879
 2146SOL    HW217901   0.093   3.650  15.904 -1.6378  2.5620  0.3706
 2147SOL     OW17902   0.050   0.256   8.126 -0.2726  0.2309 -0.1495
 2147SOL    HW117903   0.065   0.179   8.180 -1.0697  1.1729  1.4299
 2147SOL    HW217904   0.137   0.295   8.116  0.7335 -2.0564 -0.2718
 2148SOL     OW17905   1.577   2.076   8.562  0.2538  0.3123  0.1082
 2148SOL    HW117906   1.662   2.098   8.599  0.6956  0.4904 -1.0101
 2148SOL    HW217907   1.595   2.100   8.471  1.0740 -0.2953  0.1114
 2149SOL     OW17908   3.005   4.298   8.406 -0.1185 -0.5819  0.1696
 2149SOL    HW117909   2.976   4.319   8.317 -0.7454 -0.1573  0.4828
 2149SOL    HW217910   2.927   4.264   8.449  0.1805 -0.8467  0.5091
 2150SOL     OW17911   0.410   0.290   4.960  0.1984 -0.0520 -0.1305
 2150SOL    HW117912   0.383   0.373   4.922  0.2625  0.9414  1.9640
 2150SOL    HW217913   0.503   0.298   4.982  0.7678 -3.7425 -1.2303
 2151SOL     OW17914   2.193   1.475   7.591 -0.2440 -0.6547  0.1370
 2151SOL    HW117915   2.100   1.489   7.569 -0.5566 -0.1586  1.7575
 2151SOL    HW217916   2.227   1.438   7.510 -0.0398  1.6922 -0.8542
 2152SOL     OW17917   2.131   3.895  14.995 -0.2458  0.2746 -0.1775
 2152SOL    HW117918   2.086   3.903  14.911  1.2672 -2.8428 -1.2956
 2152SOL    HW217919   2.086   3.971  15.032 -0.8562  0.6866 -1.7742
 2153SOL     OW17920   1.630   2.123   5.336 -0.2563  0.2337  0.1820
 2153SOL    HW117921   1.540   2.133   5.305  0.4007  3.4077 -0.6833
 2153SOL    HW217922   1.616   2.133   5.430 -1.3309 -0.6527  0.1249
 2154SOL     OW17923   3.991   4.031  15.852  0.6519 -1.0007 -0.0714
 2154SOL    HW117924   4.004   4.067  15.940  0.3949  0.1736 -0.5111
 2154SOL    HW217925   3.896   4.039  15.845  0.7508  0.0247 -0.2559
 2155SOL     OW17926   4.296   2.690   3.929 -0.6867  0.3448 -0.4729
 2155SOL    HW117927   4.360   2.724   3.866  1.4924 -0.6110  1.2259
 2155SOL    HW217928   4.355   2.649   3.992 -2.3723 -0.4149  0.6201
 2156SOL     OW17929   0.628   0.625   3.162 -0.4333 -0.4930  0.0363
 2156SOL    HW117930   0.628   0.704   3.215 -0.4292  0.3982 -1.2794
 2156SOL    HW217931   0.535   0.604   3.151 -0.1111 -1.5277 -0.7580
 2157SOL     OW17932   0.444   4.041   4.640  0.1146  0.0714 -0.3572
 2157SOL    HW117933   0.443   3.949   4.614  0.2619 -0.6269  2.0533
 2157SOL    HW217934   0.497   4.039   4.720 -1.5297 -0.7238  0.7036
 2158SOL     OW17935   0.174   2.594   4.081 -0.4289 -0.2458  0.6246
 2158SOL    HW117936   0.205   2.648   4.153 -2.5231  0.6857  0.8306
 2158SOL    HW217937   0.190   2.502   4.101 -1.6161 -1.1015 -2.2745
 2159SOL     OW17938   1.213   0.297   8.312 -0.1859 -0.0450 -0.5289
 2159SOL    HW117939   1.306   0.280   8.296 -0.6426 -1.9758 -1.0615
 2159SOL    HW217940   1.201   0.248   8.394  0.4784  3.2685  1.5615
 2160SOL     OW17941   3.845   0.903   2.338 -0.9660  0.0826  0.3888
 2160SOL    HW117942   3.855   0.843   2.264 -2.9469 -0.7722  0.8235
 2160SOL    HW217943   3.783   0.850   2.387 -0.6338 -1.0909 -0.4639
 2161SOL     OW17944   3.221   1.150  15.869 -0.1199 -0.0612 -0.4423
 2161SOL    HW117945   3.296   1.210  15.863  1.0212 -1.6113 -1.6730
 2161SOL    HW217946   3.204   1.159  15.963 -1.0689  2.0544 -0.8183
 2162SOL     OW17947   3.927   0.703   7.197 -0.0246  0.1414 -0.3238
 2162SOL    HW117948   3.984   0.776   7.221  0.5568  0.0295 -1.3914
 2162SOL    HW217949   3.982   0.631   7.228  0.4184  1.0855  1.0976
 2163SOL     OW17950   4.350   1.046   3.602 -0.0890 -0.5525 -0.1560
 2163SOL    HW117951   4.373   1.091   3.521  1.4759  0.1631  0.6958
 2163SOL    HW217952   4.435   1.030   3.643  0.1389 -0.0822 -0.4441
 2164SOL     OW17953   0.368   4.292  16.620 -0.2135  0.2619 -0.1090
 2164SOL    HW117954   0.381   4.215  16.565  3.6078  0.4128  0.5543
 2164SOL    HW217955   0.273   4.295  16.632 -0.2844  0.7983 -0.8077
 2165SOL     OW17956   0.891   2.202  16.737  0.0514 -0.0266 -0.3487
 2165SOL    HW117957   0.816   2.175  16.685  0.1792 -0.8781 -0.0909
 2165SOL    HW217958   0.858   2.221  16.825  0.2167 -0.6771 -0.1458
 2166SOL     OW17959   0.272   0.649  13.423  0.0409 -0.6276 -0.2058
 2166SOL    HW117960   0.353   0.633  13.472  0.7068  0.7234 -0.8654
 2166SOL    HW217961   0.290   0.595  13.345  1.6366  1.5856 -1.3639
 2167SOL     OW17962   3.871   3.805   6.546 -0.2986  0.6629 -0.6028
 2167SOL    HW117963   3.944   3.772   6.495 -0.3803 -0.8219  0.2355
 2167SOL    HW217964   3.908   3.889   6.575 -1.2785  0.2647  1.8222
 2168SOL     OW17965   1.802   0.327   7.072  0.0896  0.0352  0.8905
 2168SOL    HW117966   1.780   0.420   7.066 -1.9309 -0.4113  1.4057
 2168SOL    HW217967   1.730   0.292   7.124 -0.7881  0.6395  0.0809
 2169SOL     OW17968   0.304   1.072   2.327  0.4701 -0.2694  0.1129
 2169SOL    HW117969   0.365   1.069   2.401 -1.4900  2.7850  1.8817
 2169SOL    HW217970   0.225   1.034   2.365 -0.7713  1.2805 -0.9226
 2170SOL     OW17971   3.201   1.925   9.862  0.1171 -0.3595  0.0579
 2170SOL    HW117972   3.131   1.873   9.822  0.4170 -0.0890 -0.8032
 2170SOL    HW217973   3.197   1.907   9.956 -1.7709 -1.1491 -0.1857
 2171SOL     OW17974   4.382   0.606   8.011  0.0474  0.2202  0.2726
 2171SOL    HW117975   4.383   0.692   7.969 -1.8916 -0.4201 -1.0885
 2171SOL    HW217976   4.291   0.601   8.041  0.3639 -0.9079  1.0627
 2172SOL     OW17977   3.497   1.996  16.209  0.2043  0.1533 -0.3634
 2172SOL    HW117978   3.556   1.983  16.283  0.3302  0.4459 -0.4121
 2172SOL    HW217979   3.486   2.090  16.220 -0.1444 -0.1061  1.4564
 2173SOL     OW17980   2.174   0.354   3.941  0.6741 -0.3244  0.6313
 2173SOL    HW117981   2.252   0.300   3.932  0.9784  0.0354  1.1038
 2173SOL    HW217982   2.217   0.439   3.927 -1.6885  0.7572 -0.0662
 2174SOL     OW17983   4.016   3.895   6.887 -0.6717 -0.4407 -0.3569
 2174SOL    HW117984   4.085   3.829   6.896 -0.5148 -0.0973  1.0363
 2174SOL    HW217985   3.988   3.892   6.979  1.0479 -0.6126  0.1723
 2175SOL     OW17986   3.500   0.326   2.913  0.3518 -0.7294 -0.2617
 2175SOL    HW117987   3.518   0.396   2.977 -0.2397 -0.9811  0.1856
 2175SOL    HW217988   3.547   0.361   2.838 -0.0387  1.4009  0.4677
 2176SOL     OW17989   1.813   3.982   6.587  0.5826 -0.9542 -0.3231
 2176SOL    HW117990   1.756   3.937   6.649 -0.2148 -0.7426 -0.9133
 2176SOL    HW217991   1.751   4.035   6.537 -1.8528 -3.7197 -0.1932
 2177SOL     OW17992   4.487   2.548   4.089 -0.0600 -0.4581 -0.5294
 2177SOL    HW117993   4.558   2.493   4.057  1.8168  1.4067  0.4119
 2177SOL    HW217994   4.437   2.473   4.119 -0.8596  1.1172  2.0861
 2178SOL     OW17995   1.216   3.004   7.882 -0.5536  0.2868  0.5641
 2178SOL    HW117996   1.162   2.954   7.943  1.6810 -0.1469  2.2034
 2178SOL    HW217997   1.155   3.015   7.809  1.6043 -0.3677 -1.3458
 2179SOL     OW17998   2.212   2.429   1.777  0.5256 -0.6112 -0.5583
 2179SOL    HW117999   2.155   2.462   1.709 -0.4742 -1.6245 -0.2121
 2179SOL    HW218000   2.166   2.350   1.806 -0.6053  0.9030  1.7773
 2180SOL     OW18001   4.288   2.112   4.982 -0.2206  0.9033 -0.0965
 2180SOL    HW118002   4.362   2.055   5.002 -1.4466 -0.3381  0.9443
 2180SOL    HW218003   4.332   2.193   5.005 -0.8874  1.0058  0.8261
 2181SOL     OW18004   1.196   1.322  10.617 -0.0840  0.1564  0.2565
 2181SOL    HW118005   1.173   1.248  10.672 -0.4492 -1.1273 -1.6025
 2181SOL    HW218006   1.158   1.297  10.532 -0.8109  0.2193  0.5603
 2182SOL     OW18007   4.561   3.858   6.112 -0.1478  0.9243  0.0203
 2182SOL    HW118008   4.472   3.871   6.081  0.1593 -0.4415 -1.4757
 2182SOL    HW218009   4.591   3.778   6.067 -0.6531  0.0871  1.1771
 2183SOL     OW18010   2.156   0.819   7.312 -0.0169 -0.6492  0.2951
 2183SOL    HW118011   2.089   0.798   7.378  0.9604 -1.0350  1.1588
 2183SOL    HW218012   2.100   0.850   7.241 -2.2111 -1.0829  1.8108
 2184SOL     OW18013   4.234   1.006   4.526 -0.0391 -0.2727 -0.0692
 2184SOL    HW118014   4.277   0.934   4.478 -0.1403  0.0292 -0.6162
 2184SOL    HW218015   4.235   1.075   4.459  2.5688  1.5270  1.8379
 2185SOL     OW18016   2.391   4.306   4.037  0.1912  0.1325  0.2604
 2185SOL    HW118017   2.390   4.347   4.123 -1.9693  0.3604  0.1277
 2185SOL    HW218018   2.348   4.373   3.983 -1.4836 -0.4229  0.9261
 2186SOL     OW18019   1.183   3.145   2.349  0.0981  0.4228 -0.1325
 2186SOL    HW118020   1.244   3.209   2.385 -1.3228  0.6026  1.9775
 2186SOL    HW218021   1.177   3.174   2.258  0.8154  3.6947  0.8815
 2187SOL     OW18022   0.022   1.137   8.800  0.3063  0.0063  0.3404
 2187SOL    HW118023   0.022   1.196   8.724  1.8757  1.5384  1.5152
 2187SOL    HW218024   0.026   1.204   8.868 -1.1196  0.8388 -0.4063
 2188SOL     OW18025   2.988   3.944   3.811 -0.2368  0.6629 -0.4854
 2188SOL    HW118026   2.957   3.855   3.825  2.8753 -0.3489 -0.1100
 2188SOL    HW218027   2.917   3.988   3.860 -0.2618  0.6465 -0.5069
 2189SOL     OW18028   1.296   4.511   0.647  0.0698  0.6844 -0.2085
 2189SOL    HW118029   1.270   4.422   0.623 -0.7807  0.6124  0.9956
 2189SOL    HW218030   1.279   4.557   0.565  2.6676 -0.1041 -1.1791
 2190SOL     OW18031   1.611   4.063  10.104 -0.0082  0.0182  0.7518
 2190SOL    HW118032   1.624   4.158  10.111 -0.5043  0.2398 -1.3778
 2190SOL    HW218033   1.698   4.026  10.116  1.3358  3.0389  0.4457
 2191SOL     OW18034   0.019   3.136   4.153 -0.0506  0.0808  0.2502
 2191SOL    HW118035   0.041   3.052   4.192 -0.8149 -0.0697  0.3557
 2191SOL    HW218036   0.098   3.184   4.178  0.2851 -2.2739  3.5587
 2192SOL     OW18037   4.594   3.869  14.394 -0.5017  0.3137 -0.0506
 2192SOL    HW118038   4.525   3.804  14.398 -0.0611 -0.0918  0.8490
 2192SOL    HW218039   4.548   3.951  14.413 -0.9423  0.1583 -0.4462
 2193SOL     OW18040   2.824   1.843  12.174  0.6131  0.1941  0.2370
 2193SOL    HW118041   2.802   1.934  12.191  3.5082  1.0935 -0.9212
 2193SOL    HW218042   2.893   1.843  12.241 -0.5829  0.5643  1.4660
 2194SOL     OW18043   2.178   3.440   3.543 -0.0398 -0.3523  0.0186
 2194SOL    HW118044   2.175   3.386   3.464  1.8688  0.5059 -0.6534
 2194SOL    HW218045   2.099   3.491   3.524  0.4986  0.9415  1.2818
 2195SOL     OW18046   1.735   0.024   4.883 -0.3793  0.1736  0.2446
 2195SOL    HW118047   1.782   4.663   4.904  2.7721  1.4723 -1.7678
 2195SOL    HW218048   1.666   0.012   4.947 -1.4785 -0.9412 -1.1474
 2196SOL     OW18049   2.557   2.295   2.199 -0.5941  0.2644  0.1223
 2196SOL    HW118050   2.488   2.280   2.135 -0.6784 -2.1326  0.7739
 2196SOL    HW218051   2.598   2.377   2.172 -1.1794  0.4672 -0.1523
 2197SOL     OW18052   0.236   2.155   2.397  0.2368  0.0238 -0.3024
 2197SOL    HW118053   0.246   2.147   2.492  0.2088 -0.1405 -0.3134
 2197SOL    HW218054   0.216   2.064   2.375 -2.8368  0.1682  1.9484
 2198SOL     OW18055   4.256   2.195   3.436 -0.0195  0.2788  0.5150
 2198SOL    HW118056   4.279   2.256   3.365  1.0973  0.6473  1.1958
 2198SOL    HW218057   4.339   2.157   3.464  0.4405  0.9763  0.1174
 2199SOL     OW18058   2.120   0.631   6.520 -0.5479  0.1153 -0.5240
 2199SOL    HW118059   2.099   0.723   6.532  0.6452  0.0813  1.8153
 2199SOL    HW218060   2.215   0.642   6.509 -0.5139  1.3096  0.9672
 2200SOL     OW18061   1.734   0.442   6.118 -0.1642  0.1790  0.2026
 2200SOL    HW118062   1.817   0.478   6.149  0.0165 -0.1602  0.1045
 2200SOL    HW218063   1.691   0.520   6.082 -2.1662 -0.8083  0.4680
 2201SOL     OW18064   1.422   3.951  16.914  0.1173 -0.1604 -0.4725
 2201SOL    HW118065   1.366   3.917  16.844 -0.7080  0.7711 -0.2670
 2201SOL    HW218066   1.497   3.982  16.865 -0.3446 -0.5333 -1.4069
 2202SOL     OW18067   2.907   2.956  11.258 -0.2085  0.5404  0.4125
 2202SOL    HW118068   2.822   2.980  11.295 -0.0752  2.2657 -0.3956
 2202SOL    HW218069   2.967   3.023  11.292 -0.2237  1.0384 -0.5356
 2203SOL     OW18070   1.290   4.588   3.417  0.4952  0.7911 -0.0484
 2203SOL    HW118071   1.210   4.537   3.413  2.7319 -2.6255 -1.5650
 2203SOL    HW218072   1.359   4.524   3.399 -0.3235  0.7875 -3.1779
 2204SOL     OW18073   1.797   3.363   7.808  0.0993  0.0503  0.1608
 2204SOL    HW118074   1.797   3.457   7.824 -1.7816  0.4718 -2.2335
 2204SOL    HW218075   1.884   3.351   7.770 -0.8955  1.0075 -2.3923
 2205SOL     OW18076   3.363   1.631  14.067  0.0153  0.6020 -0.3700
 2205SOL    HW118077   3.449   1.595  14.047  0.5508  1.7118 -0.0769
 2205SOL    HW218078   3.356   1.630  14.162  1.7247 -0.0846 -0.2533
 2206SOL     OW18079   1.980   0.064   3.059 -0.5033 -0.6832 -0.2393
 2206SOL    HW118080   1.937   0.087   2.976  2.9320 -0.9355 -2.0874
 2206SOL    HW218081   2.067   0.083   3.024 -0.1294 -2.0233 -0.0514
 2207SOL     OW18082   0.765   3.093   7.973 -0.3258 -0.0498  0.2816
 2207SOL    HW118083   0.680   3.095   8.017 -0.6203  0.4580 -0.3118
 2207SOL    HW218084   0.814   3.023   8.016  2.6918  0.5203 -2.2393
 2208SOL     OW18085   2.121   4.409  11.975 -0.2624 -0.0426  0.0295
 2208SOL    HW118086   2.031   4.416  11.943 -0.5894  2.9128  1.6781
 2208SOL    HW218087   2.137   4.503  11.982  2.4515 -0.4675 -0.8223
 2209SOL     OW18088   1.434   1.543   9.353  0.3962  0.2090  0.6057
 2209SOL    HW118089   1.406   1.630   9.324 -0.8368 -0.2438  0.4487
 2209SOL    HW218090   1.349   1.500   9.363 -0.5710  2.1864  0.9191
 2210SOL     OW18091   0.150   1.971   5.635  0.0060  0.0817  0.2868
 2210SOL    HW118092   0.220   1.997   5.695 -0.5487  2.0515  0.0940
 2210SOL    HW218093   0.092   2.044   5.656  0.2351 -0.7018  3.5712
 2211SOL     OW18094   3.586   1.499  13.134 -0.9356 -0.3010  0.1741
 2211SOL    HW118095   3.518   1.545  13.085  1.1023  1.2187 -1.2263
 2211SOL    HW218096   3.548   1.453  13.209 -2.7060 -1.1869 -1.2706
 2212SOL     OW18097   1.388   0.666   5.510  0.3853 -0.2957 -0.2992
 2212SOL    HW118098   1.378   0.760   5.529  3.0157  0.2286 -1.4899
 2212SOL    HW218099   1.456   0.634   5.569 -0.0671 -0.4150  0.1531
 2213SOL     OW18100   3.230   2.667   5.212  0.0953 -0.0974  0.4628
 2213SOL    HW118101   3.244   2.757   5.183 -1.0247  0.3544  1.3123
 2213SOL    HW218102   3.192   2.623   5.136  1.6571 -0.2889 -0.2015
 2214SOL     OW18103   3.355   2.647   4.360 -0.4868 -0.1016  0.3060
 2214SOL    HW118104   3.348   2.588   4.285 -0.1784  0.6937 -0.3428
 2214SOL    HW218105   3.393   2.716   4.307 -2.4289  1.2839  0.6972
 2215SOL     OW18106   2.942   0.797   3.455 -0.1100 -0.7932  0.3612
 2215SOL    HW118107   2.855   0.808   3.495 -0.7428 -1.4557 -0.8123
 2215SOL    HW218108   2.957   0.886   3.424 -2.3105  0.4367  2.8456
 2216SOL     OW18109   4.269   1.191   1.547 -0.4214  0.3420 -0.3764
 2216SOL    HW118110   4.306   1.224   1.465 -0.8239  2.6269  0.3592
 2216SOL    HW218111   4.293   1.099   1.549 -0.4946  0.2995 -1.4520
 2217SOL     OW18112   0.565   0.531  15.210 -0.2820 -0.5544  0.0467
 2217SOL    HW118113   0.504   0.457  15.211 -0.5121 -0.3685 -0.4754
 2217SOL    HW218114   0.535   0.580  15.286  0.0918 -0.3342  0.0488
 2218SOL     OW18115   3.271   0.682  14.308 -0.5311 -0.3242 -0.5716
 2218SOL    HW118116   3.290   0.664  14.216 -0.2272 -0.8158 -0.4135
 2218SOL    HW218117   3.341   0.743  14.327 -0.2712  0.1350 -2.9573
 2219SOL     OW18118   2.290   0.775   5.175  0.2524 -0.1830  0.3143
 2219SOL    HW118119   2.322   0.688   5.198  0.6175 -0.2164 -0.3134
 2219SOL    HW218120   2.301   0.829   5.254 -1.8239 -0.5449  0.8513
 2220SOL     OW18121   2.573   0.794  14.488 -0.3828  0.2456 -0.2072
 2220SOL    HW118122   2.623   0.836  14.418 -1.2915 -1.4868 -1.8866
 2220SOL    HW218123   2.557   0.874  14.540 -0.6544 -0.6410  1.0856
 2221SOL     OW18124   0.701   0.127  16.921 -0.0827 -0.0427  0.5212
 2221SOL    HW118125   0.770   0.186  16.949 -0.0023  0.5372 -0.8691
 2221SOL    HW218126   0.622   0.180  16.930  0.9874  1.1301  2.9886
 2222SOL     OW18127   3.188   3.512  16.024 -0.0823  0.2584 -0.2853
 2222SOL    HW118128   3.170   3.604  16.008 -1.9045  0.0379  0.4516
 2222SOL    HW218129   3.110   3.478  15.979  1.0042 -2.0117 -0.4397
 2223SOL     OW18130   3.971   2.792  14.997 -0.6674 -0.5318  0.1331
 2223SOL    HW118131   4.035   2.850  15.037 -0.6501 -1.2866  1.1777
 2223SOL    HW218132   4.004   2.706  15.023  1.5461  0.1068 -0.6156
 2224SOL     OW18133   1.016   3.969   2.227 -0.0615 -0.2376  0.9635
 2224SOL    HW118134   1.086   3.911   2.258  1.0204  1.5373  1.8857
 2224SOL    HW218135   1.004   4.026   2.303  1.4094  1.3786 -0.0174
 2225SOL     OW18136   3.788   2.973   0.071 -0.2487  0.4616 -0.1390
 2225SOL    HW118137   3.784   3.037   0.142 -0.5215  0.7903 -0.4470
 2225SOL    HW218138   3.727   3.003   0.004 -0.5137  1.1218  0.3992
 2226SOL     OW18139   3.821   3.286   1.702 -0.0399  0.1746 -0.3192
 2226SOL    HW118140   3.911   3.291   1.669  0.9091 -0.3310  2.1833
 2226SOL    HW218141   3.772   3.322   1.628 -1.0992  2.0207  1.3204
 2227SOL     OW18142   0.024   1.098  14.679 -0.3852 -0.3175 -0.6900
 2227SOL    HW118143   4.716   1.125  14.592 -0.9175 -1.7156 -0.9540
 2227SOL    HW218144   4.660   1.110  14.723 -1.2015  0.4582 -2.4700
 2228SOL     OW18145   0.272   2.148   2.026  0.5436 -0.0665  0.2971
 2228SOL    HW118146   0.248   2.191   2.108  0.6008  2.6910 -1.1585
 2228SOL    HW218147   0.224   2.202   1.963 -0.9822 -0.1199  1.4195
 2229SOL     OW18148   1.591   4.649   3.629 -0.0252  0.4423  0.2095
 2229SOL    HW118149   1.646   4.621   3.556 -0.4327  4.1749 -1.5470
 2229SOL    HW218150   1.555   4.566   3.660  1.4308 -0.9938 -1.9418
 2230SOL     OW18151   1.138   0.132   5.884  0.4803  0.2084 -0.1513
 2230SOL    HW118152   1.217   0.087   5.915 -1.4879 -2.8773  0.3373
 2230SOL    HW218153   1.175   0.170   5.804 -2.0902  2.2059 -0.3973
 2231SOL     OW18154   1.034   3.735  14.552 -0.2819 -0.1343  0.0024
 2231SOL    HW118155   1.064   3.807  14.497 -0.6057  1.1064  1.4462
 2231SOL    HW218156   1.115   3.707  14.595 -2.1901 -3.2966  1.5394
 2232SOL     OW18157   0.222   2.735   6.391  0.2455  0.2169 -0.9172
 2232SOL    HW118158   0.297   2.687   6.357 -1.5707 -2.9915 -0.3865
 2232SOL    HW218159   0.243   2.828   6.405  1.3991 -0.0582 -0.8338
 2233SOL     OW18160   0.115   0.350   8.724  0.1569 -0.3263 -0.3200
 2233SOL    HW118161   0.111   0.443   8.743 -1.9671 -0.2939 -0.9230
 2233SOL    HW218162   0.204   0.352   8.688  0.0212 -0.1655 -0.6478
 2234SOL     OW18163   0.988   0.086   1.547 -0.0483 -0.4440  0.1545
 2234SOL    HW118164   0.999   0.147   1.621 -1.0696  2.4978 -2.1037
 2234SOL    HW218165   0.980   0.137   1.467  2.3951 -0.8761 -0.3657
 2235SOL     OW18166   1.961   3.270   5.011  0.2799 -0.2219 -0.2376
 2235SOL    HW118167   1.913   3.337   5.060  2.9076  2.4072 -1.2987
 2235SOL    HW218168   1.891   3.230   4.960 -0.5999  0.4197  0.4488
 2236SOL     OW18169   3.999   0.822  13.552  0.4166  0.6901 -0.4325
 2236SOL    HW118170   4.091   0.807  13.572  0.5952  0.7855 -1.1837
 2236SOL    HW218171   3.977   0.893  13.613 -0.9704 -0.9568  0.9651
 2237SOL     OW18172   0.053   1.468   4.790 -1.1288 -0.4463  0.4662
 2237SOL    HW118173   0.110   1.542   4.811 -0.3936 -0.4349 -1.6309
 2237SOL    HW218174   0.114   1.400   4.818 -1.5374 -1.1262 -0.2969
 2238SOL     OW18175   3.498   4.164   6.025 -0.2779 -0.1965 -0.8547
 2238SOL    HW118176   3.552   4.217   6.082 -0.1352  0.1972 -1.3589
 2238SOL    HW218177   3.509   4.071   6.044 -0.2108  0.0124  0.1182
 2239SOL     OW18178   1.088   0.080   4.873 -0.5135 -0.2510 -0.4242
 2239SOL    HW118179   1.113   0.170   4.894  0.4089 -0.9453  1.3699
 2239SOL    HW218180   1.026   0.097   4.801 -1.4545 -0.4520  0.3324
 2240SOL     OW18181   2.103   3.465  17.677 -0.0291 -0.2007  0.3325
 2240SOL    HW118182   2.080   3.407  17.604  0.6944  0.1164 -0.1549
 2240SOL    HW218183   2.054   3.538  17.639  1.3908  0.0588 -0.9839
 2241SOL     OW18184   1.194   4.599   3.890  0.0321  0.2606 -0.5115
 2241SOL    HW118185   1.155   4.660   3.827  1.2699  0.2046 -1.3386
 2241SOL    HW218186   1.279   4.592   3.845 -1.1376  0.0760 -2.6653
 2242SOL     OW18187   0.667   4.562   3.471  0.2623 -0.2864 -0.1337
 2242SOL    HW118188   0.577   4.545   3.445  0.0998 -1.8337  1.4690
 2242SOL    HW218189   0.689   4.620   3.398 -1.7759 -0.1689 -0.6644
 2243SOL     OW18190   2.661   0.557   4.496  0.2862  0.5586  0.1239
 2243SOL    HW118191   2.722   0.580   4.565 -2.2306  0.1049  2.5207
 2243SOL    HW218192   2.680   0.615   4.423  2.7087  0.2892  0.5515
 2244SOL     OW18193   2.059   3.020   9.499  0.4283 -0.0392  0.5609
 2244SOL    HW118194   2.059   3.115   9.512  2.6167  0.3956 -2.5935
 2244SOL    HW218195   2.112   2.991   9.573  0.4607  0.8051  0.8661
 2245SOL     OW18196   0.379   2.559   1.976  0.0638  0.1694  0.1196
 2245SOL    HW118197   0.396   2.497   2.047 -0.1776 -0.5512 -0.4560
 2245SOL    HW218198   0.459   2.612   1.975  0.6776 -0.7171  3.3259
 2246SOL     OW18199   3.283   0.334  17.114 -0.6711  0.6860  0.0229
 2246SOL    HW118200   3.266   0.271  17.045 -0.7773  2.2431 -1.3659
 2246SOL    HW218201   3.373   0.325  17.145 -1.4668 -1.1856  1.7986
 2247SOL     OW18202   2.269   3.074   0.478 -0.0110  0.3017 -0.2203
 2247SOL    HW118203   2.257   2.984   0.507 -3.9462  0.8589 -0.1353
 2247SOL    HW218204   2.358   3.066   0.442 -0.2580  1.4776 -1.1225
 2248SOL     OW18205   4.626   1.373  13.644 -0.5493 -0.0095  0.7567
 2248SOL    HW118206   4.568   1.407  13.711 -2.2717 -0.7194 -0.3760
 2248SOL    HW218207   4.581   1.412  13.569  1.0833  1.3600  0.4721
 2249SOL     OW18208   0.187   3.666   8.223  0.0270  0.0091  0.2883
 2249SOL    HW118209   0.126   3.676   8.296 -1.1928  2.4783 -1.0671
 2249SOL    HW218210   0.257   3.612   8.260 -0.3113 -0.8714 -0.3592
 2250SOL     OW18211   2.017   4.245   1.020  0.0110  0.7133 -0.1485
 2250SOL    HW118212   1.928   4.278   1.010 -0.0103  1.3674  2.1806
 2250SOL    HW218213   2.065   4.326   1.000 -0.0622  0.6313 -0.6552
 2251SOL     OW18214   3.677   1.882   8.448 -0.1377  0.6582  0.4552
 2251SOL    HW118215   3.680   1.867   8.354 -1.0411  0.1869  0.4987
 2251SOL    HW218216   3.771   1.893   8.463 -0.3956  2.4210  0.7641
 2252SOL     OW18217   0.177   0.346  17.227 -0.0894 -0.1338  0.5427
 2252SOL    HW118218   0.185   0.423  17.284 -1.8087  1.7046 -1.6557
 2252SOL    HW218219   0.241   0.363  17.158 -1.8267  0.7258 -0.8714
 2253SOL     OW18220   3.099   3.567   7.208 -0.3687 -0.0613 -0.3940
 2253SOL    HW118221   3.192   3.542   7.210 -0.5580 -0.6728  0.9972
 2253SOL    HW218222   3.105   3.637   7.143  0.1423 -0.6114 -0.9338
 2254SOL     OW18223   0.089   3.131   7.541 -0.2613  0.1276  0.1578
 2254SOL    HW118224   0.069   3.202   7.603 -0.7576  1.8721 -2.0068
 2254SOL    HW218225   0.038   3.059   7.579  0.0956 -0.7354 -0.9942
 2255SOL     OW18226   1.674   2.508  11.969  0.3087 -0.5861  0.5454
 2255SOL    HW118227   1.665   2.465  12.054  3.5336 -2.8944 -0.2790
 2255SOL    HW218228   1.769   2.523  11.966  0.1539 -0.0032 -1.2713
 2256SOL     OW18229   1.447   4.146   2.037  0.4015  0.1233 -0.6476
 2256SOL    HW118230   1.480   4.076   1.981 -2.5697 -0.2882 -1.9093
 2256SOL    HW218231   1.352   4.149   2.022  0.4171 -0.2030 -0.8052
 2257SOL     OW18232   3.410   4.672   3.155  0.3859  0.4040  0.1333
 2257SOL    HW118233   3.391   4.662   3.248 -3.2058 -0.4674 -0.6954
 2257SOL    HW218234   3.490   0.004   3.161  1.5460 -1.5887  1.7110
 2258SOL     OW18235   0.211   4.305   8.056 -0.2400  0.0610 -0.0246
 2258SOL    HW118236   0.251   4.222   8.084 -1.5301 -0.9849 -1.2740
 2258SOL    HW218237   0.122   4.272   8.048  0.3664 -1.8758  1.0491
 2259SOL     OW18238   3.200   4.154   0.050  0.5799 -0.7218  0.0546
 2259SOL    HW118239   3.274   4.095   0.049  0.6095 -0.6891  0.3228
 2259SOL    HW218240   3.139   4.101   0.101 -0.2096  0.6388  0.5368
 2260SOL     OW18241   1.777   1.158   6.354 -0.0685 -0.1041  0.7021
 2260SOL    HW118242   1.725   1.237   6.368  1.9742  1.4794 -0.6416
 2260SOL    HW218243   1.752   1.118   6.270  2.4181 -0.1451 -0.0346
 2261SOL     OW18244   4.591   1.692   4.946 -0.0422  0.3454 -0.4620
 2261SOL    HW118245   4.569   1.632   4.874 -0.8049 -2.4098  2.0967
 2261SOL    HW218246   4.511   1.700   4.997 -0.7987  0.6233 -1.6846
 2262SOL     OW18247   3.548   3.753   0.179 -0.5453 -0.3073 -0.1006
 2262SOL    HW118248   3.486   3.683   0.161 -1.1214  0.0131  0.6043
 2262SOL    HW218249   3.583   3.713   0.259 -0.1168 -3.2148 -1.7583
 2263SOL     OW18250   0.687   3.704  16.356  0.2009 -0.0301  0.2379
 2263SOL    HW118251   0.761   3.701  16.295  0.3461 -2.1512  0.4999
 2263SOL    HW218252   0.623   3.647  16.314 -1.3117  1.4069  0.5904
 2264SOL     OW18253   0.074   2.299   8.888 -0.0808  0.4341 -0.3697
 2264SOL    HW118254   0.078   2.206   8.869  0.6023  0.0895  1.5132
 2264SOL    HW218255   4.708   2.307   8.931 -0.2568 -0.5764 -0.5375
 2265SOL     OW18256   4.157   2.144  13.605 -0.4113  0.0905  0.4027
 2265SOL    HW118257   4.214   2.194  13.547  1.5864 -0.3708  1.9671
 2265SOL    HW218258   4.206   2.070  13.640  0.5655  0.8356  0.6313
 2266SOL     OW18259   2.260   1.802   4.627 -0.5724 -0.5739  0.4106
 2266SOL    HW118260   2.301   1.878   4.668 -0.1854 -0.0867 -0.8850
 2266SOL    HW218261   2.190   1.839   4.574 -0.6054 -1.8361 -0.4206
 2267SOL     OW18262   0.843   0.640   5.760  0.1775  0.2215 -0.0333
 2267SOL    HW118263   0.909   0.704   5.735  0.4725 -0.2783 -0.5501
 2267SOL    HW218264   0.839   0.584   5.682 -1.2881  1.5278 -0.9156
 2268SOL     OW18265   0.647   4.074   8.561 -0.2191  0.2273  0.4660
 2268SOL    HW118266   0.566   4.117   8.590 -0.2129  0.2967  0.3832
 2268SOL    HW218267   0.612   3.986   8.552 -0.4539  0.3029  0.6296
 2269SOL     OW18268   2.470   1.356  13.356 -0.8232 -0.4413  0.0599
 2269SOL    HW118269   2.531   1.330  13.288  0.4039  4.4888 -0.7394
 2269SOL    HW218270   2.438   1.267  13.374 -1.9661  0.0975  0.7192
 2270SOL     OW18271   3.668   3.782  15.983 -0.4605 -0.0089  0.1678
 2270SOL    HW118272   3.678   3.874  16.006  0.2426  0.1462 -0.8047
 2270SOL    HW218273   3.732   3.732  16.033  2.5752  1.7253 -2.0588
 2271SOL     OW18274   3.219   0.595   3.082 -0.5067 -0.2834 -0.5248
 2271SOL    HW118275   3.260   0.516   3.116 -1.2910 -0.2905  0.4067
 2271SOL    HW218276   3.296   0.652   3.089 -0.9614  0.3435 -0.6443
 2272SOL     OW18277   0.455   3.774   4.205  0.3012 -0.0077 -0.0746
 2272SOL    HW118278   0.478   3.685   4.178 -1.1219 -0.2308 -0.5355
 2272SOL    HW218279   0.516   3.823   4.150 -0.2941 -0.3878 -1.0634
 2273SOL     OW18280   2.528   0.818   6.968  0.0226  0.1621 -0.0345
 2273SOL    HW118281   2.521   0.752   7.036  0.2578  1.4142  1.2090
 2273SOL    HW218282   2.504   0.767   6.891 -1.6005 -1.2052  1.3889
 2274SOL     OW18283   3.752   1.321   7.490  0.0759  0.3445  0.2348
 2274SOL    HW118284   3.843   1.332   7.517  0.4550 -2.0590 -0.1319
 2274SOL    HW218285   3.718   1.256   7.551 -1.7034 -0.0198 -1.1296
 2275SOL     OW18286   4.070   2.500   1.606  0.3224 -0.1995 -0.4943
 2275SOL    HW118287   4.132   2.490   1.677 -2.1782 -0.2287  1.7035
 2275SOL    HW218288   4.001   2.555   1.644  1.5049  0.9602 -0.0522
 2276SOL     OW18289   0.448   0.650   9.275  0.8838 -0.0631  0.0129
 2276SOL    HW118290   0.541   0.641   9.254  1.2159  2.5759  0.3314
 2276SOL    HW218291   0.449   0.742   9.302 -0.5298 -1.0271  3.4144
 2277SOL     OW18292   1.604   1.140   5.666 -0.0987  0.3765 -0.1316
 2277SOL    HW118293   1.645   1.066   5.711 -0.4454 -0.2911 -0.8986
 2277SOL    HW218294   1.650   1.214   5.706 -0.9536 -0.2880  2.0921
 2278SOL     OW18295   0.040   2.985   1.959 -0.7192  0.0629  0.4344
 2278SOL    HW118296   0.098   2.908   1.963 -0.3978  0.3737  1.7560
 2278SOL    HW218297   0.102   3.057   1.953 -0.8877 -0.1275 -3.4765
 2279SOL     OW18298   3.656   4.190   9.697  0.2194 -0.5577 -0.6837
 2279SOL    HW118299   3.728   4.240   9.657  0.2580  0.1655  0.3051
 2279SOL    HW218300   3.695   4.103   9.686  2.9475  0.5846 -0.0813
 2280SOL     OW18301   4.571   2.560   8.059 -0.6853  0.8841  0.7574
 2280SOL    HW118302   4.477   2.574   8.073 -1.1738  0.4570 -2.0712
 2280SOL    HW218303   4.568   2.530   7.968  2.3115  0.4650  0.8175
 2281SOL     OW18304   3.881   0.238  10.693 -0.3738 -0.4588 -0.0880
 2281SOL    HW118305   3.835   0.318  10.717  0.6938  0.6935 -1.9198
 2281SOL    HW218306   3.833   0.177  10.750 -1.2992  2.4370  2.1917
 2282SOL     OW18307   3.219   1.022   6.187  0.4604 -0.6656 -0.2909
 2282SOL    HW118308   3.293   0.961   6.191 -1.3668 -2.9483 -1.2385
 2282SOL    HW218309   3.220   1.058   6.099 -0.3860 -1.3846 -0.5865
 2283SOL     OW18310   3.048   4.355   1.307  0.0374  0.5430  0.3136
 2283SOL    HW118311   3.134   4.336   1.269 -0.8857 -1.6783 -0.6767
 2283SOL    HW218312   3.006   4.269   1.314 -0.5116  0.9448  2.1165
 2284SOL     OW18313   2.914   4.639  13.215 -0.7811  0.0353 -0.1865
 2284SOL    HW118314   2.861   4.698  13.162  0.6968 -1.0419 -2.8761
 2284SOL    HW218315   2.917   4.559  13.163  0.9071 -1.7713  2.6652
 2285SOL     OW18316   3.913   3.889   5.633  0.0539  0.4454 -0.0850
 2285SOL    HW118317   3.883   3.976   5.659  0.7766  0.6967 -0.0976
 2285SOL    HW218318   3.972   3.860   5.702  0.5879  1.6558 -0.0264
 2286SOL     OW18319   0.779   4.149   0.646  0.3431  0.5745  0.5920
 2286SOL    HW118320   0.818   4.236   0.652  1.1371  0.2743 -0.2610
 2286SOL    HW218321   0.697   4.149   0.695 -1.8803 -0.0954 -3.1121
 2287SOL     OW18322   4.014   2.680   4.718 -0.4784 -0.8337 -0.5619
 2287SOL    HW118323   3.983   2.735   4.647 -1.5097 -0.6302  0.0381
 2287SOL    HW218324   4.099   2.648   4.687  0.8063  3.1265 -1.0258
 2288SOL     OW18325   1.247   4.357   6.565 -0.5873 -0.4059  0.8388
 2288SOL    HW118326   1.339   4.351   6.589 -0.1632  2.9819  0.0095
 2288SOL    HW218327   1.227   4.267   6.538  1.4421 -0.8014  0.6502
 2289SOL     OW18328   2.855   2.259   0.967  0.0511 -0.2450  0.0581
 2289SOL    HW118329   2.947   2.264   0.995  0.3522 -2.7084 -0.4760
 2289SOL    HW218330   2.846   2.343   0.922  0.1239  0.7935  2.0083
 2290SOL     OW18331   1.325   4.243   6.217  0.2343  0.4517 -0.1799
 2290SOL    HW118332   1.285   4.202   6.293  1.3494  0.1997  0.2782
 2290SOL    HW218333   1.253   4.271   6.160 -0.4626  0.6528  0.8144
 2291SOL     OW18334   1.594   1.878   7.450  0.1106 -0.2007  0.0838
 2291SOL    HW118335   1.671   1.928   7.477  0.6487 -0.1100 -1.6509
 2291SOL    HW218336   1.522   1.937   7.470  0.0560  0.5142 -2.2003
 2292SOL     OW18337   0.009   2.072  14.634 -0.1622  0.1755 -0.1825
 2292SOL    HW118338   0.023   2.007  14.702  0.4924 -1.8164 -2.2259
 2292SOL    HW218339   4.638   2.060  14.606 -0.1653  0.0196 -0.1072
 2293SOL     OW18340   1.172   3.153   8.207 -0.1734 -0.7084 -0.4929
 2293SOL    HW118341   1.212   3.236   8.234 -0.4607 -1.4028  2.1314
 2293SOL    HW218342   1.118   3.171   8.130 -0.6302  1.0497  0.2271
 2294SOL     OW18343   4.210   1.888   7.368 -0.0502 -0.1089 -0.3599
 2294SOL    HW118344   4.147   1.911   7.300  1.3231 -0.7423 -1.8225
 2294SOL    HW218345   4.291   1.905   7.319  0.8793 -0.4370  1.0489
 2295SOL     OW18346   0.245   3.840   1.509  0.2409  0.0791  0.2607
 2295SOL    HW118347   0.253   3.877   1.421  1.1249  0.2247  0.4041
 2295SOL    HW218348   0.151   3.837   1.525  0.3046  3.1028  1.1842
 2296SOL     OW18349   1.661   0.865   8.550  0.1786  0.4724  0.0752
 2296SOL    HW118350   1.616   0.836   8.470 -1.7602  0.0169  1.3487
 2296SOL    HW218351   1.649   0.791   8.609 -0.5951  1.2412  0.8822
 2297SOL     OW18352   1.960   1.606   4.121 -0.0602 -0.0345  0.3720
 2297SOL    HW118353   1.992   1.522   4.087 -1.0258  0.7315 -2.4817
 2297SOL    HW218354   2.040   1.651   4.147  0.5133 -1.4747  1.1266
 2298SOL     OW18355   1.800   3.866   9.006 -0.4417  0.3867  0.1864
 2298SOL    HW118356   1.889   3.893   9.031 -0.7203  0.9742  0.5386
 2298SOL    HW218357   1.807   3.778   9.041 -0.6891  0.6034  0.7807
 2299SOL     OW18358   0.409   0.437   4.193  0.1045 -0.0962  0.1658
 2299SOL    HW118359   0.356   0.357   4.191 -0.4047  0.2343  0.3969
 2299SOL    HW218360   0.410   0.467   4.284  0.7149  0.4695 -0.0315
 2300SOL     OW18361   3.351   2.774   7.581 -0.1443  0.4901 -0.0186
 2300SOL    HW118362   3.424   2.713   7.579  0.3302  0.9461  2.7796
 2300SOL    HW218363   3.292   2.731   7.519 -1.1013 -1.0696  2.0034
 2301SOL     OW18364   2.712   1.420   5.593 -0.2910 -0.1289  0.1654
 2301SOL    HW118365   2.706   1.439   5.687  0.0106  0.4825  0.0599
 2301SOL    HW218366   2.804   1.406   5.571  0.0208 -0.5658  1.7753
 2302SOL     OW18367   0.033   1.989  13.008  0.0837  0.4055  0.7267
 2302SOL    HW118368   0.002   2.045  12.936 -2.2148  0.4474  1.7317
 2302SOL    HW218369   4.675   1.989  13.064  0.5790 -1.6816  1.3828
 2303SOL     OW18370   3.266   3.231   8.427  0.1957  0.3516 -0.1219
 2303SOL    HW118371   3.212   3.308   8.444  0.7645  0.8416 -0.5319
 2303SOL    HW218372   3.243   3.218   8.335  1.0849  0.7725 -0.4082
 2304SOL     OW18373   4.247   2.633  15.367 -0.3324  0.2940 -0.2785
 2304SOL    HW118374   4.318   2.698  15.365 -1.1664  1.2098 -0.1483
 2304SOL    HW218375   4.282   2.569  15.305  2.4690  0.3127  1.2969
 2305SOL     OW18376   0.180   1.576   7.151 -0.1051 -0.8386 -0.3225
 2305SOL    HW118377   0.123   1.515   7.198 -1.9626  0.5564 -0.7545
 2305SOL    HW218378   0.124   1.619   7.087  0.0343 -0.5655 -0.2594
 2306SOL     OW18379   4.573   1.016  17.633  0.3636  0.8694 -0.0142
 2306SOL    HW118380   4.554   0.943   0.012  1.1522 -0.9073 -1.9466
 2306SOL    HW218381   4.663   1.045  17.652 -0.0727  0.8500  2.1615
 2307SOL     OW18382   0.287   0.620   7.651  0.0804  0.0439 -0.1763
 2307SOL    HW118383   0.371   0.653   7.619  0.1263  0.6604  0.5879
 2307SOL    HW218384   0.280   0.666   7.735  1.4182  0.0529 -0.0748
 2308SOL     OW18385   1.836   0.900  12.217 -0.0703 -0.1422 -0.7054
 2308SOL    HW118386   1.830   0.805  12.231  1.0409  0.0109  0.7886
 2308SOL    HW218387   1.780   0.936  12.286  2.8742  0.7344  1.2235
 2309SOL     OW18388   3.075   4.182   6.907 -0.5259 -0.0523  0.2100
 2309SOL    HW118389   3.136   4.109   6.899 -0.7819 -0.1670 -0.7097
 2309SOL    HW218390   3.134   4.257   6.913 -1.7171  0.8252  0.9909
 2310SOL     OW18391   0.328   4.085   0.047 -0.6351  0.1891 -1.1892
 2310SOL    HW118392   0.382   4.022   0.095  0.1152  0.9206 -1.0719
 2310SOL    HW218393   0.374   4.096  17.645  1.1982 -0.5099 -0.2644
 2311SOL     OW18394   1.417   2.416   7.567 -0.2093  0.4176  0.3481
 2311SOL    HW118395   1.447   2.360   7.496 -1.9103 -0.2251  0.1388
 2311SOL    HW218396   1.342   2.370   7.604 -0.0959  0.9143  1.1978
 2312SOL     OW18397   3.196   4.305   8.124  0.2703 -0.5645 -0.5414
 2312SOL    HW118398   3.216   4.314   8.217  0.2172 -0.3936 -0.5470
 2312SOL    HW218399   3.116   4.356   8.110  0.4215 -0.1347  0.2188
 2313SOL     OW18400   1.129   4.377   0.195 -0.0121  0.8074  0.2255
 2313SOL    HW118401   1.040   4.394   0.226 -0.3039  0.1715 -0.2695
 2313SOL    HW218402   1.144   4.285   0.215  0.7268  0.9189  0.1838
 2314SOL     OW18403   2.861   0.119   9.150  0.4179  0.5290 -0.1010
 2314SOL    HW118404   2.822   0.032   9.155  2.8552 -0.3049  3.8362
 2314SOL    HW218405   2.791   0.154   9.095  0.9014  1.0991 -0.3458
 2315SOL     OW18406   2.855   0.697  13.093  0.8616  0.0600  0.4098
 2315SOL    HW118407   2.798   0.719  13.167  2.2583  1.5754  1.0458
 2315SOL    HW218408   2.912   0.775  13.093 -0.0383  0.7176 -0.2850
 2316SOL     OW18409   3.391   2.030   2.270 -0.1131  0.3462 -0.5710
 2316SOL    HW118410   3.373   2.119   2.301 -1.0480  0.3303 -1.0738
 2316SOL    HW218411   3.344   2.024   2.187  1.1636  1.1447 -1.3554
 2317SOL     OW18412   0.816   0.383   1.179  0.3188 -0.4153 -0.0154
 2317SOL    HW118413   0.733   0.369   1.226  2.0973 -2.7465  2.4501
 2317SOL    HW218414   0.856   0.452   1.233 -2.5386  1.4758 -0.2867
 2318SOL     OW18415   3.627   2.122   8.607  0.1316 -0.6500  0.4206
 2318SOL    HW118416   3.624   2.034   8.569  1.2354  0.2176 -1.6325
 2318SOL    HW218417   3.711   2.118   8.653  1.1880  1.7588 -1.3437
 2319SOL     OW18418   2.928   4.307   7.083 -0.0017 -0.0881 -0.5213
 2319SOL    HW118419   2.930   4.390   7.034 -3.5844 -0.4285 -1.2795
 2319SOL    HW218420   2.979   4.254   7.021 -1.2538 -0.5246 -1.1732
 2320SOL     OW18421   2.927   0.048   8.494 -0.6256 -0.3265 -0.1267
 2320SOL    HW118422   2.938   4.676   8.520 -0.2375  0.8318  3.7030
 2320SOL    HW218423   2.984   0.093   8.557 -1.4970  0.0465  0.3966
 2321SOL     OW18424   3.594   4.547  13.131 -0.7939  0.3817 -0.0704
 2321SOL    HW118425   3.607   4.486  13.059 -1.0613 -0.6718  0.7873
 2321SOL    HW218426   3.580   4.482  13.200 -1.6761 -1.2306 -1.7735
 2322SOL     OW18427   1.254   1.818   9.651  0.1007  0.7823  0.4017
 2322SOL    HW118428   1.182   1.839   9.592  0.3667  1.9593  0.4960
 2322SOL    HW218429   1.211   1.844   9.733  0.0204 -0.3630  0.7263
 2323SOL     OW18430   1.798   4.712  17.202  1.1179  0.0944 -0.3130
 2323SOL    HW118431   1.840   4.689  17.119  1.7156 -1.6150  0.4598
 2323SOL    HW218432   1.713   0.011  17.164  0.4177 -0.4413  0.9789
 2324SOL     OW18433   3.694   3.514   5.415  0.5751 -0.7775  0.0428
 2324SOL    HW118434   3.703   3.610   5.410 -0.2269 -0.8757 -3.1372
 2324SOL    HW218435   3.646   3.499   5.334 -2.9592  0.4476  1.9102
 2325SOL     OW18436   0.440   0.135  12.649 -0.4471 -0.2799 -0.8406
 2325SOL    HW118437   0.513   0.079  12.676 -1.1938 -1.2897 -0.9034
 2325SOL    HW218438   0.381   0.069  12.613  0.4141 -1.9258  0.7082
 2326SOL     OW18439   4.188   2.144  13.906  0.2908  0.6025  0.4861
 2326SOL    HW118440   4.254   2.076  13.922  1.3110  1.6730  0.7831
 2326SOL    HW218441   4.245   2.213  13.871  0.2032  0.3827 -0.1037
 2327SOL     OW18442   1.642   0.336   3.853 -0.3343  0.2936  0.4644
 2327SOL    HW118443   1.732   0.303   3.846 -0.4596  0.4352 -1.7941
 2327SOL    HW218444   1.600   0.262   3.810 -0.6559  0.8229 -0.1189
 2328SOL     OW18445   0.280   0.816   6.174 -0.6923 -0.1816  0.0020
 2328SOL    HW118446   0.270   0.731   6.216  2.2876 -0.3364  0.4043
 2328SOL    HW218447   0.311   0.793   6.087 -0.4603 -0.0833  0.0575
 2329SOL     OW18448   0.034   2.231   5.641  0.1702 -0.3661 -0.0269
 2329SOL    HW118449   0.018   2.316   5.683 -2.0373 -0.1812 -1.2238
 2329SOL    HW218450   0.127   2.240   5.622 -0.3026  2.1553 -1.1783
 2330SOL     OW18451   2.945   0.668   4.339 -0.1106 -0.1060  0.4435
 2330SOL    HW118452   2.955   0.584   4.294 -2.0654 -0.6567  1.0150
 2330SOL    HW218453   2.981   0.639   4.423  1.1209  3.3337  1.1030
 2331SOL     OW18454   3.477   2.437   6.090 -0.4368  0.0441 -0.3747
 2331SOL    HW118455   3.421   2.359   6.090 -1.5481  0.8328 -1.0542
 2331SOL    HW218456   3.438   2.492   6.158 -0.2299  0.2482 -0.4220
 2332SOL     OW18457   3.618   3.937   6.111  0.2234 -0.2100  0.5230
 2332SOL    HW118458   3.604   3.894   6.196 -0.1837  0.2984  0.7143
 2332SOL    HW218459   3.653   3.870   6.053 -0.1105  0.7304 -0.7614
 2333SOL     OW18460   3.664   3.870   6.382 -0.1066 -0.1892  0.1348
 2333SOL    HW118461   3.748   3.825   6.371  1.7838  3.0758  1.2485
 2333SOL    HW218462   3.678   3.882   6.476 -0.0357  0.1995  0.0766
 2334SOL     OW18463   2.970   1.784  10.673  0.6490 -0.4861 -0.0358
 2334SOL    HW118464   2.941   1.697  10.701  3.7873 -1.7281 -0.6640
 2334SOL    HW218465   3.062   1.776  10.699  1.0007  2.9250 -0.1566
 2335SOL     OW18466   2.888   1.559   7.128  0.1281 -0.4852  0.4822
 2335SOL    HW118467   2.811   1.535   7.179 -0.1241 -0.5269  0.0809
 2335SOL    HW218468   2.954   1.601   7.184 -0.8921  0.8071  0.7270
 2336SOL     OW18469   4.099   0.570  13.117  0.2832  0.0712  0.1539
 2336SOL    HW118470   4.147   0.541  13.039  0.9718  0.1359  0.5529
 2336SOL    HW218471   4.172   0.581  13.178  0.5599  0.6785 -0.2845
 2337SOL     OW18472   3.419   0.345  16.454 -0.2217 -0.0429  0.3738
 2337SOL    HW118473   3.385   0.296  16.379  1.2018 -1.7590  0.8577
 2337SOL    HW218474   3.507   0.309  16.464 -0.0309 -0.1344 -1.7776
 2338SOL     OW18475   3.753   2.257   3.241  0.1124  0.2211 -0.5024
 2338SOL    HW118476   3.698   2.195   3.192  0.2876 -0.9263  0.7687
 2338SOL    HW218477   3.839   2.224   3.217  0.4083  0.2761  0.4794
 2339SOL     OW18478   3.675   1.010   7.993 -0.0555 -0.4059  0.1090
 2339SOL    HW118479   3.640   0.924   8.017 -0.6778 -0.2752 -0.3462
 2339SOL    HW218480   3.604   1.047   7.942  0.3499 -1.3584 -1.1548
 2340SOL     OW18481   1.673   3.639   3.942  0.2793 -0.4292 -0.3934
 2340SOL    HW118482   1.627   3.717   3.973  0.5396 -0.0104 -1.0386
 2340SOL    HW218483   1.699   3.667   3.854 -0.8567 -0.0385 -0.5948
 2341SOL     OW18484   4.607   2.242   4.414 -0.2489  0.0856 -0.7123
 2341SOL    HW118485   4.616   2.214   4.323  2.2122  1.9342 -1.0276
 2341SOL    HW218486   4.693   2.274   4.440 -0.2047 -1.3926  1.0270
 2342SOL     OW18487   4.082   0.826   2.715 -0.2503 -0.1441 -0.2935
 2342SOL    HW118488   4.106   0.752   2.658 -2.5321 -0.5500 -0.7249
 2342SOL    HW218489   3.988   0.812   2.716 -0.3650  0.7869  1.6689
 2343SOL     OW18490   1.224   0.036   3.637 -0.0059  0.4319 -0.9512
 2343SOL    HW118491   1.223   4.719   3.549 -2.0324  0.0892 -0.7980
 2343SOL    HW218492   1.180   0.120   3.623  1.1343  1.4039  1.2289
 2344SOL     OW18493   0.248   4.625   0.032 -0.6074  0.6603 -0.1397
 2344SOL    HW118494   0.260   4.596  17.622 -3.6046  0.8186 -0.5708
 2344SOL    HW218495   0.302   4.704   0.039 -0.1450  0.4671 -1.4533
 2345SOL     OW18496   2.877   1.667   1.949 -0.3992  0.0301  0.4573
 2345SOL    HW118497   2.843   1.756   1.959 -4.5525 -1.3879 -1.3286
 2345SOL    HW218498   2.798   1.617   1.932  0.2260 -0.7220 -0.2588
 2346SOL     OW18499   4.252   4.351  11.006  0.0293 -0.5972 -0.2461
 2346SOL    HW118500   4.206   4.276  10.968  0.2115 -0.4901 -0.6774
 2346SOL    HW218501   4.340   4.318  11.025  1.3430  2.8153 -0.4790
 2347SOL     OW18502   2.202   0.021   6.256  0.0223 -0.3744  0.0998
 2347SOL    HW118503   2.215   0.095   6.315 -3.4509  0.2114  0.0934
 2347SOL    HW218504   2.111   4.715   6.268 -0.1966 -0.1681 -1.1342
 2348SOL     OW18505   1.142   3.046   1.519  0.0034 -0.2342  0.0947
 2348SOL    HW118506   1.183   3.120   1.475 -1.5318 -1.3726 -3.2405
 2348SOL    HW218507   1.207   3.023   1.585 -0.0315  0.2284  0.2922
 2349SOL     OW18508   1.851   0.751  16.498  0.9023  0.0538 -0.2539
 2349SOL    HW118509   1.796   0.716  16.428  2.1068  1.3039 -1.8168
 2349SOL    HW218510   1.816   0.706  16.576  0.9278 -0.1026 -0.3322
 2350SOL     OW18511   3.808   4.445   4.998  0.1160 -0.1655  0.1589
 2350SOL    HW118512   3.722   4.424   4.961  1.5079 -1.7302 -2.1741
 2350SOL    HW218513   3.793   4.529   5.041 -1.2976 -0.4578  0.2407
 2351SOL     OW18514   1.052   2.701   6.291 -0.2053 -0.2937  0.0048
 2351SOL    HW118515   1.119   2.769   6.303  1.0690 -1.1116 -2.4496
 2351SOL    HW218516   1.017   2.685   6.378  1.3354 -0.0510  0.6681
 2352SOL     OW18517   3.959   4.505   6.089  0.0416 -0.5280  0.2776
 2352SOL    HW118518   4.018   4.444   6.045 -1.0459 -1.8510  0.6697
 2352SOL    HW218519   3.911   4.455   6.155  0.7227  1.0716  1.9943
 2353SOL     OW18520   0.805   3.849  10.112  0.1486  0.1675 -0.3089
 2353SOL    HW118521   0.900   3.834  10.113  0.4428  2.0562 -0.8514
 2353SOL    HW218522   0.775   3.768  10.153  0.0084  0.1439 -0.4581
 2354SOL     OW18523   0.281   1.515   9.894 -0.0029 -0.2268 -0.2246
 2354SOL    HW118524   0.298   1.605   9.921 -1.0005  0.0627 -0.5851
 2354SOL    HW218525   0.189   1.504   9.919  0.5015 -0.0511  1.6898
 2355SOL     OW18526   2.510   0.148   3.087  0.5243 -0.4488  0.2062
 2355SOL    HW118527   2.538   0.157   2.996 -2.9094 -0.5675 -0.8330
 2355SOL    HW218528   2.489   0.240   3.105 -0.3929 -0.7120  0.4556
 2356SOL     OW18529   3.699   2.232   1.640 -0.0421  0.2384 -0.2445
 2356SOL    HW118530   3.719   2.253   1.548  0.3288  2.0346  0.2553
 2356SOL    HW218531   3.696   2.137   1.631 -4.9416  0.2690  0.8082
 2357SOL     OW18532   0.984   1.284   7.115 -0.4543 -0.0289 -0.0824
 2357SOL    HW118533   1.002   1.205   7.166  2.6285  0.6389 -0.1615
 2357SOL    HW218534   0.902   1.269   7.068 -0.2108 -0.1771 -0.4588
 2358SOL     OW18535   0.938   1.566   6.332 -0.6312  0.6037  0.1414
 2358SOL    HW118536   0.869   1.627   6.358  1.0819  3.6624 -2.4889
 2358SOL    HW218537   1.007   1.628   6.306  0.4044 -1.0550 -1.0334
 2359SOL     OW18538   1.271   0.852   2.033 -0.2720 -0.1908 -0.1094
 2359SOL    HW118539   1.223   0.935   2.025  0.0239 -0.0375 -0.3034
 2359SOL    HW218540   1.331   0.882   2.101  0.5024 -0.1236 -0.8167
 2360SOL     OW18541   1.278   1.638   6.448 -0.1038 -0.4809  0.1214
 2360SOL    HW118542   1.229   1.561   6.478 -1.0962  0.3743  0.7061
 2360SOL    HW218543   1.215   1.683   6.392 -0.4135  0.4623  1.2273
 2361SOL     OW18544   0.486   3.635  16.763  0.5750  0.2835 -0.3074
 2361SOL    HW118545   0.428   3.662  16.691  1.2896 -0.6698 -1.2351
 2361SOL    HW218546   0.571   3.659  16.727  0.9424 -1.0228 -0.2873
 2362SOL     OW18547   1.066   1.299   5.249 -0.0866 -0.0751  0.3645
 2362SOL    HW118548   0.973   1.276   5.261 -0.6545  0.9969 -1.9128
 2362SOL    HW218549   1.061   1.381   5.298 -2.9121  0.3730 -0.6268
 2363SOL     OW18550   4.538   1.531  15.554  0.5014 -0.0047  0.4219
 2363SOL    HW118551   4.522   1.623  15.573  0.0786  0.2109 -0.9955
 2363SOL    HW218552   4.597   1.547  15.480  0.6636 -1.6980  0.1828
 2364SOL     OW18553   0.197   2.993   2.888  0.5498  0.0786  0.1579
 2364SOL    HW118554   0.257   2.927   2.852  1.4498  0.5817  0.7241
 2364SOL    HW218555   0.132   2.996   2.818 -1.7421  1.1313  2.3363
 2365SOL     OW18556   4.433   3.906  10.042  0.0127  1.0248 -0.1000
 2365SOL    HW118557   4.490   3.861  10.105 -0.0537  0.8853 -0.1399
 2365SOL    HW218558   4.347   3.907  10.083 -0.0049  1.4814 -0.1450
 2366SOL     OW18559   2.102   3.014   5.102  0.6235  0.0664  0.2494
 2366SOL    HW118560   2.069   3.050   5.185  0.1817  0.8554 -0.2720
 2366SOL    HW218561   2.076   3.082   5.041 -2.8361  0.2033  1.9009
 2367SOL     OW18562   0.739   1.961  10.941  0.8452  0.1995  0.0051
 2367SOL    HW118563   0.698   1.987  11.023 -2.3807  0.4334 -1.6552
 2367SOL    HW218564   0.703   1.877  10.913  1.6372  0.3855 -1.5673
 2368SOL     OW18565   3.113   3.178  11.634 -0.5443 -0.5365 -0.4068
 2368SOL    HW118566   3.140   3.100  11.683  0.0833 -0.5082 -0.7072
 2368SOL    HW218567   3.143   3.149  11.547 -1.1458 -1.1671 -0.4099
 2369SOL     OW18568   0.901   0.624   6.219 -0.2143  0.1721  0.6265
 2369SOL    HW118569   0.826   0.644   6.163  0.7681  2.6386  0.1660
 2369SOL    HW218570   0.905   0.706   6.268  0.5195  0.7905 -0.4571
 2370SOL     OW18571   0.373   1.549   6.862  0.4494  0.3144 -0.2244
 2370SOL    HW118572   0.436   1.602   6.911  0.5302  0.6483 -0.6860
 2370SOL    HW218573   0.304   1.611   6.837 -0.8284 -0.3176  1.7593
 2371SOL     OW18574   0.050   4.685   3.895  0.0040  0.5090 -0.0855
 2371SOL    HW118575   0.135   4.719   3.866  0.1979  0.2886  0.2203
 2371SOL    HW218576   4.710   0.003   3.830 -1.7778 -1.0401  0.6787
 2372SOL     OW18577   0.475   3.153   2.872  0.1280 -0.3021  0.3529
 2372SOL    HW118578   0.397   3.127   2.920 -0.7640  1.4436 -0.1515
 2372SOL    HW218579   0.436   3.182   2.790  0.6142  3.0102  1.2996
 2373SOL     OW18580   3.543   1.543   9.099  0.3603 -0.4016  0.4431
 2373SOL    HW118581   3.616   1.583   9.147 -0.7769 -0.0291  1.8516
 2373SOL    HW218582   3.482   1.532   9.171  0.8467 -1.9680  0.6039
 2374SOL     OW18583   0.001   2.835   7.072  0.5733  0.1583  0.2797
 2374SOL    HW118584   0.005   2.864   6.981  0.3193  1.5835  0.7217
 2374SOL    HW218585   4.632   2.799   7.077  0.1172  1.2458  0.0507
 2375SOL     OW18586   1.787   4.303  14.874  0.1237 -0.3466  0.1822
 2375SOL    HW118587   1.777   4.394  14.846  0.6952 -1.0678 -2.3739
 2375SOL    HW218588   1.870   4.283  14.831 -0.6453 -4.3343  0.5280
 2376SOL     OW18589   4.275   3.559   6.550  0.7417  0.5278 -0.5174
 2376SOL    HW118590   4.255   3.613   6.473  1.1236 -0.0913 -1.0527
 2376SOL    HW218591   4.358   3.527   6.513  0.4262 -0.3564 -0.4597
 2377SOL     OW18592   3.748   4.272  12.148  0.2127  0.3536  0.0651
 2377SOL    HW118593   3.665   4.236  12.116  0.2498 -0.6961  1.1917
 2377SOL    HW218594   3.736   4.253  12.241 -1.3278  2.5071  0.3066
 2378SOL     OW18595   0.760   3.922   0.465  0.1424 -0.2179  0.0878
 2378SOL    HW118596   0.763   4.009   0.505 -1.4165  0.5912 -1.5785
 2378SOL    HW218597   0.759   3.944   0.372  2.5208  1.3288  0.4375
 2379SOL     OW18598   4.519   0.100   8.208 -0.2146  0.1405  0.4084
 2379SOL    HW118599   4.597   0.107   8.263 -1.2832  1.3268  1.7718
 2379SOL    HW218600   4.530   0.157   8.132  3.0376 -2.2936 -0.9530
 2380SOL     OW18601   3.958   2.255   7.937 -0.4007  0.4696 -0.7017
 2380SOL    HW118602   3.893   2.264   7.868  0.0740  0.2893 -1.1779
 2380SOL    HW218603   3.957   2.160   7.948  2.0882  0.4617 -0.3878
 2381SOL     OW18604   0.504   1.153  14.690  0.0503 -0.1681  0.8043
 2381SOL    HW118605   0.513   1.059  14.700  1.2800 -0.5211 -3.7370
 2381SOL    HW218606   0.455   1.154  14.607  0.0344  0.6583  0.8172
 2382SOL     OW18607   4.632   1.141   6.613 -0.3122 -0.2196 -0.1610
 2382SOL    HW118608   4.594   1.109   6.531 -2.5135 -0.1098  0.7990
 2382SOL    HW218609   4.691   1.072   6.644 -1.1182 -0.6130  0.5158
 2383SOL     OW18610   0.827   2.726  13.528  0.1650 -0.5102  0.2559
 2383SOL    HW118611   0.800   2.753  13.441  0.2239  0.4563  0.5458
 2383SOL    HW218612   0.917   2.757  13.535 -0.3671  0.8830  1.0369
 2384SOL     OW18613   0.449   2.446   7.666 -0.1424 -0.1650  0.6693
 2384SOL    HW118614   0.530   2.396   7.671  0.6694  0.9779 -0.9320
 2384SOL    HW218615   0.480   2.513   7.605 -0.0073 -1.8514 -1.1156
 2385SOL     OW18616   0.562   0.562   5.099 -0.0112  0.0443  0.0107
 2385SOL    HW118617   0.594   0.643   5.138  1.1582 -0.4755  0.1460
 2385SOL    HW218618   0.499   0.529   5.163 -0.4316  0.6310 -0.1123
 2386SOL     OW18619   3.134   1.393   5.734 -0.2393 -0.5763  0.1349
 2386SOL    HW118620   3.057   1.407   5.679 -0.3554  1.0482  0.6905
 2386SOL    HW218621   3.198   1.363   5.671 -1.4413 -0.3250 -1.1970
 2387SOL     OW18622   0.180   0.904  15.481  0.5676  0.9885  0.7751
 2387SOL    HW118623   0.250   0.964  15.456  1.1992  0.1003  0.4185
 2387SOL    HW218624   0.217   0.852  15.553 -1.3490 -0.7579  0.5201
 2388SOL     OW18625   0.990   3.435  11.930  0.4484  0.2694 -0.7716
 2388SOL    HW118626   0.905   3.458  11.894  1.0434  0.0940 -2.2859
 2388SOL    HW218627   1.034   3.517  11.952 -2.1500  1.5110 -0.2452
 2389SOL     OW18628   0.704   0.312   8.291  0.1506 -0.1133 -0.7178
 2389SOL    HW118629   0.680   0.223   8.265  0.1583  0.1286 -1.5395
 2389SOL    HW218630   0.674   0.298   8.381 -0.5819  0.4515 -0.8817
 2390SOL     OW18631   0.716   1.902   5.760 -0.2304 -0.0096 -0.0454
 2390SOL    HW118632   0.773   1.928   5.832 -1.7741  2.1262  0.4199
 2390SOL    HW218633   0.777   1.853   5.705  1.8677  0.4600  1.8677
 2391SOL     OW18634   1.075   1.692  12.687  0.3684  0.3136  0.3140
 2391SOL    HW118635   1.136   1.765  12.689 -1.4776  1.8590  0.8030
 2391SOL    HW218636   1.138   1.630  12.651 -0.5592 -0.2963 -0.2885
 2392SOL     OW18637   4.240   0.271   8.539  0.4674  0.4395  0.2376
 2392SOL    HW118638   4.325   0.241   8.570  0.1204 -1.3035 -0.5195
 2392SOL    HW218639   4.204   0.312   8.617  0.2995  0.1824  0.2934
 2393SOL     OW18640   2.585   1.720   7.295 -0.1945 -0.6465 -0.6383
 2393SOL    HW118641   2.519   1.724   7.364  0.4566  1.2253 -0.1142
 2393SOL    HW218642   2.623   1.632   7.293  0.8563 -0.1940 -0.7572
 2394SOL     OW18643   0.522   3.873  10.641  0.0651 -0.2829  0.4137
 2394SOL    HW118644   0.550   3.846  10.553  1.7666 -0.4439  1.0044
 2394SOL    HW218645   0.604   3.869  10.690  0.4289 -1.0861 -0.2653
 2395SOL     OW18646   3.521   3.226  11.671  0.4846 -0.1586 -0.1205
 2395SOL    HW118647   3.476   3.166  11.731 -1.5712  0.2595 -1.2135
 2395SOL    HW218648   3.489   3.313  11.696 -0.4041 -0.4273 -0.3068
 2396SOL     OW18649   3.964   1.360   8.799  0.2643  0.2892  0.0332
 2396SOL    HW118650   3.871   1.349   8.783  0.1722 -1.2363  1.6427
 2396SOL    HW218651   3.980   1.446   8.758 -0.4358  1.1599  1.5870
 2397SOL     OW18652   4.487   0.537  11.354 -0.0124 -0.0037  0.1450
 2397SOL    HW118653   4.511   0.464  11.297 -0.5008 -0.0094 -0.0501
 2397SOL    HW218654   4.433   0.589  11.295  0.0273  1.0031  0.9885
 2398SOL     OW18655   2.971   4.336   9.478  0.3116  0.1214 -0.0719
 2398SOL    HW118656   2.975   4.365   9.569  0.0167 -0.2659  0.0645
 2398SOL    HW218657   2.876   4.347   9.467  0.2386  0.1501  0.5988
 2399SOL     OW18658   0.370   3.737   7.999  0.0224  0.2218  0.1240
 2399SOL    HW118659   0.438   3.702   8.056  0.0104 -1.5722 -0.9338
 2399SOL    HW218660   0.292   3.699   8.040 -1.2739  0.1261 -2.3611
 2400SOL     OW18661   4.386   0.956   0.699 -0.4718 -0.0579  0.0000
 2400SOL    HW118662   4.390   1.036   0.647  0.1934 -0.4367 -0.5313
 2400SOL    HW218663   4.328   0.897   0.650 -1.6712  1.4646 -0.4117
 2401SOL     OW18664   3.948   2.412   2.647  0.2686 -0.1319  0.5589
 2401SOL    HW118665   3.946   2.325   2.607  1.2013  1.4918 -2.9246
 2401SOL    HW218666   3.873   2.425   2.705 -1.5991 -0.0051 -1.9240
 2402SOL     OW18667   0.544   4.218   7.436  0.5393 -0.1735  0.0562
 2402SOL    HW118668   0.628   4.209   7.390  1.1283 -3.9443  1.8300
 2402SOL    HW218669   0.569   4.204   7.528  1.3170  1.1032  0.0362
 2403SOL     OW18670   1.677   0.849   5.810  0.0192  0.7909  0.0781
 2403SOL    HW118671   1.748   0.837   5.747  1.1898 -2.4749  2.0220
 2403SOL    HW218672   1.726   0.880   5.886  0.2746  0.0974  0.1996
 2404SOL     OW18673   0.754   2.144   3.466  0.2017 -0.1750  0.6856
 2404SOL    HW118674   0.694   2.205   3.422  2.0805 -0.2166 -1.9132
 2404SOL    HW218675   0.808   2.202   3.520  2.1257 -1.0219 -0.3292
 2405SOL     OW18676   3.347   3.443   8.950  0.2522 -0.0847  0.0883
 2405SOL    HW118677   3.264   3.490   8.945  0.1074 -0.3515 -0.0241
 2405SOL    HW218678   3.327   3.354   8.920  0.2758  0.5163 -1.7246
 2406SOL     OW18679   0.158   4.427   2.836  0.0345  0.1220 -0.1761
 2406SOL    HW118680   0.230   4.395   2.781  0.3722  0.6175 -0.0177
 2406SOL    HW218681   0.166   4.522   2.824  0.5595  0.2399  1.0786
 2407SOL     OW18682   2.952   0.568  10.765  0.4505  0.1491  0.0546
 2407SOL    HW118683   2.864   0.542  10.738  0.3108  1.2092 -0.5091
 2407SOL    HW218684   2.948   0.656  10.726 -1.3965 -0.3728 -0.9374
 2408SOL     OW18685   1.837   2.192   7.839 -0.4794 -0.1402  0.2087
 2408SOL    HW118686   1.865   2.157   7.923  1.9004 -1.1639 -1.0133
 2408SOL    HW218687   1.747   2.166   7.819 -0.5186  0.6891 -0.7007
 2409SOL     OW18688   3.631   1.297   5.728 -0.2192  0.2159 -0.0611
 2409SOL    HW118689   3.590   1.240   5.794  2.1732  0.7921  1.9285
 2409SOL    HW218690   3.707   1.308   5.786  0.7517  1.6715 -1.6187
 2410SOL     OW18691   0.841   1.360   4.658 -0.1148  0.3021 -0.0269
 2410SOL    HW118692   0.870   1.285   4.606  0.3758 -0.4102  1.2641
 2410SOL    HW218693   0.746   1.354   4.652 -0.0588 -1.2279  0.6837
 2411SOL     OW18694   2.635   0.138   7.621  0.2106  0.7715  0.1897
 2411SOL    HW118695   2.694   0.077   7.665  1.0371  0.7861 -0.8783
 2411SOL    HW218696   2.554   0.089   7.603  1.6096 -1.8882  1.1683
 2412SOL     OW18697   1.933   4.703   7.347  0.0281 -0.1151  0.1882
 2412SOL    HW118698   1.862   0.047   7.359  1.1066  0.7966  1.7735
 2412SOL    HW218699   1.911   4.672   7.259 -2.0610 -2.2167  1.4395
 2413SOL     OW18700   2.803   2.806   9.052 -0.0576  0.0561  0.0048
 2413SOL    HW118701   2.836   2.722   9.084  0.4505  0.1791 -0.1910
 2413SOL    HW218702   2.748   2.836   9.124 -1.2207 -2.3239  0.0893
 2414SOL     OW18703   3.261   1.115   8.469  0.1174 -0.0295  0.1962
 2414SOL    HW118704   3.242   1.041   8.527  0.7587 -0.8035 -0.5780
 2414SOL    HW218705   3.190   1.097   8.408  0.4756  1.5826 -0.6985
 2415SOL     OW18706   3.122   1.513   4.027 -0.1778 -0.3301  0.2010
 2415SOL    HW118707   3.090   1.593   4.068  1.1861  0.4963 -0.3321
 2415SOL    HW218708   3.089   1.441   4.080 -0.2179  0.1922  0.8755
 2416SOL     OW18709   2.740   0.703   6.064 -0.1427 -0.3879 -0.7162
 2416SOL    HW118710   2.722   0.781   6.116 -1.4429 -2.3462  1.7859
 2416SOL    HW218711   2.652   0.696   6.028  0.2479  1.1858 -1.9561
 2417SOL     OW18712   3.153   0.375  13.366 -0.3334 -0.4241  0.3448
 2417SOL    HW118713   3.170   0.283  13.346  0.2178  0.2918 -2.4971
 2417SOL    HW218714   3.097   0.398  13.292 -0.9848 -2.6862  0.1245
 2418SOL     OW18715   3.930   2.871   3.684 -0.4592 -0.2011 -0.0210
 2418SOL    HW118716   4.022   2.853   3.705 -1.0354 -1.7156  1.2779
 2418SOL    HW218717   3.929   2.833   3.596 -0.1815  1.9571 -0.9558
 2419SOL     OW18718   3.649   0.778  15.061  0.5130 -0.1138  0.7700
 2419SOL    HW118719   3.675   0.737  14.979  1.6736 -0.6204  1.3906
 2419SOL    HW218720   3.654   0.865  15.021 -2.1788 -1.4341 -2.4833
 2420SOL     OW18721   0.454   1.859   6.947  0.7102  0.2514  0.1344
 2420SOL    HW118722   0.429   1.900   7.030  1.0658  1.3774 -0.3199
 2420SOL    HW218723   0.373   1.866   6.897  1.0531 -1.2017 -0.6242
 2421SOL     OW18724   2.854   2.518   6.725  0.8639 -0.1487  0.2881
 2421SOL    HW118725   2.929   2.569   6.696  1.2357 -1.1732 -0.5495
 2421SOL    HW218726   2.875   2.508   6.817 -1.2807  0.4200  0.8433
 2422SOL     OW18727   2.458   3.874   9.415 -0.2244  0.3152 -0.2793
 2422SOL    HW118728   2.448   3.871   9.511  0.6547 -2.0394 -0.2654
 2422SOL    HW218729   2.451   3.969   9.403  3.3451  0.3322 -2.2953
 2423SOL     OW18730   4.324   3.059  14.347 -0.2901  0.2792  0.4561
 2423SOL    HW118731   4.310   3.047  14.252 -1.8230 -1.5186  0.8954
 2423SOL    HW218732   4.279   3.143  14.351 -1.7430 -0.4478 -0.1023
 2424SOL     OW18733   1.154   1.007  17.185 -0.4046 -0.5704  0.3516
 2424SOL    HW118734   1.142   0.917  17.156 -0.7598 -0.1301 -0.8656
 2424SOL    HW218735   1.110   1.050  17.111  1.6748 -0.7387 -0.9860
 2425SOL     OW18736   1.885   4.591  12.501  0.7044  0.2131 -0.4548
 2425SOL    HW118737   1.807   4.536  12.498  0.2754  0.8395 -0.8867
 2425SOL    HW218738   1.949   4.525  12.528 -1.8381 -1.6789  0.9727
 2426SOL     OW18739   2.337   3.159   3.553  0.6133 -0.2602  0.0249
 2426SOL    HW118740   2.355   3.084   3.609  0.8699 -0.8624 -0.8735
 2426SOL    HW218741   2.246   3.140   3.527 -0.1903 -0.6368  3.1308
 2427SOL     OW18742   0.668   2.550   7.992 -0.2667  0.3129  0.3490
 2427SOL    HW118743   0.582   2.538   7.953  0.1086  0.9506 -0.6538
 2427SOL    HW218744   0.682   2.469   8.042 -0.8327 -0.6218 -1.0098
 2428SOL     OW18745   4.508   3.838   6.590 -0.7805  0.8529 -0.1685
 2428SOL    HW118746   4.577   3.845   6.524 -0.8309  1.4101 -0.1556
 2428SOL    HW218747   4.556   3.850   6.672 -0.9436  0.7523 -0.0581
 2429SOL     OW18748   1.561   1.558   4.762  0.7180 -0.4752  0.1145
 2429SOL    HW118749   1.624   1.628   4.780  1.5670 -1.4094  0.8069
 2429SOL    HW218750   1.615   1.479   4.764  0.2964 -0.6609  4.0458
 2430SOL     OW18751   4.558   4.310   6.809 -0.2626  0.1799 -0.1062
 2430SOL    HW118752   4.606   4.387   6.779  0.1293  0.5778  1.5431
 2430SOL    HW218753   4.505   4.281   6.735 -0.1139  1.8412 -0.8760
 2431SOL     OW18754   1.773   1.800  15.155 -0.0165 -0.3449  0.1118
 2431SOL    HW118755   1.775   1.791  15.251  1.0285  0.4600  0.1782
 2431SOL    HW218756   1.864   1.810  15.125 -0.7638  0.5265 -1.8011
 2432SOL     OW18757   2.263   3.186  15.434 -0.0357 -0.4900 -0.0653
 2432SOL    HW118758   2.357   3.199  15.447 -0.1568  0.1916  0.1197
 2432SOL    HW218759   2.237   3.257  15.375  2.2387  1.1426  0.8839
 2433SOL     OW18760   3.109   4.124   3.625 -0.4688 -0.3933  0.2159
 2433SOL    HW118761   3.036   4.130   3.562  0.6296 -2.0694 -1.2207
 2433SOL    HW218762   3.093   4.047   3.680  0.9346 -0.3265  0.7145
 2434SOL     OW18763   4.649   3.032   8.865  0.1745 -0.1254  0.3774
 2434SOL    HW118764   4.563   3.001   8.895 -0.6418  1.7518  0.0205
 2434SOL    HW218765   4.627   3.081   8.786 -1.5378 -0.3207  0.7156
 2435SOL     OW18766   3.608   1.104   6.998 -0.3558 -0.4564 -0.9022
 2435SOL    HW118767   3.691   1.149   7.016 -1.9930  1.9569  0.6748
 2435SOL    HW218768   3.590   1.064   7.083 -0.7507 -0.4712 -0.9905
 2436SOL     OW18769   2.704   1.185   7.817 -0.1457 -0.0477 -0.2892
 2436SOL    HW118770   2.624   1.228   7.786  0.6915  0.2715 -1.9783
 2436SOL    HW218771   2.701   1.101   7.772  0.9451 -0.5299  0.5449
 2437SOL     OW18772   4.171   1.686   4.238 -0.5663 -0.0119 -0.0440
 2437SOL    HW118773   4.152   1.628   4.312  0.1695 -0.0143  0.1448
 2437SOL    HW218774   4.211   1.761   4.283 -1.5298  1.0709 -0.9998
 2438SOL     OW18775   2.329   3.004   7.098  0.3086 -0.1002 -0.4107
 2438SOL    HW118776   2.316   2.965   7.185 -1.9919  0.0084 -0.7094
 2438SOL    HW218777   2.412   3.051   7.102 -0.1817  0.7938 -0.8700
 2439SOL     OW18778   1.434   1.264   6.614 -0.3921  0.2302 -0.3906
 2439SOL    HW118779   1.481   1.327   6.669 -0.1931  0.1825 -0.5033
 2439SOL    HW218780   1.361   1.237   6.669  1.3432 -2.1796  0.7056
 2440SOL     OW18781   4.004   1.664   8.675  0.0180  0.0053  0.0184
 2440SOL    HW118782   4.034   1.645   8.586 -1.0974 -0.3297 -0.2912
 2440SOL    HW218783   4.085   1.694   8.715  1.5508 -2.1266 -1.5220
 2441SOL     OW18784   0.800   1.841   6.366 -0.7998 -0.1406 -0.1028
 2441SOL    HW118785   0.728   1.851   6.427 -1.3891 -0.7925 -0.6895
 2441SOL    HW218786   0.766   1.869   6.281 -0.7458  1.9347  0.5706
 2442SOL     OW18787   3.082   1.263  13.420 -0.1443 -0.1639  0.2807
 2442SOL    HW118788   3.061   1.323  13.348 -1.9870 -1.0254  0.1068
 2442SOL    HW218789   3.167   1.303  13.441 -0.3767  0.3571  0.2206
 2443SOL     OW18790   0.242   0.363  14.448  0.9532 -0.4090 -0.5390
 2443SOL    HW118791   0.224   0.290  14.507 -0.4158  0.1585 -0.2597
 2443SOL    HW218792   0.208   0.330  14.365  0.1350 -1.1662  0.1030
 2444SOL     OW18793   3.665   2.650   4.230  0.4723  0.2239  0.0388
 2444SOL    HW118794   3.640   2.685   4.144  0.8780  0.5038  0.0319
 2444SOL    HW218795   3.678   2.725   4.289 -0.1958  0.3517  0.0248
 2445SOL     OW18796   4.069   1.065  13.109  0.0898 -0.3392  0.1177
 2445SOL    HW118797   4.104   1.060  13.198  0.9186  0.6324 -0.1492
 2445SOL    HW218798   4.059   0.972  13.089 -0.8161 -0.2190  0.0055
 2446SOL     OW18799   4.310   4.265   3.863  0.1428 -0.0699 -0.1576
 2446SOL    HW118800   4.327   4.193   3.803 -0.9686 -0.0666 -0.4785
 2446SOL    HW218801   4.260   4.224   3.934  0.1648  0.4245  0.1446
 2447SOL     OW18802   3.032   0.465  13.140 -0.3013 -0.2355  0.4638
 2447SOL    HW118803   2.961   0.529  13.145 -1.0996 -0.9761 -1.1706
 2447SOL    HW218804   3.094   0.508  13.081 -0.1868 -0.6996  0.2483
 2448SOL     OW18805   0.516   4.690  14.795  0.0800 -0.0009 -0.4897
 2448SOL    HW118806   0.578   0.043  14.805 -0.1337  0.1058  0.0587
 2448SOL    HW218807   0.468   4.697  14.878  1.3178  0.1211  0.2178
 2449SOL     OW18808   1.846   0.138   3.648  0.1540  0.0229  0.4620
 2449SOL    HW118809   1.915   0.099   3.596 -1.0121 -1.6547  0.1647
 2449SOL    HW218810   1.897   0.187   3.712 -1.2553  1.1024  0.7513
 2450SOL     OW18811   1.345   3.079   3.793 -0.0166  0.3138  0.2573
 2450SOL    HW118812   1.351   3.005   3.733  1.1496 -2.0847  3.3328
 2450SOL    HW218813   1.432   3.119   3.787 -0.7792  1.8593 -0.6603
 2451SOL     OW18814   1.606   0.401   4.945  0.0048  0.3402  0.3212
 2451SOL    HW118815   1.628   0.461   4.873  0.4779  0.4277  0.5431
 2451SOL    HW218816   1.678   0.340   4.935 -1.4943 -1.1429 -1.5300
 2452SOL     OW18817   3.846   0.630  13.693 -0.3616  0.1956  0.4225
 2452SOL    HW118818   3.867   0.537  13.699 -1.1688 -0.0652 -0.8184
 2452SOL    HW218819   3.932   0.661  13.722  0.8161 -0.2548 -2.5356
 2453SOL     OW18820   1.966   1.596   3.158  0.0471 -0.3732  0.1898
 2453SOL    HW118821   1.883   1.635   3.187 -0.6906 -2.4102  0.8431
 2453SOL    HW218822   2.030   1.667   3.153  2.0955 -2.1571  1.5250
 2454SOL     OW18823   4.452   3.508   7.808  0.3101 -0.0451  0.3436
 2454SOL    HW118824   4.483   3.427   7.849  1.5586  0.1555 -0.2090
 2454SOL    HW218825   4.361   3.486   7.788  0.1140  1.3258 -0.2174
 2455SOL     OW18826   2.991   1.114   5.153 -0.1773  0.1078  0.0832
 2455SOL    HW118827   2.897   1.099   5.158 -0.0840 -0.2896  0.6047
 2455SOL    HW218828   3.007   1.196   5.200 -0.1177  1.0794 -1.6250
 2456SOL     OW18829   0.199   2.327   4.158 -0.3082  0.4271 -0.5252
 2456SOL    HW118830   0.295   2.333   4.156 -0.2095 -0.2706  3.0250
 2456SOL    HW218831   0.193   2.328   4.253 -0.3630 -1.1639 -0.5261
 2457SOL     OW18832   3.917   3.302   3.298  0.1467 -0.5671 -0.4459
 2457SOL    HW118833   3.881   3.232   3.242  2.2608 -1.7144 -0.3795
 2457SOL    HW218834   3.989   3.329   3.241  2.1936 -0.5576  2.1837
 2458SOL     OW18835   3.344   3.841   9.521  0.3535 -0.4094  0.3439
 2458SOL    HW118836   3.258   3.811   9.492  0.4356  0.1279 -0.4484
 2458SOL    HW218837   3.405   3.779   9.483 -0.6717 -1.1300 -0.1389
 2459SOL     OW18838   1.258   3.953   3.418  0.1615 -0.1703  0.4970
 2459SOL    HW118839   1.167   3.932   3.434 -0.2780  3.6919  2.9988
 2459SOL    HW218840   1.251   4.048   3.427 -1.2075 -0.1058 -1.3992
 2460SOL     OW18841   3.493   2.975   8.911 -0.5400 -0.6686 -0.4169
 2460SOL    HW118842   3.504   2.982   8.816  0.1426  0.6885 -0.2346
 2460SOL    HW218843   3.498   2.879   8.909  2.8434 -0.5182  0.9170
 2461SOL     OW18844   2.534   1.255   5.426 -0.0764 -0.1188 -0.1818
 2461SOL    HW118845   2.581   1.182   5.466  0.0914  0.0860  0.0006
 2461SOL    HW218846   2.567   1.326   5.481  0.2912 -0.4109 -0.0289
 2462SOL     OW18847   3.339   4.131   3.484 -0.1740  0.0353  0.2801
 2462SOL    HW118848   3.260   4.123   3.538  0.3352  0.5344  1.1000
 2462SOL    HW218849   3.304   4.099   3.401  2.1157  0.4529 -0.8475
 2463SOL     OW18850   3.142   3.155   5.277  0.4204  0.9412 -1.0335
 2463SOL    HW118851   3.217   3.185   5.328 -0.6599 -0.3423  1.2967
 2463SOL    HW218852   3.084   3.231   5.288 -0.0792  0.3809  0.2284
 2464SOL     OW18853   1.617   1.412   3.420  0.0998  0.8669  0.2581
 2464SOL    HW118854   1.543   1.350   3.416  0.1436  0.8450 -0.2558
 2464SOL    HW218855   1.592   1.461   3.499  0.9058  3.6151 -1.1920
 2465SOL     OW18856   1.107   0.557  16.352 -0.5547 -0.3563 -0.1849
 2465SOL    HW118857   1.168   0.516  16.291 -1.2497 -0.5592 -0.7351
 2465SOL    HW218858   1.164   0.537  16.427 -1.4288  0.6082  0.7381
 2466SOL     OW18859   2.582   3.707   5.382  0.3127 -0.0960 -0.0745
 2466SOL    HW118860   2.531   3.784   5.406 -1.0020 -1.1836  0.5720
 2466SOL    HW218861   2.654   3.758   5.344 -0.4787  0.6232 -0.6142
 2467SOL     OW18862   2.419   0.975   2.755 -0.0315  0.1273 -0.4294
 2467SOL    HW118863   2.498   1.029   2.756 -0.2366  0.4152  0.2023
 2467SOL    HW218864   2.456   0.889   2.731 -1.8389 -0.8751  0.3506
 2468SOL     OW18865   0.195   3.492  13.642 -0.5175 -0.1546 -0.5110
 2468SOL    HW118866   0.143   3.512  13.564  0.8834 -2.4586 -2.0460
 2468SOL    HW218867   0.209   3.578  13.682 -0.1985  0.3880 -1.7607
 2469SOL     OW18868   0.414   3.218  10.003  0.2023 -0.2458  0.2346
 2469SOL    HW118869   0.447   3.186   9.919  0.9699 -1.4855  1.0191
 2469SOL    HW218870   0.395   3.300   9.959  0.3723 -0.1374  0.3639
 2470SOL     OW18871   1.553   2.337   8.124  0.3363 -0.4897 -0.8118
 2470SOL    HW118872   1.505   2.406   8.077 -0.7724  0.9362  2.4033
 2470SOL    HW218873   1.639   2.346   8.082  0.4732 -0.1429 -0.4569
 2471SOL     OW18874   4.360   3.130  14.086  0.3469  0.4459  0.1893
 2471SOL    HW118875   4.271   3.164  14.099  0.0964  0.8181 -2.4989
 2471SOL    HW218876   4.341   3.056  14.029 -0.8285  0.8821  0.0037
 2472SOL     OW18877   2.586   4.272   7.856  0.2694  0.3050  0.1707
 2472SOL    HW118878   2.557   4.256   7.766 -0.1424 -1.4068  0.6123
 2472SOL    HW218879   2.535   4.203   7.898  1.2796  0.4167  1.5895
 2473SOL     OW18880   3.602   2.518   1.943 -0.0948  0.2642  0.2296
 2473SOL    HW118881   3.676   2.466   1.910 -0.0410  1.6781 -1.8995
 2473SOL    HW218882   3.635   2.607   1.935  3.3201 -0.9470  0.5517
 2474SOL     OW18883   1.465   3.799   7.930  0.0989  0.0128  0.8930
 2474SOL    HW118884   1.395   3.740   7.957 -0.9207  1.1097  0.6046
 2474SOL    HW218885   1.483   3.853   8.007  0.4260 -0.1721  0.9473
 2475SOL     OW18886   2.256   3.610   1.143  0.1663  0.3205  0.1879
 2475SOL    HW118887   2.304   3.615   1.060  0.7683  2.6368  0.6662
 2475SOL    HW218888   2.173   3.573   1.115  0.4724 -0.1422 -0.1059
 2476SOL     OW18889   4.717   0.256  12.327  0.2561  0.0983 -0.0760
 2476SOL    HW118890   4.716   0.344  12.289 -0.8060  0.2201  0.2373
 2476SOL    HW218891   0.092   0.243  12.335  0.1825  0.1343  0.8670
 2477SOL     OW18892   1.883   0.260  15.650  0.0176 -0.6847 -0.0002
 2477SOL    HW118893   1.814   0.221  15.704  0.6807 -0.9491  0.6601
 2477SOL    HW218894   1.964   0.267  15.701  0.5744  0.7957 -1.0710
 2478SOL     OW18895   1.845   4.058   4.812  0.2817 -0.0221  0.0720
 2478SOL    HW118896   1.781   4.024   4.749 -0.6641  1.1694  0.3811
 2478SOL    HW218897   1.828   4.152   4.819 -0.1934 -0.1224  0.2568
 2479SOL     OW18898   0.072   4.050   6.753  0.5163  0.0509 -0.0492
 2479SOL    HW118899   0.151   4.011   6.716 -0.4294 -1.4115 -0.5116
 2479SOL    HW218900   0.054   4.107   6.678  0.0142  1.4880  1.1528
 2480SOL     OW18901   1.644   4.021   8.631 -0.4200  0.2055  0.1908
 2480SOL    HW118902   1.581   4.051   8.696  2.6654  1.2825  2.6573
 2480SOL    HW218903   1.716   3.980   8.680 -0.3081 -1.1827 -1.1255
 2481SOL     OW18904   3.174   2.186   1.739  0.1062  0.0584 -0.1465
 2481SOL    HW118905   3.246   2.248   1.727  0.8519 -0.8692 -0.4533
 2481SOL    HW218906   3.210   2.106   1.699  2.1592  0.4519  0.9148
 2482SOL     OW18907   1.368   1.812  15.981 -0.0166 -0.3601 -0.7785
 2482SOL    HW118908   1.415   1.787  16.061  2.1536  0.8327 -1.7079
 2482SOL    HW218909   1.285   1.779  16.016 -0.3970 -0.6359 -1.9639
 2483SOL     OW18910   3.935   4.579   1.943 -0.3130  0.2010  0.1295
 2483SOL    HW118911   4.000   4.634   1.899  0.9273 -2.2029 -1.0518
 2483SOL    HW218912   3.891   4.642   1.999 -1.4179  0.3443 -0.8952
 2484SOL     OW18913   0.999   2.796   9.832 -0.3805  0.1126  0.5280
 2484SOL    HW118914   1.015   2.726   9.770 -1.7147 -1.6580  2.1761
 2484SOL    HW218915   1.053   2.779   9.909  2.9112  0.4753 -1.7190
 2485SOL     OW18916   2.033   2.754  17.054 -0.3699 -0.1325 -0.1776
 2485SOL    HW118917   2.126   2.737  17.070  0.0908  1.4344 -1.1267
 2485SOL    HW218918   2.034   2.839  17.098 -0.2148  0.9045 -2.1855
 2486SOL     OW18919   2.400   1.554  16.934 -0.2412  0.2422  0.4439
 2486SOL    HW118920   2.354   1.547  16.850 -1.4844  2.3304  0.9570
 2486SOL    HW218921   2.430   1.645  16.935 -2.3147  0.9157  0.9054
 2487SOL     OW18922   3.131   4.619   6.681 -0.1044  0.0953  0.0937
 2487SOL    HW118923   3.139   4.710   6.709 -2.7066  0.5807 -0.8105
 2487SOL    HW218924   3.052   4.592   6.728 -0.8764  0.0318 -1.2626
 2488SOL     OW18925   4.612   3.624   9.047 -0.4867  0.3271 -0.1828
 2488SOL    HW118926   4.677   3.667   8.991  0.3729 -0.6209  0.1089
 2488SOL    HW218927   4.667   3.565   9.098 -0.3562  0.3093 -0.3420
 2489SOL     OW18928   1.204   2.903  16.168  0.0870 -0.3538 -0.2972
 2489SOL    HW118929   1.125   2.935  16.212 -0.2768 -1.5141 -0.1005
 2489SOL    HW218930   1.213   2.968  16.099 -1.4757 -1.5567 -1.6533
 2490SOL     OW18931   3.399   1.736   5.985 -0.1015 -0.1705  0.0151
 2490SOL    HW118932   3.420   1.818   6.030 -2.3488  0.9840 -1.0419
 2490SOL    HW218933   3.323   1.716   6.038  0.5509 -1.8095  0.3329
 2491SOL     OW18934   1.241   4.692   1.342 -0.3293  0.2653  0.4489
 2491SOL    HW118935   1.196   4.642   1.410  1.2612 -0.5456  0.9220
 2491SOL    HW218936   1.183   4.675   1.268 -0.6467  1.9289  0.3272
 2492SOL     OW18937   3.602   0.203   5.018 -0.5137 -0.0851  0.0385
 2492SOL    HW118938   3.643   0.267   5.076  0.7198 -0.4852 -0.3746
 2492SOL    HW218939   3.652   0.217   4.937 -0.8885 -1.9632 -0.5190
 2493SOL     OW18940   1.761   1.548   7.110 -0.2664  0.4353 -0.0546
 2493SOL    HW118941   1.751   1.593   7.194 -1.0479 -2.3463  1.3566
 2493SOL    HW218942   1.681   1.570   7.063  0.6890 -0.9392 -2.2967
 2494SOL     OW18943   1.216   2.816  15.701 -0.3586 -0.5463  0.1776
 2494SOL    HW118944   1.142   2.776  15.747 -1.0665 -0.6897 -1.0869
 2494SOL    HW218945   1.172   2.859  15.627 -1.3779 -0.5861  0.7592
 2495SOL     OW18946   3.664   4.192   5.195 -0.3329 -0.0306  0.4096
 2495SOL    HW118947   3.650   4.281   5.226  0.6841  1.4398 -3.3986
 2495SOL    HW218948   3.649   4.191   5.101  0.9151  1.3630  0.1958
 2496SOL     OW18949   4.432   1.622   3.084  0.1474 -0.1948  0.4557
 2496SOL    HW118950   4.448   1.716   3.073 -2.1228  0.0921 -0.2575
 2496SOL    HW218951   4.350   1.611   3.132  0.5887  0.6051  1.3932
 2497SOL     OW18952   1.391   3.630   2.057  0.5040 -0.5333 -0.3557
 2497SOL    HW118953   1.360   3.682   1.982  0.2124  2.2396  1.7031
 2497SOL    HW218954   1.477   3.668   2.071 -0.3028 -0.2251  3.6212
 2498SOL     OW18955   2.239   2.737   6.153 -0.5361 -0.2078  0.0261
 2498SOL    HW118956   2.305   2.749   6.221  2.9830 -0.7184 -3.2553
 2498SOL    HW218957   2.170   2.796   6.181 -2.1010 -0.8923 -2.4107
 2499SOL     OW18958   3.146   4.593   2.053  0.5406 -0.4139  0.2652
 2499SOL    HW118959   3.127   4.672   2.002  0.2075 -2.0841 -2.1802
 2499SOL    HW218960   3.168   4.625   2.140  0.0752  1.1367 -0.1918
 2500SOL     OW18961   3.397   3.768  10.384 -0.0689 -0.6382 -0.1798
 2500SOL    HW118962   3.382   3.828  10.457 -1.0279 -2.4093  1.0887
 2500SOL    HW218963   3.392   3.685  10.432 -0.7848  0.9612  2.5341
 2501SOL     OW18964   1.226   3.716   2.862 -0.6289  0.0160  0.2942
 2501SOL    HW118965   1.230   3.622   2.843  1.6627  0.4373 -1.4413
 2501SOL    HW218966   1.145   3.743   2.818 -0.9936 -0.6004  0.5824
 2502SOL     OW18967   3.991   0.742   5.373 -0.1574  0.2011 -0.4285
 2502SOL    HW118968   3.935   0.669   5.400 -0.5179  0.8178  0.5202
 2502SOL    HW218969   3.931   0.815   5.390  1.5002  2.4277 -4.1198
 2503SOL     OW18970   4.431   1.061   2.199  0.1867 -0.3043 -0.2832
 2503SOL    HW118971   4.413   1.141   2.150 -2.7226 -0.8654 -0.1266
 2503SOL    HW218972   4.367   1.003   2.157 -0.3932 -0.9015  1.4042
 2504SOL     OW18973   2.400   2.227   5.207  0.3496 -0.1996 -0.2631
 2504SOL    HW118974   2.306   2.241   5.215  0.7346  1.2324  1.7447
 2504SOL    HW218975   2.434   2.293   5.148 -0.0894 -0.0687 -0.3662
 2505SOL     OW18976   2.808   0.763   8.166 -0.4507 -0.2229 -0.0911
 2505SOL    HW118977   2.756   0.700   8.117  1.9432 -1.1814 -1.3658
 2505SOL    HW218978   2.753   0.837   8.137 -1.3729 -0.7191  0.3785
 2506SOL     OW18979   0.209   3.340  10.455 -0.5318  0.0503 -0.7793
 2506SOL    HW118980   0.148   3.393  10.403 -2.5685 -0.3235  1.2249
 2506SOL    HW218981   0.278   3.332  10.389 -0.3223 -0.9679 -0.4221
 2507SOL     OW18982   3.874   3.711   3.581 -0.4786  0.8241  0.7480
 2507SOL    HW118983   3.953   3.660   3.563  0.3476  2.4522 -0.1785
 2507SOL    HW218984   3.915   3.797   3.575 -1.2973  1.1445 -0.4566
 2508SOL     OW18985   1.618   4.047   0.833 -0.5033  0.4152 -0.2840
 2508SOL    HW118986   1.583   3.972   0.881 -0.4065  1.3123  1.2078
 2508SOL    HW218987   1.539   4.064   0.782  0.1448  0.5247 -1.2464
 2509SOL     OW18988   4.250   2.192   1.755 -0.5262  0.1474 -0.2483
 2509SOL    HW118989   4.276   2.167   1.666 -2.2973  0.4163 -0.8572
 2509SOL    HW218990   4.270   2.286   1.747  1.7824 -0.2779  0.9287
 2510SOL     OW18991   4.094   4.064   3.285  0.7613  0.5666  1.0823
 2510SOL    HW118992   4.139   3.982   3.302  0.4802  0.2374  0.2509
 2510SOL    HW218993   4.160   4.092   3.221 -1.4685 -0.4148 -1.6285
 2511SOL     OW18994   2.270   4.058   4.108  0.5967 -0.1581 -0.3525
 2511SOL    HW118995   2.330   4.045   4.182  0.1951  1.9424  0.3279
 2511SOL    HW218996   2.278   4.153   4.101 -0.1881 -0.1298 -0.9629
 2512SOL     OW18997   1.583   1.386   6.813  0.2358 -0.5212  0.3543
 2512SOL    HW118998   1.676   1.406   6.808 -0.2374  1.8312  0.8924
 2512SOL    HW218999   1.544   1.467   6.846  1.1451 -0.0453  0.2296
 2513SOL     OW19000   1.293   3.345  13.849 -0.6950 -0.2353 -0.5041
 2513SOL    HW119001   1.264   3.435  13.866  1.3380  0.1767  0.8335
 2513SOL    HW219002   1.247   3.297  13.918  2.2023 -0.4985  1.2824
 2514SOL     OW19003   2.495   1.926   6.507  0.0401 -0.6070  0.0478
 2514SOL    HW119004   2.417   1.982   6.506  0.5773  0.1084 -1.6722
 2514SOL    HW219005   2.502   1.910   6.601  1.2723  0.8903  0.2115
 2515SOL     OW19006   2.545   0.051   2.594  0.2563  0.9388 -0.0586
 2515SOL    HW119007   2.626   0.090   2.561 -0.0758  1.6236 -0.0743
 2515SOL    HW219008   2.505   0.008   2.519  1.2027  1.9532 -1.1249
 2516SOL     OW19009   2.796   0.741   6.899  0.1605 -0.1131  0.4748
 2516SOL    HW119010   2.705   0.769   6.892  0.3406 -0.3287 -2.5163
 2516SOL    HW219011   2.836   0.820   6.863 -1.8007 -0.7280 -3.0544
 2517SOL     OW19012   4.483   0.565   2.186 -0.5239  0.7340  0.9618
 2517SOL    HW119013   4.524   0.649   2.169 -0.0592  0.8319  2.5704
 2517SOL    HW219014   4.462   0.522   2.103  2.3074  2.6874 -0.7332
 2518SOL     OW19015   4.495   4.521   7.842 -0.5301  0.0836  0.2841
 2518SOL    HW119016   4.531   4.432   7.848  1.0479  0.6680 -0.4542
 2518SOL    HW219017   4.557   4.569   7.896  1.4904 -0.2754 -1.6941
 2519SOL     OW19018   3.162   3.893  17.424 -1.4920  0.3930  0.1164
 2519SOL    HW119019   3.072   3.866  17.441 -1.9105  0.9505 -1.2221
 2519SOL    HW219020   3.195   3.806  17.448 -4.7172 -1.5459 -2.5500
 2520SOL     OW19021   3.800   1.260   5.940 -0.1143  0.0013 -0.0250
 2520SOL    HW119022   3.870   1.211   5.898  0.8010  2.9073 -1.9218
 2520SOL    HW219023   3.809   1.220   6.026  2.0548 -2.1088 -1.2260
 2521SOL     OW19024   4.496   1.836  13.841  0.3057 -0.4120  0.2414
 2521SOL    HW119025   4.560   1.771  13.868  1.3109  0.6902  0.5129
 2521SOL    HW219026   4.560   1.889  13.793 -1.7340  1.6856 -0.1630
 2522SOL     OW19027   0.375   0.817   2.242  0.2312  0.2904 -1.2457
 2522SOL    HW119028   0.375   0.778   2.329  4.7433  1.5329 -0.6881
 2522SOL    HW219029   0.395   0.909   2.260  1.0029 -0.0213 -0.5093
 2523SOL     OW19030   4.482   2.669   7.044  0.1147 -0.7533 -0.5838
 2523SOL    HW119031   4.456   2.592   7.094 -0.9392 -0.8349 -1.2579
 2523SOL    HW219032   4.452   2.649   6.955  1.3135 -1.8089 -0.7561
 2524SOL     OW19033   3.342   1.258   6.264  0.4518  0.4527  0.3198
 2524SOL    HW119034   3.315   1.166   6.263  1.2338  0.2274  0.4242
 2524SOL    HW219035   3.362   1.279   6.355  0.4982  0.2332  0.3596
 2525SOL     OW19036   0.180   4.112   5.870  0.5987 -0.2292  0.1633
 2525SOL    HW119037   0.135   4.185   5.827  0.4606 -0.1948  0.3662
 2525SOL    HW219038   0.221   4.156   5.945  0.2624  1.3122 -0.5458
 2526SOL     OW19039   3.180   0.756  10.594  0.1403  0.0643 -0.3473
 2526SOL    HW119040   3.090   0.783  10.614  0.7277  1.2664  0.6634
 2526SOL    HW219041   3.222   0.834  10.632  0.7747 -0.5184  0.1369
 2527SOL     OW19042   3.448   2.073   2.712  0.1864  0.0601 -0.0468
 2527SOL    HW119043   3.392   2.066   2.790  0.8917  0.1138  0.4604
 2527SOL    HW219044   3.395   2.139   2.668  0.2687 -0.7716 -1.4038
 2528SOL     OW19045   2.638   4.233   6.945  0.2399  0.7448  0.1619
 2528SOL    HW119046   2.709   4.281   6.988 -0.8247  0.4153  2.2471
 2528SOL    HW219047   2.683   4.185   6.875 -3.1621  0.3097 -1.7437
 2529SOL     OW19048   3.554   3.886   9.133 -0.1353  0.1128  0.1455
 2529SOL    HW119049   3.550   3.896   9.228 -0.2470  0.3437  0.1171
 2529SOL    HW219050   3.635   3.834   9.128 -0.7063 -0.9403  2.0649
 2530SOL     OW19051   3.364   4.000   0.837 -0.1331 -0.2503  0.3917
 2530SOL    HW119052   3.272   4.014   0.812 -0.6333 -0.1519  2.2932
 2530SOL    HW219053   3.356   3.961   0.924  1.3085 -0.8728  0.2437
 2531SOL     OW19054   2.537   0.226   0.190 -0.0928 -0.6833  0.3137
 2531SOL    HW119055   2.489   0.306   0.167  1.1531  0.4758  1.8156
 2531SOL    HW219056   2.600   0.261   0.252  0.6494  0.6279 -1.1941
 2532SOL     OW19057   1.825   4.571   3.161  0.2162 -0.1708  0.0191
 2532SOL    HW119058   1.851   4.658   3.131 -0.1912 -0.7962 -2.1233
 2532SOL    HW219059   1.773   4.604   3.233  0.8148 -0.4303  0.5744
 2533SOL     OW19060   1.754   1.592  14.888  0.2789 -0.4488  0.0580
 2533SOL    HW119061   1.773   1.663  14.827 -1.4811  0.6768  0.8284
 2533SOL    HW219062   1.692   1.629  14.951  0.7234 -0.5479  0.5569
 2534SOL     OW19063   4.662   2.583   1.929  0.1661 -0.6245  0.1717
 2534SOL    HW119064   4.627   2.602   1.842 -2.7200  0.7913  1.6414
 2534SOL    HW219065   4.626   2.655   1.981  0.5655  1.3072 -2.1998
 2535SOL     OW19066   0.854   0.003   0.294  0.0002 -0.1964  0.3815
 2535SOL    HW119067   0.845   4.678   0.210 -0.5905  0.5343  0.0693
 2535SOL    HW219068   0.947   0.028   0.300  0.7433 -2.7360 -0.4741
 2536SOL     OW19069   4.404   1.359  14.300  0.0363  0.8074  0.2396
 2536SOL    HW119070   4.341   1.357  14.228 -0.1870  1.9832  0.4041
 2536SOL    HW219071   4.394   1.451  14.325 -0.1366  0.7956  0.2107
 2537SOL     OW19072   1.200   3.613  13.880  0.2558  0.1041 -0.1971
 2537SOL    HW119073   1.108   3.632  13.898  0.6896 -1.0178  3.3259
 2537SOL    HW219074   1.254   3.666  13.940  0.7257 -1.6115  0.8906
 2538SOL     OW19075   1.781   0.463   3.583 -0.1688  0.5634 -0.2085
 2538SOL    HW119076   1.688   0.448   3.567  0.0756 -0.3844 -0.7199
 2538SOL    HW219077   1.820   0.398   3.524 -1.0552  0.0392 -0.2162
 2539SOL     OW19078   1.047   2.145   8.959  0.1897 -0.1227 -0.2773
 2539SOL    HW119079   0.996   2.144   9.040 -0.2659 -0.6730 -0.5669
 2539SOL    HW219080   1.140   2.146   8.979 -0.2121  2.2076  1.3373
 2540SOL     OW19081   3.078   1.069   2.141 -0.4524  0.4679 -0.1040
 2540SOL    HW119082   3.099   1.147   2.091  0.5656 -1.3135 -2.4702
 2540SOL    HW219083   3.143   1.061   2.211  1.3070 -2.4134 -2.0764
 2541SOL     OW19084   0.584   2.616  13.516 -0.3488 -0.3879 -0.2385
 2541SOL    HW119085   0.666   2.663  13.530  0.6848 -2.9008  2.3128
 2541SOL    HW219086   0.596   2.596  13.423  0.3501  1.2763 -0.4950
 2542SOL     OW19087   1.347   3.956   3.853 -0.4930  0.0506  0.4160
 2542SOL    HW119088   1.427   3.955   3.906  0.0315 -0.9971 -0.3865
 2542SOL    HW219089   1.379   3.904   3.779 -0.3681  1.8838 -0.8115
 2543SOL     OW19090   1.114   1.859  11.593 -0.0733 -0.0528 -0.5363
 2543SOL    HW119091   1.047   1.791  11.587  0.6636 -0.8172 -0.0721
 2543SOL    HW219092   1.071   1.914  11.658  1.4504 -0.7459  1.0734
 2544SOL     OW19093   2.622   4.597   1.476  0.4115  0.1926  0.0756
 2544SOL    HW119094   2.621   4.501   1.477 -1.3628  0.2496  4.8235
 2544SOL    HW219095   2.566   4.617   1.551  1.9846  0.3475  1.2152
 2545SOL     OW19096   4.439   0.371  15.572  0.1007 -0.3730  0.1006
 2545SOL    HW119097   4.352   0.396  15.542 -0.2427  0.7902  2.0796
 2545SOL    HW219098   4.403   0.317  15.642 -0.8498 -0.4633 -0.4581
 2546SOL     OW19099   2.499   0.745  11.368 -0.4941 -0.1946 -0.0081
 2546SOL    HW119100   2.445   0.670  11.343 -1.4602  0.5699 -0.2426
 2546SOL    HW219101   2.429   0.807  11.386  2.6210  2.9148  1.4398
 2547SOL     OW19102   3.925   1.978   9.111  0.8122  0.1422 -0.0304
 2547SOL    HW119103   4.007   2.028   9.103  0.7236  0.4066  0.7861
 2547SOL    HW219104   3.938   1.917   9.038  0.5726 -0.7557  0.6707
 2548SOL     OW19105   2.622   0.010   9.917  0.4013 -0.2293 -0.3058
 2548SOL    HW119106   2.543   4.703   9.964  0.2414  0.0856 -0.3973
 2548SOL    HW219107   2.663   0.067   9.983 -0.7097 -1.2004  1.2287
 2549SOL     OW19108   1.438   4.138   8.308  0.3239 -0.2522 -0.0366
 2549SOL    HW119109   1.388   4.106   8.384 -1.0753  1.3465 -0.2744
 2549SOL    HW219110   1.403   4.226   8.292  0.4126 -0.3538 -0.8021
 2550SOL     OW19111   4.247   0.716   7.760  0.3365 -0.5918 -0.1011
 2550SOL    HW119112   4.213   0.805   7.762  1.1518 -0.2508 -1.9578
 2550SOL    HW219113   4.340   0.730   7.778 -0.2307  0.4952  1.9515
 2551SOL     OW19114   3.484   4.065  17.330 -0.0914 -0.0557  0.0608
 2551SOL    HW119115   3.424   4.114  17.386 -1.4342 -0.4571 -1.0295
 2551SOL    HW219116   3.505   3.990  17.387 -0.0226 -0.0026  0.1046
 2552SOL     OW19117   3.129   1.904  16.910 -0.3637  0.4049  0.1696
 2552SOL    HW119118   3.036   1.916  16.892  0.0065  1.6221 -0.9322
 2552SOL    HW219119   3.127   1.919  17.005  3.6197 -5.7914  1.2175
 2553SOL     OW19120   1.918   2.362   6.823  0.0111  0.0652  0.4217
 2553SOL    HW119121   1.903   2.332   6.734 -0.1047  1.2884  0.0300
 2553SOL    HW219122   1.942   2.454   6.819 -0.4904  0.0525 -2.7670
 2554SOL     OW19123   4.620   1.344   8.581  0.2134 -0.1307  0.1351
 2554SOL    HW119124   4.650   1.334   8.491 -1.2946 -1.4556 -0.2319
 2554SOL    HW219125   4.539   1.293   8.574 -1.2866  2.4441 -1.2779
 2555SOL     OW19126   4.001   2.384  17.489  0.3175  0.5297 -0.2638
 2555SOL    HW119127   3.964   2.388  17.401  0.9385  2.4386 -0.4250
 2555SOL    HW219128   4.037   2.471  17.502  1.9559 -0.1294 -0.4737
 2556SOL     OW19129   0.406   0.124   8.189  0.5235  0.1570  0.0038
 2556SOL    HW119130   0.383   0.088   8.274 -0.7865  2.1765  0.5080
 2556SOL    HW219131   0.492   0.085   8.177  0.1915 -0.0827 -1.6662
 2557SOL     OW19132   1.900   2.129   6.329 -0.2049 -0.2347 -0.5667
 2557SOL    HW119133   1.830   2.068   6.352 -2.2683  1.4459 -2.3780
 2557SOL    HW219134   1.844   2.192   6.283 -1.0607 -0.2906  0.3688
 2558SOL     OW19135   2.864   3.037  16.491 -0.2951 -0.2134  0.4559
 2558SOL    HW119136   2.937   3.022  16.430  0.2222  0.2922  0.9599
 2558SOL    HW219137   2.845   2.944  16.505 -1.7717 -0.0932 -0.7579
 2559SOL     OW19138   1.981   1.164   7.832  0.2579 -0.6891  0.2723
 2559SOL    HW119139   1.968   1.184   7.739 -2.2841 -1.6920  0.4125
 2559SOL    HW219140   1.899   1.116   7.842 -0.1877  0.3122  1.5158
 2560SOL     OW19141   2.429   3.593  17.477 -0.3882 -0.0613 -0.0412
 2560SOL    HW119142   2.399   3.518  17.529 -0.7039  0.5721  0.6855
 2560SOL    HW219143   2.348   3.629  17.439  0.3772  0.8382 -0.8092
 2561SOL     OW19144   0.428   3.721   4.810 -0.3130 -0.5207 -0.4439
 2561SOL    HW119145   0.397   3.748   4.897  1.6116  3.9081 -1.0870
 2561SOL    HW219146   0.513   3.688   4.838 -0.7570 -0.6301  0.7973
 2562SOL     OW19147   3.018   2.088   1.438 -0.0945 -0.0031 -0.3389
 2562SOL    HW119148   2.973   2.106   1.521  2.0517  1.6443  0.4658
 2562SOL    HW219149   3.071   2.017   1.473  2.8916  2.5130  0.1609
 2563SOL     OW19150   4.234   3.258   9.165  0.3523 -0.2601  0.0983
 2563SOL    HW119151   4.191   3.315   9.101 -0.6333 -1.0487  0.0752
 2563SOL    HW219152   4.164   3.198   9.187  0.7344 -1.1335 -1.0675
 2564SOL     OW19153   2.900   1.391   2.222 -0.4092  0.3536  0.5095
 2564SOL    HW119154   2.936   1.475   2.195 -0.5648  0.2570  0.0053
 2564SOL    HW219155   2.812   1.426   2.237 -0.2233  1.0011  0.1070
 2565SOL     OW19156   2.119   1.554   8.504 -0.0100 -0.9020  0.3006
 2565SOL    HW119157   2.027   1.529   8.496 -0.0052 -0.0854 -2.1012
 2565SOL    HW219158   2.149   1.544   8.414  0.0095 -0.4235  0.2538
 2566SOL     OW19159   1.757   1.006   7.116 -0.1723 -0.1640 -0.2655
 2566SOL    HW119160   1.775   1.095   7.083  1.6301 -0.9336 -1.3487
 2566SOL    HW219161   1.745   0.966   7.030  0.3522 -1.7135  0.3808
 2567SOL     OW19162   2.635   2.187  13.785 -0.1358 -0.2505  0.2216
 2567SOL    HW119163   2.557   2.146  13.747  0.2526  0.6529 -1.5014
 2567SOL    HW219164   2.597   2.259  13.835  0.3934 -0.4487  0.9108
 2568SOL     OW19165   3.591   3.854   1.348 -0.1816 -0.3111 -0.2308
 2568SOL    HW119166   3.550   3.768   1.340 -1.1654  0.2959 -1.6266
 2568SOL    HW219167   3.593   3.887   1.258  3.8260 -1.4094 -0.5458
 2569SOL     OW19168   2.357   3.129  11.090 -0.1558 -0.6062 -0.0453
 2569SOL    HW119169   2.417   3.057  11.073 -0.0272 -0.7127  0.8272
 2569SOL    HW219170   2.294   3.113  11.020 -0.1102 -1.6031  0.1478
 2570SOL     OW19171   4.159   1.243   4.386  0.0095  0.1659  0.2088
 2570SOL    HW119172   4.247   1.265   4.357  0.1660 -0.0303  0.5358
 2570SOL    HW219173   4.124   1.195   4.311  2.6060  1.4510 -1.8229
 2571SOL     OW19174   4.178   4.443   5.599  0.5939  0.0679  0.0957
 2571SOL    HW119175   4.164   4.352   5.573 -2.1520 -0.1804  2.4355
 2571SOL    HW219176   4.094   4.481   5.624 -0.0142 -0.6577 -0.8018
 2572SOL     OW19177   2.647   3.205   7.438 -0.0866 -0.2351 -0.1205
 2572SOL    HW119178   2.703   3.240   7.369 -0.6136 -0.0302 -0.4493
 2572SOL    HW219179   2.624   3.284   7.489 -1.0469 -0.4349 -0.2389
 2573SOL     OW19180   4.429   2.936   7.862 -0.0765  0.6103 -0.2155
 2573SOL    HW119181   4.414   3.007   7.925  0.2507 -0.6642  1.2856
 2573SOL    HW219182   4.516   2.915   7.897  0.1445  0.0695 -1.0809
 2574SOL     OW19183   4.261   2.740  16.348  0.4800 -0.3087 -0.5637
 2574SOL    HW119184   4.337   2.683  16.359  1.6137  1.0804 -1.1880
 2574SOL    HW219185   4.193   2.704  16.404  1.5408 -1.6515 -0.1449
 2575SOL     OW19186   2.481   3.141   3.328 -0.4030  0.1640  0.3472
 2575SOL    HW119187   2.447   3.140   3.417 -1.1062  2.5706  0.1064
 2575SOL    HW219188   2.438   3.221   3.297 -2.5980 -0.9047  0.6529
 2576SOL     OW19189   1.287   3.662   8.071 -0.6003  0.3366 -0.0084
 2576SOL    HW119190   1.356   3.620   8.121 -1.4077 -1.5585 -0.4490
 2576SOL    HW219191   1.229   3.591   8.041 -0.7354 -0.0101  1.0636
 2577SOL     OW19192   2.166   3.420  10.002  0.0206  0.0210  0.1242
 2577SOL    HW119193   2.180   3.515  10.000 -0.7355  0.1201 -1.2837
 2577SOL    HW219194   2.114   3.408  10.081 -1.2034  0.2793 -0.6292
 2578SOL     OW19195   4.138   1.122  17.409  1.0427 -0.1567 -0.4250
 2578SOL    HW119196   4.223   1.080  17.421  0.0209 -1.6860  1.4191
 2578SOL    HW219197   4.086   1.056  17.456 -0.7342  2.0269  0.6878
 2579SOL     OW19198   1.138   2.106   2.480 -0.0995  0.0380  0.0935
 2579SOL    HW119199   1.143   2.200   2.466 -0.7889  0.2889  1.5847
 2579SOL    HW219200   1.158   2.064   2.396 -0.5765  1.1564 -0.5730
 2580SOL     OW19201   0.193   4.371  11.760  0.0015 -0.0483  0.1033
 2580SOL    HW119202   0.192   4.285  11.802  0.3363 -0.3606 -0.5403
 2580SOL    HW219203   0.103   4.404  11.759  0.3395  0.8641 -0.4450
 2581SOL     OW19204   1.629   1.171   5.384 -0.1389 -0.3867  0.3207
 2581SOL    HW119205   1.708   1.223   5.402 -1.6786  1.9647  0.3827
 2581SOL    HW219206   1.612   1.133   5.470  0.2803 -0.4550  0.3735
 2582SOL     OW19207   0.947   0.580   1.331 -0.1586  0.6520 -0.0283
 2582SOL    HW119208   0.914   0.610   1.416  0.4125  4.1403 -1.0313
 2582SOL    HW219209   1.034   0.571   1.370  0.5426  2.8225 -1.0675
 2583SOL     OW19210   0.689   3.999  14.419 -0.3679 -0.3515 -0.2776
 2583SOL    HW119211   0.712   4.033  14.505 -0.7473  0.2059 -0.3959
 2583SOL    HW219212   0.597   4.026  14.419 -0.2220  0.1607  1.9204
 2584SOL     OW19213   2.563   2.376   3.920  0.3838 -0.0989 -0.1671
 2584SOL    HW119214   2.581   2.293   3.964 -1.0091  0.1311  0.8344
 2584SOL    HW219215   2.607   2.431   3.985  0.3826  1.4275 -1.4507
 2585SOL     OW19216   0.991   0.232   1.333  0.2278  0.1499  0.1560
 2585SOL    HW119217   1.077   0.255   1.298  0.3485  0.8659  0.9078
 2585SOL    HW219218   0.929   0.276   1.275 -0.3284  0.3406  0.8939
 2586SOL     OW19219   0.367   2.849  15.503 -0.3522 -0.2355  0.3086
 2586SOL    HW119220   0.293   2.792  15.526  0.1538 -1.1279 -0.2557
 2586SOL    HW219221   0.326   2.909  15.441 -1.2978 -1.8076 -0.6012
 2587SOL     OW19222   1.073   0.275   4.612 -0.5092 -0.0020  0.1450
 2587SOL    HW119223   1.000   0.314   4.565 -2.6913 -2.2907  1.6007
 2587SOL    HW219224   1.060   0.309   4.701 -1.4696 -1.5281  0.5877
 2588SOL     OW19225   3.450   2.268  11.412  0.1982  0.3510 -0.5082
 2588SOL    HW119226   3.531   2.218  11.400  1.1414  1.8406 -0.3052
 2588SOL    HW219227   3.406   2.207  11.471  0.9296 -0.2684 -0.6005
 2589SOL     OW19228   2.002   4.131  12.949 -0.3429  0.2616  0.0814
 2589SOL    HW119229   1.970   4.058  13.002  0.4627 -1.5426 -1.9162
 2589SOL    HW219230   2.096   4.127  12.967 -0.3438 -0.8872 -0.2029
 2590SOL     OW19231   3.614   0.382   7.754 -0.2177  0.2365 -0.5242
 2590SOL    HW119232   3.710   0.373   7.754 -0.1698  0.7516  0.5907
 2590SOL    HW219233   3.609   0.440   7.678 -0.1017  1.6964  0.5771
 2591SOL     OW19234   1.574   1.665   3.629 -0.5683  0.6276 -0.1576
 2591SOL    HW119235   1.580   1.759   3.613 -2.7771  0.4730 -1.9654
 2591SOL    HW219236   1.659   1.649   3.669 -0.4950  3.0579  0.6416
 2592SOL     OW19237   1.604   0.541   5.649 -0.1699 -0.0550 -0.1151
 2592SOL    HW119238   1.555   0.467   5.614  2.4310 -1.2611 -1.2413
 2592SOL    HW219239   1.694   0.510   5.660 -0.2916  0.1053  1.3860
 2593SOL     OW19240   2.860   1.333   4.646 -0.7193 -0.3875  0.7976
 2593SOL    HW119241   2.939   1.384   4.664 -0.1829 -0.8578 -0.2075
 2593SOL    HW219242   2.906   1.249   4.646  0.5485  0.3138 -1.1291
 2594SOL     OW19243   1.042   2.905   1.154  0.1476 -0.6561  0.4664
 2594SOL    HW119244   0.990   2.931   1.230 -1.8080 -0.8964 -0.7966
 2594SOL    HW219245   1.120   2.894   1.208  1.4318  0.2243 -1.2271
 2595SOL     OW19246   0.438   1.806   1.901  0.2975 -0.5612  0.1713
 2595SOL    HW119247   0.433   1.818   1.807 -0.4061  1.8927  0.5248
 2595SOL    HW219248   0.528   1.830   1.924  0.3382 -1.9771  1.5195
 2596SOL     OW19249   0.331   0.338  14.804 -0.5862  0.1414  0.3591
 2596SOL    HW119250   0.304   0.270  14.743  2.1592  1.2174 -2.0521
 2596SOL    HW219251   0.343   0.412  14.745 -2.3531 -0.0425 -0.2321
 2597SOL     OW19252   2.403   1.845  15.865  0.7753 -0.6549  0.0051
 2597SOL    HW119253   2.475   1.907  15.870  0.2001 -0.2011  2.5774
 2597SOL    HW219254   2.388   1.846  15.771 -1.6000 -4.3189  0.3078
 2598SOL     OW19255   0.204   1.790   5.978 -0.0677  0.5684  0.3085
 2598SOL    HW119256   0.177   1.881   5.993 -2.0358 -0.1480  1.1072
 2598SOL    HW219257   0.299   1.790   5.981 -0.0383  1.5618 -0.5422
 2599SOL     OW19258   1.992   2.306   2.732  0.5669  0.5308  0.1549
 2599SOL    HW119259   2.059   2.244   2.760 -0.0322  0.8335  2.2299
 2599SOL    HW219260   2.034   2.391   2.719 -0.1794  1.0436  1.1373
 2600SOL     OW19261   3.171   2.705  11.719 -0.1546  0.6152 -0.0991
 2600SOL    HW119262   3.228   2.630  11.731 -0.2501  0.7510  1.2139
 2600SOL    HW219263   3.178   2.707  11.624  0.7716  0.9417 -0.0171
 2601SOL     OW19264   0.680   1.239   1.135 -0.3152  0.4645  0.1626
 2601SOL    HW119265   0.752   1.176   1.141 -0.6306  0.0328 -0.4963
 2601SOL    HW219266   0.616   1.188   1.085  0.4791  0.2789 -0.6587
 2602SOL     OW19267   1.681   0.614   2.347 -0.0886  0.1308 -0.2714
 2602SOL    HW119268   1.586   0.613   2.358 -0.2932 -0.8776 -2.1662
 2602SOL    HW219269   1.699   0.520   2.361  0.0483  0.2726  0.4962
 2603SOL     OW19270   1.885   1.443  17.101 -0.2644  0.2434  0.0122
 2603SOL    HW119271   1.970   1.413  17.068 -0.7819 -1.2962  0.0658
 2603SOL    HW219272   1.843   1.475  17.021  0.7631  0.7115 -0.3374
 2604SOL     OW19273   3.103   3.415  11.494  0.0229  0.3085  0.6330
 2604SOL    HW119274   3.099   3.345  11.558 -0.7154 -0.2696 -0.0442
 2604SOL    HW219275   3.018   3.461  11.494 -1.5979 -2.6904 -1.0863
 2605SOL     OW19276   3.467   1.705  12.799  0.2614 -0.0297 -0.1084
 2605SOL    HW119277   3.423   1.701  12.884  0.9738 -0.5912  0.2332
 2605SOL    HW219278   3.448   1.796  12.775  0.2617 -0.4082 -1.5502
 2606SOL     OW19279   0.687   0.051   9.866 -0.4598 -0.4571  0.2330
 2606SOL    HW119280   0.705   0.109   9.941 -1.5348  0.7681 -0.4481
 2606SOL    HW219281   0.674   4.689   9.915  2.6592 -1.2336 -0.2276
 2607SOL     OW19282   3.643   2.697   6.727  0.1503  0.1879  0.4738
 2607SOL    HW119283   3.625   2.641   6.802  0.1098  0.4907  0.6883
 2607SOL    HW219284   3.683   2.772   6.770  3.0070 -1.3812  0.5713
 2608SOL     OW19285   0.648   2.972  14.325 -0.1806 -0.4006  0.8406
 2608SOL    HW119286   0.738   2.999  14.304 -0.7939  0.6770 -0.3994
 2608SOL    HW219287   0.648   2.945  14.416 -0.9734 -1.4848  0.5219
 2609SOL     OW19288   0.791   2.443   0.747 -0.0901  0.1025 -0.1075
 2609SOL    HW119289   0.785   2.390   0.667  0.9247  0.1950 -0.2463
 2609SOL    HW219290   0.742   2.515   0.707 -1.6817  0.2400  2.0682
 2610SOL     OW19291   0.897   1.652  16.344 -0.0447  0.5320 -0.4721
 2610SOL    HW119292   0.932   1.590  16.280 -0.5296 -1.0716  0.8281
 2610SOL    HW219293   0.978   1.667  16.394 -0.9321 -0.5763  1.2931
 2611SOL     OW19294   1.699   3.907   0.094 -0.0575 -0.9475  0.0052
 2611SOL    HW119295   1.766   3.951   0.146 -0.8306  0.5972 -0.3014
 2611SOL    HW219296   1.714   3.819   0.129 -0.3564 -0.8977  0.2576
 2612SOL     OW19297   4.012   4.251   8.767  0.0957  0.3203  0.5211
 2612SOL    HW119298   4.085   4.194   8.744  0.7484  2.4596 -2.6910
 2612SOL    HW219299   4.057   4.323   8.812 -1.2501  1.4821  0.0339
 2613SOL     OW19300   0.485   0.176   5.966  0.0513 -0.6915  0.1411
 2613SOL    HW119301   0.572   0.196   5.932 -0.9296  0.9592 -1.3803
 2613SOL    HW219302   0.445   0.262   5.953  0.9170 -0.1090  1.3142
 2614SOL     OW19303   3.979   1.192   4.824  0.1034  0.7694  0.2355
 2614SOL    HW119304   3.920   1.149   4.762  1.2804  0.7198 -0.8562
 2614SOL    HW219305   4.003   1.265   4.766  0.6715 -0.0307 -0.5247
 2615SOL     OW19306   3.788   2.501  11.703  0.2042 -0.3456 -0.3339
 2615SOL    HW119307   3.838   2.583  11.708 -0.4479  0.0016  0.5472
 2615SOL    HW219308   3.712   2.529  11.754  2.3984  1.2415  2.1255
 2616SOL     OW19309   3.699   2.282   5.356  0.2402  0.6563 -0.6935
 2616SOL    HW119310   3.695   2.342   5.430  1.9506 -0.7389  0.5464
 2616SOL    HW219311   3.635   2.323   5.297  0.1768 -1.1634 -1.9003
 2617SOL     OW19312   0.592   0.690   8.031 -0.1172 -0.1750 -0.3654
 2617SOL    HW119313   0.676   0.659   8.066  0.7464  0.8206 -1.5726
 2617SOL    HW219314   0.552   0.606   8.009 -1.9748  0.2906  1.3302
 2618SOL     OW19315   0.513   4.462   1.277 -0.3454  0.0059  0.6842
 2618SOL    HW119316   0.514   4.451   1.372 -0.9671  1.0833  0.8163
 2618SOL    HW219317   0.427   4.502   1.260 -0.7734 -2.2860 -2.5994
 2619SOL     OW19318   2.107   2.713   2.089  0.3501  0.2343  0.0521
 2619SOL    HW119319   2.018   2.726   2.122  0.8369 -0.2311  1.5395
 2619SOL    HW219320   2.100   2.620   2.069  0.3282  0.4748 -1.0954
 2620SOL     OW19321   2.854   4.108   6.772  0.1450 -0.5090  0.3189
 2620SOL    HW119322   2.938   4.139   6.807  1.2586 -1.6619 -1.3271
 2620SOL    HW219323   2.871   4.107   6.677  0.1302  1.0921  0.2992
 2621SOL     OW19324   3.284   1.515  12.157 -0.0061 -0.3073 -0.2219
 2621SOL    HW119325   3.321   1.603  12.155 -2.1847  0.6297  0.2889
 2621SOL    HW219326   3.359   1.464  12.128  0.6032  0.9717 -0.8688
 2622SOL     OW19327   0.387   4.572   3.390 -0.0646 -0.4886  0.5943
 2622SOL    HW119328   0.393   4.500   3.328 -0.7418 -0.5898  0.6423
 2622SOL    HW219329   0.307   4.613   3.357  1.5682  2.7374  0.6115
 2623SOL     OW19330   0.395   0.413   6.395  0.1334 -0.0315 -0.5275
 2623SOL    HW119331   0.454   0.449   6.330 -0.1950 -1.4525 -1.6202
 2623SOL    HW219332   0.465   0.373   6.447 -0.5774  0.2684  0.6669
 2624SOL     OW19333   2.221   4.284  11.615 -0.2473 -0.7840  0.0291
 2624SOL    HW119334   2.262   4.231  11.548  0.9286  0.1846 -0.0117
 2624SOL    HW219335   2.214   4.372  11.577  1.3750 -0.7039 -0.0783
 2625SOL     OW19336   1.274   0.782  10.158  0.0217  0.1942 -0.1332
 2625SOL    HW119337   1.315   0.737  10.084  0.5623  1.5124 -0.6439
 2625SOL    HW219338   1.255   0.706  10.213  1.8581 -0.3660 -0.2603
 2626SOL     OW19339   0.295   2.708   3.852  0.5442 -0.4699 -0.1044
 2626SOL    HW119340   0.260   2.676   3.935  0.1702  3.1075  1.1194
 2626SOL    HW219341   0.309   2.624   3.808  0.2145  0.5633 -2.1654
 2627SOL     OW19342   2.187   0.850  13.143 -0.0564 -0.4560  0.4936
 2627SOL    HW119343   2.166   0.921  13.082  1.2099 -2.2268 -1.9864
 2627SOL    HW219344   2.225   0.781  13.089  1.1184  0.7798 -0.2584
 2628SOL     OW19345   3.571   3.525   7.573 -0.2985 -0.1801  0.0341
 2628SOL    HW119346   3.532   3.443   7.543  0.6781 -0.4353 -0.5450
 2628SOL    HW219347   3.645   3.531   7.512  0.2347 -0.0986  0.6884
 2629SOL     OW19348   0.186   2.051   6.037  0.0133  0.0673  0.8742
 2629SOL    HW119349   0.144   2.124   6.082  1.3428  2.4351 -1.6804
 2629SOL    HW219350   0.209   2.092   5.953 -4.3031 -0.4672 -0.5589
 2630SOL     OW19351   0.457   3.357   5.333  0.2779  0.4158  0.0616
 2630SOL    HW119352   0.515   3.433   5.330  0.5655  0.1654 -0.6843
 2630SOL    HW219353   0.415   3.377   5.417  0.9887 -3.3924  1.2896
 2631SOL     OW19354   0.029   3.601  11.982  1.0596  0.1467  0.0214
 2631SOL    HW119355   0.119   3.613  12.012  0.6033 -0.2291  1.5499
 2631SOL    HW219356   0.047   3.592  11.889  1.7288  1.8895 -0.0198
 2632SOL     OW19357   0.371   1.336   7.835 -0.0039  0.0613  0.3684
 2632SOL    HW119358   0.422   1.416   7.847 -1.3488  0.9422  0.2325
 2632SOL    HW219359   0.318   1.366   7.761 -1.0479 -1.2653  0.5797
 2633SOL     OW19360   1.450   0.293   8.203  0.7382 -0.2303  0.2438
 2633SOL    HW119361   1.459   0.199   8.219  0.9846 -0.2156  0.2006
 2633SOL    HW219362   1.469   0.291   8.110  0.8054  0.4710  0.2413
 2634SOL     OW19363   1.051   0.963   7.865  0.0074 -0.1987  0.2656
 2634SOL    HW119364   1.081   1.005   7.946  3.9807  1.2779 -2.0197
 2634SOL    HW219365   1.065   0.871   7.887 -1.5496 -0.0665  1.8710
 2635SOL     OW19366   1.010   0.290   6.539  0.8454 -0.0247  0.1805
 2635SOL    HW119367   1.032   0.376   6.573 -0.2769  1.4564 -2.9137
 2635SOL    HW219368   1.065   0.288   6.461 -1.1383 -2.2661 -1.1350
 2636SOL     OW19369   0.446   3.294   0.443 -0.0239 -0.7451 -0.3687
 2636SOL    HW119370   0.380   3.287   0.513 -0.3902 -0.5667 -0.6927
 2636SOL    HW219371   0.523   3.244   0.467  0.9063  0.7166 -0.3003
 2637SOL     OW19372   3.639   4.058   7.730  0.1609 -0.2692  0.4281
 2637SOL    HW119373   3.629   4.154   7.724 -0.0701 -0.3772 -0.9966
 2637SOL    HW219374   3.669   4.052   7.821  1.4502 -2.7155 -0.1691
 2638SOL     OW19375   2.921   1.118   6.247  0.0798 -0.1592  0.3346
 2638SOL    HW119376   2.982   1.060   6.293  1.2724  1.0394  0.2752
 2638SOL    HW219377   2.923   1.170   6.328 -2.1138  0.3902  0.0349
 2639SOL     OW19378   0.570   0.691   5.803 -0.0865  0.8374 -0.1596
 2639SOL    HW119379   0.662   0.689   5.776 -0.3558 -0.8258 -0.9429
 2639SOL    HW219380   0.549   0.607   5.761  0.8231 -0.9187  2.9369
 2640SOL     OW19381   1.078   4.694   9.014 -0.0593  0.6404 -0.0879
 2640SOL    HW119382   1.051   4.667   9.102  1.1746 -1.9806 -0.5055
 2640SOL    HW219383   1.093   4.604   8.985 -0.3292  0.6564 -0.2880
 2641SOL     OW19384   2.928   3.956  15.631  0.0689  0.1448  0.1361
 2641SOL    HW119385   2.951   3.985  15.719 -0.1137  0.4892  0.0693
 2641SOL    HW219386   2.947   3.863  15.643  2.4893  0.8092  1.4272
 2642SOL     OW19387   2.912   0.974   0.062 -0.7124 -0.0817  0.1271
 2642SOL    HW119388   2.822   0.947   0.081 -0.4206  0.0068  1.6045
 2642SOL    HW219389   2.919   0.949  17.650 -1.4099  1.0650 -0.2325
 2643SOL     OW19390   4.676   1.864   8.027 -0.3607 -0.2670 -0.4050
 2643SOL    HW119391   0.020   1.846   7.958  1.3607 -0.5055  1.2266
 2643SOL    HW219392   4.698   1.953   8.055 -2.6782  1.2383 -3.4062
 2644SOL     OW19393   4.252   1.607   5.125  0.1096  0.0199 -0.3051
 2644SOL    HW119394   4.266   1.676   5.060  0.2885  0.4486  0.1874
 2644SOL    HW219395   4.277   1.525   5.083  1.1918  0.6708 -0.9177
 2645SOL     OW19396   2.807   0.504   6.697 -0.1468 -0.1466  0.0340
 2645SOL    HW119397   2.764   0.565   6.756 -0.0110 -0.4116  0.4081
 2645SOL    HW219398   2.759   0.422   6.709 -0.5316  0.2223  1.0685
 2646SOL     OW19399   1.359   1.918   5.200 -0.1972 -0.4203  0.0254
 2646SOL    HW119400   1.360   2.002   5.244  0.5697  0.0036 -0.8122
 2646SOL    HW219401   1.328   1.938   5.112 -0.2682 -0.0649  0.1315
 2647SOL     OW19402   2.539   4.308   7.319 -0.5903 -0.0284 -0.3832
 2647SOL    HW119403   2.515   4.217   7.302  0.0723  0.0280 -1.5895
 2647SOL    HW219404   2.634   4.299   7.326 -0.4920 -0.1601 -1.9443
 2648SOL     OW19405   1.244   0.183   1.995 -0.2464 -0.2951 -0.1101
 2648SOL    HW119406   1.277   0.268   2.024 -1.3211  0.5554 -1.3435
 2648SOL    HW219407   1.161   0.174   2.042 -0.5360  0.9071 -0.3826
 2649SOL     OW19408   1.842   3.924   7.261  0.0953  0.1513  0.1427
 2649SOL    HW119409   1.832   3.866   7.186 -1.5244  1.8977 -0.9841
 2649SOL    HW219410   1.762   3.906   7.310 -0.5362 -1.5097 -1.5008
 2650SOL     OW19411   1.955   2.439   9.078  0.2535  0.2317 -0.2151
 2650SOL    HW119412   2.011   2.369   9.111 -0.2077 -0.5313 -1.0292
 2650SOL    HW219413   1.924   2.465   9.164  0.0908  1.6971 -0.7184
 2651SOL     OW19414   2.771   3.114  16.734  0.0373 -0.0665  0.0993
 2651SOL    HW119415   2.859   3.113  16.772  0.4842 -2.4721 -0.9894
 2651SOL    HW219416   2.788   3.092  16.643 -2.8166 -2.4030  0.1373
 2652SOL     OW19417   3.571   4.450   6.210  0.4034  0.3788  0.7764
 2652SOL    HW119418   3.651   4.399   6.197  0.0332  0.1889 -0.7249
 2652SOL    HW219419   3.569   4.475   6.118 -4.7568 -1.8723  0.3109
 2653SOL     OW19420   3.988   1.517   1.626  0.2106  0.9931  0.1386
 2653SOL    HW119421   4.019   1.607   1.619 -0.0446  1.0179 -0.6851
 2653SOL    HW219422   3.897   1.525   1.597  0.9141  0.4964 -2.2525
 2654SOL     OW19423   4.090   3.491   4.448 -0.7282  0.0491  0.0280
 2654SOL    HW119424   4.142   3.517   4.525 -1.3360  0.9504  0.1350
 2654SOL    HW219425   4.007   3.461   4.486 -1.6399  0.7000 -1.4533
 2655SOL     OW19426   2.423   1.833   4.412 -0.2162  0.0566  0.8347
 2655SOL    HW119427   2.501   1.813   4.463 -0.2091 -0.7324  0.5097
 2655SOL    HW219428   2.350   1.800   4.466  1.3587 -1.1422  2.2171
 2656SOL     OW19429   3.055   4.137   7.403  0.7486 -0.0315  1.1383
 2656SOL    HW119430   3.082   4.121   7.494 -0.6859 -1.4295  1.3146
 2656SOL    HW219431   3.138   4.143   7.355 -0.0086 -1.6754 -0.3591
 2657SOL     OW19432   4.646   0.756  16.675 -0.2071  0.3799 -0.1108
 2657SOL    HW119433   4.661   0.827  16.613  1.1486 -0.2822 -0.5369
 2657SOL    HW219434   4.576   0.710  16.629  0.6993  0.2304 -1.3589
 2658SOL     OW19435   4.298   0.568  16.289 -0.4534 -1.1410 -0.2683
 2658SOL    HW119436   4.223   0.586  16.232 -0.8337 -1.9577 -0.0189
 2658SOL    HW219437   4.336   0.492  16.245 -0.4158 -3.1873  3.2938
 2659SOL     OW19438   2.867   4.446   2.419  0.2682 -0.6003  0.0749
 2659SOL    HW119439   2.859   4.427   2.512  0.6682 -0.6078  0.1087
 2659SOL    HW219440   2.899   4.536   2.413 -0.8870 -0.0838  1.9557
 2660SOL     OW19441   3.344   3.859   2.706 -0.2768 -0.5794  1.0186
 2660SOL    HW119442   3.366   3.862   2.613  0.1968 -1.5163  1.0966
 2660SOL    HW219443   3.359   3.765   2.716  2.1610 -0.3888 -0.8641
 2661SOL     OW19444   0.771   4.565   3.152  0.0110  0.1014  0.0707
 2661SOL    HW119445   0.774   4.574   3.057  0.7798  0.8287  0.1612
 2661SOL    HW219446   0.753   4.654   3.181 -2.8150 -0.9773  1.6527
 2662SOL     OW19447   0.022   3.554   3.273 -0.6105  0.3628 -0.3947
 2662SOL    HW119448   0.091   3.585   3.214  1.6475 -0.9088  1.6256
 2662SOL    HW219449   0.010   3.466   3.237 -0.5353  0.4840 -0.7178
 2663SOL     OW19450   2.220   2.031   9.214  0.1966 -0.5498 -0.0241
 2663SOL    HW119451   2.235   1.985   9.131  0.5842 -1.0002  0.2911
 2663SOL    HW219452   2.186   1.955   9.262  0.5711  0.8348  2.4558
 2664SOL     OW19453   1.592   3.365   7.621  0.1027 -0.1607 -0.3516
 2664SOL    HW119454   1.564   3.456   7.636  0.3702 -0.0737 -0.3619
 2664SOL    HW219455   1.649   3.351   7.698 -0.7445 -2.0212 -0.0711
 2665SOL     OW19456   2.694   1.267   2.483  0.0951 -0.2336  0.4761
 2665SOL    HW119457   2.717   1.179   2.453 -0.3269 -1.0138  2.4335
 2665SOL    HW219458   2.602   1.253   2.506  0.4598  0.3746  2.3305
 2666SOL     OW19459   3.619   2.915   2.162  0.2243  0.1200  0.5310
 2666SOL    HW119460   3.673   2.943   2.088  2.1787  0.2224  1.9910
 2666SOL    HW219461   3.696   2.899   2.218  0.3179 -0.9639  0.0959
 2667SOL     OW19462   4.665   4.452  11.707 -0.0323  0.4959  0.0697
 2667SOL    HW119463   4.580   4.495  11.709 -1.0150 -1.4770  0.5382
 2667SOL    HW219464   4.667   4.403  11.625  3.2621 -1.1474  1.1081
 2668SOL     OW19465   1.317   4.046   8.608 -0.0661 -0.0452  0.3304
 2668SOL    HW119466   1.225   4.027   8.593 -0.5029  1.0214  1.5922
 2668SOL    HW219467   1.319   4.025   8.701  0.3481  0.0813  0.3512
 2669SOL     OW19468   2.062   2.033   8.521 -0.4843  0.0259  0.6272
 2669SOL    HW119469   2.037   2.055   8.611 -0.5159 -0.3936  0.7212
 2669SOL    HW219470   2.061   2.111   8.464  0.1090  0.0764  0.6957
 2670SOL     OW19471   4.289   2.818  12.635  0.2768 -0.1037 -0.4693
 2670SOL    HW119472   4.258   2.866  12.558 -0.9399 -0.7006 -0.3470
 2670SOL    HW219473   4.212   2.833  12.689 -0.2722 -0.7463 -1.0553
 2671SOL     OW19474   0.105   0.538  12.237 -0.1368  0.0824  0.4747
 2671SOL    HW119475   0.081   0.551  12.145 -0.1854 -3.1311  0.0257
 2671SOL    HW219476   0.197   0.562  12.249 -0.0132  0.2781 -0.8278
 2672SOL     OW19477   1.420   4.210   0.078  0.4063 -0.2468  0.3670
 2672SOL    HW119478   1.346   4.179   0.130 -1.7037  2.4483 -1.0563
 2672SOL    HW219479   1.426   4.136   0.017 -0.6672  1.6612 -2.0719
 2673SOL     OW19480   0.511   1.086   4.002  0.3871  0.0533  0.0128
 2673SOL    HW119481   0.490   1.000   3.965 -0.6806  0.1953  0.3030
 2673SOL    HW219482   0.444   1.148   3.974 -0.0796 -1.2672 -1.8296
 2674SOL     OW19483   2.736   0.828  13.308 -0.1156 -0.1399  0.1320
 2674SOL    HW119484   2.766   0.805  13.396  0.0081  0.5294  0.2630
 2674SOL    HW219485   2.731   0.924  13.312 -2.0507 -0.2054 -0.6533
 2675SOL     OW19486   3.877   2.548   0.260 -0.7534 -0.5545 -0.4648
 2675SOL    HW119487   3.808   2.612   0.244  1.3480  1.4755 -1.4878
 2675SOL    HW219488   3.927   2.604   0.319 -0.7376 -1.1495  0.0835
 2676SOL     OW19489   2.366   3.270   2.203  0.2722  0.6587 -0.3209
 2676SOL    HW119490   2.414   3.188   2.186 -0.8583 -0.2875  1.1384
 2676SOL    HW219491   2.440   3.329   2.215 -0.0439  1.0795 -0.4603
 2677SOL     OW19492   3.822   2.424   8.345  0.4568  0.3539  0.6720
 2677SOL    HW119493   3.901   2.477   8.328  0.9144 -1.3884 -2.7366
 2677SOL    HW219494   3.769   2.452   8.270 -0.8813 -1.5530  0.8929
 2678SOL     OW19495   0.091   2.728  12.661 -0.2824  0.1515  0.2131
 2678SOL    HW119496   0.119   2.814  12.629  0.4880  0.4281  1.6533
 2678SOL    HW219497   0.003   2.721  12.623 -1.2719 -0.0804  2.5552
 2679SOL     OW19498   2.351   4.070  16.196  0.0468  0.4999  0.2574
 2679SOL    HW119499   2.382   4.135  16.133 -1.8371 -0.0507 -1.2217
 2679SOL    HW219500   2.276   4.114  16.237 -3.2689 -3.3536 -1.6575
 2680SOL     OW19501   4.187   2.722   6.288 -0.5904  0.1388 -0.4862
 2680SOL    HW119502   4.097   2.693   6.276 -0.8268  0.5331  0.3231
 2680SOL    HW219503   4.242   2.655   6.247 -1.4691  0.8351 -2.8024
 2681SOL     OW19504   2.706   1.438   3.748 -0.0411 -0.1284 -0.6961
 2681SOL    HW119505   2.796   1.443   3.717  0.0379 -0.1510 -0.4680
 2681SOL    HW219506   2.686   1.344   3.745 -0.6195  0.0034 -1.0220
 2682SOL     OW19507   3.794   0.210  15.852 -0.5246  0.5132  0.1231
 2682SOL    HW119508   3.760   0.193  15.939  0.8329 -0.9300  0.3900
 2682SOL    HW219509   3.790   0.305  15.857 -0.8520  0.3526  2.6421
 2683SOL     OW19510   1.309   4.180   2.769  0.2806  0.2575 -0.2644
 2683SOL    HW119511   1.299   4.179   2.674  0.3391 -1.6387 -0.2512
 2683SOL    HW219512   1.238   4.239   2.791  0.2049 -0.1527  0.5832
 2684SOL     OW19513   1.652   4.612  17.526 -0.3040 -0.0951 -0.1424
 2684SOL    HW119514   1.635   4.682  17.463 -0.0587 -0.8952 -1.1040
 2684SOL    HW219515   1.569   4.564  17.534 -0.3588 -0.0979 -0.7366
 2685SOL     OW19516   2.027   1.003   5.695  0.2672 -0.2064 -0.6964
 2685SOL    HW119517   2.065   0.919   5.671 -1.5451 -1.3041  0.3019
 2685SOL    HW219518   1.993   1.021   5.608 -0.2378 -0.3793 -0.5348
 2686SOL     OW19519   4.436   4.163   7.500 -0.2929  0.1103  0.4489
 2686SOL    HW119520   4.400   4.131   7.418  0.3673  1.9205 -0.5483
 2686SOL    HW219521   4.357   4.155   7.553 -0.6710 -0.6595 -0.2405
 2687SOL     OW19522   2.816   4.511   6.341  0.3622 -0.3356  0.2195
 2687SOL    HW119523   2.860   4.559   6.271  0.6657 -0.4880  0.3052
 2687SOL    HW219524   2.830   4.425   6.302  1.0759 -1.4794  2.9557
 2688SOL     OW19525   2.754   1.383   4.139  0.0432 -0.0452 -0.3201
 2688SOL    HW119526   2.739   1.387   4.233 -0.0502  3.5046 -0.4804
 2688SOL    HW219527   2.715   1.467   4.113 -0.9327 -0.9356 -1.7477
 2689SOL     OW19528   1.333   1.039  11.294 -0.4333  0.2357  0.1824
 2689SOL    HW119529   1.276   1.092  11.351  0.5060  1.7187 -0.2513
 2689SOL    HW219530   1.278   0.999  11.226  0.3968  1.1198 -1.0023
 2690SOL     OW19531   3.492   1.979   0.318 -0.3614 -0.0133 -0.3951
 2690SOL    HW119532   3.402   2.010   0.330 -0.4391  0.1172 -1.3250
 2690SOL    HW219533   3.495   1.948   0.227 -3.0814 -0.5351 -0.3109
 2691SOL     OW19534   1.995   1.092   3.155 -0.7297 -0.0336  0.5142
 2691SOL    HW119535   1.957   1.179   3.150 -0.6089  0.0116  0.3966
 2691SOL    HW219536   1.949   1.070   3.236  0.1522  0.2855  1.0999
 2692SOL     OW19537   3.293   2.711   6.793  0.5101  0.0582 -0.4543
 2692SOL    HW119538   3.313   2.801   6.818  0.8625  0.0270 -0.6241
 2692SOL    HW219539   3.267   2.681   6.880 -1.5554 -1.0753 -1.4625
 2693SOL     OW19540   0.537   2.633  11.685 -0.1609  0.0636  0.5674
 2693SOL    HW119541   0.495   2.636  11.771 -1.8225  2.1469 -0.3182
 2693SOL    HW219542   0.491   2.704  11.641  0.9982  0.1876 -0.4660
 2694SOL     OW19543   0.656   0.915   9.070  0.0586 -0.2320  0.1626
 2694SOL    HW119544   0.747   0.922   9.102  0.4548 -0.5429 -0.8942
 2694SOL    HW219545   0.605   0.923   9.150 -0.2076 -0.0351 -0.0295
 2695SOL     OW19546   3.143   4.143   6.452 -0.1879  0.5129  0.1873
 2695SOL    HW119547   3.216   4.131   6.512  0.1322  1.7474  0.0334
 2695SOL    HW219548   3.164   4.083   6.380 -1.8006 -2.3844  2.0951
 2696SOL     OW19549   1.288   4.321   7.473  0.0958  0.0178 -0.2627
 2696SOL    HW119550   1.269   4.412   7.495 -0.0625 -0.0638 -0.0582
 2696SOL    HW219551   1.384   4.325   7.479  0.2562 -0.9369 -1.9708
 2697SOL     OW19552   4.510   2.825   3.051 -0.5220 -0.3348 -0.3468
 2697SOL    HW119553   4.551   2.907   3.079 -2.2277 -0.3705  2.2602
 2697SOL    HW219554   4.589   2.775   3.029 -0.3513  0.2813 -1.1173
 2698SOL     OW19555   2.646   2.101   4.047  0.0236 -0.1433  0.2851
 2698SOL    HW119556   2.741   2.103   4.037  0.0123 -0.3828  0.1328
 2698SOL    HW219557   2.632   2.006   4.042 -1.5270  0.0376  1.3693
 2699SOL     OW19558   1.469   2.985   9.247 -0.7139  0.3924 -0.2805
 2699SOL    HW119559   1.400   2.924   9.220  2.0790 -1.9501 -2.1148
 2699SOL    HW219560   1.544   2.926   9.247 -0.5107  0.6197 -3.0596
 2700SOL     OW19561   0.956   1.317   2.118  0.3825  0.1666 -0.8715
 2700SOL    HW119562   0.888   1.322   2.051 -1.4582  2.5192  1.1569
 2700SOL    HW219563   1.027   1.365   2.077  1.5068 -1.0833 -0.3651
 2701SOL     OW19564   0.265   0.590   6.756 -0.1350  0.1644  0.0705
 2701SOL    HW119565   0.344   0.634   6.724 -0.8842  0.2165 -1.7154
 2701SOL    HW219566   0.290   0.583   6.848  0.8918  1.4424 -0.1139
 2702SOL     OW19567   1.408   4.710   4.670  0.1921  0.4332 -0.2679
 2702SOL    HW119568   1.423   0.052   4.598 -0.0739  1.9239  0.9459
 2702SOL    HW219569   1.408   0.053   4.743  1.0551  2.8919 -2.3914
 2703SOL     OW19570   3.522   1.883  11.416  0.3993 -0.2663 -0.5026
 2703SOL    HW119571   3.502   1.949  11.482 -0.5730  1.4930 -2.5638
 2703SOL    HW219572   3.617   1.870  11.422  0.4581  0.4576  0.1689
 2704SOL     OW19573   1.551   2.383   5.532  0.0074 -0.4322 -0.0361
 2704SOL    HW119574   1.630   2.426   5.564  0.9787 -0.6262 -2.1681
 2704SOL    HW219575   1.565   2.403   5.439  1.1050 -1.0493 -0.0070
 2705SOL     OW19576   2.948   2.744  10.207  0.0245 -0.0717  0.1786
 2705SOL    HW119577   2.887   2.808  10.244 -1.2555 -2.0122  1.4411
 2705SOL    HW219578   2.952   2.781  10.119  2.2249  0.0837  0.3487
 2706SOL     OW19579   4.100   3.599  10.289  0.1212  0.0009  0.5581
 2706SOL    HW119580   4.093   3.655  10.367  0.9112 -0.9353  1.2999
 2706SOL    HW219581   4.191   3.570  10.295  0.0720  0.0512  1.4877
 2707SOL     OW19582   2.490   4.378   2.659 -0.9459  0.2009 -0.3828
 2707SOL    HW119583   2.440   4.437   2.602 -0.3335  1.2791  0.2073
 2707SOL    HW219584   2.505   4.446   2.725 -2.4452 -0.1596  0.3246
 2708SOL     OW19585   3.624   1.074   3.663 -0.3968 -0.2286 -0.2020
 2708SOL    HW119586   3.538   1.033   3.675 -0.2893  0.1895  2.1296
 2708SOL    HW219587   3.605   1.150   3.609  1.4536  0.6128  0.3533
 2709SOL     OW19588   2.388   3.246  10.055 -0.2429 -0.0476 -0.2794
 2709SOL    HW119589   2.299   3.248  10.020 -0.0528 -0.9045 -0.8267
 2709SOL    HW219590   2.435   3.277   9.977  0.0497  2.8093  1.0295
 2710SOL     OW19591   0.127   4.281   8.362 -0.0239  0.0921 -0.1696
 2710SOL    HW119592   0.077   4.256   8.284  1.0798 -1.4731 -0.3695
 2710SOL    HW219593   0.169   4.197   8.381 -0.0757 -0.2002 -1.3020
 2711SOL     OW19594   3.295   2.295   4.384  0.1197  0.3560  0.2967
 2711SOL    HW119595   3.345   2.350   4.324  0.9212  0.9575  1.5120
 2711SOL    HW219596   3.366   2.238   4.415  2.6678  1.6805 -3.1629
 2712SOL     OW19597   1.709   3.749   0.816  0.1208 -0.1326  0.2638
 2712SOL    HW119598   1.634   3.716   0.767 -0.6992  1.4682  0.4375
 2712SOL    HW219599   1.745   3.803   0.746  1.3849  0.5015  1.3972
 2713SOL     OW19600   3.384   4.563   1.957  0.2265 -0.3096 -0.3014
 2713SOL    HW119601   3.338   4.521   1.884  0.3034 -0.1236 -0.4565
 2713SOL    HW219602   3.308   4.580   2.013  0.3939  0.6224 -0.3716
 2714SOL     OW19603   2.579   1.111   4.969  0.1188 -0.1211 -0.0649
 2714SOL    HW119604   2.629   1.089   5.047 -0.1507  1.2093  0.4834
 2714SOL    HW219605   2.493   1.127   5.007  0.5584 -1.6321  1.5299
 2715SOL     OW19606   1.488   4.176  13.045 -0.5414 -0.0683  0.5110
 2715SOL    HW119607   1.584   4.177  13.043 -0.5402 -2.3325  0.5642
 2715SOL    HW219608   1.482   4.098  12.990 -0.0915  0.2209  0.0504
 2716SOL     OW19609   4.117   3.585   3.481 -0.2285 -0.0047  0.3169
 2716SOL    HW119610   4.132   3.522   3.411  0.8236 -1.4702  1.8705
 2716SOL    HW219611   4.091   3.522   3.549  1.2842 -0.5053  0.4230
 2717SOL     OW19612   2.385   4.332   8.240 -0.1325 -0.1683 -0.1158
 2717SOL    HW119613   2.448   4.260   8.232 -0.5303 -0.3185 -1.8517
 2717SOL    HW219614   2.414   4.381   8.163 -0.7149  2.3088  1.2636
 2718SOL     OW19615   2.144   4.384  17.035  0.3076 -0.3468  0.1859
 2718SOL    HW119616   2.227   4.432  17.035  0.0965  0.0107  0.6535
 2718SOL    HW219617   2.082   4.456  17.046  0.2963 -0.2139 -0.7214
 2719SOL     OW19618   1.574   0.745   2.578  0.0801 -0.5837  0.5115
 2719SOL    HW119619   1.644   0.746   2.513 -0.7646  1.8576 -0.3528
 2719SOL    HW219620   1.591   0.810   2.647  1.6088 -1.1715  0.6984
 2720SOL     OW19621   2.643   4.369  11.980  0.9241 -0.6114 -0.0718
 2720SOL    HW119622   2.558   4.346  12.016  0.1273  0.0071 -1.5523
 2720SOL    HW219623   2.680   4.288  11.946  0.1879 -0.7169 -0.6264
 2721SOL     OW19624   0.996   3.950   2.655  0.0641 -0.0514 -0.3310
 2721SOL    HW119625   0.926   3.949   2.720  0.0397 -0.8279 -0.3730
 2721SOL    HW219626   1.022   3.858   2.654 -1.4340 -0.4729  0.1743
 2722SOL     OW19627   0.675   4.262   0.030  0.1776 -0.0389 -0.0562
 2722SOL    HW119628   0.701   4.212  17.634  0.1830 -1.4051  0.8329
 2722SOL    HW219629   0.594   4.304   0.002 -0.3378 -2.2402 -1.8093
 2723SOL     OW19630   3.573   2.478   7.296 -0.2802 -0.2826  0.0196
 2723SOL    HW119631   3.668   2.482   7.280 -0.3823  1.8041 -0.1352
 2723SOL    HW219632   3.548   2.399   7.249 -1.0324  0.8458 -1.4619
 2724SOL     OW19633   3.877   4.417   8.593  0.0309  0.5717  0.2296
 2724SOL    HW119634   3.921   4.501   8.599  0.3459  0.4667 -0.7076
 2724SOL    HW219635   3.948   4.360   8.623  1.6066  1.1685 -2.4556
 2725SOL     OW19636   2.609   3.314   6.858  0.4646 -0.5377 -0.0017
 2725SOL    HW119637   2.570   3.384   6.909 -1.8993 -1.3493 -0.6783
 2725SOL    HW219638   2.536   3.286   6.802 -0.7458 -0.7659  1.6908
 2726SOL     OW19639   3.147   1.655  12.519 -0.0857 -0.1381 -0.8801
 2726SOL    HW119640   3.224   1.629  12.570 -0.1743  0.3546 -0.4972
 2726SOL    HW219641   3.132   1.582  12.459 -3.6366  0.4598 -0.6939
 2727SOL     OW19642   4.180   3.282  17.477 -0.5857 -0.1647 -0.0597
 2727SOL    HW119643   4.202   3.356  17.533 -0.4307 -0.3667  0.1464
 2727SOL    HW219644   4.102   3.325  17.443 -0.0647 -0.1240 -1.2162
 2728SOL     OW19645   0.411   0.841   3.895 -0.5486 -0.5091 -0.6848
 2728SOL    HW119646   0.359   0.841   3.815 -0.9249 -0.9914 -0.4393
 2728SOL    HW219647   0.423   0.746   3.904 -0.3288 -0.4869 -0.7376
 2729SOL     OW19648   0.639   1.053  14.027  0.6087  0.3976  0.1028
 2729SOL    HW119649   0.550   1.027  14.002  0.6430  0.7200 -0.3370
 2729SOL    HW219650   0.633   1.148  14.022  0.5563  0.4836  1.7094
 2730SOL     OW19651   0.629   2.973  10.769 -0.3675 -0.2085  0.2461
 2730SOL    HW119652   0.716   2.981  10.810 -1.8276  3.1680  2.6928
 2730SOL    HW219653   0.596   3.057  10.799 -1.3396 -0.5302  0.0680
 2731SOL     OW19654   2.928   0.818   5.344  0.5345 -0.0277  0.2652
 2731SOL    HW119655   2.870   0.755   5.302 -0.2351  0.1673  1.0346
 2731SOL    HW219656   2.975   0.842   5.265  1.7622 -0.3674  0.8953
 2732SOL     OW19657   1.763   4.473   3.482 -0.0439  0.3697  0.0398
 2732SOL    HW119658   1.766   4.383   3.516 -0.9161  0.2763 -0.1148
 2732SOL    HW219659   1.852   4.506   3.471 -0.5185  1.8201  0.5633
 2733SOL     OW19660   0.473   3.142   3.570  0.0820 -0.0318 -0.2602
 2733SOL    HW119661   0.429   3.223   3.545  1.4888  0.3355 -1.5498
 2733SOL    HW219662   0.415   3.075   3.534  0.2420 -0.7860  0.8640
 2734SOL     OW19663   3.863   4.553  16.554  0.0003  0.0708  0.0446
 2734SOL    HW119664   3.842   4.647  16.553 -2.4533 -0.4715  4.0996
 2734SOL    HW219665   3.931   4.547  16.620 -0.5176  0.5467  0.6202
 2735SOL     OW19666   3.972   4.565   2.277 -0.0146 -0.4045  0.7036
 2735SOL    HW119667   3.983   4.471   2.295 -0.6381 -0.5630  0.2281
 2735SOL    HW219668   3.911   4.550   2.206  2.2677 -1.0852 -1.1125
 2736SOL     OW19669   4.199   0.596   0.149 -0.4349 -0.3604 -0.0434
 2736SOL    HW119670   4.284   0.626   0.184 -0.2706 -0.9059  0.0311
 2736SOL    HW219671   4.230   0.522   0.097  0.9041  1.5125 -1.9202
 2737SOL     OW19672   1.451   1.982   9.522 -1.0253  0.1452 -0.6575
 2737SOL    HW119673   1.392   1.928   9.575  0.2720 -0.0683  0.5529
 2737SOL    HW219674   1.445   2.071   9.556  1.2799 -0.3077  0.8867
 2738SOL     OW19675   3.406   2.887   8.379  0.4471 -0.0594  0.3642
 2738SOL    HW119676   3.494   2.865   8.410  0.2606 -1.6906 -0.2815
 2738SOL    HW219677   3.418   2.918   8.289 -0.6329  1.5066  0.7500
 2739SOL     OW19678   1.588   0.623   5.935 -0.3351 -0.7419  0.5563
 2739SOL    HW119679   1.595   0.595   5.844  0.5703  1.7691 -0.1246
 2739SOL    HW219680   1.627   0.709   5.922 -1.3377 -0.1518  1.4562
 2740SOL     OW19681   3.826   0.694  12.028 -0.3335 -0.2819 -0.1233
 2740SOL    HW119682   3.904   0.640  12.045  0.2541  0.5792 -0.0845
 2740SOL    HW219683   3.782   0.698  12.113  2.2131 -3.3097  1.3629
 2741SOL     OW19684   3.051   1.233   9.038 -0.0791 -0.0556  0.5735
 2741SOL    HW119685   3.059   1.262   8.947 -0.9079  2.2573  1.2290
 2741SOL    HW219686   2.979   1.284   9.076  0.4864  1.7763 -0.8039
 2742SOL     OW19687   4.488   4.274  15.302 -0.4747 -0.7418  0.1166
 2742SOL    HW119688   4.550   4.347  15.311  0.9793 -2.0803  0.8917
 2742SOL    HW219689   4.522   4.209  15.364  3.9713 -1.1846 -2.7976
 2743SOL     OW19690   0.007   1.175   2.048 -0.4374  0.1381 -0.1388
 2743SOL    HW119691   4.638   1.213   2.048 -1.6202 -2.6452 -0.6904
 2743SOL    HW219692   0.050   1.244   1.998  0.5355  0.2927  0.9322
 2744SOL     OW19693   4.489   0.024   3.386 -0.2500  0.1440  0.2432
 2744SOL    HW119694   4.567   0.055   3.431 -1.0483 -0.5374  2.1197
 2744SOL    HW219695   4.444   0.096   3.341  1.5718  2.2479  1.8139
 2745SOL     OW19696   4.659   4.091   8.726 -0.4823  0.5088 -0.8219
 2745SOL    HW119697   4.641   4.054   8.813  0.5404 -0.9066 -1.2297
 2745SOL    HW219698   4.696   4.174   8.756 -0.5716  0.2143  0.1152
 2746SOL     OW19699   3.315   1.775  14.871 -0.1949 -0.1736  0.1058
 2746SOL    HW119700   3.378   1.711  14.837 -0.9292 -0.5385 -0.5671
 2746SOL    HW219701   3.241   1.755  14.814 -1.4157 -0.4270  1.7920
 2747SOL     OW19702   0.864   0.480  16.279  0.3266 -0.1602  0.1020
 2747SOL    HW119703   0.794   0.445  16.334 -1.5624 -1.3897 -3.0203
 2747SOL    HW219704   0.925   0.509  16.346 -3.1710  1.6688  2.4868
 2748SOL     OW19705   4.188   0.968   7.872  0.1056 -0.1630  0.4067
 2748SOL    HW119706   4.100   0.968   7.909 -0.4082  2.1735 -0.7734
 2748SOL    HW219707   4.224   0.966   7.961 -1.5625 -0.0126  1.0724
 2749SOL     OW19708   2.003   0.726   4.289  0.1068 -0.5058 -0.2722
 2749SOL    HW119709   1.972   0.748   4.377  0.3457 -1.5034  0.0607
 2749SOL    HW219710   1.950   0.786   4.237 -0.4791  0.1212  1.0521
 2750SOL     OW19711   1.411   1.175   1.476  0.6708 -0.3905  0.3038
 2750SOL    HW119712   1.495   1.219   1.487 -0.4070  1.5681  0.6574
 2750SOL    HW219713   1.428   1.125   1.396  0.3471 -1.3167  0.8215
 2751SOL     OW19714   3.413   0.622   0.213  0.2459  0.1678 -0.0041
 2751SOL    HW119715   3.358   0.608   0.289  3.0066  0.8839  2.1096
 2751SOL    HW219716   3.351   0.683   0.172  0.7101  1.3490  1.0607
 2752SOL     OW19717   2.919   2.213   2.667  0.2391 -0.4685  0.1047
 2752SOL    HW119718   2.859   2.144   2.695  0.7575 -1.5273 -1.4237
 2752SOL    HW219719   2.860   2.279   2.631  1.2323  0.0977 -0.4871
 2753SOL     OW19720   0.956   0.439  16.613  0.6254 -0.1885 -0.2950
 2753SOL    HW119721   0.860   0.432  16.611  0.5270  1.1160  0.3542
 2753SOL    HW219722   0.981   0.349  16.588  0.3776 -0.1218 -0.7897
 2754SOL     OW19723   1.738   1.499   2.094  0.1678  0.1335  0.8128
 2754SOL    HW119724   1.711   1.427   2.037  2.0491 -1.0104  1.3586
 2754SOL    HW219725   1.651   1.532   2.114 -0.1112 -1.4776  2.2447
 2755SOL     OW19726   4.174   2.519   4.551 -0.6178  0.0360  0.5322
 2755SOL    HW119727   4.141   2.430   4.543  0.8944 -0.4345 -0.5172
 2755SOL    HW219728   4.160   2.558   4.465  1.2459  2.4561  1.3030
 2756SOL     OW19729   0.233   1.966   3.511 -0.4983  0.2115  0.4111
 2756SOL    HW119730   0.301   1.944   3.576 -2.2421  2.0955  2.8857
 2756SOL    HW219731   0.279   1.954   3.428 -2.1449  2.1252 -0.7839
 2757SOL     OW19732   0.548   1.810   9.276 -0.2744  0.5947 -0.4117
 2757SOL    HW119733   0.557   1.895   9.234  2.4087  0.9417  0.8883
 2757SOL    HW219734   0.636   1.797   9.310 -2.2183 -2.9919  3.2319
 2758SOL     OW19735   3.189   1.686   9.156 -0.1506  0.3142 -0.3292
 2758SOL    HW119736   3.217   1.696   9.065 -1.5846 -0.0874 -0.8213
 2758SOL    HW219737   3.202   1.778   9.177 -0.4183  0.0893  0.8041
 2759SOL     OW19738   1.917   2.970  14.414 -0.8276 -0.4584  0.2970
 2759SOL    HW119739   1.904   3.058  14.380  1.9692 -0.1104  0.0711
 2759SOL    HW219740   2.013   2.965  14.422 -0.5005  1.0725 -2.7288
 2760SOL     OW19741   0.065   2.977   2.660 -0.1384 -0.3799 -0.0444
 2760SOL    HW119742   0.035   2.886   2.660 -2.2377  0.3237  0.5403
 2760SOL    HW219743   0.113   2.997   2.580 -0.6219  1.7407  0.2184
 2761SOL     OW19744   2.823   4.111   6.478  0.4339 -0.4653  0.1940
 2761SOL    HW119745   2.763   4.091   6.407  0.6272 -0.5840  0.0665
 2761SOL    HW219746   2.895   4.052   6.460  0.6985 -0.0807  0.0032
 2762SOL     OW19747   4.229   1.955   1.920 -0.3516  0.1982  0.9278
 2762SOL    HW119748   4.238   2.048   1.901 -1.7328  0.3343  0.9378
 2762SOL    HW219749   4.158   1.926   1.863  0.1222 -0.3270  0.6177
 2763SOL     OW19750   4.020   4.186  17.642 -0.2628  0.2217 -0.3135
 2763SOL    HW119751   4.097   4.209  17.590  0.8617 -0.8662  0.8373
 2763SOL    HW219752   4.029   4.264   0.016  3.8917  0.3716 -1.1945
 2764SOL     OW19753   2.795   4.293   5.121  0.2173 -0.1951 -0.7443
 2764SOL    HW119754   2.890   4.291   5.107  0.5154  0.0954  1.2335
 2764SOL    HW219755   2.787   4.268   5.213 -0.6136  1.3212 -0.4047
 2765SOL     OW19756   2.772   2.308  12.503  0.0147  0.1623  0.2753
 2765SOL    HW119757   2.867   2.300  12.491 -0.1525 -0.6275 -0.5048
 2765SOL    HW219758   2.767   2.402  12.489  0.0515  0.3801  1.6966
 2766SOL     OW19759   1.083   2.657   3.338  0.2764 -0.9042  0.2806
 2766SOL    HW119760   1.124   2.737   3.371 -2.3592  0.6185 -0.1180
 2766SOL    HW219761   1.001   2.703   3.318  1.8151  1.3191 -0.9382
 2767SOL     OW19762   2.582   3.606   4.495  0.6123 -0.4194  0.1197
 2767SOL    HW119763   2.570   3.571   4.583  0.2586  0.5075  0.4319
 2767SOL    HW219764   2.547   3.532   4.445 -0.1663 -1.0023  1.5159
 2768SOL     OW19765   4.596   1.402  15.828 -0.1567  0.0386  0.2680
 2768SOL    HW119766   4.526   1.374  15.887  0.1512  2.9401  2.0180
 2768SOL    HW219767   4.536   1.424  15.757  0.2062 -0.4795 -0.1998
 2769SOL     OW19768   2.218   2.019  10.036 -0.3333  0.1309 -0.5289
 2769SOL    HW119769   2.285   2.078  10.070  1.8098 -2.1209 -0.8430
 2769SOL    HW219770   2.139   2.048  10.082 -1.0910 -2.4922 -0.1838
 2770SOL     OW19771   3.642   3.430   3.113 -1.0257  0.1568 -0.2578
 2770SOL    HW119772   3.710   3.372   3.080 -1.2739  0.0597 -0.5952
 2770SOL    HW219773   3.693   3.503   3.150  1.2033 -1.1545 -0.7549
 2771SOL     OW19774   0.047   3.881  13.856  0.0370  0.2015  0.4428
 2771SOL    HW119775   0.087   3.967  13.843 -0.6705  0.7324  1.7516
 2771SOL    HW219776   0.103   3.825  13.802 -0.8985  0.3475 -0.6844
 2772SOL     OW19777   1.909   2.355  10.079 -0.3594 -0.0739  0.2103
 2772SOL    HW119778   1.909   2.324   9.988 -0.4270  1.4723 -0.3251
 2772SOL    HW219779   1.815   2.359  10.094 -0.5070  1.0596 -1.0233
 2773SOL     OW19780   2.524   2.435   5.045 -0.5729  0.1640  0.0807
 2773SOL    HW119781   2.494   2.436   4.954 -0.9184  2.7754  0.2295
 2773SOL    HW219782   2.619   2.449   5.037 -0.6482  0.6881  0.0973
 2774SOL     OW19783   3.874   4.352   6.288  0.1772 -0.4410  0.0386
 2774SOL    HW119784   3.821   4.273   6.294  0.0995 -0.3995 -0.1191
 2774SOL    HW219785   3.948   4.332   6.347  0.7793  0.3936 -0.4329
 2775SOL     OW19786   1.804   3.486   0.916  0.2252 -0.2471 -0.1693
 2775SOL    HW119787   1.780   3.571   0.881  3.0108  1.6516  2.5426
 2775SOL    HW219788   1.731   3.468   0.975  0.5517 -0.4020  0.1887
 2776SOL     OW19789   4.052   3.840   1.187 -0.1217  0.5828 -0.2504
 2776SOL    HW119790   4.105   3.828   1.109  1.6880  3.5234  0.5109
 2776SOL    HW219791   3.976   3.788   1.164  1.3885 -2.5135  1.8179
 2777SOL     OW19792   0.658   1.842  11.358 -0.1946 -0.0711 -1.1127
 2777SOL    HW119793   0.593   1.803  11.298 -1.7666  1.4298 -0.3755
 2777SOL    HW219794   0.615   1.924  11.381 -0.4049 -0.1205 -1.3225
 2778SOL     OW19795   2.603   3.026   8.681 -1.0407  0.5711 -0.6400
 2778SOL    HW119796   2.655   3.057   8.754 -0.9382  1.1091 -0.9439
 2778SOL    HW219797   2.555   2.959   8.731  0.5432 -0.0761  0.0099
 2779SOL     OW19798   2.119   3.418   8.751 -0.1837 -0.0926 -0.6494
 2779SOL    HW119799   2.152   3.336   8.787 -0.5082 -1.2765 -3.0118
 2779SOL    HW219800   2.187   3.435   8.685 -0.5849  0.4887 -0.9071
 2780SOL     OW19801   1.344   2.615   3.631  0.3332  0.9772 -0.3469
 2780SOL    HW119802   1.361   2.706   3.609  1.2864  1.7479  3.4962
 2780SOL    HW219803   1.411   2.615   3.699 -1.0718  0.9545  1.0268
 2781SOL     OW19804   1.591   2.588  13.815 -0.2234 -0.2414 -0.0016
 2781SOL    HW119805   1.604   2.653  13.746  1.9944 -1.3910 -0.6799
 2781SOL    HW219806   1.619   2.633  13.895  2.8441  1.2837 -1.9496
 2782SOL     OW19807   4.168   0.562  10.895 -0.2305 -0.1645 -0.7020
 2782SOL    HW119808   4.135   0.632  10.840 -3.4069 -0.7829  0.3590
 2782SOL    HW219809   4.263   0.567  10.902 -0.2170  0.6602 -1.4546
 2783SOL     OW19810   1.107   3.426   9.792 -0.0083  0.0096  0.4131
 2783SOL    HW119811   1.170   3.492   9.763  1.2737 -1.2954  0.2095
 2783SOL    HW219812   1.041   3.484   9.830 -0.2184  0.0414 -0.0017
 2784SOL     OW19813   2.955   0.861   7.803 -0.0435 -0.1509  0.6134
 2784SOL    HW119814   2.892   0.905   7.746  3.0845  0.7002 -2.1504
 2784SOL    HW219815   3.037   0.893   7.764 -0.1907 -0.8422 -0.2532
 2785SOL     OW19816   3.713   3.079   5.054  0.0094  0.0043  0.1808
 2785SOL    HW119817   3.737   3.028   4.976  1.8450 -2.6944  2.5010
 2785SOL    HW219818   3.621   3.058   5.071 -0.2053  0.2779 -0.6487
 2786SOL     OW19819   2.819   0.981  14.507  0.3224 -0.3199 -0.4895
 2786SOL    HW119820   2.815   1.073  14.534  0.0051 -0.4869  0.0356
 2786SOL    HW219821   2.881   0.984  14.433 -0.6555 -0.5213 -1.3111
 2787SOL     OW19822   2.704   3.340  15.038  0.6708  0.6827 -0.0594
 2787SOL    HW119823   2.664   3.348  14.952 -0.3664 -0.0388  0.3440
 2787SOL    HW219824   2.653   3.387  15.105 -1.5952  1.6105 -2.4460
 2788SOL     OW19825   2.330   2.050   4.288 -0.2343  0.0360 -0.1859
 2788SOL    HW119826   2.362   1.968   4.325  1.6484  0.9749  0.2619
 2788SOL    HW219827   2.247   2.059   4.335  0.1301  0.8718  0.3077
 2789SOL     OW19828   0.975   3.515   8.651 -0.2858 -0.1520  0.4927
 2789SOL    HW119829   1.002   3.604   8.673 -0.7229  0.5275 -1.6389
 2789SOL    HW219830   0.951   3.519   8.558 -1.6734  1.2132  0.9095
 2790SOL     OW19831   3.701   1.936  11.717 -0.0808 -0.2057 -0.1326
 2790SOL    HW119832   3.782   1.902  11.679 -0.3254  0.8459 -1.6008
 2790SOL    HW219833   3.727   2.029  11.721  0.7400 -0.5200  1.9225
 2791SOL     OW19834   2.650   3.681   8.930  0.1035 -0.1793  0.3728
 2791SOL    HW119835   2.681   3.621   8.997  0.2349 -1.8460 -1.1805
 2791SOL    HW219836   2.555   3.671   8.926 -0.2029  2.8688  0.2405
 2792SOL     OW19837   3.723   4.347   7.756 -0.1060 -0.5132  0.4455
 2792SOL    HW119838   3.749   4.364   7.847 -0.8826  0.6558  0.4509
 2792SOL    HW219839   3.643   4.399   7.746  1.1566  1.3758  0.0502
 2793SOL     OW19840   0.110   3.971  17.474 -0.0774 -0.0975  0.3177
 2793SOL    HW119841   0.162   4.051  17.476 -0.9209  0.4423  0.7140
 2793SOL    HW219842   0.125   3.936  17.386 -2.5625  0.1257 -0.2011
 2794SOL     OW19843   1.972   1.267   2.131  0.4480  0.5005  0.3273
 2794SOL    HW119844   2.053   1.236   2.170  0.3298  1.4256  1.3134
 2794SOL    HW219845   1.939   1.316   2.207  2.6273 -0.7437  2.0349
 2795SOL     OW19846   0.670   4.051   3.533 -0.1060  0.3269  0.0184
 2795SOL    HW119847   0.659   4.032   3.440  1.6194 -0.2903 -0.0602
 2795SOL    HW219848   0.583   4.089   3.546 -0.6769 -0.5238 -1.3540
 2796SOL     OW19849   0.937   3.137   0.296 -0.6675 -0.4114  0.1952
 2796SOL    HW119850   0.866   3.116   0.235 -0.7491 -0.8974  0.4542
 2796SOL    HW219851   0.920   3.076   0.368 -2.1772 -0.1316  0.0842
 2797SOL     OW19852   0.839   1.363   3.146  0.9368  0.0615 -0.3509
 2797SOL    HW119853   0.801   1.392   3.229  1.9975  1.3810 -0.3342
 2797SOL    HW219854   0.793   1.418   3.083  0.1916  0.0133  0.1512
 2798SOL     OW19855   4.475   0.046   5.630  0.0443  0.2420 -0.6966
 2798SOL    HW119856   4.558   0.001   5.615  0.6872  1.8994 -2.1147
 2798SOL    HW219857   4.431   4.707   5.692 -0.7382  0.3768 -1.1202
 2799SOL     OW19858   1.476   1.065  12.283 -0.2163  0.3277 -0.0454
 2799SOL    HW119859   1.515   0.978  12.269  1.2876  0.6856  1.9933
 2799SOL    HW219860   1.462   1.099  12.194 -1.8568 -0.4421 -0.0696
 2800SOL     OW19861   0.468   4.718  12.166 -0.1764 -0.1593 -0.1966
 2800SOL    HW119862   0.551   0.045  12.177  0.7330 -1.5700 -1.0251
 2800SOL    HW219863   0.469   0.009  12.071  2.9115  0.0886 -0.1578
 2801SOL     OW19864   1.787   3.092   7.868 -0.1650 -0.0456  0.0779
 2801SOL    HW119865   1.795   3.187   7.861 -1.8636 -0.0740 -2.1219
 2801SOL    HW219866   1.714   3.085   7.929  0.9694 -0.5397  1.3738
 2802SOL     OW19867   4.070   1.876  10.165 -0.2388  0.5509  0.2040
 2802SOL    HW119868   4.053   1.825  10.243  1.9330  0.1723  0.4209
 2802SOL    HW219869   4.019   1.955  10.179 -0.2386  0.3282  1.3970
 2803SOL     OW19870   0.634   0.268   6.880  0.3726 -0.0322 -0.3088
 2803SOL    HW119871   0.558   0.315   6.913  1.1416  1.2051 -0.2906
 2803SOL    HW219872   0.668   0.328   6.813  1.1297 -1.4006 -1.1569
 2804SOL     OW19873   0.343   1.515   5.400  0.2584 -0.1415  0.1180
 2804SOL    HW119874   0.265   1.566   5.374  0.2020 -0.0485  0.4647
 2804SOL    HW219875   0.373   1.501   5.310  2.0994  2.1593  0.3767
 2805SOL     OW19876   3.911   2.118   1.920  0.5510 -0.1734 -0.0587
 2805SOL    HW119877   3.917   2.085   2.010 -0.9589  0.0415  0.1252
 2805SOL    HW219878   3.977   2.187   1.918 -0.7243  1.0936  1.7503
 2806SOL     OW19879   4.708   3.872   8.099 -0.0270  0.1084  0.4664
 2806SOL    HW119880   0.016   3.794   8.147  2.0062  0.8772  0.5520
 2806SOL    HW219881   4.703   3.845   8.008  2.3917  2.6699 -0.4082
 2807SOL     OW19882   1.673   2.886   5.350 -0.5635 -0.2999  0.4711
 2807SOL    HW119883   1.636   2.958   5.400 -0.9795  1.5496 -2.5273
 2807SOL    HW219884   1.763   2.911   5.371 -0.6824  0.5451 -0.0309
 2808SOL     OW19885   1.368   0.480   4.668 -0.6314  0.3158 -0.6198
 2808SOL    HW119886   1.318   0.505   4.590  1.2728  1.0712 -1.6141
 2808SOL    HW219887   1.337   0.543   4.733 -1.1025 -1.4291  0.8280
 2809SOL     OW19888   0.047   1.883   7.378  0.1887 -0.4077  0.4874
 2809SOL    HW119889   4.712   1.813   7.342  0.5283  0.1605 -1.1808
 2809SOL    HW219890   4.701   1.937   7.422  0.1019  0.1889 -0.3607
 2810SOL     OW19891   3.561   0.853  10.751  0.2035 -0.5525  0.2464
 2810SOL    HW119892   3.479   0.895  10.727  1.4987  1.2248 -1.0887
 2810SOL    HW219893   3.622   0.926  10.736 -0.5863  0.0157 -0.1803
 2811SOL     OW19894   4.081   4.277   9.323 -0.4515 -0.1650  0.0139
 2811SOL    HW119895   4.031   4.353   9.351 -0.9261  0.2051 -1.8497
 2811SOL    HW219896   4.114   4.311   9.240  1.7131 -0.9433  0.5657
 2812SOL     OW19897   4.564   0.623  10.099  0.5824 -0.2353  0.0273
 2812SOL    HW119898   4.600   0.703  10.137  0.9520 -1.1601  1.6280
 2812SOL    HW219899   4.479   0.630  10.142  1.8672 -0.0301  2.5636
 2813SOL     OW19900   1.255   0.680   3.034  1.0641  0.1417  0.1024
 2813SOL    HW119901   1.234   0.722   2.951  2.3697 -1.2390 -0.9232
 2813SOL    HW219902   1.204   0.731   3.098  0.5538 -0.6989  0.3531
 2814SOL     OW19903   3.834   3.503   3.965 -0.2178  0.5005 -0.3143
 2814SOL    HW119904   3.782   3.481   3.888  0.0387  0.0291 -0.3500
 2814SOL    HW219905   3.920   3.488   3.928  0.6756 -1.0185  2.4079
 2815SOL     OW19906   3.374   2.203   3.959 -0.0966 -0.0065 -0.0641
 2815SOL    HW119907   3.465   2.197   3.928 -0.1421 -0.5145 -0.0940
 2815SOL    HW219908   3.371   2.136   4.027 -2.2576  0.8894  0.7152
 2816SOL     OW19909   3.714   4.400   4.464 -0.1623  0.0417  0.3199
 2816SOL    HW119910   3.708   4.333   4.396 -0.7070 -1.1642  1.5613
 2816SOL    HW219911   3.803   4.397   4.500 -0.2737 -1.0446  0.5007
 2817SOL     OW19912   3.714   1.264   8.233 -0.0501  0.1607 -0.5570
 2817SOL    HW119913   3.788   1.284   8.176  0.8948 -2.3775 -0.2060
 2817SOL    HW219914   3.755   1.237   8.316 -0.0416  1.8997  0.0087
 2818SOL     OW19915   3.668   4.191   2.829 -0.0400 -0.5523 -0.1877
 2818SOL    HW119916   3.745   4.175   2.883 -0.0855 -0.1627 -0.0063
 2818SOL    HW219917   3.614   4.116   2.849 -1.3504  0.7716  1.1907
 2819SOL     OW19918   1.434   2.519   3.264 -0.5557 -0.3878 -0.1520
 2819SOL    HW119919   1.390   2.465   3.330 -0.0571  0.0231  0.5138
 2819SOL    HW219920   1.414   2.454   3.197  0.7624 -1.1242  0.1717
 2820SOL     OW19921   4.186   2.671  11.198  0.2469  0.0958  0.7727
 2820SOL    HW119922   4.181   2.578  11.218  2.2850  0.1659  1.5860
 2820SOL    HW219923   4.102   2.699  11.235  0.0826  0.2646  0.2744
 2821SOL     OW19924   3.398   1.295   5.278  0.0884 -0.1985 -0.0354
 2821SOL    HW119925   3.448   1.270   5.201 -0.8168 -0.6635 -0.4648
 2821SOL    HW219926   3.462   1.285   5.349  1.2932 -1.4674 -1.3211
 2822SOL     OW19927   4.134   0.161   2.741  0.1761 -0.0246  0.1415
 2822SOL    HW119928   4.100   0.073   2.758  0.3037 -0.0915  0.0484
 2822SOL    HW219929   4.229   0.155   2.754 -0.0179 -1.0758  1.1369
 2823SOL     OW19930   1.958   4.403  11.580 -0.0280  0.0539  0.2752
 2823SOL    HW119931   2.004   4.375  11.659  0.0476  0.1821  0.2762
 2823SOL    HW219932   2.026   4.459  11.543 -0.0277  0.6326  1.1567
 2824SOL     OW19933   2.936   2.954   3.029 -0.0615  0.1758 -0.2229
 2824SOL    HW119934   3.029   2.933   3.021 -0.2761 -1.2439  1.0244
 2824SOL    HW219935   2.937   3.035   3.081 -0.2066 -0.5805  0.9766
 2825SOL     OW19936   3.486   1.562  10.415 -0.5778  0.4338 -0.0200
 2825SOL    HW119937   3.397   1.560  10.450 -0.7765 -2.4185 -0.6645
 2825SOL    HW219938   3.484   1.597  10.326  1.4463 -1.1283 -0.6770
 2826SOL     OW19939   3.756   2.753   4.572 -0.3187 -0.3025 -0.8775
 2826SOL    HW119940   3.748   2.819   4.503 -1.5573 -1.0602 -1.4484
 2826SOL    HW219941   3.708   2.795   4.644  2.6252  0.6564  0.5494
 2827SOL     OW19942   0.198   2.651  11.730  0.5299  0.1299  0.1072
 2827SOL    HW119943   0.121   2.689  11.686  0.8094  1.6870  1.0082
 2827SOL    HW219944   0.256   2.695  11.669 -0.6290 -0.1747 -1.2257
 2828SOL     OW19945   2.879   0.399  13.831 -0.0412 -0.2060 -0.2264
 2828SOL    HW119946   2.931   0.321  13.846  0.0611 -0.2331 -0.7089
 2828SOL    HW219947   2.886   0.416  13.737  0.5041  0.4481 -0.0678
 2829SOL     OW19948   4.302   0.305   6.553  0.5408  0.2369  0.0265
 2829SOL    HW119949   4.258   0.351   6.624 -2.2087  0.1462 -1.6364
 2829SOL    HW219950   4.238   0.316   6.483  0.1866  0.9154  0.4655
 2830SOL     OW19951   3.161   2.623   5.481 -0.0097  0.6241 -0.5939
 2830SOL    HW119952   3.118   2.709   5.484 -0.2257  0.5435 -1.3855
 2830SOL    HW219953   3.183   2.626   5.387 -1.4100 -1.1588 -0.9628
 2831SOL     OW19954   1.899   1.926   5.668  0.5130 -0.7964 -0.1155
 2831SOL    HW119955   1.934   1.838   5.684  0.6311 -0.8300 -0.5573
 2831SOL    HW219956   1.970   1.987   5.691  0.0767 -1.0767  2.0081
 2832SOL     OW19957   2.201   4.521   7.616 -0.3553  0.3198  0.0472
 2832SOL    HW119958   2.126   4.537   7.672  1.4516  0.7766  2.3591
 2832SOL    HW219959   2.279   4.541   7.668 -1.8974  0.4672  2.2809
 2833SOL     OW19960   1.755   2.316  10.753 -0.3260  0.1275 -0.0064
 2833SOL    HW119961   1.675   2.365  10.732 -0.7053 -1.0574 -1.3142
 2833SOL    HW219962   1.808   2.370  10.811  0.2890  0.3350 -0.7585
 2834SOL     OW19963   2.254   2.826   4.078 -0.1669  0.2792 -0.0182
 2834SOL    HW119964   2.253   2.914   4.039 -0.6084  0.2722 -0.0180
 2834SOL    HW219965   2.167   2.807   4.113 -0.1774 -0.2185 -0.3183
 2835SOL     OW19966   1.832   2.896   6.718  0.0364 -0.1546 -0.4146
 2835SOL    HW119967   1.806   2.908   6.809  1.1379 -1.7915  0.1019
 2835SOL    HW219968   1.750   2.919   6.675  0.0644 -0.1894 -0.4872
 2836SOL     OW19969   2.558   0.693   3.673 -0.5614 -0.5185  0.0185
 2836SOL    HW119970   2.565   0.616   3.730 -0.5278  0.6211  1.5514
 2836SOL    HW219971   2.549   0.752   3.748  0.1743  1.6215 -1.5919
 2837SOL     OW19972   0.311   0.377   8.104  0.4574 -0.4198  0.0719
 2837SOL    HW119973   0.319   0.284   8.126 -0.4789  0.3861  3.7707
 2837SOL    HW219974   0.390   0.400   8.055 -0.6168  1.7708 -0.6231
 2838SOL     OW19975   2.888   2.035   6.760  0.4213  0.7939  0.6480
 2838SOL    HW119976   2.865   2.092   6.686 -0.9983 -1.6676 -0.7892
 2838SOL    HW219977   2.981   2.019   6.746 -0.1550  1.3489 -3.8028
 2839SOL     OW19978   0.133   0.154   8.899  0.3510  0.5589 -0.2638
 2839SOL    HW119979   0.202   0.205   8.942  1.2965  0.1771 -1.3152
 2839SOL    HW219980   0.104   0.210   8.826 -0.9818  0.6506  0.3340
 2840SOL     OW19981   0.155   2.265  14.499  0.3678 -0.8279  0.1576
 2840SOL    HW119982   0.150   2.333  14.566 -1.6063 -1.0722  0.2424
 2840SOL    HW219983   0.094   2.201  14.535 -1.8998  1.7350  0.8413
 2841SOL     OW19984   2.958   1.347   5.548 -0.2393  0.1003 -0.4335
 2841SOL    HW119985   2.935   1.375   5.460  2.5927 -3.3167 -2.2528
 2841SOL    HW219986   2.968   1.253   5.532 -1.5863 -0.0834 -0.2539
 2842SOL     OW19987   4.656   2.345   4.010  0.3466  0.1922  0.4281
 2842SOL    HW119988   4.688   2.293   3.936  1.6652  1.8427 -0.1778
 2842SOL    HW219989   0.021   2.357   4.053  0.0261  0.3469  1.0051
 2843SOL     OW19990   3.352   0.706   6.125 -0.2735 -0.0804 -0.6302
 2843SOL    HW119991   3.326   0.697   6.034 -0.8600 -2.5872 -0.2171
 2843SOL    HW219992   3.277   0.680   6.179  0.0154 -1.0472 -0.6859
 2844SOL     OW19993   4.257   1.982   9.096  0.1795 -0.0675 -0.2080
 2844SOL    HW119994   4.287   1.992   9.005 -0.0945  0.8209 -0.2050
 2844SOL    HW219995   4.288   1.892   9.107 -1.1467 -0.1620  2.5148
 2845SOL     OW19996   4.289   0.630   5.810  0.1058  0.0295  0.8373
 2845SOL    HW119997   4.361   0.681   5.774  0.0865 -1.5062 -1.3769
 2845SOL    HW219998   4.212   0.683   5.790 -0.2798 -1.4418 -1.5377
 2846SOL     OW19999   0.272   4.111  16.910 -0.3185 -0.9972  0.2372
 2846SOL    HW120000   0.215   4.123  16.834 -1.6668 -0.8499  1.2667
 2846SOL    HW220001   0.359   4.093  16.877 -0.3226 -2.1849  0.8995
 2847SOL     OW20002   3.626   4.415   8.521 -0.3099  0.3833  0.0568
 2847SOL    HW120003   3.716   4.437   8.543 -0.3552 -1.2913  1.9319
 2847SOL    HW220004   3.609   4.351   8.591  0.6926  0.1290  0.0695
 2848SOL     OW20005   1.397   0.571  14.781 -0.3573  0.1763 -0.0730
 2848SOL    HW120006   1.325   0.559  14.843  0.4947  0.6704  1.0084
 2848SOL    HW220007   1.344   0.558  14.702  0.1758  2.6153 -0.8549
 2849SOL     OW20008   2.183   4.441   3.806  0.3247  0.0456  0.0601
 2849SOL    HW120009   2.197   4.473   3.895 -0.0015 -0.5536  0.3279
 2849SOL    HW220010   2.186   4.530   3.771  2.4388 -0.1522 -0.2313
 2850SOL     OW20011   2.685   3.798   9.299  0.8370  0.1742 -0.5003
 2850SOL    HW120012   2.608   3.830   9.346  0.2755 -0.5517 -0.9214
 2850SOL    HW220013   2.676   3.853   9.221  2.7694  1.6590  0.3398
 2851SOL     OW20014   1.237   4.300  16.794  0.1097 -0.0773 -0.0787
 2851SOL    HW120015   1.234   4.278  16.701 -0.1329 -2.8797  0.5887
 2851SOL    HW220016   1.155   4.260  16.823 -0.4219  0.1556 -1.2842
 2852SOL     OW20017   0.882   0.166   7.497 -0.3983  0.0717 -0.3274
 2852SOL    HW120018   0.875   0.134   7.586  2.1268 -0.2872 -0.2674
 2852SOL    HW220019   0.819   0.111   7.451 -0.8235  0.1800  0.1215
 2853SOL     OW20020   2.967   3.883   1.135 -0.0515 -0.0464 -0.3484
 2853SOL    HW120021   2.997   3.812   1.192 -0.9267  0.0629  0.2489
 2853SOL    HW220022   2.975   3.853   1.045 -0.3284  0.0622 -0.4084
 2854SOL     OW20023   0.592   3.384   7.740  0.1691 -0.1098  0.4608
 2854SOL    HW120024   0.542   3.463   7.757 -1.0212 -0.5953 -0.7942
 2854SOL    HW220025   0.670   3.402   7.792  0.3962  0.1680  0.0212
 2855SOL     OW20026   2.476   0.651  12.600  0.4485  0.1277 -0.2571
 2855SOL    HW120027   2.452   0.576  12.653  0.6506  0.3915  0.2122
 2855SOL    HW220028   2.555   0.685  12.642  0.7755 -0.1845 -0.6189
 2856SOL     OW20029   2.856   3.703   3.912 -0.2147  0.7437  0.1594
 2856SOL    HW120030   2.885   3.616   3.939 -1.8250 -0.1305 -0.9192
 2856SOL    HW220031   2.775   3.717   3.962 -0.7839  0.7958 -0.7850
 2857SOL     OW20032   3.082   1.176  15.615 -0.4302  0.0342 -0.0382
 2857SOL    HW120033   3.155   1.154  15.672  0.2873 -0.1792 -1.0304
 2857SOL    HW220034   3.041   1.255  15.651 -1.9228  0.5662 -2.9108
 2858SOL     OW20035   3.109   4.028   0.831  0.4476  0.1067  0.3198
 2858SOL    HW120036   3.040   3.965   0.855  0.0172  0.2464 -0.5722
 2858SOL    HW220037   3.066   4.084   0.766  2.5193 -0.4173 -1.4523
 2859SOL     OW20038   1.216   4.599   1.892  0.0892 -0.3165 -0.0634
 2859SOL    HW120039   1.251   4.538   1.957 -2.2466 -2.6813 -1.0455
 2859SOL    HW220040   1.276   4.671   1.912  1.6540 -1.7223  0.2135
 2860SOL     OW20041   2.113   0.452   6.062  0.7768 -0.0539  0.4945
 2860SOL    HW120042   2.060   0.473   6.139  2.0731  1.6649  0.9107
 2860SOL    HW220043   2.176   0.523   6.071 -1.0807  1.3443  2.5494
 2861SOL     OW20044   2.870   1.409   8.507 -0.1532 -0.2045  0.0109
 2861SOL    HW120045   2.847   1.494   8.546  0.9397  0.2963 -0.4298
 2861SOL    HW220046   2.908   1.358   8.579  1.7830  1.1954 -0.0044
 2862SOL     OW20047   0.006   4.639   5.663 -0.8264  0.1428 -0.0633
 2862SOL    HW120048   0.088   4.590   5.671 -0.0291  1.7237  1.3852
 2862SOL    HW220049   0.017   4.715   5.720  0.9111  1.0718 -1.6294
 2863SOL     OW20050   1.869   0.345   3.165 -0.1210 -0.8927 -0.6839
 2863SOL    HW120051   1.840   0.428   3.129  0.0283 -0.1148  0.9850
 2863SOL    HW220052   1.964   0.350   3.154 -0.3159  0.9993 -1.4417
 2864SOL     OW20053   1.687   2.554   3.385 -0.0376 -0.1105  0.2528
 2864SOL    HW120054   1.612   2.541   3.328  0.0486 -1.6835  0.5016
 2864SOL    HW220055   1.727   2.467   3.385 -0.7995 -0.4642  0.7760
 2865SOL     OW20056   1.882   1.995   7.037 -0.5534  0.5172 -0.0735
 2865SOL    HW120057   1.911   1.908   7.010 -2.3713 -0.8407  2.3691
 2865SOL    HW220058   1.942   2.049   6.987  0.2149 -0.2451  0.0163
 2866SOL     OW20059   0.594   2.073   3.204 -0.0318 -0.1588  0.1686
 2866SOL    HW120060   0.616   1.985   3.172 -2.3118 -1.2378  1.5778
 2866SOL    HW220061   0.674   2.108   3.243  0.1864 -0.6274  0.1467
 2867SOL     OW20062   2.767   4.191   8.503 -0.0930 -0.5972 -0.3407
 2867SOL    HW120063   2.693   4.132   8.516 -0.5145  0.5510  2.5114
 2867SOL    HW220064   2.732   4.259   8.446 -0.1694 -0.2344  0.1383
 2868SOL     OW20065   0.067   2.050   5.047  0.2509  0.0176 -0.2881
 2868SOL    HW120066   0.069   2.011   4.960 -4.9069 -0.1763 -0.3237
 2868SOL    HW220067   0.065   2.145   5.036 -1.3415  0.1585  1.3182
 2869SOL     OW20068   3.667   2.629   6.470  0.0166  0.3545 -0.4280
 2869SOL    HW120069   3.577   2.605   6.448  1.4612 -1.0212 -4.9498
 2869SOL    HW220070   3.652   2.668   6.556  1.6133 -0.3943  0.1903
 2870SOL     OW20071   4.231   2.350  17.208  0.2938  0.3137 -0.5812
 2870SOL    HW120072   4.137   2.352  17.192  0.2530 -0.0713 -0.3902
 2870SOL    HW220073   4.228   2.396  17.292 -0.7898 -1.7083  0.4937
 2871SOL     OW20074   1.565   4.679  16.812  0.1217 -0.2254  0.4589
 2871SOL    HW120075   1.526   4.602  16.771  2.8958 -1.6570  0.5168
 2871SOL    HW220076   1.634   4.701  16.749  0.3944 -2.2714  0.0477
 2872SOL     OW20077   2.466   2.769   6.290 -0.1198  0.8329 -0.2802
 2872SOL    HW120078   2.540   2.825   6.266 -0.1636  1.0802  0.1623
 2872SOL    HW220079   2.461   2.796   6.382  0.4214 -0.8811  0.2380
 2873SOL     OW20080   0.278   0.414  11.992  0.2206 -0.2526 -0.2942
 2873SOL    HW120081   0.271   0.345  12.059  1.5703  0.9017  1.0394
 2873SOL    HW220082   0.336   0.474  12.038  0.9095  0.9764 -2.8020
 2874SOL     OW20083   2.448   0.008   5.885  0.1631  0.1526 -0.4412
 2874SOL    HW120084   2.413   0.016   5.796  0.0293 -3.8052 -0.7602
 2874SOL    HW220085   2.424   4.638   5.910 -1.0847  1.0625  1.6330
 2875SOL     OW20086   1.863   1.893   7.694  0.6176 -0.4445  0.6578
 2875SOL    HW120087   1.886   1.948   7.769  1.3054 -2.6630  2.1160
 2875SOL    HW220088   1.785   1.844   7.721 -0.6094  1.1790  0.0303
 2876SOL     OW20089   1.011   3.083   3.239 -0.2949 -0.2786 -0.0167
 2876SOL    HW120090   0.969   3.168   3.225  1.8780  0.7514 -0.3758
 2876SOL    HW220091   0.974   3.029   3.169 -0.5202  2.0065 -1.6844
 2877SOL     OW20092   2.338   2.419  13.512 -0.0355  0.3822  0.0106
 2877SOL    HW120093   2.336   2.459  13.599  0.9991 -1.5301  0.9143
 2877SOL    HW220094   2.391   2.483  13.465 -0.0352  0.9338  0.7663
 2878SOL     OW20095   2.143   2.517  11.057  0.3092  0.1589  0.2478
 2878SOL    HW120096   2.206   2.452  11.088  0.8579  0.9725  0.8276
 2878SOL    HW220097   2.205   2.574  11.012 -1.5036  0.4370 -1.9042
 2879SOL     OW20098   4.341   3.124   5.179 -0.3601 -0.3738 -0.0751
 2879SOL    HW120099   4.336   3.035   5.216 -0.5768 -0.4603 -0.3122
 2879SOL    HW220100   4.396   3.164   5.246  1.4290  0.6515 -2.1778
 2880SOL     OW20101   2.282   3.449   7.612  0.0323  0.0515 -0.5985
 2880SOL    HW120102   2.294   3.493   7.696 -0.7384 -1.4788  0.3184
 2880SOL    HW220103   2.239   3.513   7.555  0.0548  1.0995  0.5601
 2881SOL     OW20104   1.083   1.895   6.461 -0.1799 -0.4189 -0.2348
 2881SOL    HW120105   0.990   1.910   6.446 -0.0455 -1.7125 -2.2735
 2881SOL    HW220106   1.084   1.839   6.539  4.9932  0.9080  0.6754
 2882SOL     OW20107   3.985   3.002   6.574 -0.1186  0.5828 -0.0183
 2882SOL    HW120108   4.016   2.912   6.578 -1.7510  0.0266  0.0442
 2882SOL    HW220109   3.963   3.005   6.481 -1.2498 -2.8382  0.1643
 2883SOL     OW20110   3.227   4.014   3.265  0.5038  0.6308  0.1332
 2883SOL    HW120111   3.224   3.954   3.339  1.3886  0.3564 -0.0571
 2883SOL    HW220112   3.284   3.959   3.211 -0.7976 -1.7590  1.1672
 2884SOL     OW20113   1.584   3.472   1.319  0.0464  0.1703  0.4099
 2884SOL    HW120114   1.596   3.387   1.277 -1.1181 -0.7684  1.9387
 2884SOL    HW220115   1.526   3.517   1.257 -1.1360 -2.0476 -0.1141
 2885SOL     OW20116   1.508   1.058  13.738  0.0285  0.0130 -0.3570
 2885SOL    HW120117   1.485   1.081  13.828 -0.2868 -0.7177 -0.2518
 2885SOL    HW220118   1.456   0.978  13.726  2.7214 -1.9828  1.5598
 2886SOL     OW20119   1.697   3.885   6.875  0.4229  0.6182 -0.0348
 2886SOL    HW120120   1.631   3.823   6.843  0.7397  0.2107  0.1164
 2886SOL    HW220121   1.743   3.822   6.929  0.3088  2.5229  2.2778
 2887SOL     OW20122   0.382   1.446  11.073  0.5875 -0.4960  0.3897
 2887SOL    HW120123   0.397   1.531  11.032  0.3174  0.0032  1.3149
 2887SOL    HW220124   0.376   1.387  10.998 -1.2607  0.3041 -0.1022
 2888SOL     OW20125   4.645   4.336   9.356  0.1081 -0.1603  0.3442
 2888SOL    HW120126   4.629   4.277   9.282 -2.1102 -0.4586  1.0778
 2888SOL    HW220127   4.696   4.292   9.424 -0.1918 -0.7711  0.1722
 2889SOL     OW20128   3.178   1.869   5.335  0.2133 -0.5385  0.3788
 2889SOL    HW120129   3.218   1.886   5.420  0.1863 -1.9883  0.6846
 2889SOL    HW220130   3.085   1.881   5.358 -0.2598 -1.3430 -1.1064
 2890SOL     OW20131   4.326   1.209  17.647  0.4782 -0.2357  0.1737
 2890SOL    HW120132   4.383   1.141  17.612 -1.2716 -0.8386 -1.4671
 2890SOL    HW220133   4.267   1.224  17.574  1.0606  0.9070 -0.0605
 2891SOL     OW20134   1.898   1.747   5.883 -0.6672  0.1864 -0.3416
 2891SOL    HW120135   1.851   1.821   5.922 -0.9380  0.4473 -1.1684
 2891SOL    HW220136   1.881   1.680   5.949  0.1933 -0.1930 -0.5079
 2892SOL     OW20137   3.049   2.775   5.748  0.3127  0.0438  0.1220
 2892SOL    HW120138   2.957   2.751   5.760  0.6471 -1.2244  0.2440
 2892SOL    HW220139   3.090   2.693   5.719 -2.5591 -2.3087  2.6286
 2893SOL     OW20140   0.515   1.970  12.439  0.2931 -0.1008 -0.0988
 2893SOL    HW120141   0.467   1.892  12.468  2.4671 -1.5871 -0.4999
 2893SOL    HW220142   0.504   1.971  12.344  1.3352  0.8902 -0.2125
 2894SOL     OW20143   0.328   4.493   4.873 -0.5746  0.5256  0.5210
 2894SOL    HW120144   0.362   4.493   4.784  1.7601 -0.1791  1.3958
 2894SOL    HW220145   0.361   4.409   4.906 -0.0660  0.6909  0.4248
 2895SOL     OW20146   0.532   2.435   6.369  0.6199  0.4002  0.2151
 2895SOL    HW120147   0.565   2.348   6.345  1.6445  0.4986  1.2504
 2895SOL    HW220148   0.609   2.486   6.343  1.4610  0.1917  2.2739
 2896SOL     OW20149   0.473   3.581   2.268 -0.2971 -0.0690 -0.1986
 2896SOL    HW120150   0.415   3.535   2.208  0.5105  1.9372 -2.4948
 2896SOL    HW220151   0.452   3.671   2.244  4.2979  0.6905 -1.4094
 2897SOL     OW20152   2.731   0.233   2.403  0.0327 -0.0667  0.4494
 2897SOL    HW120153   2.664   0.221   2.336  1.3255  2.0605 -1.2263
 2897SOL    HW220154   2.696   0.300   2.462  0.9873 -0.9542  2.0404
 2898SOL     OW20155   3.233   2.050   0.313  0.6989  0.4153 -0.0689
 2898SOL    HW120156   3.217   2.020   0.402 -1.4266 -0.1621 -0.6432
 2898SOL    HW220157   3.145   2.041   0.276  0.1908  2.7027  0.5766
 2899SOL     OW20158   3.114   0.793   1.971  0.1851  0.3031  0.4669
 2899SOL    HW120159   3.132   0.883   1.998  0.6624  0.4424 -0.3413
 2899SOL    HW220160   3.022   0.800   1.943 -0.2543 -0.5117  1.7141
 2900SOL     OW20161   1.869   0.526   5.003  0.1581  0.3506 -0.2299
 2900SOL    HW120162   1.962   0.512   4.983  0.5759  1.6673  0.7711
 2900SOL    HW220163   1.839   0.436   5.017  2.4470 -0.6224 -1.6698
 2901SOL     OW20164   4.332   2.376   5.880  0.4084  0.4684 -0.5296
 2901SOL    HW120165   4.363   2.358   5.791 -0.1203 -0.9883 -0.4316
 2901SOL    HW220166   4.270   2.304   5.893  2.0841 -0.8771  0.0775
 2902SOL     OW20167   1.052   2.267   4.601  0.2790 -0.3216 -0.5022
 2902SOL    HW120168   0.980   2.243   4.659  1.9538 -0.8458  1.3737
 2902SOL    HW220169   1.070   2.352   4.641 -1.1714 -0.1143 -0.2852
 2903SOL     OW20170   0.560   1.004   9.714 -0.1252 -0.8529 -0.1225
 2903SOL    HW120171   0.476   1.037   9.745  0.1543 -1.3614  1.1555
 2903SOL    HW220172   0.614   1.033   9.787 -0.5259 -1.4584  0.4157
 2904SOL     OW20173   3.940   4.302   0.304  0.1100 -0.6380  0.2718
 2904SOL    HW120174   3.998   4.342   0.239  1.7564 -2.2051  0.8034
 2904SOL    HW220175   4.004   4.233   0.321  0.4672  0.0534  1.7430
 2905SOL     OW20176   3.903   4.261   9.577 -0.8256 -0.1322  0.2656
 2905SOL    HW120177   3.896   4.323   9.504  2.0846  0.0227  0.1126
 2905SOL    HW220178   3.993   4.229   9.571 -0.8715 -0.1802 -0.2023
 2906SOL     OW20179   1.180   1.360   4.690  0.4962  0.4399 -0.1036
 2906SOL    HW120180   1.229   1.344   4.770 -0.5620 -0.9687  0.2506
 2906SOL    HW220181   1.099   1.399   4.724  0.3840 -0.6512  0.8819
 2907SOL     OW20182   3.563   3.325   5.580  0.6715  0.2447  0.6766
 2907SOL    HW120183   3.630   3.356   5.519 -0.2880  0.6978 -0.1574
 2907SOL    HW220184   3.593   3.362   5.663  0.7970 -0.6349  1.0140
 2908SOL     OW20185   0.411   0.319   8.658 -0.4632 -0.1254 -0.0681
 2908SOL    HW120186   0.467   0.390   8.690  0.7863 -0.5586 -1.2704
 2908SOL    HW220187   0.472   0.269   8.603 -0.5481  0.0117 -0.2850
 2909SOL     OW20188   3.620   0.298   8.846  0.6559  0.3492 -0.0697
 2909SOL    HW120189   3.550   0.260   8.899 -0.5819  1.6335 -0.7849
 2909SOL    HW220190   3.684   0.228   8.834 -0.8040 -1.0686  0.4680
 2910SOL     OW20191   1.702   3.737   1.423 -0.1439 -0.0800 -0.5679
 2910SOL    HW120192   1.693   3.648   1.391 -2.6965 -0.1282  0.3016
 2910SOL    HW220193   1.711   3.785   1.340 -0.1215  0.3018 -0.3453
 2911SOL     OW20194   4.479   4.224   2.148 -0.2732 -0.0265 -0.2715
 2911SOL    HW120195   4.489   4.133   2.174 -0.0868  0.2615  0.6739
 2911SOL    HW220196   4.553   4.226   2.087 -0.5320 -3.4690 -0.6950
 2912SOL     OW20197   4.023   4.564   8.290 -0.2336 -0.1718 -0.5677
 2912SOL    HW120198   4.102   4.603   8.254  0.0627 -1.7968 -1.6436
 2912SOL    HW220199   4.000   4.621   8.364 -0.4237  1.0049 -1.5276
 2913SOL     OW20200   0.346   1.864   3.766  0.3545 -0.0489  0.5172
 2913SOL    HW120201   0.398   1.816   3.701 -3.0219  1.5979 -3.3846
 2913SOL    HW220202   0.415   1.925   3.791 -0.4619  0.1222  2.3717
 2914SOL     OW20203   3.078   0.936   9.642 -0.1939  0.6191 -0.5918
 2914SOL    HW120204   3.000   0.910   9.593  0.2817  0.3033 -1.1773
 2914SOL    HW220205   3.139   0.891   9.583 -0.4548 -0.7027  0.1556
 2915SOL     OW20206   0.401   0.939  13.967 -0.0975  0.7739  0.3945
 2915SOL    HW120207   0.330   0.956  13.906 -0.5172  0.2209  0.7361
 2915SOL    HW220208   0.366   0.872  14.025  0.1559  0.5163  0.2494
 2916SOL     OW20209   1.498   2.360   8.620 -0.0334 -0.0326  0.3008
 2916SOL    HW120210   1.419   2.409   8.646 -0.6059 -0.0147 -1.4879
 2916SOL    HW220211   1.452   2.296   8.566 -1.5309  1.7666 -0.5871
 2917SOL     OW20212   3.918   1.562  15.047  0.1095  0.4021 -0.0971
 2917SOL    HW120213   3.961   1.477  15.053  0.0673  0.4917  1.4240
 2917SOL    HW220214   3.839   1.529  15.003  0.2538 -1.3189  0.9354
 2918SOL     OW20215   0.825   1.060   4.955  0.3330 -0.3570  0.5603
 2918SOL    HW120216   0.840   1.153   4.966  0.8802 -0.0386 -2.8786
 2918SOL    HW220217   0.746   1.064   4.901  0.4297  3.9881  0.7687
 2919SOL     OW20218   3.799   3.473   9.482  0.2361 -0.6028  0.0891
 2919SOL    HW120219   3.725   3.520   9.521  0.5085  0.4928 -0.7322
 2919SOL    HW220220   3.820   3.412   9.552  1.7435 -0.9564 -0.6813
 2920SOL     OW20221   1.046   0.059   9.811 -0.1948 -0.2735  0.5976
 2920SOL    HW120222   1.123   0.102   9.775  0.1315 -1.0752  0.3475
 2920SOL    HW220223   0.998   0.124   9.862  0.1818  1.3263 -1.0901
 2921SOL     OW20224   1.222   1.565   7.675 -0.2900 -0.0214 -0.5044
 2921SOL    HW120225   1.204   1.492   7.615  0.1895 -0.5340 -0.0277
 2921SOL    HW220226   1.273   1.612   7.610  1.6308 -0.0640  0.9648
 2922SOL     OW20227   1.593   2.110   7.807 -0.4030 -0.5361 -0.6420
 2922SOL    HW120228   1.513   2.131   7.760  0.2605  2.3786 -0.4725
 2922SOL    HW220229   1.572   2.019   7.828 -2.6189 -0.2736 -1.6813
 2923SOL     OW20230   2.583   1.085   9.437 -0.1223 -0.1895 -0.3805
 2923SOL    HW120231   2.523   1.142   9.388 -1.4521 -3.2938 -2.3653
 2923SOL    HW220232   2.519   1.019   9.463  0.7823 -0.2924  1.6020
 2924SOL     OW20233   1.748   4.048   3.738 -0.3188 -0.3795 -0.5654
 2924SOL    HW120234   1.746   4.052   3.834  1.1168  2.1176 -0.6242
 2924SOL    HW220235   1.826   4.100   3.718 -1.6400  2.1050  0.7212
 2925SOL     OW20236   2.601   1.273   8.084  0.2008 -0.1679  0.3109
 2925SOL    HW120237   2.629   1.181   8.088  1.1559  0.1103 -0.2097
 2925SOL    HW220238   2.645   1.308   8.007  0.0103 -0.7175 -0.0501
 2926SOL     OW20239   2.774   2.734   5.776 -0.3657  0.2260  0.4742
 2926SOL    HW120240   2.740   2.818   5.805 -0.5858 -0.7405  3.0106
 2926SOL    HW220241   2.766   2.684   5.857  2.6476 -0.9126  0.1030
 2927SOL     OW20242   2.439   2.173   9.374 -0.1122  0.1488 -0.2539
 2927SOL    HW120243   2.416   2.119   9.298 -1.0575 -0.5583  0.5506
 2927SOL    HW220244   2.350   2.204   9.393  0.5006  1.9452 -0.3231
 2928SOL     OW20245   0.776   0.013   2.229  0.7402  0.0201  0.6752
 2928SOL    HW120246   0.740   0.080   2.172 -0.6778 -1.7612 -0.5510
 2928SOL    HW220247   0.868   0.040   2.227  0.9849 -0.8748 -0.1596
 2929SOL     OW20248   1.189   1.776   0.942 -0.4230  0.1389 -0.2040
 2929SOL    HW120249   1.251   1.768   0.869 -1.1491 -2.0958 -0.5956
 2929SOL    HW220250   1.192   1.868   0.966  1.0787  0.1767 -0.5423
 2930SOL     OW20251   4.597   4.062  14.011  0.8079  0.1330  0.6964
 2930SOL    HW120252   4.502   4.048  14.015  0.6140  1.5468  1.2222
 2930SOL    HW220253   4.635   3.999  13.950  1.3940 -0.3272  1.5401
 2931SOL     OW20254   1.826   4.001   1.961  0.1255  0.0638 -0.2268
 2931SOL    HW120255   1.839   3.992   2.056  0.1679 -0.6353 -0.3001
 2931SOL    HW220256   1.894   3.941   1.932  0.6600  0.8176 -0.5293
 2932SOL     OW20257   4.205   3.612   5.913 -0.7283  0.1700  0.1252
 2932SOL    HW120258   4.232   3.572   5.995  1.2213  0.2200 -0.4633
 2932SOL    HW220259   4.228   3.556   5.839  2.6448 -0.9538  2.0149
 2933SOL     OW20260   4.049   1.239  12.587  0.3212 -0.6754  0.0388
 2933SOL    HW120261   3.976   1.291  12.621 -0.1999 -2.5917  1.8485
 2933SOL    HW220262   4.049   1.172  12.655 -0.1224 -2.3273 -1.6018
 2934SOL     OW20263   1.812   2.268   5.592  0.0344  0.1288 -0.2143
 2934SOL    HW120264   1.754   2.192   5.593  1.0368 -0.6247 -0.1608
 2934SOL    HW220265   1.900   2.232   5.600  0.3636  0.5336 -2.0295
 2935SOL     OW20266   1.554   3.342   7.333  0.5361  0.1051 -0.0411
 2935SOL    HW120267   1.539   3.248   7.347  0.0964 -0.1311 -2.1617
 2935SOL    HW220268   1.585   3.357   7.422 -0.9789  0.7092  0.3875
 2936SOL     OW20269   3.430   3.288  16.545  0.1565 -0.3618  0.3479
 2936SOL    HW120270   3.348   3.291  16.496  0.4115  2.6930  0.1192
 2936SOL    HW220271   3.496   3.296  16.476 -2.5309 -0.9478 -2.2809
 2937SOL     OW20272   1.612   2.491  11.441 -0.2260 -0.1826  0.3778
 2937SOL    HW120273   1.619   2.586  11.448  1.3459 -0.1149 -1.9661
 2937SOL    HW220274   1.609   2.473  11.535  1.5505 -0.2390  0.4271
 2938SOL     OW20275   0.096   0.988   3.826  0.4930  0.1494 -0.2713
 2938SOL    HW120276   0.012   0.970   3.783 -0.9282  0.6414  2.2827
 2938SOL    HW220277   0.063   1.013   3.912 -2.6277 -0.0478 -1.3979
 2939SOL     OW20278   1.860   3.965   5.165 -0.0683 -0.2930  0.2945
 2939SOL    HW120279   1.930   3.998   5.221 -1.4600  0.8775  1.3623
 2939SOL    HW220280   1.801   4.039   5.153 -1.2229 -1.2509  0.0173
 2940SOL     OW20281   0.955   4.081  10.349 -0.0888 -0.1542  0.1082
 2940SOL    HW120282   1.010   4.112  10.421  2.1241 -0.6647 -1.3505
 2940SOL    HW220283   0.995   4.115  10.268 -1.9087 -0.9328 -1.0985
 2941SOL     OW20284   3.683   3.071   5.812  0.0979 -0.1699 -0.2757
 2941SOL    HW120285   3.589   3.068   5.800  0.2948  0.2465 -1.8622
 2941SOL    HW220286   3.704   3.081   5.719  1.2008 -0.6670 -0.0857
 2942SOL     OW20287   1.391   2.982   5.049  0.1372  0.8039 -0.4636
 2942SOL    HW120288   1.320   3.042   5.027 -1.1872 -0.7812 -0.4752
 2942SOL    HW220289   1.450   3.048   5.086  2.1335 -1.5850  0.5758
 2943SOL     OW20290   2.125   4.125  13.737  0.5416  0.0999  0.3269
 2943SOL    HW120291   2.168   4.114  13.822 -1.0556  3.5485  1.6066
 2943SOL    HW220292   2.196   4.110  13.674 -0.6965 -1.0333 -0.7841
 2944SOL     OW20293   2.504   0.514  14.477  0.5989 -0.0538  0.1411
 2944SOL    HW120294   2.562   0.495  14.551  1.4641  1.6461 -0.0906
 2944SOL    HW220295   2.514   0.608  14.462 -1.0487  0.0508 -0.2675
 2945SOL     OW20296   1.313   0.650   4.871  0.1444  0.4316 -0.4024
 2945SOL    HW120297   1.284   0.719   4.812 -1.7227  2.5355  3.0323
 2945SOL    HW220298   1.349   0.701   4.944 -0.4508 -0.4536  0.5096
 2946SOL     OW20299   1.168   4.410  17.595 -0.0112 -0.5199 -0.2277
 2946SOL    HW120300   1.104   4.480  17.606  1.7361  1.2246 -1.1213
 2946SOL    HW220301   1.159   4.362  17.678  2.4262 -0.4275  0.0882
 2947SOL     OW20302   0.186   0.666  11.605  0.3284  0.2639 -0.4122
 2947SOL    HW120303   0.143   0.647  11.522  0.5846  1.9962 -0.9564
 2947SOL    HW220304   0.146   0.603  11.664 -0.6291 -0.1230 -1.4706
 2948SOL     OW20305   0.516   4.292  12.911 -0.8465  0.4541 -0.3480
 2948SOL    HW120306   0.548   4.206  12.886 -2.3621 -0.2726  0.1937
 2948SOL    HW220307   0.569   4.309  12.990  0.0924 -2.1654 -0.4395
 2949SOL     OW20308   3.402   4.022  14.028  0.0863 -0.0956  0.0164
 2949SOL    HW120309   3.429   3.959  13.961  1.2687 -1.5540  1.8679
 2949SOL    HW220310   3.338   3.971  14.078  2.6071 -2.5686  0.7267
 2950SOL     OW20311   1.233   3.934   8.190 -0.8578  0.5968 -0.3076
 2950SOL    HW120312   1.328   3.948   8.186 -0.8749  0.5622 -0.8655
 2950SOL    HW220313   1.226   3.843   8.160  1.7679  1.0139 -2.2639
 2951SOL     OW20314   0.970   4.240  11.512 -0.6613 -0.2944  0.3605
 2951SOL    HW120315   0.939   4.304  11.576  0.6862  0.3930  0.3233
 2951SOL    HW220316   1.042   4.293  11.476 -1.6096  0.2554 -0.7382
 2952SOL     OW20317   0.267   0.511   2.890  0.5942 -0.4095  0.3042
 2952SOL    HW120318   0.244   0.420   2.873 -0.9240  0.1623 -0.6381
 2952SOL    HW220319   0.298   0.544   2.805  0.2254 -2.0300 -0.4534
 2953SOL     OW20320   4.225   3.910   6.252  0.3099  0.2295  0.0881
 2953SOL    HW120321   4.195   3.980   6.194 -0.2510 -1.0158 -1.1212
 2953SOL    HW220322   4.303   3.885   6.202  0.7500  1.1796  0.3017
 2954SOL     OW20323   2.751   2.799   4.181 -0.5550 -0.1057  0.3141
 2954SOL    HW120324   2.703   2.882   4.194  2.5613  1.6573  0.4918
 2954SOL    HW220325   2.676   2.746   4.153 -0.2175  0.5028 -1.8115
 2955SOL     OW20326   0.948   1.483   3.537  0.0018 -0.1959  0.1051
 2955SOL    HW120327   1.016   1.447   3.481 -0.9930 -0.6778 -0.8022
 2955SOL    HW220328   0.866   1.459   3.493 -1.0119  0.3710  1.6531
 2956SOL     OW20329   2.560   1.232   1.665 -0.1555 -0.1345 -0.1028
 2956SOL    HW120330   2.530   1.320   1.642 -1.5332 -0.9382 -1.3890
 2956SOL    HW220331   2.640   1.223   1.613  0.7190  2.0578  0.8622
 2957SOL     OW20332   3.761   3.338   9.260 -0.2999  0.0646 -0.0397
 2957SOL    HW120333   3.783   3.393   9.335  0.1704  0.0582 -0.1741
 2957SOL    HW220334   3.770   3.250   9.296  0.4760 -0.1754 -0.8166
 2958SOL     OW20335   4.572   0.817   2.244  0.4126 -0.1439 -0.0834
 2958SOL    HW120336   4.532   0.898   2.212 -1.4933 -0.4976  1.3877
 2958SOL    HW220337   4.659   0.841   2.212 -0.2519 -0.0218 -1.7797
 2959SOL     OW20338   0.632   0.809   1.337  0.0335 -0.1238  0.3271
 2959SOL    HW120339   0.565   0.864   1.296  1.6884  1.7063  0.1258
 2959SOL    HW220340   0.589   0.816   1.423 -0.7367  0.8143 -0.1350
 2960SOL     OW20341   2.152   4.649   1.961 -0.0192 -0.2180 -0.0789
 2960SOL    HW120342   2.118   4.575   2.011  2.8935 -0.9783  0.7978
 2960SOL    HW220343   2.165   4.602   1.878 -0.4806 -3.3201  1.6283
 2961SOL     OW20344   3.655   1.253   2.161  0.2882  0.2095 -0.5956
 2961SOL    HW120345   3.564   1.239   2.134  0.4139  0.9510 -1.4032
 2961SOL    HW220346   3.648   1.222   2.252  0.3835 -0.3652 -0.7868
 2962SOL     OW20347   1.980   2.382   7.704  0.2032  0.4851 -0.1590
 2962SOL    HW120348   2.066   2.375   7.744  0.1232 -1.5502 -0.3351
 2962SOL    HW220349   1.940   2.314   7.759  0.0956  3.0531  2.9850
 2963SOL     OW20350   2.827   3.763  16.469  0.3622  0.4837 -0.0518
 2963SOL    HW120351   2.828   3.843  16.522  0.7472  0.3754  0.1052
 2963SOL    HW220352   2.826   3.698  16.538 -2.2436  0.7486  0.1485
 2964SOL     OW20353   0.648   2.685   0.683  0.0784  0.1009  0.0575
 2964SOL    HW120354   0.621   2.750   0.619 -1.1570 -0.6127 -0.1463
 2964SOL    HW220355   0.719   2.722   0.735 -1.4673  2.7543  0.2746
 2965SOL     OW20356   3.058   2.162   8.105  0.3310 -0.7866 -0.0913
 2965SOL    HW120357   3.056   2.244   8.154  0.3706 -0.6637 -0.3003
 2965SOL    HW220358   3.012   2.180   8.024  1.9200 -0.8984 -1.0177
 2966SOL     OW20359   3.526   2.503   5.836 -0.2413  0.5354  0.0793
 2966SOL    HW120360   3.595   2.564   5.860  0.8497 -0.5200 -0.3432
 2966SOL    HW220361   3.492   2.494   5.925 -2.3035 -0.5064 -0.8252
 2967SOL     OW20362   0.280   3.373   5.787 -0.1591 -0.5232  0.7418
 2967SOL    HW120363   0.352   3.332   5.835 -0.9365 -1.8579  0.7829
 2967SOL    HW220364   0.212   3.305   5.788 -0.5051 -0.1982 -1.0662
 2968SOL     OW20365   1.381   4.366   9.913  0.6311 -0.1811 -0.4702
 2968SOL    HW120366   1.454   4.428   9.910 -0.1830  0.8784  2.0995
 2968SOL    HW220367   1.311   4.429   9.897  1.4612  0.2877 -2.2803
 2969SOL     OW20368   4.149   1.704  14.259 -0.9750  0.3762 -0.2344
 2969SOL    HW120369   4.077   1.765  14.245 -1.4835  0.4847  2.7968
 2969SOL    HW220370   4.139   1.646  14.183 -1.2209  0.3272 -0.1652
 2970SOL     OW20371   1.797   4.236   0.727  0.3367 -0.0500 -0.0294
 2970SOL    HW120372   1.726   4.179   0.757  2.4443 -1.8980  1.4614
 2970SOL    HW220373   1.793   4.209   0.636  0.5465  2.0162 -0.6438
 2971SOL     OW20374   2.105   4.535   3.242  0.1370  0.0358 -0.2259
 2971SOL    HW120375   2.186   4.569   3.205  0.5294  0.0955  0.6722
 2971SOL    HW220376   2.031   4.578   3.199  1.1095  2.7132  0.7848
 2972SOL     OW20377   1.162   4.252   9.135  0.1138  0.5427  0.5984
 2972SOL    HW120378   1.102   4.279   9.204 -1.0595  0.3491 -0.3516
 2972SOL    HW220379   1.240   4.265   9.190 -0.7074  2.5995  1.2864
 2973SOL     OW20380   0.263   2.906  15.257  0.5541  0.1292 -0.5524
 2973SOL    HW120381   0.175   2.904  15.220  0.7696 -0.3691 -1.0261
 2973SOL    HW220382   0.308   2.956  15.189  2.0363  0.8191  0.9416
 2974SOL     OW20383   1.067   2.541   3.089 -0.3841  0.3821  0.5930
 2974SOL    HW120384   1.061   2.635   3.072  1.6453  0.0888 -1.6703
 2974SOL    HW220385   1.092   2.542   3.182  0.1956  2.6579  0.4112
 2975SOL     OW20386   1.050   2.334   4.968  0.1669  0.6647 -0.4299
 2975SOL    HW120387   1.011   2.382   4.895 -1.7966 -0.8812 -0.4007
 2975SOL    HW220388   0.981   2.301   5.026  1.5964 -3.1603 -0.9055
 2976SOL     OW20389   4.518   4.235   9.133 -0.2982 -1.1743 -0.2312
 2976SOL    HW120390   4.489   4.214   9.044 -0.6492 -1.4999 -0.0367
 2976SOL    HW220391   4.447   4.293   9.158 -0.7689 -1.1571 -1.6268
 2977SOL     OW20392   4.222   1.762   5.743  0.3977  1.2472  0.1080
 2977SOL    HW120393   4.278   1.755   5.820 -0.6649 -1.4086  0.6169
 2977SOL    HW220394   4.219   1.858   5.737  1.4240  1.3545  1.2322
 2978SOL     OW20395   0.598   1.485   1.152 -0.1517  0.3913 -0.8625
 2978SOL    HW120396   0.608   1.500   1.246 -0.1019 -1.0153 -0.6326
 2978SOL    HW220397   0.625   1.393   1.152  0.4775  0.5858  2.3664
 2979SOL     OW20398   3.770   4.650   6.385 -0.1888 -0.1828  0.1592
 2979SOL    HW120399   3.793   4.559   6.369  0.0604 -0.4968  2.2599
 2979SOL    HW220400   3.677   4.636   6.402 -0.4167  1.6710  0.4282
 2980SOL     OW20401   3.536   0.573  15.230  0.2775 -0.0892  0.2093
 2980SOL    HW120402   3.461   0.612  15.185  2.1639  0.3501 -2.5691
 2980SOL    HW220403   3.604   0.627  15.189  1.7710  0.0124  2.8203
 2981SOL     OW20404   3.428   3.407  12.144 -0.6557  0.0417  0.2454
 2981SOL    HW120405   3.489   3.431  12.214  3.1624 -1.0999 -2.6714
 2981SOL    HW220406   3.475   3.336  12.100  1.3605  1.1026  0.6744
 2982SOL     OW20407   3.661   0.740   5.807  0.4190  0.0936 -0.1672
 2982SOL    HW120408   3.598   0.679   5.768 -1.1399  1.1277  0.7613
 2982SOL    HW220409   3.697   0.689   5.879  0.4483  0.4104  0.0396
 2983SOL     OW20410   1.485   1.279  10.244  0.4192 -0.1216 -0.1502
 2983SOL    HW120411   1.390   1.286  10.250  0.5040 -0.3405  1.6524
 2983SOL    HW220412   1.518   1.248  10.329 -0.9654 -0.1623  0.3680
 2984SOL     OW20413   0.751   1.845   8.080  0.3350 -0.5829 -0.1773
 2984SOL    HW120414   0.706   1.900   8.144 -1.2262 -1.6867 -0.3087
 2984SOL    HW220415   0.842   1.837   8.109  0.7069  1.4098 -0.8333
 2985SOL     OW20416   4.684   2.090   1.748 -0.0158 -0.0767 -0.1400
 2985SOL    HW120417   0.015   2.023   1.793  0.2622 -0.4417 -0.9902
 2985SOL    HW220418   4.645   2.052   1.669 -0.6381 -1.8866  1.0222
 2986SOL     OW20419   1.775   0.684   8.291 -0.0171  0.2830  0.2020
 2986SOL    HW120420   1.831   0.620   8.248 -1.2147 -1.2873  0.9589
 2986SOL    HW220421   1.794   0.687   8.385 -1.9771  1.6422  0.5616
 2987SOL     OW20422   1.593   4.604   2.015  0.5670 -0.1487  0.1501
 2987SOL    HW120423   1.570   4.523   1.970 -0.9991 -1.0343  2.5901
 2987SOL    HW220424   1.634   4.657   1.946  1.0670  0.1066  0.6485
 2988SOL     OW20425   1.578   0.014   5.469 -0.0942 -0.9946  0.0343
 2988SOL    HW120426   1.609   4.652   5.431  0.0327 -0.6210 -0.6611
 2988SOL    HW220427   1.647   0.042   5.529  0.9433 -1.4811 -0.9303
 2989SOL     OW20428   2.716   4.414   7.612  0.4479 -0.0251 -0.1074
 2989SOL    HW120429   2.696   4.323   7.633  1.3065 -0.4867 -1.2992
 2989SOL    HW220430   2.811   4.418   7.622  0.5366 -2.0237 -0.1233
 2990SOL     OW20431   0.035   3.957   4.479  0.1849 -0.4586 -0.4371
 2990SOL    HW120432   0.034   3.928   4.570 -0.9200  0.4883 -0.1573
 2990SOL    HW220433   4.701   4.035   4.490 -0.4391 -1.0093  0.3903
 2991SOL     OW20434   1.143   3.982   1.952  0.7241  0.4753 -0.1778
 2991SOL    HW120435   1.140   4.068   1.909  0.7131  0.2738 -0.5768
 2991SOL    HW220436   1.085   3.999   2.026  0.8664 -0.5041  0.1533
 2992SOL     OW20437   4.364   0.973  17.463 -0.2196 -0.8939  0.2239
 2992SOL    HW120438   4.428   0.982  17.534  2.6049  0.6062 -2.4842
 2992SOL    HW220439   4.426   0.938  17.399  1.1289 -0.1662  1.1161
 2993SOL     OW20440   4.041   2.773   6.044  0.0403  0.6375  0.2442
 2993SOL    HW120441   3.991   2.848   6.014 -0.8483  0.3100  0.9260
 2993SOL    HW220442   4.102   2.809   6.108 -0.1371  0.4932  0.4944
 2994SOL     OW20443   1.233   2.724   6.057 -0.0475  0.1848  0.7499
 2994SOL    HW120444   1.185   2.800   6.023 -1.8342 -1.1508  0.3430
 2994SOL    HW220445   1.171   2.689   6.121 -0.4091  1.7795  1.2703
 2995SOL     OW20446   1.937   0.064   5.786  0.5024  0.2599 -0.2644
 2995SOL    HW120447   1.978   0.112   5.858 -0.2758  2.9713 -1.6145
 2995SOL    HW220448   1.895   4.712   5.834  0.6295 -0.7666 -1.7054
 2996SOL     OW20449   0.941   3.342  16.297  0.1074  0.1906  0.2152
 2996SOL    HW120450   0.996   3.411  16.260  2.1803 -2.0135 -0.7412
 2996SOL    HW220451   0.887   3.399  16.352 -0.4891 -0.6442  0.5031
 2997SOL     OW20452   1.311   2.770   9.170  0.2746  0.3916  0.1619
 2997SOL    HW120453   1.355   2.686   9.157  0.8911  0.2114  3.4213
 2997SOL    HW220454   1.274   2.779   9.082 -1.2211  2.0382  0.9611
 2998SOL     OW20455   1.628   4.396  12.541 -0.8545  0.5252  0.4294
 2998SOL    HW120456   1.566   4.339  12.496 -0.1686 -1.0238  1.4607
 2998SOL    HW220457   1.592   4.479  12.509  1.0206  1.4494  0.7172
 2999SOL     OW20458   3.096   3.075   9.858  0.0412 -0.0643 -0.5705
 2999SOL    HW120459   3.165   3.080   9.792  0.0377  0.5609 -0.5265
 2999SOL    HW220460   3.133   3.135   9.924 -0.4054  0.4792 -0.8102
 3000SOL     OW20461   3.595   4.201   1.592 -0.2996 -0.1917 -0.1874
 3000SOL    HW120462   3.563   4.116   1.622 -0.6340 -0.3031 -0.8496
 3000SOL    HW220463   3.575   4.202   1.498 -3.9774  2.2124  0.6341
 3001SOL     OW20464   3.638   3.450   2.095  0.2842 -0.0447  0.6690
 3001SOL    HW120465   3.603   3.476   2.010 -0.8082  1.1646  1.4658
 3001SOL    HW220466   3.728   3.424   2.075 -0.9247 -2.3816 -1.7082
 3002SOL     OW20467   2.694   3.112   9.366 -0.3220 -0.2294  0.0392
 3002SOL    HW120468   2.739   3.197   9.369 -1.4639  0.4221 -1.5113
 3002SOL    HW220469   2.625   3.129   9.431 -1.5157 -0.2613 -1.2284
 3003SOL     OW20470   0.604   3.539   4.105  0.5784 -0.5531  0.2149
 3003SOL    HW120471   0.514   3.507   4.094  0.5031 -0.1568 -0.3462
 3003SOL    HW220472   0.630   3.533   4.013 -0.9559  2.3376 -0.4129
 3004SOL     OW20473   1.642   2.656   8.855  0.1049 -0.1581 -0.0630
 3004SOL    HW120474   1.599   2.594   8.914 -1.3046  1.3682  0.5098
 3004SOL    HW220475   1.581   2.653   8.781  1.5609  0.3319 -1.2948
 3005SOL     OW20476   0.049   1.649   3.217 -0.0589  0.0047  0.4910
 3005SOL    HW120477   0.029   1.742   3.225  2.0726  0.5357 -0.1520
 3005SOL    HW220478   0.026   1.624   3.307 -2.6880 -0.0568 -0.2045
 3006SOL     OW20479   3.612   4.006   9.389 -0.2309 -0.1035 -0.6415
 3006SOL    HW120480   3.530   4.054   9.390 -1.2511 -1.8799  1.1902
 3006SOL    HW220481   3.661   4.047   9.317 -1.3046  1.6749 -0.3522
 3007SOL     OW20482   1.319   0.957   2.961  0.0877 -0.1151 -0.0940
 3007SOL    HW120483   1.349   1.017   2.893  0.3605  0.4078  0.4819
 3007SOL    HW220484   1.342   0.869   2.932  0.0969 -0.3388  0.5934
 3008SOL     OW20485   1.443   3.102   7.368  0.0184  0.0973 -0.2619
 3008SOL    HW120486   1.372   3.051   7.330  0.0740 -0.3120  0.1960
 3008SOL    HW220487   1.385   3.156   7.421  0.1677  0.2482 -0.2511
 3009SOL     OW20488   0.781   1.798   6.782  0.6548  0.1287  0.1363
 3009SOL    HW120489   0.784   1.705   6.806  1.8817  0.1598  0.0997
 3009SOL    HW220490   0.871   1.810   6.753  0.5613 -0.9010 -0.5986
 3010SOL     OW20491   3.162   0.221   0.993 -0.4535  0.2855  0.7626
 3010SOL    HW120492   3.147   0.258   1.080  0.5649  0.3117  0.9317
 3010SOL    HW220493   3.095   0.253   0.933 -0.9019 -2.6371 -0.3218
 3011SOL     OW20494   2.672   0.169  11.821  0.3397 -0.4354  0.0910
 3011SOL    HW120495   2.740   0.221  11.865 -0.5509  2.1387 -1.6292
 3011SOL    HW220496   2.700   0.173  11.730  3.3243 -1.0781  0.9559
 3012SOL     OW20497   2.013   0.223   6.477 -0.3078  0.1616 -0.1866
 3012SOL    HW120498   1.969   0.299   6.517 -0.2487  0.0585  0.0776
 3012SOL    HW220499   1.983   0.235   6.387 -2.2612 -2.5749  0.1216
 3013SOL     OW20500   0.591   3.560   3.631 -0.8095  0.1090 -0.2387
 3013SOL    HW120501   0.538   3.631   3.595 -0.7503 -0.7359 -1.9810
 3013SOL    HW220502   0.654   3.556   3.560  1.0650  0.8878  1.3691
 3014SOL     OW20503   0.599   2.843   7.932  0.0708 -0.5281 -0.1586
 3014SOL    HW120504   0.672   2.794   7.894 -0.5856 -1.0467 -0.7540
 3014SOL    HW220505   0.621   2.839   8.025 -0.8613 -3.3320 -0.0656
 3015SOL     OW20506   0.974   0.849   0.346  0.1254 -0.3470 -0.0640
 3015SOL    HW120507   1.042   0.905   0.308 -1.2734  1.9398  0.8377
 3015SOL    HW220508   1.002   0.770   0.299  0.3853 -0.6264  0.5577
 3016SOL     OW20509   4.393   2.289   9.248 -0.0834  0.4299 -0.0845
 3016SOL    HW120510   4.409   2.261   9.338 -1.7699 -0.3298 -0.0225
 3016SOL    HW220511   4.350   2.372   9.267  0.5982  0.9435 -0.8064
 3017SOL     OW20512   0.441   4.042  17.476  0.4612 -0.4807 -0.3515
 3017SOL    HW120513   0.430   3.963  17.424  0.3157 -0.7643  0.1066
 3017SOL    HW220514   0.537   4.048  17.474  0.3558  2.0813  2.8547
 3018SOL     OW20515   2.541   1.952   2.919 -0.1121 -0.1058  0.2942
 3018SOL    HW120516   2.497   1.894   2.982  0.9312 -1.4222 -0.2053
 3018SOL    HW220517   2.506   2.038   2.942  0.7475  0.2175  0.3870
 3019SOL     OW20518   3.688   3.378   6.520 -0.0609 -0.3675  0.6118
 3019SOL    HW120519   3.775   3.412   6.499 -1.9771  1.8622 -3.8508
 3019SOL    HW220520   3.701   3.284   6.512 -1.0959 -0.6208  2.0439
 3020SOL     OW20521   1.300   4.460   0.954  0.1612  0.2872 -0.2622
 3020SOL    HW120522   1.367   4.523   0.982 -0.8488  1.4875 -0.4932
 3020SOL    HW220523   1.233   4.498   1.012 -0.5016  2.7078 -2.5770
 3021SOL     OW20524   3.578   2.080   1.400 -0.5435 -0.4376  0.3141
 3021SOL    HW120525   3.491   2.106   1.368 -0.4787  0.7890  1.1398
 3021SOL    HW220526   3.637   2.117   1.334 -0.1628 -1.0797  0.3021
 3022SOL     OW20527   4.600   0.638  11.682  0.0264 -0.1490  0.3810
 3022SOL    HW120528   4.631   0.718  11.640 -0.6855 -0.3806 -0.5868
 3022SOL    HW220529   4.561   0.681  11.757  0.9932  1.5397 -0.0741
 3023SOL     OW20530   1.485   2.124   2.916  0.2921 -0.4259  0.0194
 3023SOL    HW120531   1.493   2.030   2.934 -0.0452 -0.2963  0.8288
 3023SOL    HW220532   1.421   2.115   2.845 -0.5522 -0.8329  0.8291
 3024SOL     OW20533   2.312   1.551   7.129  0.3482  0.6770 -0.8820
 3024SOL    HW120534   2.335   1.642   7.109  2.7895  0.6440  1.8239
 3024SOL    HW220535   2.311   1.515   7.040  0.4683  0.0407 -0.6293
 3025SOL     OW20536   1.771   3.472   5.012 -0.5192 -0.0771  0.3913
 3025SOL    HW120537   1.786   3.565   5.032  0.9297  0.4865 -3.2940
 3025SOL    HW220538   1.770   3.482   4.916  1.6244  1.1037  0.4765
 3026SOL     OW20539   1.981   3.593   7.346 -0.2904 -0.0531  0.1395
 3026SOL    HW120540   1.908   3.547   7.304  1.5952 -3.1645  0.3494
 3026SOL    HW220541   2.049   3.537   7.310 -0.2595  0.7139 -1.0009
 3027SOL     OW20542   0.621   4.642   3.794 -0.3169  0.0949 -0.7898
 3027SOL    HW120543   0.710   4.607   3.786  0.1966  0.5451  3.1455
 3027SOL    HW220544   0.574   4.570   3.750  2.0969 -2.4262  0.7467
 3028SOL     OW20545   0.140   1.625   1.166  0.0011  0.2243 -0.2499
 3028SOL    HW120546   0.079   1.689   1.129 -1.2978 -0.0103  1.4864
 3028SOL    HW220547   0.160   1.673   1.246  0.8832 -0.5008 -0.0467
 3029SOL     OW20548   2.402   0.436   2.367  0.5797  0.4968  0.0633
 3029SOL    HW120549   2.380   0.515   2.318 -0.6791  1.0886  1.6181
 3029SOL    HW220550   2.452   0.387   2.301 -2.1720 -0.3645 -1.3960
 3030SOL     OW20551   3.872   1.922   4.545 -0.0521  0.1558 -0.2738
 3030SOL    HW120552   3.858   1.932   4.639  3.1852 -2.3756  0.4693
 3030SOL    HW220553   3.781   1.901   4.521  0.1424 -0.2278 -0.6673
 3031SOL     OW20554   1.566   1.126  13.486 -0.1453  0.4174  0.3680
 3031SOL    HW120555   1.625   1.136  13.560 -1.8808 -0.3144  1.8580
 3031SOL    HW220556   1.486   1.121  13.539 -0.3593 -1.4833 -0.1408
 3032SOL     OW20557   3.983   4.283   8.050 -0.0003  0.0021 -0.2739
 3032SOL    HW120558   3.911   4.314   8.105  0.9181  2.4173 -0.4007
 3032SOL    HW220559   3.989   4.196   8.089  2.0447 -0.4437 -1.5877
 3033SOL     OW20560   2.350   4.401   5.507  0.2664 -0.3517 -0.6778
 3033SOL    HW120561   2.325   4.361   5.590  0.5523  0.1603 -0.3444
 3033SOL    HW220562   2.269   4.431   5.465 -0.3267 -0.0210  0.7167
 3034SOL     OW20563   4.603   1.688  12.841 -0.3036 -0.4239  0.5839
 3034SOL    HW120564   4.518   1.726  12.863 -1.5158 -1.0906 -2.9414
 3034SOL    HW220565   4.580   1.596  12.827 -2.1326  0.1081  0.0783
 3035SOL     OW20566   0.485   1.618   8.196  0.1473 -0.0655  0.1336
 3035SOL    HW120567   0.491   1.564   8.116  1.5300  1.1588 -0.5900
 3035SOL    HW220568   0.503   1.704   8.159  0.6254 -0.0774  0.3470
 3036SOL     OW20569   2.055   1.379   5.658  0.0705 -0.4030 -0.1431
 3036SOL    HW120570   2.018   1.300   5.698 -1.6832 -0.6776 -2.3297
 3036SOL    HW220571   1.975   1.430   5.664  0.7007  0.6346 -0.4753
 3037SOL     OW20572   3.201   0.649   7.752  0.0575  0.4797 -0.0126
 3037SOL    HW120573   3.208   0.560   7.715  0.6771 -0.4108  2.2453
 3037SOL    HW220574   3.109   0.661   7.729 -0.1376  0.2738  0.6510
 3038SOL     OW20575   1.728   1.147  13.175 -0.9490 -0.1478 -0.8222
 3038SOL    HW120576   1.795   1.183  13.117 -0.1559 -0.2027  0.0462
 3038SOL    HW220577   1.778   1.149  13.258 -0.6540  2.3199 -1.0519
 3039SOL     OW20578   0.875   2.538  13.783 -0.0884 -0.3718  0.1291
 3039SOL    HW120579   0.963   2.567  13.756 -1.2152  2.2586 -0.6720
 3039SOL    HW220580   0.842   2.515  13.696  0.6825 -1.2693  0.0659
 3040SOL     OW20581   0.564   0.812   2.568 -0.0176  0.5860  0.2313
 3040SOL    HW120582   0.541   0.899   2.599  1.9126  2.3513 -3.3058
 3040SOL    HW220583   0.482   0.773   2.536  0.9641 -0.3388 -1.1686
 3041SOL     OW20584   4.442   1.548   4.679  0.1349 -0.0508 -0.2747
 3041SOL    HW120585   4.509   1.563   4.611  0.8560 -1.8432  0.0460
 3041SOL    HW220586   4.453   1.455   4.700  0.1076  0.2653  1.1136
 3042SOL     OW20587   2.796   0.447   3.486  0.0714  0.4607  0.0655
 3042SOL    HW120588   2.711   0.430   3.445  0.6514 -0.5663 -0.7159
 3042SOL    HW220589   2.855   0.412   3.419  3.3448  2.7239  1.7389
 3043SOL     OW20590   3.373   2.609   6.298 -0.4987 -0.5187  0.1677
 3043SOL    HW120591   3.319   2.688   6.305 -3.8896 -2.6339 -2.0526
 3043SOL    HW220592   3.357   2.582   6.388  0.8844 -0.8591  0.2988
 3044SOL     OW20593   0.238   3.737   7.303  0.1112 -0.1923 -0.2217
 3044SOL    HW120594   0.225   3.820   7.349 -3.2244 -0.3813 -0.8517
 3044SOL    HW220595   0.170   3.691   7.353  1.3997  0.4686  2.1440
 3045SOL     OW20596   2.160   2.536   8.457  0.5645 -0.6193 -0.4932
 3045SOL    HW120597   2.231   2.527   8.521 -0.1388 -0.4693  0.3028
 3045SOL    HW220598   2.113   2.607   8.501 -0.0138  0.4067 -2.7310
 3046SOL     OW20599   3.725   0.668   7.626 -0.5956 -0.5592  0.5115
 3046SOL    HW120600   3.709   0.759   7.603  5.1302 -0.0495 -1.5952
 3046SOL    HW220601   3.688   0.624   7.550  1.0135  0.3616 -0.8174
 3047SOL     OW20602   1.102   4.448   3.172  0.0420 -0.4504 -0.1222
 3047SOL    HW120603   1.056   4.522   3.133 -0.1403 -0.0221  0.8893
 3047SOL    HW220604   1.194   4.447   3.146  0.4728  1.7795  1.3517
 3048SOL     OW20605   2.010   0.279   5.444  0.4200 -0.7159 -0.2916
 3048SOL    HW120606   1.976   0.343   5.381 -0.4088  0.9124  1.8052
 3048SOL    HW220607   2.085   0.331   5.475 -1.1518  1.5108 -0.1798
 3049SOL     OW20608   1.033   1.028  16.943  0.4187 -0.1446 -0.7952
 3049SOL    HW120609   0.950   1.076  16.932  0.5347 -0.1200 -1.5600
 3049SOL    HW220610   1.069   1.046  16.856  0.0487 -0.6351 -1.0512
 3050SOL     OW20611   4.517   1.833   5.814  0.0984  0.2169 -0.1149
 3050SOL    HW120612   4.487   1.828   5.723 -0.8663  1.5674  0.1205
 3050SOL    HW220613   4.557   1.920   5.814 -1.3262  0.8638  0.0974
 3051SOL     OW20614   2.541   0.164   8.093  0.2399 -0.3007 -0.8253
 3051SOL    HW120615   2.595   0.085   8.094  0.3793 -0.1935 -0.0005
 3051SOL    HW220616   2.468   0.125   8.044 -0.6919 -0.5529  0.7744
 3052SOL     OW20617   0.016   1.474   3.877  0.1336  0.0568 -0.0390
 3052SOL    HW120618   4.698   1.547   3.828 -0.6553 -0.4915 -0.2473
 3052SOL    HW220619   0.090   1.456   3.819  1.6460 -0.7189  2.1353
 3053SOL     OW20620   1.102   3.387   7.752  0.3514 -0.1508 -0.4250
 3053SOL    HW120621   1.063   3.364   7.836 -0.1701  0.6059 -0.4585
 3053SOL    HW220622   1.073   3.477   7.737 -0.4476 -0.5868 -1.4795
 3054SOL     OW20623   2.708   0.391   8.740  0.2978  0.3657 -0.0099
 3054SOL    HW120624   2.690   0.302   8.709 -0.6479  0.9918 -1.2764
 3054SOL    HW220625   2.726   0.363   8.830 -2.0266  0.0380  0.3471
 3055SOL     OW20626   3.546   0.963   4.523  0.3330  0.0433  0.8370
 3055SOL    HW120627   3.584   1.035   4.473 -1.4944  0.1609 -0.3808
 3055SOL    HW220628   3.622   0.904   4.518 -2.5172 -3.2678 -3.4336
 3056SOL     OW20629   3.963   2.197  13.789  0.6178 -0.0976  0.1097
 3056SOL    HW120630   4.036   2.191  13.851  2.0440  3.1625 -1.2504
 3056SOL    HW220631   4.010   2.184  13.707  1.1520  1.6723  0.1350
 3057SOL     OW20632   1.811   4.496   2.545  0.1104 -0.0092  0.1322
 3057SOL    HW120633   1.885   4.436   2.547  0.0458 -0.1130 -0.9596
 3057SOL    HW220634   1.827   4.556   2.473 -0.3554 -0.4922 -0.3765
 3058SOL     OW20635   3.694   1.648   4.883  0.4182  0.3480 -0.2632
 3058SOL    HW120636   3.654   1.733   4.905  1.4632  1.6554 -3.4674
 3058SOL    HW220637   3.634   1.585   4.924 -0.6620  1.0325 -0.7636
 3059SOL     OW20638   0.538   2.390   4.780 -0.4557  0.4780  0.5785
 3059SOL    HW120639   0.595   2.424   4.711 -0.3212  0.1823  0.5417
 3059SOL    HW220640   0.531   2.467   4.836 -2.2857  1.5887 -1.1923
 3060SOL     OW20641   4.508   1.801   8.522 -0.0132  0.4657  0.7677
 3060SOL    HW120642   4.568   1.732   8.550 -0.2373  0.7311  1.9059
 3060SOL    HW220643   4.531   1.805   8.429 -0.6459  1.3414  0.6498
 3061SOL     OW20644   2.735   1.623   5.419 -0.4969  0.0237  0.6638
 3061SOL    HW120645   2.656   1.673   5.398 -0.3930  0.1254  0.5153
 3061SOL    HW220646   2.711   1.563   5.489  3.1567  0.4073  2.2579
 3062SOL     OW20647   0.740   3.925   8.005 -0.2877 -0.1114 -0.3987
 3062SOL    HW120648   0.767   3.904   7.915 -1.0404 -1.9053 -0.1888
 3062SOL    HW220649   0.819   3.975   8.028 -0.5871 -1.2587  3.0492
 3063SOL     OW20650   4.224   3.869  11.764 -0.2780 -0.3414  0.3628
 3063SOL    HW120651   4.144   3.843  11.810 -2.3270  0.5772 -2.6613
 3063SOL    HW220652   4.275   3.884  11.843 -0.3177 -0.4154  0.4014
 3064SOL     OW20653   0.232   4.346   1.426  0.5666  0.1708 -0.1255
 3064SOL    HW120654   0.297   4.328   1.493  0.9215  2.6721  0.1822
 3064SOL    HW220655   0.169   4.286   1.465  0.1120  0.1861 -0.8300
 3065SOL     OW20656   1.591   0.093   0.374  0.6791  0.2679  0.5692
 3065SOL    HW120657   1.593   0.159   0.444 -1.4774  1.8606 -0.8701
 3065SOL    HW220658   1.673   0.047   0.390 -0.8690 -2.3622  0.8571
 3066SOL     OW20659   3.534   3.040   0.559  0.0457 -0.1888  0.4304
 3066SOL    HW120660   3.490   3.108   0.508 -0.9966 -0.8447  0.4556
 3066SOL    HW220661   3.508   3.056   0.650 -1.1329 -1.5709  0.3409
 3067SOL     OW20662   4.585   3.690   2.965 -0.5120 -0.5408  0.1885
 3067SOL    HW120663   4.573   3.613   2.910  1.4352 -0.3579 -0.4952
 3067SOL    HW220664   4.493   3.716   2.973 -0.0739  1.4913 -1.3326
 3068SOL     OW20665   1.655   3.034   6.559 -0.0092 -0.1183 -0.2720
 3068SOL    HW120666   1.580   3.094   6.563 -0.7604 -1.0215 -0.8285
 3068SOL    HW220667   1.723   3.099   6.542  0.2630  0.0101  1.2725
 3069SOL     OW20668   0.842   3.133  16.617  0.4775 -0.2254  0.6126
 3069SOL    HW120669   0.807   3.169  16.536  0.9665  1.4577  1.1312
 3069SOL    HW220670   0.895   3.204  16.654  0.6025 -0.6319  1.2096
 3070SOL     OW20671   4.465   1.354   9.330 -0.1237 -0.9307  0.6362
 3070SOL    HW120672   4.409   1.399   9.393 -0.5881 -0.9650  0.2468
 3070SOL    HW220673   4.410   1.281   9.301 -1.4813 -0.2305  1.4765
 3071SOL     OW20674   3.960   0.722   7.775 -0.2649 -0.1879 -0.1324
 3071SOL    HW120675   3.999   0.658   7.716 -1.5257  1.1060 -2.4124
 3071SOL    HW220676   3.866   0.716   7.757 -0.4293  1.6107  0.1395
 3072SOL     OW20677   2.254   0.288   5.772 -0.2229 -0.5091 -0.3478
 3072SOL    HW120678   2.306   0.259   5.847 -2.1810  0.4067  1.3583
 3072SOL    HW220679   2.234   0.204   5.731 -0.6770 -0.9642  0.8014
 3073SOL     OW20680   0.628   2.120   8.316 -0.5509  0.2454  0.5900
 3073SOL    HW120681   0.705   2.107   8.372 -0.1121  2.0988  0.4399
 3073SOL    HW220682   0.644   2.206   8.277  0.4142 -1.1370 -1.9915
 3074SOL     OW20683   3.491   2.241  15.491  0.4552  0.9351  0.3429
 3074SOL    HW120684   3.539   2.229  15.573  0.2644 -1.4464  0.1058
 3074SOL    HW220685   3.552   2.194  15.435 -1.3879 -0.1553 -0.7515
 3075SOL     OW20686   1.462   1.763  10.024 -0.1083 -0.3177 -0.1466
 3075SOL    HW120687   1.512   1.705   9.966 -0.5437  1.2796 -2.1128
 3075SOL    HW220688   1.497   1.742  10.111 -0.6875  0.4430  0.2652
 3076SOL     OW20689   2.618   3.304  16.346  0.1788 -0.1968  0.0664
 3076SOL    HW120690   2.571   3.368  16.399  1.0331 -0.0035  0.5994
 3076SOL    HW220691   2.630   3.352  16.264 -1.3440 -0.0272 -0.0522
 3077SOL     OW20692   1.821   3.536  17.057  0.4858  0.4064  0.5124
 3077SOL    HW120693   1.900   3.572  17.018  0.5234  0.6380  0.8007
 3077SOL    HW220694   1.822   3.583  17.141 -1.6029 -1.2063  1.4399
 3078SOL     OW20695   2.210   0.324   1.500  0.0608  0.4976 -0.3074
 3078SOL    HW120696   2.274   0.312   1.431  0.6867 -0.2800  0.3991
 3078SOL    HW220697   2.130   0.343   1.451  0.1980 -0.1851 -0.7980
 3079SOL     OW20698   2.151   0.367   3.553 -0.0789 -0.0984  0.1464
 3079SOL    HW120699   2.155   0.280   3.591  4.8934 -0.1468 -0.4055
 3079SOL    HW220700   2.099   0.426   3.607 -0.9325 -1.6181  0.9761
 3080SOL     OW20701   4.497   0.488  10.841  0.3806 -0.2116  0.5705
 3080SOL    HW120702   4.477   0.563  10.897  1.2388  0.0425  0.5472
 3080SOL    HW220703   4.552   0.434  10.898  2.4623  1.7177  0.4216
 3081SOL     OW20704   4.213   1.392   8.130  0.5580  0.3495 -0.9207
 3081SOL    HW120705   4.285   1.330   8.118  0.1788 -0.3848  0.7066
 3081SOL    HW220706   4.203   1.376   8.224  1.1769  0.8961 -0.7666
 3082SOL     OW20707   1.652   4.246   7.970  0.0746 -0.4081  0.1336
 3082SOL    HW120708   1.588   4.284   7.910  2.5933  1.2672 -1.5159
 3082SOL    HW220709   1.605   4.252   8.053  0.4029 -2.2510  0.4315
 3083SOL     OW20710   0.368   2.172  12.540  0.0402  0.1985 -0.0214
 3083SOL    HW120711   0.297   2.155  12.478 -0.7367  0.1825  0.8823
 3083SOL    HW220712   0.435   2.111  12.510 -1.0030 -0.5953 -0.7282
 3084SOL     OW20713   2.040   0.424   7.162 -0.0097  0.0090 -0.1742
 3084SOL    HW120714   2.007   0.514   7.152  0.3739 -0.1865 -3.2139
 3084SOL    HW220715   1.967   0.372   7.129  1.2401 -2.0806  0.3786
 3085SOL     OW20716   0.715   0.049   7.066  0.4056 -0.1537  0.3526
 3085SOL    HW120717   0.673   0.108   7.003  1.8925 -1.5301 -1.8785
 3085SOL    HW220718   0.682   4.683   7.039 -1.2453  0.3681  0.6685
 3086SOL     OW20719   3.007   1.029   7.581 -0.5323  0.3474 -0.2398
 3086SOL    HW120720   3.050   0.963   7.526  0.1063 -0.9970  1.8580
 3086SOL    HW220721   2.928   1.052   7.532 -0.7305  0.3291  0.0711
 3087SOL     OW20722   2.278   0.959   5.382  0.0379  0.3417 -0.0970
 3087SOL    HW120723   2.343   0.939   5.450 -0.2885  0.1720  0.1643
 3087SOL    HW220724   2.274   1.055   5.385  1.8958  0.5036 -3.6053
 3088SOL     OW20725   0.965   1.226   2.645  0.1427  0.0182  0.2442
 3088SOL    HW120726   0.960   1.267   2.559  0.3572  1.3914  0.8779
 3088SOL    HW220727   0.922   1.297   2.694  0.0571  0.4895 -0.5202
 3089SOL     OW20728   3.069   3.167   9.403  0.5985  0.3689  0.4470
 3089SOL    HW120729   2.993   3.210   9.364  0.1137  1.7650  2.9267
 3089SOL    HW220730   3.142   3.198   9.348  0.7105 -2.3353 -0.9375
 3090SOL     OW20731   0.736   0.298   0.928 -0.0602 -0.2347 -0.5967
 3090SOL    HW120732   0.725   0.393   0.932 -1.7435 -0.4610  0.2856
 3090SOL    HW220733   0.736   0.290   1.023 -0.9213  0.1056 -0.5680
 3091SOL     OW20734   1.691   1.413   7.789  0.5191 -0.1425  0.2565
 3091SOL    HW120735   1.661   1.345   7.729  2.0548  0.5384 -1.3155
 3091SOL    HW220736   1.627   1.484   7.784  0.8658  0.1944  0.6190
 3092SOL     OW20737   3.657   2.546  17.636  0.8049  0.1511 -0.1962
 3092SOL    HW120738   3.639   2.627  17.588  1.2506  0.9604  1.0210
 3092SOL    HW220739   3.668   2.570   0.047  1.7573 -1.7923  0.2021
 3093SOL     OW20740   1.605   2.149   5.949  0.1299  0.0020  0.1911
 3093SOL    HW120741   1.658   2.229   5.946 -1.0981  0.7319 -2.5112
 3093SOL    HW220742   1.641   2.105   6.026  1.1229 -0.7322 -0.7023
 3094SOL     OW20743   2.992   2.203   6.122  0.0261 -0.6261  0.0495
 3094SOL    HW120744   2.919   2.195   6.061 -0.5053 -2.5929  0.9249
 3094SOL    HW220745   3.048   2.132   6.089  1.2842  0.5130 -0.2628
 3095SOL     OW20746   0.522   3.551   0.348 -0.1738  0.1470  0.0808
 3095SOL    HW120747   0.503   3.583   0.436  0.6530 -1.5178  0.8565
 3095SOL    HW220748   0.469   3.472   0.338 -0.1046  0.1536 -0.3453
 3096SOL     OW20749   3.091   3.719   6.986 -0.7035  0.0014  0.4233
 3096SOL    HW120750   3.132   3.650   6.933 -1.7496 -1.2627  1.2516
 3096SOL    HW220751   3.004   3.731   6.948 -0.1657  0.3832 -0.6732
 3097SOL     OW20752   0.135   0.517  15.678 -0.2522  0.3558  0.1458
 3097SOL    HW120753   0.047   0.530  15.714 -0.4537  0.6999 -0.4760
 3097SOL    HW220754   0.170   0.458  15.746  0.2902  2.1451  1.4092
 3098SOL     OW20755   3.654   3.754   6.720 -0.0606 -0.4719 -0.1273
 3098SOL    HW120756   3.747   3.741   6.698 -0.1959  1.4582 -1.8913
 3098SOL    HW220757   3.635   3.834   6.671  0.7334  0.6629  1.4094
 3099SOL     OW20758   2.667   0.923   8.453 -0.3431 -0.5053  0.2751
 3099SOL    HW120759   2.572   0.927   8.439 -0.3337 -1.5031 -0.0547
 3099SOL    HW220760   2.668   0.828   8.464  0.3875 -0.8919 -3.2243
 3100SOL     OW20761   2.041   2.776  15.465 -0.4984 -0.2198 -0.1662
 3100SOL    HW120762   2.109   2.708  15.466  1.4734  1.7634  0.7561
 3100SOL    HW220763   1.998   2.759  15.381  0.8775  0.5249 -1.0323
 3101SOL     OW20764   2.852   3.698   2.285 -0.1505  0.3859 -0.0806
 3101SOL    HW120765   2.879   3.653   2.365 -0.4450  0.4418  0.0486
 3101SOL    HW220766   2.932   3.729   2.243 -0.7483 -0.2251 -1.7020
 3102SOL     OW20767   2.215   1.711   4.176  0.3017 -0.2331 -0.3212
 3102SOL    HW120768   2.286   1.756   4.131 -1.3739  0.5893 -2.1463
 3102SOL    HW220769   2.251   1.644   4.234 -0.8187 -0.7452 -0.2180
 3103SOL     OW20770   2.560   0.838   8.900  0.0407 -0.1149  0.2466
 3103SOL    HW120771   2.579   0.777   8.829  0.9388 -0.5420  0.8418
 3103SOL    HW220772   2.482   0.795   8.935 -0.0099 -1.7441 -1.8505
 3104SOL     OW20773   2.223   2.881   4.784  0.3919 -0.4178  0.3917
 3104SOL    HW120774   2.147   2.933   4.757  2.0209  0.6390 -2.1660
 3104SOL    HW220775   2.178   2.827   4.849 -0.1920 -1.1143 -0.5945
 3105SOL     OW20776   4.642   1.762   8.288 -0.4986  0.3208  0.9860
 3105SOL    HW120777   0.017   1.751   8.303 -1.1987  0.9007  5.5143
 3105SOL    HW220778   4.638   1.790   8.196  0.8693 -1.3776  0.3921
 3106SOL     OW20779   4.613   2.957   9.949  0.0305  0.4446  0.0544
 3106SOL    HW120780   4.686   3.018   9.935 -1.0845  1.5685 -0.7363
 3106SOL    HW220781   4.645   2.872   9.920  0.2597  0.4928  0.1652
 3107SOL     OW20782   0.812   1.005   7.728  0.4004 -0.2883  0.0120
 3107SOL    HW120783   0.758   0.949   7.785 -0.7288 -0.6199 -1.4013
 3107SOL    HW220784   0.896   0.976   7.763  1.4733  2.7214 -0.0875
 3108SOL     OW20785   4.434   1.945   9.578  0.6168  0.1744  0.3237
 3108SOL    HW120786   4.488   1.903   9.644  1.5313  1.4555  0.3972
 3108SOL    HW220787   4.347   1.906   9.590 -0.0520  1.8587  1.0185
 3109SOL     OW20788   1.655   2.894   7.348  0.4697 -0.5532  0.4889
 3109SOL    HW120789   1.608   2.978   7.351  1.9080  0.3119 -0.9694
 3109SOL    HW220790   1.682   2.891   7.256 -2.4030  3.4110 -0.5276
 3110SOL     OW20791   3.207   0.479  15.069  0.1950  0.6850  0.0009
 3110SOL    HW120792   3.221   0.388  15.096 -1.8042 -0.2260 -2.0672
 3110SOL    HW220793   3.182   0.469  14.977  2.5344 -0.1496 -0.5307
 3111SOL     OW20794   1.640   2.416   6.779  0.4359 -1.0776  0.1332
 3111SOL    HW120795   1.702   2.377   6.841 -1.9345 -2.8412  1.4209
 3111SOL    HW220796   1.669   2.377   6.697  0.1151 -0.7785 -0.1226
 3112SOL     OW20797   0.006   3.577   8.650  0.1689 -0.0420 -0.4137
 3112SOL    HW120798   4.714   3.482   8.649 -1.5522  0.1705 -1.4402
 3112SOL    HW220799   0.060   3.601   8.725  1.3778 -1.0073 -0.9800
 3113SOL     OW20800   1.802   2.642   5.859  0.3678  0.1554  0.1254
 3113SOL    HW120801   1.802   2.622   5.765 -0.8702 -0.1700  0.1918
 3113SOL    HW220802   1.892   2.671   5.872 -0.1080  0.7893  2.0600
 3114SOL     OW20803   4.697   1.510   1.593  0.5322 -0.1756  0.1858
 3114SOL    HW120804   4.646   1.521   1.514 -3.0175 -2.4341  2.1684
 3114SOL    HW220805   4.696   1.602   1.622 -0.4196  0.2782 -1.3296
 3115SOL     OW20806   1.856   4.019   2.236 -0.0479 -0.0439 -0.2402
 3115SOL    HW120807   1.894   4.011   2.324  0.4413 -0.6104 -0.5074
 3115SOL    HW220808   1.808   4.099   2.259  0.2526  0.1616 -0.3371
 3116SOL     OW20809   2.096   2.971   5.972  0.2900  1.1556 -0.6286
 3116SOL    HW120810   2.081   3.066   5.979  0.7684  1.2036 -0.2715
 3116SOL    HW220811   2.116   2.944   6.061 -0.1397  3.0636  0.0603
 3117SOL     OW20812   4.261   3.917   1.344  0.4838  0.5464 -0.3872
 3117SOL    HW120813   4.179   3.873   1.322 -0.1759  0.9337  1.3318
 3117SOL    HW220814   4.318   3.840   1.340  0.1539  0.2282  0.9877
 3118SOL     OW20815   1.984   2.534   9.732 -0.0675  0.3200 -0.4351
 3118SOL    HW120816   1.987   2.629   9.726 -1.7732  0.0922 -4.5421
 3118SOL    HW220817   2.038   2.516   9.809 -0.6015  0.3429 -0.0514
 3119SOL     OW20818   2.999   0.174   8.225 -0.0387 -0.1429  0.1624
 3119SOL    HW120819   3.026   0.188   8.316  0.3327 -1.2177  0.2059
 3119SOL    HW220820   3.005   0.260   8.183 -0.4879 -1.1424 -1.9717
 3120SOL     OW20821   1.562   0.867   1.327  0.5377 -0.0269 -0.0944
 3120SOL    HW120822   1.494   0.929   1.301  0.6404  0.3907  0.6323
 3120SOL    HW220823   1.637   0.907   1.283  1.9777 -0.4782  1.9382
 3121SOL     OW20824   1.059   3.575   5.805  0.1218 -0.1852  0.0148
 3121SOL    HW120825   1.001   3.599   5.878  1.0242 -0.0628  0.6939
 3121SOL    HW220826   1.045   3.483   5.785 -0.2567  0.1527 -1.2659
 3122SOL     OW20827   2.643   4.667   1.207  0.3889 -0.4462 -0.1412
 3122SOL    HW120828   2.641   4.572   1.192 -1.8030 -0.4272  0.0700
 3122SOL    HW220829   2.629   4.672   1.301 -2.3715 -0.8846 -0.5317
 3123SOL     OW20830   0.081   1.692  13.042  0.2475 -1.1185  0.3697
 3123SOL    HW120831   0.073   1.786  13.057  2.9636 -1.1046  1.8252
 3123SOL    HW220832   0.016   1.683  12.973  0.6002  1.4123 -0.2900
 3124SOL     OW20833   3.989   1.966   5.524  0.1204  0.1260 -0.7983
 3124SOL    HW120834   3.906   1.919   5.533  1.8577 -2.5500  1.4112
 3124SOL    HW220835   4.036   1.889   5.491  1.1609 -0.2221  1.5104
 3125SOL     OW20836   0.859   2.999  15.564  0.3333 -0.6581  0.6517
 3125SOL    HW120837   0.772   3.005  15.525  0.3429  0.2528  0.7664
 3125SOL    HW220838   0.885   2.908  15.552 -0.8486 -0.7923 -0.8354
 3126SOL     OW20839   3.115   2.231   1.035  0.0614  0.0696  0.1709
 3126SOL    HW120840   3.145   2.283   1.110  2.0229  0.0161 -0.5588
 3126SOL    HW220841   3.159   2.146   1.044  2.7403  1.3558 -0.6531
 3127SOL     OW20842   1.251   3.628   2.589  0.1421  0.2741  0.2563
 3127SOL    HW120843   1.291   3.608   2.673 -2.7049  2.0143  2.0486
 3127SOL    HW220844   1.159   3.623   2.617  0.8881 -1.9865  2.3390
 3128SOL     OW20845   1.488   4.460   5.814 -0.2119 -0.5209 -0.0071
 3128SOL    HW120846   1.416   4.521   5.832  1.3395  2.3066 -3.5312
 3128SOL    HW220847   1.447   4.375   5.793 -1.4442  0.0114  0.2305
 3129SOL     OW20848   2.257   1.559   7.857 -0.0652  0.4053 -0.2935
 3129SOL    HW120849   2.275   1.467   7.876  0.3958  1.0085  2.1488
 3129SOL    HW220850   2.214   1.548   7.772 -0.0561 -0.8631 -0.1413
 3130SOL     OW20851   3.298   3.612   5.849  0.4349  0.7569  0.0696
 3130SOL    HW120852   3.389   3.608   5.878 -0.0840 -1.0622  1.4825
 3130SOL    HW220853   3.306   3.576   5.761 -2.5038  0.5994 -0.1496
 3131SOL     OW20854   2.142   0.098   3.682  0.2904  0.0127  0.6572
 3131SOL    HW120855   2.157   0.026   3.620  2.7355  1.2933 -0.2425
 3131SOL    HW220856   2.218   0.091   3.740  0.0165 -0.0708  1.0034
 3132SOL     OW20857   1.785   2.096   7.451  0.4343  0.4113 -0.8586
 3132SOL    HW120858   1.738   2.172   7.484 -3.1356 -1.0937 -2.5390
 3132SOL    HW220859   1.838   2.083   7.530 -0.7612 -0.0083 -0.1359
 3133SOL     OW20860   3.746   3.506   8.719  0.1561 -0.7144  0.2087
 3133SOL    HW120861   3.709   3.450   8.786  0.8209 -0.6254  0.6520
 3133SOL    HW220862   3.666   3.512   8.668 -0.1341  0.1814  0.7657
 3134SOL     OW20863   0.573   3.084   1.059 -0.2371  0.0256  0.1000
 3134SOL    HW120864   0.508   3.065   1.127 -0.3463 -2.1277 -0.6034
 3134SOL    HW220865   0.618   3.000   1.054  1.8009  1.3156 -3.1476
 3135SOL     OW20866   1.725   2.153   6.636 -0.0800  0.1069 -0.2868
 3135SOL    HW120867   1.817   2.148   6.610  0.3522 -0.9360  1.4264
 3135SOL    HW220868   1.709   2.092   6.708  0.5669  1.7489  1.2258
 3136SOL     OW20869   2.414   1.490   0.209  0.3386 -0.1071 -0.0186
 3136SOL    HW120870   2.466   1.433   0.152 -0.9522 -0.2954 -0.9978
 3136SOL    HW220871   2.477   1.547   0.254 -0.4748 -0.0091  0.9758
 3137SOL     OW20872   2.669   3.985  14.197 -0.1440 -0.7920  0.2268
 3137SOL    HW120873   2.647   4.071  14.233 -0.9195 -1.2157  0.7684
 3137SOL    HW220874   2.601   3.934  14.242 -1.1624 -0.4016 -0.8874
 3138SOL     OW20875   3.635   1.072   9.934 -0.4704 -0.6111 -0.1574
 3138SOL    HW120876   3.546   1.107   9.929 -0.4470 -0.3116  1.4006
 3138SOL    HW220877   3.662   1.060   9.843  0.0478  2.5903 -0.4100
 3139SOL     OW20878   4.189   4.177   5.523 -0.2005  0.4738 -0.1781
 3139SOL    HW120879   4.214   4.200   5.433 -1.8052 -1.2288 -1.0837
 3139SOL    HW220880   4.159   4.087   5.504 -1.2446  0.8728 -0.4269
 3140SOL     OW20881   3.861   3.480   9.046  0.2670 -0.4521  0.0835
 3140SOL    HW120882   3.818   3.442   9.123 -0.7332  1.2470  0.3457
 3140SOL    HW220883   3.792   3.509   8.987  1.0435  1.9389  0.3736
 3141SOL     OW20884   2.132   1.295   4.946 -0.2060  0.0161  0.0584
 3141SOL    HW120885   2.119   1.218   4.891 -1.2446 -0.7808  1.4316
 3141SOL    HW220886   2.048   1.341   4.949 -0.4412 -0.5532  2.2431
 3142SOL     OW20887   4.691   4.488   6.640 -0.0513  0.0429  0.5554
 3142SOL    HW120888   4.631   4.548   6.596  0.0043 -0.3356 -0.0287
 3142SOL    HW220889   0.045   4.541   6.668  0.3824  0.4505 -1.3744
 3143SOL     OW20890   1.867   2.772  13.701 -0.3931  0.4362 -0.6739
 3143SOL    HW120891   1.918   2.851  13.715 -1.4774  0.8863  0.7436
 3143SOL    HW220892   1.892   2.746  13.612  2.1384  0.7672 -0.0480
 3144SOL     OW20893   4.099   4.418   7.005  0.0177  0.8763 -0.3095
 3144SOL    HW120894   4.120   4.510   7.018  0.6269  0.5759  0.8167
 3144SOL    HW220895   4.164   4.389   6.941  0.8841  1.7231  0.1895
 3145SOL     OW20896   3.355   0.157   2.339  0.4851  0.2956  0.3160
 3145SOL    HW120897   3.351   0.253   2.339 -2.3297  0.1721  0.7830
 3145SOL    HW220898   3.346   0.133   2.247 -0.9998  0.7018  0.3682
 3146SOL     OW20899   1.466   3.272   2.917 -0.5987 -0.1018 -0.5648
 3146SOL    HW120900   1.506   3.301   2.835  0.6468  0.1092  0.1185
 3146SOL    HW220901   1.380   3.249   2.881 -1.5771  2.3182  0.1966
 3147SOL     OW20902   1.297   2.504   2.940  0.5559  0.3175 -0.1822
 3147SOL    HW120903   1.203   2.512   2.957  0.3656 -0.2635 -0.9594
 3147SOL    HW220904   1.309   2.419   2.982 -0.2731 -0.0866 -0.7675
 3148SOL     OW20905   1.674   4.430  13.596 -0.0372  0.1143 -0.3865
 3148SOL    HW120906   1.715   4.509  13.561  0.4652 -0.9388 -2.1781
 3148SOL    HW220907   1.585   4.466  13.596  0.2031  0.6990  1.3009
 3149SOL     OW20908   2.701   4.182   4.333  0.3994 -0.0700 -0.1228
 3149SOL    HW120909   2.664   4.253   4.281  0.2454 -0.7328 -0.9183
 3149SOL    HW220910   2.788   4.179   4.293  0.5039 -0.0952  0.1041
 3150SOL     OW20911   0.007   2.101   2.739 -0.3450  0.6635 -0.2059
 3150SOL    HW120912   0.000   2.197   2.737 -0.7924  0.6638  1.1188
 3150SOL    HW220913   0.008   2.081   2.646 -1.7825 -1.4634  0.2216
 3151SOL     OW20914   0.397   3.075   0.791  0.1867 -0.1242 -0.2039
 3151SOL    HW120915   0.364   3.000   0.741 -1.4978 -0.0109  0.7189
 3151SOL    HW220916   0.446   3.020   0.852  2.1586  0.1282 -1.5706
 3152SOL     OW20917   0.139   2.018   3.116  0.3193  0.3906 -0.4071
 3152SOL    HW120918   0.186   2.014   3.033 -1.3154 -0.4907 -1.2710
 3152SOL    HW220919   0.156   2.110   3.137 -0.9071  0.2104  1.3868
 3153SOL     OW20920   1.267   2.061   6.372  0.1423  0.3540  0.1732
 3153SOL    HW120921   1.217   2.106   6.304  0.4429 -1.4502 -1.2312
 3153SOL    HW220922   1.213   1.988   6.402  1.4901 -0.6142  0.2384
 3154SOL     OW20923   0.273   2.701  16.119  0.0935  0.0762  0.2474
 3154SOL    HW120924   0.258   2.632  16.054 -1.4974  0.5758  0.1002
 3154SOL    HW220925   0.316   2.770  16.069  0.6040 -2.6450 -3.0367
 3155SOL     OW20926   1.713   3.511  13.890  0.0150  0.0064 -0.5646
 3155SOL    HW120927   1.703   3.593  13.841 -2.0734 -0.5062 -0.9881
 3155SOL    HW220928   1.792   3.483  13.844  0.8113  1.5812 -0.1655
 3156SOL     OW20929   3.446   0.204   6.680 -0.4470 -0.4042  0.5349
 3156SOL    HW120930   3.435   0.298   6.694 -1.6514 -0.3475 -0.8474
 3156SOL    HW220931   3.531   0.178   6.716 -0.1877  0.0737  0.2605
 3157SOL     OW20932   2.728   2.955   6.920 -0.0704 -0.7662  0.1626
 3157SOL    HW120933   2.794   2.893   6.886 -0.3270 -0.8741 -0.1439
 3157SOL    HW220934   2.750   3.041   6.884  2.2479 -0.6533  1.8622
 3158SOL     OW20935   1.390   4.149   6.868  0.2981 -0.1347 -0.0241
 3158SOL    HW120936   1.425   4.103   6.792  1.8940  0.1400  0.5575
 3158SOL    HW220937   1.370   4.079   6.930  1.2839 -0.2086  0.2055
 3159SOL     OW20938   3.364   1.668  15.605  0.2227  0.4696  0.1563
 3159SOL    HW120939   3.411   1.717  15.537  1.8905 -0.0343  0.9552
 3159SOL    HW220940   3.365   1.725  15.681 -3.5994 -2.1716  2.1821
 3160SOL     OW20941   3.999   0.031   6.807  0.1588  0.7518  0.5660
 3160SOL    HW120942   3.979   0.025   6.901  1.0979  1.8308  0.8379
 3160SOL    HW220943   4.013   4.659   6.783  0.5556  0.9638 -0.0049
 3161SOL     OW20944   3.242   0.123  12.429  0.0700 -0.7012 -0.1696
 3161SOL    HW120945   3.275   0.202  12.470 -0.3328 -0.3649 -0.4861
 3161SOL    HW220946   3.313   0.118  12.365  1.5027  1.1368  1.2787
 3162SOL     OW20947   4.520   4.210  12.849 -0.0601  0.3251 -0.0718
 3162SOL    HW120948   4.431   4.177  12.833  1.3098 -3.8964  0.9896
 3162SOL    HW220949   4.573   4.144  12.803  0.1583  0.9373 -0.7000
 3163SOL     OW20950   3.111   1.332  16.771  0.7418 -0.0904 -1.1105
 3163SOL    HW120951   3.165   1.253  16.770 -0.5226 -0.9476 -1.0843
 3163SOL    HW220952   3.188   1.389  16.778 -0.3479  1.2055  0.3760
 3164SOL     OW20953   2.299   0.843  14.995 -0.4586 -0.2045 -0.3182
 3164SOL    HW120954   2.260   0.910  15.052 -0.0828  0.6515 -1.0577
 3164SOL    HW220955   2.389   0.853  15.025 -0.4965  0.1697 -0.3263
 3165SOL     OW20956   3.911   2.282  14.087  0.2977  0.0080  0.4272
 3165SOL    HW120957   3.995   2.321  14.064  0.2809 -0.1753  0.0468
 3165SOL    HW220958   3.894   2.314  14.175 -1.4472  0.5641 -0.1196
 3166SOL     OW20959   1.176   3.819   4.573 -0.0796  0.0065 -0.4218
 3166SOL    HW120960   1.170   3.860   4.659 -0.7787 -0.1401 -0.4026
 3166SOL    HW220961   1.083   3.831   4.557 -0.5719  0.7276  2.9223
 3167SOL     OW20962   1.598   4.149   7.608 -0.0795 -0.5935  0.3109
 3167SOL    HW120963   1.547   4.069   7.608  0.6851 -1.0789 -0.5632
 3167SOL    HW220964   1.674   4.134   7.665  1.0641  1.4327 -0.6543
 3168SOL     OW20965   1.455   4.649  10.666  0.3102  0.4460  0.0120
 3168SOL    HW120966   1.488   4.635  10.755 -0.1608 -0.3449  0.0706
 3168SOL    HW220967   1.526   4.698  10.626  1.1223 -0.4800  0.3206
 3169SOL     OW20968   2.970   0.072   5.289  0.3148 -0.1734  0.5495
 3169SOL    HW120969   2.974   0.156   5.244 -0.6378 -0.5618 -0.2500
 3169SOL    HW220970   3.013   0.021   5.220 -1.8896 -0.7147 -0.4239
 3170SOL     OW20971   0.082   3.524   2.447  0.5580  0.4416 -0.0923
 3170SOL    HW120972   0.120   3.519   2.535  0.4882  1.5242  0.0019
 3170SOL    HW220973   0.127   3.603   2.418  1.5725  0.1511  0.6685
 3171SOL     OW20974   3.648   3.757   7.285  0.2276  0.1753 -0.6422
 3171SOL    HW120975   3.580   3.810   7.244  0.2744 -0.6526 -1.7923
 3171SOL    HW220976   3.676   3.805   7.363 -0.5726 -2.0372  1.0444
 3172SOL     OW20977   2.381   0.656   3.247 -0.1583  0.0429  0.1311
 3172SOL    HW120978   2.397   0.599   3.172 -1.0644  1.2877 -1.0039
 3172SOL    HW220979   2.376   0.588   3.314  1.3839  0.9915  1.2145
 3173SOL     OW20980   3.306   4.445   2.431 -0.0706  0.0682  0.4393
 3173SOL    HW120981   3.384   4.495   2.455 -1.9111  1.6891  3.0943
 3173SOL    HW220982   3.244   4.510   2.399 -0.1251 -0.9820 -1.5740
 3174SOL     OW20983   0.044   4.229   6.560 -0.1791 -0.5916  0.1112
 3174SOL    HW120984   0.052   4.260   6.470 -2.5937 -0.7154 -0.1359
 3174SOL    HW220985   0.011   4.307   6.603 -0.6893 -0.2488 -0.9073
 3175SOL     OW20986   2.984   0.991   7.034  0.1915  0.1487  0.1803
 3175SOL    HW120987   2.935   1.065   6.998  1.3187 -0.0665 -1.7519
 3175SOL    HW220988   2.925   0.948   7.096  1.9308 -0.6789  1.2554
 3176SOL     OW20989   0.413   2.042   4.415  0.5707  0.0921  0.2431
 3176SOL    HW120990   0.487   2.087   4.457  0.2722  0.7048  0.1110
 3176SOL    HW220991   0.448   2.010   4.331 -1.5689 -0.3254 -0.4736
 3177SOL     OW20992   4.054   1.077   8.458  0.3696  0.6078 -0.1112
 3177SOL    HW120993   3.976   1.133   8.454  1.7941  2.5679 -0.5528
 3177SOL    HW220994   4.014   1.003   8.503 -0.5678  0.7892 -0.6505
 3178SOL     OW20995   0.678   1.806   7.823 -0.0407 -0.2264 -0.0722
 3178SOL    HW120996   0.719   1.775   7.904 -0.9197  1.7925  1.1225
 3178SOL    HW220997   0.682   1.899   7.844  0.4269  0.1974 -1.9855
 3179SOL     OW20998   1.015   0.374   7.710  0.2231  0.0141 -0.0613
 3179SOL    HW120999   1.029   0.404   7.620  3.6308 -0.1652  0.4077
 3179SOL    HW221000   1.069   0.428   7.767  0.8841  0.2509 -0.9121
 3180SOL     OW21001   1.938   4.526   4.657  1.0259  0.1572 -0.1218
 3180SOL    HW121002   1.947   4.477   4.575  0.1465  0.9138 -0.6802
 3180SOL    HW221003   1.941   4.616   4.623  1.1152 -0.0797 -0.7365
 3181SOL     OW21004   1.860   1.045   8.811  0.3759  0.4124 -0.2480
 3181SOL    HW121005   1.873   0.987   8.886 -0.2774 -0.0579 -0.4896
 3181SOL    HW221006   1.916   0.997   8.750  2.0319  0.9579  0.8752
 3182SOL     OW21007   2.371   0.261  17.273 -0.3830  0.1455  0.3969
 3182SOL    HW121008   2.412   0.222  17.196  1.4503  0.8184  1.0265
 3182SOL    HW221009   2.434   0.332  17.287  0.4212 -0.0524 -2.2129
 3183SOL     OW21010   3.207   3.851   3.482 -0.2189  0.6046  0.0391
 3183SOL    HW121011   3.172   3.762   3.471  1.7925 -0.4321  1.8098
 3183SOL    HW221012   3.290   3.840   3.529 -0.9525  0.3627  1.2810
 3184SOL     OW21013   3.378   1.256   2.377  1.0046 -0.4953 -0.0294
 3184SOL    HW121014   3.384   1.236   2.284  0.5302 -1.0824  0.0615
 3184SOL    HW221015   3.397   1.173   2.420  0.6030 -0.4203  0.2972
 3185SOL     OW21016   3.684   1.487   2.906 -0.0253 -0.9870 -0.2415
 3185SOL    HW121017   3.612   1.493   2.843 -0.9149  1.4093  0.9929
 3185SOL    HW221018   3.713   1.577   2.917  0.9520 -1.3305 -0.0281
 3186SOL     OW21019   0.100   3.714   6.194 -0.3736  0.1029 -0.1248
 3186SOL    HW121020   0.195   3.703   6.193 -0.5244 -1.0593 -2.8283
 3186SOL    HW221021   0.070   3.674   6.112  0.3476  0.2491 -0.4641
 3187SOL     OW21022   0.998   0.706   7.718 -0.5120 -0.4775  0.2822
 3187SOL    HW121023   1.022   0.667   7.802  0.6006 -0.7481 -0.1514
 3187SOL    HW221024   1.067   0.674   7.659 -1.7376 -1.6024 -0.5484
 3188SOL     OW21025   0.676   2.589   5.429 -0.6509 -0.0241 -0.3272
 3188SOL    HW121026   0.697   2.642   5.353 -0.8859  2.1157  1.1102
 3188SOL    HW221027   0.737   2.622   5.495  0.3518 -2.2577 -0.1351
 3189SOL     OW21028   2.294   2.951  11.828 -0.2933 -0.4187 -0.2593
 3189SOL    HW121029   2.382   2.985  11.839 -0.1884 -0.3071 -1.4706
 3189SOL    HW221030   2.285   2.935  11.734 -0.2633 -1.1833 -0.1309
 3190SOL     OW21031   3.997   1.670   8.351 -0.5927 -0.1998 -0.3233
 3190SOL    HW121032   3.984   1.658   8.257  1.3010 -1.3906 -0.4305
 3190SOL    HW221033   3.965   1.759   8.365 -2.1453 -0.9705  1.0483
 3191SOL     OW21034   2.524   0.012   7.138 -0.4889  0.7739 -0.2695
 3191SOL    HW121035   2.551   4.649   7.099  0.0626  0.6495  0.3739
 3191SOL    HW221036   2.464   4.707   7.209  0.2108 -0.3272 -0.0564
 3192SOL     OW21037   3.703   1.533   6.634  0.5766  0.0193  0.6327
 3192SOL    HW121038   3.686   1.439   6.644 -0.2053 -0.0586 -1.3508
 3192SOL    HW221039   3.770   1.536   6.702 -0.7260  0.7797  1.8583
 3193SOL     OW21040   3.653   1.869   3.784  0.5144  0.6925 -0.3200
 3193SOL    HW121041   3.573   1.833   3.745  0.1935 -0.3016  1.2177
 3193SOL    HW221042   3.725   1.846   3.726 -0.3080 -1.9452 -0.3316
 3194SOL     OW21043   3.637   1.471   1.188 -0.3412  0.2664  0.6196
 3194SOL    HW121044   3.614   1.553   1.143 -2.6046 -0.0939  1.0920
 3194SOL    HW221045   3.561   1.413   1.189  0.8536 -1.3060 -2.2311
 3195SOL     OW21046   1.206   1.968   3.655  0.3174 -0.4510  0.7843
 3195SOL    HW121047   1.243   1.915   3.584  1.0684 -0.6740  1.3476
 3195SOL    HW221048   1.279   2.016   3.693  2.2116 -1.7766 -1.1654
 3196SOL     OW21049   2.511   1.873   6.816 -0.2096  0.6647  0.0599
 3196SOL    HW121050   2.462   1.830   6.886 -1.7568  0.4916 -1.1259
 3196SOL    HW221051   2.513   1.961   6.852 -0.7042  1.6192 -2.2517
 3197SOL     OW21052   1.101   1.908   7.947  0.0097  0.1371  0.4357
 3197SOL    HW121053   1.131   1.820   7.926  0.3487  0.0835  1.1379
 3197SOL    HW221054   1.041   1.895   8.021 -1.1670  0.3628 -0.4940
 3198SOL     OW21055   4.227   2.001   1.081  0.1365 -0.0329  0.2441
 3198SOL    HW121056   4.132   2.010   1.079  0.2759  1.5733  0.3743
 3198SOL    HW221057   4.251   2.038   0.996 -0.5590 -0.3438 -0.0854
 3199SOL     OW21058   1.043   1.426   7.947  0.0583 -0.1933 -0.0591
 3199SOL    HW121059   1.035   1.372   7.869  0.7722 -0.1349 -0.1735
 3199SOL    HW221060   0.967   1.401   8.000 -0.1067 -2.1623 -1.2283
 3200SOL     OW21061   1.868   1.308   7.624 -0.1545 -0.2216 -0.2840
 3200SOL    HW121062   1.897   1.388   7.580  1.0574 -0.3655  0.2619
 3200SOL    HW221063   1.809   1.346   7.688 -0.0047 -0.8970  0.2545
 3201SOL     OW21064   0.015   2.515   5.770  0.1854 -0.0869  0.0076
 3201SOL    HW121065   4.710   2.605   5.791 -0.2747  0.1385 -1.5106
 3201SOL    HW221066   0.059   2.521   5.685 -0.4804  0.4351 -0.3010
 3202SOL     OW21067   4.091   1.864   6.578 -0.0331  0.0617  0.1820
 3202SOL    HW121068   4.146   1.807   6.525  0.7380  2.2837 -1.4012
 3202SOL    HW221069   4.149   1.871   6.654  0.6861 -1.3055 -0.2506
 3203SOL     OW21070   1.441   3.505   3.043 -0.6038  0.2518 -0.1364
 3203SOL    HW121071   1.480   3.553   2.969  1.4464  0.5292  1.1316
 3203SOL    HW221072   1.404   3.431   2.995 -0.8575 -0.3529  0.9956
 3204SOL     OW21073   2.987   4.405   5.423 -0.2240 -0.6873  0.2498
 3204SOL    HW121074   2.896   4.436   5.429  0.0223  0.5127 -2.2637
 3204SOL    HW221075   3.040   4.461   5.479 -0.0882  0.6490 -1.2177
 3205SOL     OW21076   1.188   0.545   6.941  0.2949 -0.1391 -0.2735
 3205SOL    HW121077   1.097   0.571   6.927  0.2208 -0.2929 -0.0793
 3205SOL    HW221078   1.198   0.461   6.896 -2.0981 -0.3446 -0.4458
 3206SOL     OW21079   1.706   4.662  13.851 -0.1614 -0.1920 -0.0161
 3206SOL    HW121080   1.699   4.599  13.779 -1.7067 -0.6111  0.5056
 3206SOL    HW221081   1.720   0.026  13.805 -0.7219  0.5470  1.1638
 3207SOL     OW21082   4.560   4.567   8.155 -0.2311  0.0084  0.0766
 3207SOL    HW121083   4.627   4.555   8.223  0.1486  1.7244  0.0141
 3207SOL    HW221084   4.549   4.659   8.179  1.2096  0.6185 -1.5845
 3208SOL     OW21085   2.824   0.974   3.869 -0.1160  0.2908  0.3863
 3208SOL    HW121086   2.772   1.011   3.797  1.3617  0.3500 -0.6679
 3208SOL    HW221087   2.783   0.888   3.871  0.9106 -0.2475 -1.7266
 3209SOL     OW21088   0.350   1.331   2.156  0.1140  0.0064 -0.7782
 3209SOL    HW121089   0.304   1.375   2.227 -1.5186 -0.9240 -1.2597
 3209SOL    HW221090   0.373   1.241   2.179  1.2844 -0.9853 -5.7933
 3210SOL     OW21091   0.925   0.495   4.027 -0.0231  0.0482 -0.0047
 3210SOL    HW121092   0.992   0.531   4.085  0.2981  2.0495 -1.6040
 3210SOL    HW221093   0.853   0.486   4.089 -0.2140  0.2672 -0.1940
 3211SOL     OW21094   1.874   4.521  17.416 -0.5736  0.2262 -0.0877
 3211SOL    HW121095   1.800   4.547  17.471  0.1990 -0.8956  1.5000
 3211SOL    HW221096   1.871   4.595  17.355 -3.7651 -1.2428 -1.6703
 3212SOL     OW21097   4.456   4.176   6.576  0.1426  0.1042 -0.1017
 3212SOL    HW121098   4.498   4.116   6.514  0.1456 -1.5529  1.5009
 3212SOL    HW221099   4.366   4.181   6.544 -0.3384  0.5821  1.3600
 3213SOL     OW21100   1.226   3.719  17.492  0.1042 -0.0643 -0.1911
 3213SOL    HW121101   1.247   3.686  17.579  1.3362  0.8601 -0.1305
 3213SOL    HW221102   1.271   3.655  17.437  0.8647  1.3317 -1.1874
 3214SOL     OW21103   0.081   0.609   3.058  0.7412  0.5800 -0.4764
 3214SOL    HW121104   0.115   0.698   3.049  1.6850  0.7645  4.5109
 3214SOL    HW221105   0.108   0.568   2.977  1.4671  1.1052 -0.5068
 3215SOL     OW21106   4.137   3.630   5.473  0.9135  0.1600  0.4491
 3215SOL    HW121107   4.113   3.720   5.452 -1.9517 -0.3445  1.5759
 3215SOL    HW221108   4.120   3.590   5.388 -0.9607 -0.2396  1.0032
 3216SOL     OW21109   1.595   2.600   2.398 -0.4850  0.2456 -0.1330
 3216SOL    HW121110   1.605   2.562   2.310 -1.1167 -0.9507  0.3146
 3216SOL    HW221111   1.678   2.646   2.411  0.1053 -0.7540 -0.4037
 3217SOL     OW21112   0.150   3.615   8.886 -0.3752 -0.1877  0.5966
 3217SOL    HW121113   0.172   3.667   8.964  0.0878  0.7494 -0.1507
 3217SOL    HW221114   0.237   3.581   8.865 -0.3911 -0.1207  0.4245
 3218SOL     OW21115   2.744   1.885   7.599  0.5131 -0.0112 -0.1002
 3218SOL    HW121116   2.708   1.797   7.598 -0.7756  0.4663  2.5595
 3218SOL    HW221117   2.753   1.892   7.694 -1.2180  0.9635 -0.0117
 3219SOL     OW21118   0.973   0.899   5.548 -0.6254 -0.0777 -0.2277
 3219SOL    HW121119   0.908   0.949   5.598  0.8066 -0.6838  2.2156
 3219SOL    HW221120   1.016   0.842   5.612 -1.4157 -1.7593 -1.1968
 3220SOL     OW21121   3.476   2.083  11.608  0.1567 -0.7267  0.2681
 3220SOL    HW121122   3.559   2.037  11.625  0.7938  0.0906 -0.6314
 3220SOL    HW221123   3.422   2.075  11.686 -0.8943  0.9600 -0.2852
 3221SOL     OW21124   2.558   3.624  12.145 -0.9602 -0.1015 -0.5694
 3221SOL    HW121125   2.536   3.687  12.077  0.6931  0.6586 -0.4022
 3221SOL    HW221126   2.502   3.661  12.213  0.2952  1.4397 -0.3860
 3222SOL     OW21127   3.782   0.446   6.215  0.0002  0.6048 -0.5578
 3222SOL    HW121128   3.778   0.370   6.273 -1.9025  1.0666 -0.0788
 3222SOL    HW221129   3.797   0.518   6.276  1.6665  0.2616 -0.5705
 3223SOL     OW21130   3.050   3.013  16.313 -0.6377  0.3391  0.3605
 3223SOL    HW121131   3.002   3.032  16.233 -1.4787 -2.5359  0.1905
 3223SOL    HW221132   3.111   2.942  16.290 -1.5223 -0.7301  1.3477
 3224SOL     OW21133   4.440   2.918   4.664  0.0188 -0.5654 -0.0289
 3224SOL    HW121134   4.366   2.943   4.609 -0.5789 -0.5439  0.7889
 3224SOL    HW221135   4.423   2.968   4.744  1.1351 -1.6159  0.8777
 3225SOL     OW21136   1.713   0.161   4.665  0.6279 -0.4039 -0.0902
 3225SOL    HW121137   1.726   0.109   4.744  0.5549  2.6528  1.9417
 3225SOL    HW221138   1.618   0.152   4.664  0.4263  1.6867 -1.1400
 3226SOL     OW21139   3.469   3.888  11.859  0.1340  0.2660 -0.6311
 3226SOL    HW121140   3.445   3.827  11.789  1.3996  0.4549 -1.2277
 3226SOL    HW221141   3.539   3.839  11.901  0.9075  0.4223 -1.7307
 3227SOL     OW21142   1.799   1.476   6.661  0.4709 -0.0953  0.0136
 3227SOL    HW121143   1.737   1.508   6.596  0.2818 -0.3054  0.0869
 3227SOL    HW221144   1.841   1.557   6.690 -1.9799  0.7654  1.1826
 3228SOL     OW21145   0.333   2.340   6.109 -0.0769  0.1901 -0.0295
 3228SOL    HW121146   0.290   2.410   6.060  1.5204 -0.5297 -2.4152
 3228SOL    HW221147   0.277   2.326   6.186 -1.0768 -0.0107 -0.7968
 3229SOL     OW21148   3.653   1.165   4.377  0.0803  0.3577 -0.2764
 3229SOL    HW121149   3.742   1.194   4.359  0.5816 -2.7001 -2.7066
 3229SOL    HW221150   3.596   1.240   4.360 -0.4715  0.3137  1.4018
 3230SOL     OW21151   4.256   3.286   0.740  0.5664 -0.2008 -0.3371
 3230SOL    HW121152   4.170   3.278   0.701  1.4524  0.9868 -2.5525
 3230SOL    HW221153   4.306   3.302   0.660  0.1350  2.1593 -0.1596
 3231SOL     OW21154   2.104   2.113  14.792 -0.3474  0.7354 -0.0262
 3231SOL    HW121155   2.081   2.051  14.722 -1.5473 -1.0803  1.9994
 3231SOL    HW221156   2.021   2.116  14.839  0.0714  0.4500  0.7352
 3232SOL     OW21157   2.606   1.217   8.474  0.0704 -0.8671  0.2178
 3232SOL    HW121158   2.651   1.151   8.526 -0.5911 -1.7084 -0.2950
 3232SOL    HW221159   2.678   1.253   8.423 -0.3615  0.9275  0.8313
 3233SOL     OW21160   2.502   3.023  17.471  0.0548 -0.8419 -0.0608
 3233SOL    HW121161   2.525   3.054  17.559 -0.1476  1.4438 -0.8296
 3233SOL    HW221162   2.465   3.096  17.422  0.3063 -0.8279 -0.2270
 3234SOL     OW21163   1.357   3.890   6.333  0.0969  0.6107 -0.2660
 3234SOL    HW121164   1.441   3.930   6.311 -0.2117  0.5027 -1.6501
 3234SOL    HW221165   1.291   3.925   6.273 -0.6568 -0.1006  0.1396
 3235SOL     OW21166   4.411   2.007   7.186 -0.3264  0.0321 -0.6640
 3235SOL    HW121167   4.481   2.048   7.135 -0.2124  0.1907 -0.3811
 3235SOL    HW221168   4.333   2.062   7.175 -0.9090 -0.7368 -0.3643
 3236SOL     OW21169   4.292   2.344   2.569 -0.1925 -0.1236  0.0792
 3236SOL    HW121170   4.203   2.309   2.561 -0.2898  0.9073 -3.1184
 3236SOL    HW221171   4.344   2.271   2.534  2.6274  1.4189  1.1386
 3237SOL     OW21172   3.393   0.204   7.790  0.5650  0.0245  0.3581
 3237SOL    HW121173   3.478   0.249   7.798  1.2086 -0.9068 -1.2535
 3237SOL    HW221174   3.384   0.137   7.858  1.7239  1.6891  2.1675
 3238SOL     OW21175   0.173   0.041   3.043  0.0494 -0.1239 -0.0274
 3238SOL    HW121176   0.083   0.010   3.056  0.0990 -0.3867 -0.3177
 3238SOL    HW221177   0.193   4.710   2.965 -0.5814  0.2440 -0.4350
 3239SOL     OW21178   0.929   0.412   4.428  0.6892  0.7886 -0.0313
 3239SOL    HW121179   0.851   0.358   4.425 -0.4523  2.4386 -0.1060
 3239SOL    HW221180   0.894   0.501   4.423 -1.8880 -0.1825  1.3609
 3240SOL     OW21181   4.413   1.770  10.421  0.2047 -0.6644  0.2837
 3240SOL    HW121182   4.382   1.747  10.333 -0.3777 -1.0421  0.5848
 3240SOL    HW221183   4.505   1.744  10.415  0.1228 -0.7525 -0.6464
 3241SOL     OW21184   0.060   4.496   6.022  0.1799 -0.1458 -0.4044
 3241SOL    HW121185   0.003   4.519   6.096 -0.6376  2.3767 -1.8234
 3241SOL    HW221186   0.074   4.580   5.979 -0.1121  0.1560  0.0844
 3242SOL     OW21187   2.017   3.030  15.529  0.2228  0.2286 -0.1568
 3242SOL    HW121188   2.098   3.069  15.498 -0.4602  2.2794  0.6649
 3242SOL    HW221189   2.017   2.937  15.503 -0.7927 -0.1489  1.2044
 3243SOL     OW21190   0.921   1.005  14.124  0.7270  0.1460 -0.4406
 3243SOL    HW121191   0.967   1.084  14.096  0.7059 -0.5609 -2.4356
 3243SOL    HW221192   0.832   1.014  14.091  0.1429 -3.4573  0.1361
 3244SOL     OW21193   1.942   2.062   4.924  0.1585  0.5250  0.2208
 3244SOL    HW121194   1.989   1.999   4.979 -2.2940 -0.1484  1.5224
 3244SOL    HW221195   2.017   2.119   4.908 -0.7081  1.9579  1.3462
 3245SOL     OW21196   4.437   1.874   3.263 -0.3002 -0.1871 -0.2151
 3245SOL    HW121197   4.532   1.871   3.274 -0.4093 -0.7812  0.5601
 3245SOL    HW221198   4.402   1.827   3.339 -0.3389  3.2752  1.8984
 3246SOL     OW21199   3.392   1.694  14.338  0.0522 -0.6393 -0.2584
 3246SOL    HW121200   3.459   1.733  14.394 -0.0655  1.9051 -1.8772
 3246SOL    HW221201   3.336   1.640  14.393 -1.7404  2.0870  0.5752
 3247SOL     OW21202   0.020   4.129   7.171  0.1382  0.2826  0.0405
 3247SOL    HW121203   0.107   4.135   7.210  1.0928 -0.3638 -1.9882
 3247SOL    HW221204   0.030   4.048   7.120 -2.0459 -0.0495  0.1262
 3248SOL     OW21205   3.897   1.745   2.579  0.3318  0.2845  0.0492
 3248SOL    HW121206   3.985   1.746   2.542  0.8943  0.0093  1.3803
 3248SOL    HW221207   3.899   1.664   2.631 -0.8795  1.1274  1.4076
 3249SOL     OW21208   3.630   4.277  15.897 -0.5308 -0.1104 -0.3296
 3249SOL    HW121209   3.542   4.276  15.858 -0.0534 -1.1144 -1.3953
 3249SOL    HW221210   3.673   4.350  15.852  1.0176 -0.5409  0.4817
 3250SOL     OW21211   0.816   1.666  12.767  0.5193 -0.6105  0.2250
 3250SOL    HW121212   0.901   1.660  12.725  0.2859 -0.7946 -0.2228
 3250SOL    HW221213   0.838   1.691  12.856 -0.2965 -1.6504  0.7308
 3251SOL     OW21214   1.160   4.530   7.664  0.4665 -0.7400  0.4074
 3251SOL    HW121215   1.170   4.481   7.745  1.6100  1.1977  1.4388
 3251SOL    HW221216   1.065   4.534   7.664  0.5573  1.9400  1.4430
 3252SOL     OW21217   3.123   3.815   5.844 -0.3457 -0.1829  1.1502
 3252SOL    HW121218   3.186   3.744   5.860 -1.9440 -1.3832  2.0259
 3252SOL    HW221219   3.106   3.805   5.750 -1.9824 -2.6864  1.7126
 3253SOL     OW21220   4.448   3.656   4.579  0.0475  0.3958 -0.0886
 3253SOL    HW121221   4.538   3.622   4.576  0.8985  2.4891  1.3679
 3253SOL    HW221222   4.419   3.634   4.490  1.3360 -0.0068 -0.4144
 3254SOL     OW21223   1.428   1.425   5.085  0.4060 -0.0960  0.7636
 3254SOL    HW121224   1.492   1.363   5.050  2.4168  1.7515  1.1264
 3254SOL    HW221225   1.352   1.403   5.031  0.6767  0.8105  0.0153
 3255SOL     OW21226   3.129   0.852  14.555 -0.1554  0.2002  0.1220
 3255SOL    HW121227   3.206   0.795  14.563  0.4992  1.3066  1.6882
 3255SOL    HW221228   3.063   0.784  14.561 -1.3546  1.3535 -0.0591
 3256SOL     OW21229   3.363   1.148   9.106  0.0258 -0.2786 -0.1417
 3256SOL    HW121230   3.269   1.168   9.107  0.2422  0.7259 -0.1946
 3256SOL    HW221231   3.378   1.156   9.200 -0.5049  0.5617 -0.1290
 3257SOL     OW21232   4.178   2.045  11.882 -0.5903  0.0700  0.2057
 3257SOL    HW121233   4.221   2.086  11.807 -0.8900 -1.7686 -0.9778
 3257SOL    HW221234   4.151   2.116  11.940  0.4093  0.2125  0.4829
 3258SOL     OW21235   2.880   3.565   7.674  0.0413 -0.0951  0.0128
 3258SOL    HW121236   2.819   3.494   7.654  0.4176  0.6426 -3.8131
 3258SOL    HW221237   2.956   3.507   7.663  1.5201  1.6868  0.9546
 3259SOL     OW21238   0.648   0.561   0.979  0.4716 -0.0916 -0.1368
 3259SOL    HW121239   0.671   0.601   0.895  1.7325  0.5937  0.5288
 3259SOL    HW221240   0.695   0.617   1.042  1.5318 -0.4108 -0.6439
 3260SOL     OW21241   2.976   2.934   0.706 -0.0216 -0.5711 -0.2915
 3260SOL    HW121242   2.999   2.841   0.718  0.1509 -0.5155 -0.1823
 3260SOL    HW221243   3.044   2.961   0.644  1.3804 -2.8720  0.2099
 3261SOL     OW21244   2.687   0.918   7.683  0.2308 -0.4790 -0.4250
 3261SOL    HW121245   2.630   0.851   7.722 -2.1265 -0.0221 -3.1168
 3261SOL    HW221246   2.698   0.870   7.601  0.9753 -2.5871  0.8870
 3262SOL     OW21247   1.243   0.228   6.403  0.6776  0.3379 -0.3331
 3262SOL    HW121248   1.322   0.282   6.392  0.1439  1.0294 -0.7753
 3262SOL    HW221249   1.213   0.206   6.315  2.6617 -0.6361 -0.7836
 3263SOL     OW21250   3.485   2.126  14.508  0.8008 -0.7990  0.7267
 3263SOL    HW121251   3.454   2.178  14.583 -1.1203 -0.0400 -0.6228
 3263SOL    HW221252   3.551   2.181  14.466 -0.5366  1.5931  1.7630
 3264SOL     OW21253   1.795   1.321  13.597  0.2983  0.0168 -0.0818
 3264SOL    HW121254   1.809   1.274  13.679 -0.9748 -1.0113 -0.4378
 3264SOL    HW221255   1.722   1.377  13.620  0.1752  0.2131 -0.9397
 3265SOL     OW21256   0.416   2.437   2.493  0.1604  0.0376 -0.4076
 3265SOL    HW121257   0.427   2.400   2.581  0.3227  0.4799 -0.2458
 3265SOL    HW221258   0.476   2.510   2.483 -0.1109  0.7003  2.8871
 3266SOL     OW21259   3.026   4.719  14.199 -0.6472 -0.0606  0.0306
 3266SOL    HW121260   3.087   4.692  14.130 -0.7261  2.1074 -0.8876
 3266SOL    HW221261   3.002   0.087  14.168 -0.0925  0.4301  0.9827
 3267SOL     OW21262   0.708   1.904  12.615  0.3259  0.1119 -0.7411
 3267SOL    HW121263   0.645   1.948  12.558  2.8734  1.5563 -2.4469
 3267SOL    HW221264   0.749   1.973  12.668  2.3525 -2.2896  0.8230
 3268SOL     OW21265   4.675   2.233   2.156  0.3115  0.4848 -0.1796
 3268SOL    HW121266   4.704   2.255   2.067 -1.5572 -1.6756 -1.3378
 3268SOL    HW221267   0.039   2.201   2.190 -0.5967 -0.5585  1.0676
 3269SOL     OW21268   4.489   1.457   2.833  0.1687  0.0632  0.0113
 3269SOL    HW121269   4.496   1.511   2.912  0.8729  1.4578 -0.9998
 3269SOL    HW221270   4.523   1.371   2.858 -0.8984  0.0833  1.5163
 3270SOL     OW21271   4.306   0.250   3.294 -0.0093  0.1972 -0.7512
 3270SOL    HW121272   4.241   0.214   3.234  1.3659 -0.4566 -1.8477
 3270SOL    HW221273   4.288   0.343   3.299  0.9726  0.3443  0.2798
 3271SOL     OW21274   2.313   2.128   6.425 -0.3249  0.2405 -0.1550
 3271SOL    HW121275   2.376   2.171   6.483 -1.5526  0.1393  1.2468
 3271SOL    HW221276   2.247   2.196   6.418 -1.7236 -1.0225  0.7108
 3272SOL     OW21277   4.215   3.264   7.209 -0.0676  0.0963 -0.0525
 3272SOL    HW121278   4.259   3.262   7.124 -0.3093 -1.5346 -0.1324
 3272SOL    HW221279   4.274   3.207   7.258 -1.6416 -1.5967 -0.1331
 3273SOL     OW21280   3.835   3.274   5.463  0.2817 -0.0503  0.2966
 3273SOL    HW121281   3.800   3.339   5.402  0.7939  0.1603  0.2293
 3273SOL    HW221282   3.922   3.303   5.491  0.6646 -0.9699  0.0375
 3274SOL     OW21283   3.040   1.516   8.061 -0.5652  0.2168 -0.3398
 3274SOL    HW121284   3.053   1.475   8.147  0.7493  0.1871 -0.5625
 3274SOL    HW221285   2.988   1.451   8.012 -0.0255 -0.2393 -0.3129
 3275SOL     OW21286   3.786   4.001  14.488 -0.6150  0.3281  0.0424
 3275SOL    HW121287   3.719   3.939  14.518 -0.3274  0.0573  0.1280
 3275SOL    HW221288   3.735   4.078  14.510 -1.4290  0.4888 -2.3836
 3276SOL     OW21289   4.184   4.228  15.762 -0.1185  0.2708 -0.1691
 3276SOL    HW121290   4.132   4.244  15.683  1.7209 -0.7888 -1.5966
 3276SOL    HW221291   4.126   4.164  15.802 -0.5127  2.0503  2.1248
 3277SOL     OW21292   3.964   0.538  11.203  0.3515  0.1651  0.2864
 3277SOL    HW121293   4.052   0.503  11.219  0.3032 -1.2442 -2.5295
 3277SOL    HW221294   3.937   0.485  11.128 -2.1150  0.5594  0.9105
 3278SOL     OW21295   4.261   2.879   1.986 -0.3651  0.2308 -0.2270
 3278SOL    HW121296   4.229   2.913   1.903 -0.4807 -1.3051 -0.8135
 3278SOL    HW221297   4.176   2.844   2.013  0.3018 -0.7629  0.5519
 3279SOL     OW21298   4.572   1.226  14.472 -0.2485 -0.3405 -0.2276
 3279SOL    HW121299   4.505   1.262  14.414 -1.0956  1.2985  1.8031
 3279SOL    HW221300   4.543   1.257  14.557  0.2074 -1.5794  0.3798
 3280SOL     OW21301   3.041   4.347   4.469  0.2984 -0.2523 -0.3103
 3280SOL    HW121302   3.049   4.312   4.380 -2.2681  1.2714 -1.1183
 3280SOL    HW221303   3.069   4.271   4.521  1.3253 -0.9108 -1.8002
 3281SOL     OW21304   1.090   0.605   2.089  0.2981  0.2611 -0.2667
 3281SOL    HW121305   0.995   0.617   2.094  0.4958  1.1447  1.4329
 3281SOL    HW221306   1.128   0.692   2.092  3.1467 -1.0211  1.1003
 3282SOL     OW21307   0.611   0.867   7.845  0.5259 -0.0896  0.2461
 3282SOL    HW121308   0.618   0.797   7.910 -1.5939  0.4636  1.0575
 3282SOL    HW221309   0.571   0.934   7.900  0.5962  0.8698 -0.8746
 3283SOL     OW21310   3.003   1.027   5.949  0.3582 -0.0838  0.5866
 3283SOL    HW121311   3.039   1.113   5.931  1.6793 -0.9178 -0.7295
 3283SOL    HW221312   2.978   1.030   6.041  2.7425  0.4972  1.2209
 3284SOL     OW21313   4.219   1.812   9.681 -0.1929  0.0910  0.4079
 3284SOL    HW121314   4.130   1.788   9.658 -1.5228  1.4285  4.0664
 3284SOL    HW221315   4.194   1.820   9.774 -0.7786  1.6254  0.1247
 3285SOL     OW21316   4.492   0.724   3.015  0.2908  0.2404 -0.3508
 3285SOL    HW121317   4.474   0.785   2.943  1.1173 -0.8762 -1.4833
 3285SOL    HW221318   4.588   0.731   3.023  0.2157  1.7138 -0.6593
 3286SOL     OW21319   3.059   4.598   9.285 -0.9835 -0.4682  0.2824
 3286SOL    HW121320   2.970   4.584   9.252 -1.3400  0.4251  0.8452
 3286SOL    HW221321   3.040   4.592   9.379 -1.4352  2.8206  0.4215
 3287SOL     OW21322   3.894   2.641  12.122  0.1820  0.5101 -0.4689
 3287SOL    HW121323   3.828   2.618  12.187  0.0045 -0.8708 -1.1467
 3287SOL    HW221324   3.895   2.736  12.134  0.5880  0.4257  0.1805
 3288SOL     OW21325   1.164   0.787   7.227 -0.1570 -0.3631 -0.7531
 3288SOL    HW121326   1.163   0.710   7.170  2.0185 -0.5335 -0.5428
 3288SOL    HW221327   1.241   0.836   7.200  0.9257 -0.5680  1.9289
 3289SOL     OW21328   0.204   1.689   8.343 -0.0731  0.0896 -0.4539
 3289SOL    HW121329   0.197   1.638   8.424  1.1567  0.8747  0.1559
 3289SOL    HW221330   0.269   1.640   8.293 -1.0656 -0.7287 -0.9190
 3290SOL     OW21331   3.214   4.608   1.288  0.2228 -0.3679 -0.1825
 3290SOL    HW121332   3.208   4.666   1.364  1.9196  1.9071 -1.7758
 3290SOL    HW221333   3.132   4.559   1.287  0.7377 -1.2242 -1.3063
 3291SOL     OW21334   4.025   4.186  16.793  0.1522 -0.0085 -0.8001
 3291SOL    HW121335   4.026   4.250  16.864  0.8662  0.9837 -1.7025
 3291SOL    HW221336   4.061   4.112  16.842  1.1598 -0.6301 -2.4756
 3292SOL     OW21337   3.451   0.856  15.362  0.0672  0.2938 -0.1975
 3292SOL    HW121338   3.403   0.808  15.294  0.6726  0.4730 -0.7543
 3292SOL    HW221339   3.373   0.895  15.402  0.1049  0.5272 -0.3511
 3293SOL     OW21340   0.349   3.153  10.284  0.0719  0.4974  0.0840
 3293SOL    HW121341   0.400   3.176  10.206  0.3494 -1.2689 -0.2613
 3293SOL    HW221342   0.409   3.108  10.343  0.1345 -0.2404 -0.5421
 3294SOL     OW21343   0.043   1.626  15.682  0.3068  0.1417  0.3133
 3294SOL    HW121344   4.685   1.574  15.703  0.9210 -0.5317  0.9110
 3294SOL    HW221345   0.098   1.574  15.623 -2.1719 -1.7476 -0.2832
 3295SOL     OW21346   3.290   3.725   9.862 -0.0774  0.1695 -0.0637
 3295SOL    HW121347   3.289   3.687   9.950 -1.8018  0.3751  0.0121
 3295SOL    HW221348   3.385   3.735   9.859  0.1779 -2.3384 -0.4077
 3296SOL     OW21349   0.371   3.653   6.536 -0.5632  0.3019 -0.3121
 3296SOL    HW121350   0.346   3.627   6.448  0.2449 -2.0916  0.1827
 3296SOL    HW221351   0.463   3.630   6.543 -0.8295 -0.3547  1.1969
 3297SOL     OW21352   0.473   1.021   1.291  0.2492 -0.2898  0.5052
 3297SOL    HW121353   0.435   1.078   1.357  2.5588 -0.2909  1.8436
 3297SOL    HW221354   0.478   1.081   1.216 -4.4338  0.5035  0.8260
 3298SOL     OW21355   1.064   2.036   6.162  0.5183  0.2924 -0.4068
 3298SOL    HW121356   1.092   2.086   6.085  3.0755 -2.5122 -1.2668
 3298SOL    HW221357   0.980   1.996   6.141  0.5483 -1.1050  2.1145
 3299SOL     OW21358   3.392   0.729  14.075 -0.1899 -0.1621 -0.6456
 3299SOL    HW121359   3.404   0.711  13.982  3.2438  1.0521 -0.4336
 3299SOL    HW221360   3.482   0.722  14.106  0.0883 -0.5381 -1.5401
 3300SOL     OW21361   2.417   4.216   0.078 -0.2693  0.1933 -0.2300
 3300SOL    HW121362   2.356   4.289   0.066 -0.8412 -0.6111 -2.1430
 3300SOL    HW221363   2.355   4.144   0.063 -1.2131  0.7246  1.1155
 3301SOL     OW21364   3.557   4.361  13.324 -0.4152 -0.2555 -0.5997
 3301SOL    HW121365   3.484   4.309  13.289 -1.3292  0.5468  0.1048
 3301SOL    HW221366   3.563   4.309  13.404 -1.0467 -0.1570 -0.4871
 3302SOL     OW21367   3.904   3.308   5.997  0.1927 -0.0328  0.3632
 3302SOL    HW121368   3.995   3.333   5.982 -0.8885  3.3985 -0.5382
 3302SOL    HW221369   3.902   3.284   6.090  1.0350  1.2451  0.7011
 3303SOL     OW21370   2.525   4.401   3.244  0.7860  0.0190  0.3342
 3303SOL    HW121371   2.504   4.494   3.234  0.3570  0.2221  3.1733
 3303SOL    HW221372   2.529   4.373   3.153  1.6507 -0.7970  0.6255
 3304SOL     OW21373   2.932   2.623  17.006  0.0492 -0.0407  0.3219
 3304SOL    HW121374   2.981   2.554  16.962 -0.3592 -0.8688  1.1401
 3304SOL    HW221375   2.872   2.571  17.060  0.3128 -0.8547 -0.1669
 3305SOL     OW21376   1.353   0.745   3.959  0.3173 -0.2394 -0.2385
 3305SOL    HW121377   1.378   0.716   4.047  0.8672 -1.4694 -0.8026
 3305SOL    HW221378   1.314   0.671   3.912 -0.3922 -1.6436  2.5553
 3306SOL     OW21379   1.331   1.098  14.044  0.1776 -0.3558 -0.0570
 3306SOL    HW121380   1.245   1.106  14.001  0.4073 -0.4499 -0.5407
 3306SOL    HW221381   1.327   1.167  14.111  2.9307  0.5811 -0.8699
 3307SOL     OW21382   2.655   1.216   6.203  1.0066  0.1417 -0.3012
 3307SOL    HW121383   2.571   1.173   6.220 -0.4748  3.4345  0.6008
 3307SOL    HW221384   2.715   1.156   6.247 -0.4850 -0.1469  1.3248
 3308SOL     OW21385   1.056   0.244   3.598  0.0839  0.1103  0.2254
 3308SOL    HW121386   0.991   0.173   3.603  0.3016 -0.0287  1.1424
 3308SOL    HW221387   1.015   0.308   3.657 -0.0301 -1.1315  1.4867
 3309SOL     OW21388   3.254   2.120   2.929  0.1210 -0.0833 -0.1256
 3309SOL    HW121389   3.171   2.166   2.918 -0.0789 -0.4790 -0.2475
 3309SOL    HW221390   3.227   2.067   3.004 -2.8721  3.1515  1.1168
 3310SOL     OW21391   1.721   4.214   2.684 -0.2308  0.2123 -0.3158
 3310SOL    HW121392   1.703   4.139   2.628  1.3996 -1.4370  1.3878
 3310SOL    HW221393   1.681   4.285   2.633 -1.9922 -1.0878 -0.7414
 3311SOL     OW21394   3.729   1.014   2.009 -0.1546 -0.5298 -0.4881
 3311SOL    HW121395   3.735   1.093   2.064  1.4617 -0.3199 -0.9661
 3311SOL    HW221396   3.756   1.059   1.929 -0.4833  0.5753  0.0143
 3312SOL     OW21397   4.531   1.738  11.803 -0.1870 -0.3165  0.5326
 3312SOL    HW121398   4.481   1.739  11.721  0.8347  0.3956 -0.0869
 3312SOL    HW221399   4.540   1.833  11.807 -1.4010 -0.2234  1.0584
 3313SOL     OW21400   4.439   1.016   2.525 -0.3405 -0.4952 -0.0732
 3313SOL    HW121401   4.481   0.939   2.487  0.2466 -0.9760  1.5349
 3313SOL    HW221402   4.487   1.080   2.473  0.2442 -1.2109 -0.4081
 3314SOL     OW21403   1.490   1.900  12.680 -0.3459  0.4651  0.0035
 3314SOL    HW121404   1.477   1.949  12.599  1.3716 -0.9839 -1.1534
 3314SOL    HW221405   1.474   1.962  12.751 -0.0220 -0.8322  1.2044
 3315SOL     OW21406   3.040   4.679   2.736 -0.4828  0.0087 -0.6460
 3315SOL    HW121407   3.076   4.677   2.825  1.4150 -0.3827 -1.4146
 3315SOL    HW221408   3.091   0.024   2.687  1.8365 -1.6215 -0.3986
 3316SOL     OW21409   3.611   0.944   7.269  0.2669 -0.2535 -0.3511
 3316SOL    HW121410   3.677   0.944   7.339 -1.5138  0.2691  1.3325
 3316SOL    HW221411   3.548   1.007   7.303  0.3787 -0.4051  0.1418
 3317SOL     OW21412   3.651   0.871  15.716  0.1225  0.0150  0.2389
 3317SOL    HW121413   3.713   0.901  15.649  1.3323 -1.9285  0.4943
 3317SOL    HW221414   3.641   0.787  15.672 -3.1227  0.6516 -0.2453
 3318SOL     OW21415   2.992   4.175   4.254 -0.3568 -0.7332  0.4810
 3318SOL    HW121416   2.980   4.255   4.203 -2.0468 -1.1790  0.1634
 3318SOL    HW221417   3.062   4.134   4.203 -0.8930 -0.5347 -0.4060
 3319SOL     OW21418   0.447   0.432   7.386 -0.3921 -0.0784 -1.2416
 3319SOL    HW121419   0.534   0.396   7.373 -0.7240 -0.9036 -1.2125
 3319SOL    HW221420   0.400   0.350   7.403 -0.8332  0.6927  1.1978
 3320SOL     OW21421   0.361   1.256   3.253 -0.3530  0.2655  0.3651
 3320SOL    HW121422   0.423   1.238   3.183 -0.7370 -0.9774  0.3484
 3320SOL    HW221423   0.284   1.264   3.196 -0.7837 -0.0292  0.9025
 3321SOL     OW21424   2.855   2.194  13.603 -0.0750  0.4696  0.1874
 3321SOL    HW121425   2.787   2.226  13.663  0.2292  2.9807 -0.8085
 3321SOL    HW221426   2.921   2.255  13.634 -0.2309  0.8687 -0.2647
 3322SOL     OW21427   1.017   3.335   9.564 -0.0944 -0.0196  0.1543
 3322SOL    HW121428   1.002   3.405   9.501 -0.7565  0.1498  0.4985
 3322SOL    HW221429   1.067   3.373   9.636  0.4336 -0.4995  0.0407
 3323SOL     OW21430   1.451   4.695   3.092 -0.3517  0.3771 -0.2726
 3323SOL    HW121431   1.457   4.600   3.102  2.1634  0.5862  0.3659
 3323SOL    HW221432   1.536   0.002   3.127  1.5806 -2.1607 -3.0166
 3324SOL     OW21433   4.680   4.243  11.490  0.4440  0.2075 -0.7698
 3324SOL    HW121434   4.647   4.178  11.552  1.5564  0.5129  0.1371
 3324SOL    HW221435   0.013   4.185  11.434  1.1169  0.5237 -0.4721
 3325SOL     OW21436   2.064   2.200   1.859 -0.6833  0.0622 -0.2835
 3325SOL    HW121437   2.120   2.123   1.868  0.5837  1.0905  0.5495
 3325SOL    HW221438   1.979   2.162   1.883  0.6116 -1.6026  1.7387
 3326SOL     OW21439   4.658   4.147   6.082  0.2633  0.2001  0.1619
 3326SOL    HW121440   4.644   4.054   6.100  0.3866 -0.4069 -2.7625
 3326SOL    HW221441   0.029   4.148   6.053  0.1628 -1.2593 -0.2413
 3327SOL     OW21442   3.561   1.186   1.287  0.4528 -0.7287  0.4305
 3327SOL    HW121443   3.618   1.214   1.358  1.9447  0.1482 -1.0983
 3327SOL    HW221444   3.475   1.186   1.328  0.1143 -2.0642 -0.2787
 3328SOL     OW21445   0.961   1.141  17.335  0.0557 -0.3568 -0.2656
 3328SOL    HW121446   1.034   1.083  17.315  0.9701  0.6253  0.2142
 3328SOL    HW221447   0.893   1.075  17.321  0.1058 -0.2331 -1.1312
 3329SOL     OW21448   0.521   4.507   1.806  0.2397  0.1365 -0.0868
 3329SOL    HW121449   0.437   4.466   1.828 -0.5945  0.5599 -2.5256
 3329SOL    HW221450   0.564   4.523   1.890 -2.5033  1.5555  1.0625
 3330SOL     OW21451   0.436   2.553  14.158 -0.1935  0.0666 -0.3020
 3330SOL    HW121452   0.438   2.467  14.118  0.2475 -0.2103  0.3071
 3330SOL    HW221453   0.476   2.594  14.081  1.5877 -0.4694  0.3350
 3331SOL     OW21454   3.897   4.569   4.214 -0.0685 -0.2497  0.3681
 3331SOL    HW121455   3.954   4.577   4.137  0.5323  0.9531  0.9294
 3331SOL    HW221456   3.889   4.474   4.218 -0.8644 -0.2808 -1.9300
 3332SOL     OW21457   2.186   3.273   8.410 -0.6643  0.4573  0.0943
 3332SOL    HW121458   2.112   3.215   8.433 -0.6692  1.0700  1.6724
 3332SOL    HW221459   2.250   3.230   8.467 -1.2242  1.5910  1.5924
 3333SOL     OW21460   1.861   1.832   3.518 -0.2654  0.2108  0.0548
 3333SOL    HW121461   1.950   1.796   3.511 -0.3870  0.2764 -1.7800
 3333SOL    HW221462   1.842   1.784   3.599 -0.3385  0.4436  0.1741
 3334SOL     OW21463   4.436   0.004   8.693  0.4176  0.2434  0.1639
 3334SOL    HW121464   4.431   4.648   8.635 -5.4372  0.2417  0.6414
 3334SOL    HW221465   4.462   4.681   8.775 -1.3317  1.2250  1.2232
 3335SOL     OW21466   3.099   1.288   8.714 -0.1046 -0.2173 -0.2549
 3335SOL    HW121467   3.183   1.267   8.674  0.5250 -1.0461  1.5148
 3335SOL    HW221468   3.102   1.382   8.734  1.7462  0.2144 -2.6316
 3336SOL     OW21469   0.430   3.869   0.157  0.3101 -0.2436  0.4371
 3336SOL    HW121470   0.478   3.787   0.147 -0.4828 -0.6455  0.0261
 3336SOL    HW221471   0.449   3.902   0.245  1.4900 -0.2072  0.1794
 3337SOL     OW21472   1.605   3.160   4.623 -0.9730  0.3569 -0.4662
 3337SOL    HW121473   1.691   3.182   4.589  0.2695 -3.9810 -0.0878
 3337SOL    HW221474   1.556   3.242   4.630 -1.5253  0.0705 -0.9095
 3338SOL     OW21475   4.075   2.653  16.565 -0.1884 -0.0038  0.0240
 3338SOL    HW121476   3.987   2.625  16.587  1.4940 -2.3232  3.8706
 3338SOL    HW221477   4.123   2.591  16.620  1.5441  0.3583 -1.0816
 3339SOL     OW21478   0.722   1.607   5.495 -0.8963  0.0011 -0.3511
 3339SOL    HW121479   0.641   1.644   5.529 -0.8988 -0.5306  0.2316
 3339SOL    HW221480   0.786   1.678   5.504 -0.3432 -0.7324  1.6359
 3340SOL     OW21481   3.901   1.457   4.134  0.3262  0.1164 -0.3486
 3340SOL    HW121482   3.873   1.371   4.103 -1.3569 -0.1400  1.8548
 3340SOL    HW221483   3.916   1.432   4.225 -1.5140 -1.8181 -0.5703
 3341SOL     OW21484   0.023   0.129  17.162  0.3177  0.2611  0.3378
 3341SOL    HW121485   4.674   0.137  17.096 -1.2636  1.8015  2.1729
 3341SOL    HW221486   0.062   0.216  17.168  2.5109 -0.6174 -0.8982
 3342SOL     OW21487   4.446   2.391   2.100 -0.1172  0.0817 -0.2256
 3342SOL    HW121488   4.478   2.372   2.012  2.3608 -0.6237  0.8192
 3342SOL    HW221489   4.532   2.402   2.142 -0.7608 -2.6916  1.7588
 3343SOL     OW21490   4.650   0.513   7.974  0.2852  0.3736 -0.3239
 3343SOL    HW121491   4.654   0.469   8.059  1.4040 -0.0717 -0.6076
 3343SOL    HW221492   4.558   0.538   7.986  0.0630 -0.3125 -0.6174
 3344SOL     OW21493   0.372   3.744  15.239  0.0988  0.6843  0.5274
 3344SOL    HW121494   0.365   3.778  15.150  3.0394 -0.2376 -0.0512
 3344SOL    HW221495   0.467   3.734  15.245  0.4413  1.8129 -3.3574
 3345SOL     OW21496   0.141   3.591  15.565 -0.0022  0.2650  0.2538
 3345SOL    HW121497   0.101   3.616  15.648 -2.6179 -3.0456  0.0116
 3345SOL    HW221498   0.124   3.497  15.561  0.1492  0.3419 -2.1428
 3346SOL     OW21499   3.970   0.382  13.678 -0.5226 -0.0357 -0.0889
 3346SOL    HW121500   3.984   0.287  13.681  0.6377  0.1412  0.0506
 3346SOL    HW221501   4.060   0.416  13.679 -1.6859  2.9908 -0.3594
 3347SOL     OW21502   4.173   4.099  12.542 -0.9449  0.4183 -0.5504
 3347SOL    HW121503   4.099   4.142  12.501 -0.8469  1.5356  0.4579
 3347SOL    HW221504   4.167   4.005  12.522 -2.6214  0.1686  1.2082
 3348SOL     OW21505   0.704   4.324   6.610  0.1968  0.4753 -0.1572
 3348SOL    HW121506   0.755   4.384   6.556 -0.1749 -1.1574 -2.3217
 3348SOL    HW221507   0.641   4.382   6.652 -1.3311 -1.2108 -0.1121
 3349SOL     OW21508   3.182   3.914  14.178 -0.2645  0.5797  0.4470
 3349SOL    HW121509   3.200   3.851  14.248  1.6340 -1.6480 -2.0149
 3349SOL    HW221510   3.110   3.874  14.130 -1.9598  3.7539  0.3831
 3350SOL     OW21511   4.127   2.221   6.892  0.8917 -0.2384  0.5209
 3350SOL    HW121512   4.183   2.188   6.822  1.1875  2.5773 -0.5750
 3350SOL    HW221513   4.142   2.316   6.886 -2.3296  0.4163  2.7884
 3351SOL     OW21514   0.068   1.311   5.887 -0.1948 -0.1499  0.2370
 3351SOL    HW121515   0.123   1.364   5.945  1.1994 -2.0896  0.6777
 3351SOL    HW221516   4.702   1.331   5.925  2.5036  2.4313  4.8617
 3352SOL     OW21517   0.647   2.037   5.525 -0.2090  0.7067  0.4615
 3352SOL    HW121518   0.655   1.989   5.608 -1.1076 -0.1342  0.0718
 3352SOL    HW221519   0.562   2.012   5.490  1.6224 -0.3297 -3.2478
 3353SOL     OW21520   2.761   1.862  14.632 -0.3064  0.3756 -0.6498
 3353SOL    HW121521   2.726   1.810  14.559  0.0470  0.9347 -1.2225
 3353SOL    HW221522   2.707   1.939  14.615 -1.0060  0.3955  1.7410
 3354SOL     OW21523   0.046   3.349   3.074 -0.5562  0.6280  0.1658
 3354SOL    HW121524   0.105   3.319   3.004 -0.3064 -0.6331  0.9334
 3354SOL    HW221525   4.681   3.341   3.030  0.6771 -2.9303 -1.5160
 3355SOL     OW21526   0.042   1.056   7.694 -0.2126  0.2257  0.2471
 3355SOL    HW121527   0.136   1.067   7.706  0.0715 -3.2778  1.1632
 3355SOL    HW221528   0.039   0.961   7.703  1.0089  0.1253 -0.4284
 3356SOL     OW21529   2.990   3.713  15.760 -0.5228 -0.2872 -0.0428
 3356SOL    HW121530   2.993   3.618  15.768 -4.4933 -0.4286  0.0351
 3356SOL    HW221531   3.053   3.743  15.825 -1.7719  0.3131  0.8936
 3357SOL     OW21532   3.956   4.307   4.592 -0.7687  0.3176 -0.4786
 3357SOL    HW121533   3.929   4.220   4.620  1.8844 -0.4208 -0.2131
 3357SOL    HW221534   4.020   4.300   4.521 -0.1759  0.8385 -0.0039
 3358SOL     OW21535   1.029   3.840   3.525 -0.0182  0.5162 -0.3171
 3358SOL    HW121536   0.978   3.803   3.597 -1.9957  2.7470 -0.5505
 3358SOL    HW221537   1.019   3.773   3.457  0.7612 -1.7408  1.7866
 3359SOL     OW21538   1.721   3.934  14.723  0.1316  0.0798 -0.3647
 3359SOL    HW121539   1.813   3.948  14.746 -0.0817 -0.7327  0.9264
 3359SOL    HW221540   1.724   3.936  14.627  1.5362 -4.2447 -0.3828
 3360SOL     OW21541   4.484   3.295   4.867 -0.0384  0.1101 -0.0997
 3360SOL    HW121542   4.393   3.324   4.863  0.4378  1.3618 -1.4146
 3360SOL    HW221543   4.467   3.201   4.879  1.2953 -0.3859 -2.1338
 3361SOL     OW21544   3.426   1.601   4.740 -0.3349  0.1975  0.1525
 3361SOL    HW121545   3.446   1.631   4.829  1.1615  0.3562 -0.2433
 3361SOL    HW221546   3.397   1.510   4.751  0.6190 -0.0987  0.2309
 3362SOL     OW21547   4.230   4.286  17.493  0.6979 -0.3627 -0.2403
 3362SOL    HW121548   4.248   4.247  17.408  1.1248 -0.2031 -0.2243
 3362SOL    HW221549   4.307   4.342  17.503 -2.1339  3.5089 -0.2377
 3363SOL     OW21550   2.227   2.382   3.544 -0.1245  0.3473 -0.5912
 3363SOL    HW121551   2.271   2.394   3.628 -0.7050 -1.4003 -0.0273
 3363SOL    HW221552   2.286   2.435   3.491  0.3536 -0.2058 -0.6046
 3364SOL     OW21553   0.784   4.184   4.638  0.2285  0.0909  0.5129
 3364SOL    HW121554   0.834   4.187   4.720  1.0286  0.5199  0.0118
 3364SOL    HW221555   0.846   4.202   4.568 -1.3816  1.1068 -0.6725
 3365SOL     OW21556   2.024   3.050   4.742  0.0016  0.3003  0.0102
 3365SOL    HW121557   1.976   3.117   4.694  1.3830 -0.0284 -1.8378
 3365SOL    HW221558   1.946   2.997   4.757 -0.0027  0.3768  0.2613
 3366SOL     OW21559   1.218   3.285   7.449  0.2076 -0.3465  0.1606
 3366SOL    HW121560   1.198   3.366   7.496 -2.1390 -0.0219 -1.3855
 3366SOL    HW221561   1.132   3.272   7.409 -0.2359  1.6528  0.4676
 3367SOL     OW21562   3.682   0.889   9.120 -0.5402 -0.8847 -0.1605
 3367SOL    HW121563   3.704   0.831   9.192  0.4756 -0.2162  0.0630
 3367SOL    HW221564   3.586   0.883   9.113 -0.7262  0.4472  1.1164
 3368SOL     OW21565   3.077   0.933   6.410 -0.1971 -0.6650  0.0661
 3368SOL    HW121566   3.115   0.930   6.322  0.3909  1.3164  0.2433
 3368SOL    HW221567   3.154   0.960   6.461 -1.1780 -0.2590  1.3293
 3369SOL     OW21568   0.775   4.188   6.095  0.0619 -0.0258 -0.2751
 3369SOL    HW121569   0.749   4.263   6.042  1.1626  0.4381 -0.1692
 3369SOL    HW221570   0.695   4.136   6.098  0.2777 -0.4530 -2.1408
 3370SOL     OW21571   3.837   1.493   1.888 -0.0996 -0.1192 -1.2915
 3370SOL    HW121572   3.931   1.507   1.882  0.0811 -0.4795  0.4696
 3370SOL    HW221573   3.836   1.489   1.984  1.5997  1.1695 -1.2349
 3371SOL     OW21574   1.257   4.014   5.865 -0.2245 -0.4984  0.1652
 3371SOL    HW121575   1.176   4.048   5.903  1.2582  2.7107  0.4741
 3371SOL    HW221576   1.279   3.959   5.941  1.1472  1.6224  1.2947
 3372SOL     OW21577   3.591   0.685  15.537  0.2359 -0.0405 -0.2697
 3372SOL    HW121578   3.648   0.696  15.461  1.2152 -1.2959  0.2819
 3372SOL    HW221579   3.518   0.732  15.497 -1.3937 -1.5526  0.9597
 3373SOL     OW21580   3.789   4.061  17.679 -0.3697 -0.1213 -0.2523
 3373SOL    HW121581   3.726   4.127   0.025 -1.0479 -1.3810  1.2693
 3373SOL    HW221582   3.867   4.112  17.662 -0.9520  0.1266 -2.1905
 3374SOL     OW21583   2.348   3.801   7.079 -0.3104 -0.4598  0.6129
 3374SOL    HW121584   2.439   3.805   7.108 -0.3877  1.7579  0.5518
 3374SOL    HW221585   2.304   3.864   7.138 -0.1567  0.3170 -0.1088
 3375SOL     OW21586   0.592   0.903   8.376 -0.6841 -0.1702 -0.8145
 3375SOL    HW121587   0.665   0.842   8.380 -0.3285  0.2421 -0.9631
 3375SOL    HW221588   0.546   0.878   8.457  1.5295  1.5487  0.9783
 3376SOL     OW21589   1.826   4.538   5.071  0.2609  0.1889  0.1184
 3376SOL    HW121590   1.805   4.455   5.112  4.2508 -0.8233  0.0703
 3376SOL    HW221591   1.844   4.581   5.154 -0.6344  0.8835 -0.0403
 3377SOL     OW21592   4.543   3.877  15.905  0.2891 -0.8097 -0.1271
 3377SOL    HW121593   4.487   3.846  15.976 -0.4881 -0.4110 -0.5699
 3377SOL    HW221594   4.623   3.910  15.947  1.0717 -1.6593 -0.9625
 3378SOL     OW21595   2.632   2.829   7.506  0.1017 -0.0069  0.1513
 3378SOL    HW121596   2.641   2.898   7.572 -0.7299  1.2555 -1.0530
 3378SOL    HW221597   2.705   2.862   7.453 -1.2401  2.1142 -0.3652
 3379SOL     OW21598   0.291   1.688  16.616 -0.0093  0.2854  0.3594
 3379SOL    HW121599   0.374   1.726  16.589  0.5943 -1.1078  0.2331
 3379SOL    HW221600   0.327   1.620  16.673  0.0851  0.0222 -0.0157
 3380SOL     OW21601   0.734   2.396  16.518 -0.3877 -0.0848  0.4405
 3380SOL    HW121602   0.725   2.302  16.538 -1.7991 -0.4322 -1.7768
 3380SOL    HW221603   0.665   2.401  16.452  0.5825 -0.0564 -0.5647
 3381SOL     OW21604   2.183   0.370  14.424  0.1420  0.4060 -0.2854
 3381SOL    HW121605   2.197   0.427  14.499  0.1208 -0.8703  0.6992
 3381SOL    HW221606   2.204   0.282  14.457  0.0293  1.2024  1.9084
 3382SOL     OW21607   3.101   3.462   6.524  0.4649  0.0128 -0.5426
 3382SOL    HW121608   3.189   3.448   6.559  1.2002  3.5622 -1.0159
 3382SOL    HW221609   3.122   3.504   6.441  0.1322  2.0201  0.3803
 3383SOL     OW21610   2.573   2.827   3.868 -0.0574 -0.1166 -0.7541
 3383SOL    HW121611   2.640   2.777   3.820  0.2605 -0.6087  0.1874
 3383SOL    HW221612   2.549   2.774   3.944  1.6987  1.4042  0.8960
 3384SOL     OW21613   2.478   4.374   8.571  0.7957 -0.0558 -0.0001
 3384SOL    HW121614   2.450   4.438   8.637  1.4034  0.0244  0.1756
 3384SOL    HW221615   2.399   4.332   8.535  0.3230  1.6331 -0.9195
 3385SOL     OW21616   3.585   1.846   2.811  0.4763 -0.2328  0.6375
 3385SOL    HW121617   3.560   1.803   2.729  1.8356 -1.2907  0.7709
 3385SOL    HW221618   3.557   1.935   2.794  2.9318  0.5406  0.6714
 3386SOL     OW21619   1.526   0.484   4.034 -0.3300 -0.1260 -0.0799
 3386SOL    HW121620   1.442   0.467   3.991 -1.1227  1.0093  1.0168
 3386SOL    HW221621   1.577   0.421   3.982  0.5825  0.3821  0.2027
 3387SOL     OW21622   2.037   0.107   3.329 -0.0099  0.5239 -0.1855
 3387SOL    HW121623   2.011   0.090   3.238  0.5670 -1.1347 -0.0243
 3387SOL    HW221624   2.118   0.154   3.309  0.1712  0.0062 -0.6603
 3388SOL     OW21625   0.540   0.666  11.850  0.4722 -0.1234 -0.0170
 3388SOL    HW121626   0.580   0.745  11.885 -2.3874  1.4444 -0.3065
 3388SOL    HW221627   0.480   0.637  11.918 -0.0909  3.1747  0.8707
 3389SOL     OW21628   2.524   3.277  15.377  0.1458  0.2478 -0.4246
 3389SOL    HW121629   2.561   3.348  15.323 -0.0984  0.5868 -0.1458
 3389SOL    HW221630   2.585   3.210  15.348 -1.4755 -1.4132  0.0264
 3390SOL     OW21631   0.580   1.556   1.419 -0.1335 -0.7432 -0.1338
 3390SOL    HW121632   0.636   1.615   1.471 -0.9473 -2.3249  2.5145
 3390SOL    HW221633   0.506   1.542   1.478  0.1718 -2.2803 -0.1210
 3391SOL     OW21634   2.069   3.110   1.204  0.1309 -0.4194 -0.7372
 3391SOL    HW121635   1.976   3.087   1.196  0.3200 -1.0125 -1.2407
 3391SOL    HW221636   2.081   3.132   1.112  1.9569 -1.1751 -0.6774
 3392SOL     OW21637   1.837   3.630   7.883 -0.4139 -0.0964  0.0991
 3392SOL    HW121638   1.874   3.686   7.952 -4.0053  0.7873  1.3260
 3392SOL    HW221639   1.767   3.689   7.854 -0.4794  0.5087  1.4568
 3393SOL     OW21640   4.312   2.881  10.661  0.1804 -0.5337  0.0458
 3393SOL    HW121641   4.382   2.873  10.726  0.9798  0.0916 -0.7483
 3393SOL    HW221642   4.355   2.931  10.592  2.6470 -0.6047  1.5663
 3394SOL     OW21643   4.177   1.955   3.155  0.0281  0.6471  0.8026
 3394SOL    HW121644   4.267   1.938   3.183 -0.7811  0.1968  3.1177
 3394SOL    HW221645   4.161   1.898   3.080  1.7467  1.4796 -0.2120
 3395SOL     OW21646   4.452   2.196   9.497  0.2598  0.3793 -0.0981
 3395SOL    HW121647   4.426   2.236   9.580 -0.4969 -0.1335 -0.0842
 3395SOL    HW221648   4.429   2.104   9.513  1.2695  0.4319  1.6374
 3396SOL     OW21649   2.550   3.910   2.175  0.3389  0.6525 -0.4375
 3396SOL    HW121650   2.485   3.882   2.111 -0.4798 -0.6270  0.9405
 3396SOL    HW221651   2.572   3.996   2.139 -1.2876  0.5750 -1.6150
 3397SOL     OW21652   4.661   0.063   7.555  0.0410  0.0562 -0.2068
 3397SOL    HW121653   4.600   0.018   7.496  0.9326 -0.8681 -0.4109
 3397SOL    HW221654   0.026   0.024   7.533 -1.0270 -1.1928 -2.0947
 3398SOL     OW21655   0.150   1.894   2.831  0.0257  0.3539  0.2778
 3398SOL    HW121656   0.093   1.961   2.794  0.8662  0.7635 -0.2668
 3398SOL    HW221657   0.108   1.823   2.782  0.0869  0.0126  0.7173
 3399SOL     OW21658   0.920   4.354   1.077 -0.1418  0.3126  0.5212
 3399SOL    HW121659   0.872   4.397   1.006 -0.2444  0.2213  0.5348
 3399SOL    HW221660   0.868   4.383   1.153 -1.6377 -0.7236 -0.1121
 3400SOL     OW21661   2.958   2.701   7.756  0.2341 -0.2572 -0.8011
 3400SOL    HW121662   2.900   2.767   7.795 -0.6590 -1.8431  0.5813
 3400SOL    HW221663   2.982   2.648   7.832  1.6038  2.1723  0.4515
 3401SOL     OW21664   4.133   1.130   8.861  0.4704  0.2359  0.0134
 3401SOL    HW121665   4.197   1.128   8.790 -0.9501  5.3384 -1.4259
 3401SOL    HW221666   4.055   1.166   8.819  0.3388 -0.2812 -0.1914
 3402SOL     OW21667   4.186   1.043   1.271 -0.0297 -0.1399 -1.4286
 3402SOL    HW121668   4.220   0.957   1.298 -0.8621 -1.5860 -4.9676
 3402SOL    HW221669   4.200   1.098   1.347  0.5249 -0.7440 -1.0943
 3403SOL     OW21670   3.239   1.284   7.979 -0.3764  0.0606  0.4625
 3403SOL    HW121671   3.149   1.316   7.982 -0.5439 -0.3224 -0.5641
 3403SOL    HW221672   3.241   1.240   7.894  1.6671  0.4507  0.2910
 3404SOL     OW21673   2.101   3.213   7.133 -0.4214 -0.3473  0.2699
 3404SOL    HW121674   2.035   3.156   7.172  2.3380 -3.8952 -0.2727
 3404SOL    HW221675   2.176   3.153   7.130  0.3786  0.6451  0.0818
 3405SOL     OW21676   1.221   4.320   1.553  0.6854  0.0482 -0.3255
 3405SOL    HW121677   1.132   4.289   1.539  0.8682 -1.5175  2.0726
 3405SOL    HW221678   1.206   4.415   1.556  2.3788  0.2607  1.7446
 3406SOL     OW21679   1.596   2.746  11.948  0.1842  0.6940 -0.1444
 3406SOL    HW121680   1.562   2.739  12.037  0.7828  1.1368  0.1175
 3406SOL    HW221681   1.656   2.671  11.954 -0.8969 -0.1621 -0.1045
 3407SOL     OW21682   1.190   3.143  10.361 -0.3774  0.2941  0.4194
 3407SOL    HW121683   1.107   3.158  10.407 -1.1917 -0.7911 -0.6941
 3407SOL    HW221684   1.214   3.058  10.398 -5.4566 -1.0085  0.7842
 3408SOL     OW21685   3.028   2.752   8.729 -0.1461 -0.0909 -0.5521
 3408SOL    HW121686   3.047   2.744   8.635  0.5796  1.2820 -0.5282
 3408SOL    HW221687   3.024   2.658   8.743  2.5737 -0.2401 -0.9206
 3409SOL     OW21688   3.832   3.194  17.044 -0.7024 -0.2789 -0.6970
 3409SOL    HW121689   3.874   3.109  17.029  0.6429  0.6580 -2.2630
 3409SOL    HW221690   3.864   3.240  16.966  0.1337 -0.5624 -0.5165
 3410SOL     OW21691   1.117   2.299   7.025 -0.2217  0.0069 -0.1042
 3410SOL    HW121692   1.126   2.212   6.984 -1.9192 -0.2048 -0.0200
 3410SOL    HW221693   1.199   2.312   7.073 -0.0394 -0.7559 -0.2032
 3411SOL     OW21694   0.976   1.085  10.457 -0.3504  0.6350 -0.7191
 3411SOL    HW121695   1.012   1.087  10.545  1.5479 -1.8494 -1.4341
 3411SOL    HW221696   0.884   1.113  10.458 -0.3139  0.7697 -1.1460
 3412SOL     OW21697   1.514   2.721  16.086  0.8233  0.3360  0.3781
 3412SOL    HW121698   1.446   2.708  16.151 -0.2931  1.0207 -0.6592
 3412SOL    HW221699   1.482   2.795  16.034 -0.6878  0.0456  0.9132
 3413SOL     OW21700   3.404   3.552   9.488  0.0414 -0.5042  0.1755
 3413SOL    HW121701   3.407   3.503   9.406  2.0160  0.5298 -0.3700
 3413SOL    HW221702   3.325   3.518   9.530 -0.6575  2.8274  1.5837
 3414SOL     OW21703   1.696   2.165  13.934 -0.3524  0.0382 -0.2254
 3414SOL    HW121704   1.670   2.118  14.013 -0.3669  0.0024 -0.2514
 3414SOL    HW221705   1.641   2.126  13.867 -0.2016  1.7030 -1.3076
 3415SOL     OW21706   4.581   3.409  14.833 -0.2849  0.4317  0.2685
 3415SOL    HW121707   4.542   3.429  14.918  0.2686  1.7562  0.2074
 3415SOL    HW221708   4.589   3.498  14.799  0.1530  0.7280  1.1510
 3416SOL     OW21709   1.470   4.327   7.760 -0.5023 -0.0753 -0.0539
 3416SOL    HW121710   1.492   4.266   7.690  0.3084  1.4302 -1.1330
 3416SOL    HW221711   1.475   4.409   7.711 -1.7729  0.5486  0.8611
 3417SOL     OW21712   4.014   1.239  14.064  0.2130 -0.3191  0.5754
 3417SOL    HW121713   4.003   1.202  14.152  0.9495  0.5479  1.0321
 3417SOL    HW221714   4.023   1.159  14.013  1.5327  0.4926 -0.4474
 3418SOL     OW21715   3.277   4.582   7.140 -0.3049  0.4959  0.1652
 3418SOL    HW121716   3.274   4.501   7.089  0.5617 -0.3082  1.4042
 3418SOL    HW221717   3.272   4.543   7.227  1.4675 -0.1328 -0.0194
 3419SOL     OW21718   4.450   0.206   4.083  0.4803  0.1874  0.4418
 3419SOL    HW121719   4.491   0.258   4.152 -0.4139  0.7591  0.5403
 3419SOL    HW221720   4.507   0.135   4.055  1.9821  1.6423 -0.1706
 3420SOL     OW21721   3.189   3.280   1.652 -0.3165 -0.6132 -0.0642
 3420SOL    HW121722   3.235   3.205   1.690 -1.3376 -0.1977  2.0178
 3420SOL    HW221723   3.131   3.295   1.727  0.8823 -1.0328  0.9450
 3421SOL     OW21724   1.509   3.617   5.341 -0.3790  0.3708  0.5364
 3421SOL    HW121725   1.501   3.608   5.436  0.5590 -1.3068  0.4490
 3421SOL    HW221726   1.460   3.700   5.334 -1.3409 -0.2919 -0.5734
 3422SOL     OW21727   1.051   0.439   3.160 -0.3087  0.0650 -0.0499
 3422SOL    HW121728   1.108   0.490   3.102 -0.3444  3.2836  2.7467
 3422SOL    HW221729   1.065   0.347   3.138  3.2084  0.5527  0.2595
 3423SOL     OW21730   1.083   0.111   6.164  0.2679 -0.0906  0.5071
 3423SOL    HW121731   1.120   0.117   6.076  1.5287  1.6672  1.1559
 3423SOL    HW221732   1.027   0.187   6.179  0.5327  0.2335 -0.1813
 3424SOL     OW21733   2.825   1.117  11.657  0.1119  0.0850 -0.6448
 3424SOL    HW121734   2.915   1.125  11.625 -0.3766 -0.1677 -2.0953
 3424SOL    HW221735   2.774   1.140  11.579  1.0723 -1.9421 -1.8957
 3425SOL     OW21736   1.668   2.963   8.911  0.2950 -0.0912 -0.1917
 3425SOL    HW121737   1.736   2.969   8.844  1.4414  0.6716  1.0619
 3425SOL    HW221738   1.726   2.989   8.982 -0.1534  0.8600 -0.1712
 3426SOL     OW21739   0.925   2.414   8.717 -0.0896  0.3591  0.5302
 3426SOL    HW121740   0.972   2.366   8.648  0.5025  1.9145 -0.1563
 3426SOL    HW221741   0.973   2.496   8.703  1.2790 -0.7448 -1.3855
 3427SOL     OW21742   0.016   4.049   7.670 -0.0267 -0.0241 -0.9229
 3427SOL    HW121743   0.086   3.990   7.699 -1.4045 -2.5237 -2.6912
 3427SOL    HW221744   4.660   3.992   7.658 -1.0419  1.5535 -1.9793
 3428SOL     OW21745   4.246   1.883   6.290  0.2463 -0.0422 -0.4345
 3428SOL    HW121746   4.197   1.907   6.212  0.1624 -1.7141 -0.9027
 3428SOL    HW221747   4.296   1.807   6.259  0.9331  0.6414 -0.9746
 3429SOL     OW21748   1.146   0.981  14.275  0.2222 -0.5613 -0.2907
 3429SOL    HW121749   1.172   0.933  14.196 -1.2310 -0.3216 -0.9207
 3429SOL    HW221750   1.057   1.013  14.256 -0.0257 -0.9041  0.3100
 3430SOL     OW21751   0.994   3.827  17.291 -0.3180  0.0319  1.0901
 3430SOL    HW121752   1.035   3.766  17.352 -0.0200  2.6831  3.4911
 3430SOL    HW221753   1.057   3.890  17.256 -1.8880  1.1619  0.3106
 3431SOL     OW21754   2.950   4.424   1.727  0.4953 -0.4132  0.7428
 3431SOL    HW121755   2.919   4.379   1.649  0.8527  1.7245 -0.6341
 3431SOL    HW221756   2.953   4.513   1.693 -2.1381 -0.6637 -0.1673
 3432SOL     OW21757   2.035   2.729   2.854  0.5466 -0.1263 -0.4114
 3432SOL    HW121758   1.989   2.652   2.888  2.0640 -1.7514 -2.0634
 3432SOL    HW221759   1.956   2.762   2.810  0.0679 -1.3164 -0.4271
 3433SOL     OW21760   1.219   1.318  13.673 -0.1036 -0.2625  0.2251
 3433SOL    HW121761   1.141   1.359  13.710 -0.4064 -0.7794  0.1708
 3433SOL    HW221762   1.192   1.338  13.583  1.7600  0.3271 -0.1994
 3434SOL     OW21763   3.684   1.994   1.081  0.2589  0.3523 -0.2578
 3434SOL    HW121764   3.593   1.970   1.100  0.7143 -0.6491  0.6502
 3434SOL    HW221765   3.679   2.085   1.052 -1.3094  1.2133  2.7035
 3435SOL     OW21766   0.881   4.212   3.585  0.2644 -0.2234  0.3214
 3435SOL    HW121767   0.802   4.161   3.573  1.1241 -0.7695 -2.9390
 3435SOL    HW221768   0.911   4.235   3.497  0.3305 -1.8461 -0.0778
 3436SOL     OW21769   3.623   1.900   4.452  0.1438  0.4225 -0.0512
 3436SOL    HW121770   3.564   1.921   4.380 -1.0251 -0.9969  0.4828
 3436SOL    HW221771   3.561   1.859   4.513 -0.7555  1.5239 -0.2236
 3437SOL     OW21772   0.255   1.236   8.285 -0.6313 -0.1408 -0.2169
 3437SOL    HW121773   0.344   1.262   8.265  0.0012 -1.7311  0.5269
 3437SOL    HW221774   0.214   1.317   8.254  1.2054  0.6274 -0.6363
 3438SOL     OW21775   0.824   2.596   9.682 -0.0592  0.2561  0.0192
 3438SOL    HW121776   0.820   2.502   9.700 -0.6304  0.3940  0.6010
 3438SOL    HW221777   0.835   2.598   9.587  1.7382 -0.1408  0.2263
 3439SOL     OW21778   1.472   2.975   2.527 -0.0815 -0.2008  0.6654
 3439SOL    HW121779   1.428   2.895   2.499 -2.2041  1.5929 -1.1578
 3439SOL    HW221780   1.518   3.000   2.446  0.7759  1.6199  1.7264
 3440SOL     OW21781   2.406   1.833   3.132 -0.3493  0.4099  0.0123
 3440SOL    HW121782   2.320   1.793   3.146  0.0277 -0.0865  0.9404
 3440SOL    HW221783   2.450   1.825   3.217  1.0261 -0.8283 -0.8246
 3441SOL     OW21784   0.629   2.338   5.188 -0.0327  0.4383  0.5330
 3441SOL    HW121785   0.542   2.308   5.215 -0.5885  0.7706 -0.9257
 3441SOL    HW221786   0.607   2.399   5.118 -1.0778 -0.1659  0.3386
 3442SOL     OW21787   0.517   3.116   3.891  0.6411  0.5375  0.2346
 3442SOL    HW121788   0.550   3.033   3.857  4.5909  1.4843  1.7416
 3442SOL    HW221789   0.466   3.157   3.822  0.4177 -1.0873 -0.5644
 3443SOL     OW21790   3.135   0.185   4.476  0.1538  0.0902  0.1072
 3443SOL    HW121791   3.203   0.118   4.484 -0.7758 -0.7540  0.9817
 3443SOL    HW221792   3.062   0.122   4.470  0.5615 -0.3956  0.2313
 3444SOL     OW21793   4.705   2.117   8.095 -0.4360  0.1631 -0.3006
 3444SOL    HW121794   0.040   2.157   8.162 -0.7001 -1.1370  0.6809
 3444SOL    HW221795   4.617   2.153   8.101 -1.6544 -3.0807  1.1668
 3445SOL     OW21796   4.701   4.537  10.420  0.1028  0.3695 -0.3878
 3445SOL    HW121797   0.001   4.452  10.383  0.8586 -0.4543  1.8729
 3445SOL    HW221798   4.610   4.528  10.450  0.3738  1.2157  0.7321
 3446SOL     OW21799   0.772   4.278   3.197 -0.0921 -0.0804  0.2376
 3446SOL    HW121800   0.757   4.373   3.194 -3.3680 -0.6527 -1.3712
 3446SOL    HW221801   0.849   4.274   3.254  1.0892  1.0329 -1.2797
 3447SOL     OW21802   3.128   1.555   1.890 -0.6191  0.1093  0.3384
 3447SOL    HW121803   3.039   1.583   1.912 -0.5569  1.1543 -0.7280
 3447SOL    HW221804   3.184   1.613   1.942  1.5304 -0.5014 -1.3034
 3448SOL     OW21805   1.944   2.387  10.951 -0.6861  0.7678 -0.0556
 3448SOL    HW121806   2.007   2.332  10.904 -0.3118 -0.1161  1.4764
 3448SOL    HW221807   2.005   2.456  10.977  0.2418  0.5778 -1.6970
 3449SOL     OW21808   4.266   4.136   2.972  0.0008 -0.5455  0.1229
 3449SOL    HW121809   4.321   4.111   2.898 -1.4991 -1.8049 -0.5750
 3449SOL    HW221810   4.320   4.093   3.038 -1.0478  0.9974  1.9851
 3450SOL     OW21811   4.350   0.523   8.660  0.0729  0.3221  0.3747
 3450SOL    HW121812   4.396   0.444   8.686 -0.8366  0.8597  3.6122
 3450SOL    HW221813   4.316   0.547   8.746 -1.6352 -1.3036  0.1579
 3451SOL     OW21814   1.540   0.956  13.093  0.3001  1.1393  0.0380
 3451SOL    HW121815   1.572   1.038  13.131 -1.5319  1.1098  1.6528
 3451SOL    HW221816   1.542   0.899  13.170  1.4057  1.3031  0.1331
 3452SOL     OW21817   1.824   0.265   5.001  0.0231 -0.2903 -0.1945
 3452SOL    HW121818   1.912   0.229   5.008  0.3249  0.2100 -1.3793
 3452SOL    HW221819   1.779   0.181   5.001 -1.1849  0.3433  1.0851
 3453SOL     OW21820   2.907   1.255   3.294 -0.3535 -0.3748 -0.0013
 3453SOL    HW121821   2.892   1.322   3.227 -0.3428 -0.3797 -0.0087
 3453SOL    HW221822   2.834   1.198   3.268 -0.8671  2.0454 -3.9851
 3454SOL     OW21823   3.014   0.982  11.364 -0.0627 -0.1169  0.2270
 3454SOL    HW121824   2.924   1.014  11.360  0.0179  0.1612  0.5570
 3454SOL    HW221825   2.998   0.891  11.388  1.7954 -0.9933 -1.8325
 3455SOL     OW21826   0.246   4.506   5.697 -0.2578  0.3115  0.3881
 3455SOL    HW121827   0.313   4.558   5.741 -0.2130  0.4057  0.2071
 3455SOL    HW221828   0.278   4.486   5.609  0.2846 -0.9397  0.8720
 3456SOL     OW21829   2.343   0.828   4.915 -0.3429  0.1648  0.1059
 3456SOL    HW121830   2.314   0.818   5.006  0.0552  0.3305  0.2470
 3456SOL    HW221831   2.287   0.769   4.865 -1.1238 -0.4964  1.7682
 3457SOL     OW21832   1.678   2.666   6.846  0.0206 -0.1101 -0.0365
 3457SOL    HW121833   1.611   2.709   6.793  0.6624  0.5892 -0.2925
 3457SOL    HW221834   1.687   2.580   6.805  1.8018 -0.2257  0.5915
 3458SOL     OW21835   4.158   0.759   1.082 -0.1168 -0.1515 -0.1274
 3458SOL    HW121836   4.140   0.787   1.172 -0.7032 -2.0374  0.3382
 3458SOL    HW221837   4.095   0.688   1.073  1.3083 -1.4348 -0.1468
 3459SOL     OW21838   0.890   2.388   7.804  0.3061 -0.1696 -0.2171
 3459SOL    HW121839   0.809   2.361   7.761 -0.2884 -2.7102  2.5306
 3459SOL    HW221840   0.938   2.308   7.825  0.0937 -0.6476 -1.5262
 3460SOL     OW21841   1.217   0.435  12.870  0.1864  0.4413  0.2670
 3460SOL    HW121842   1.157   0.508  12.852 -0.7098  0.0616  1.6979
 3460SOL    HW221843   1.182   0.405  12.954  1.9527  1.9245  1.5347
 3461SOL     OW21844   1.730   0.996   1.133  0.1607  0.2441  0.2211
 3461SOL    HW121845   1.796   1.063   1.117 -0.0572  0.8340  1.7887
 3461SOL    HW221846   1.663   1.022   1.070  0.0722 -0.9700 -0.1839
 3462SOL     OW21847   3.300   3.208   9.277  0.3808 -0.3252 -0.3467
 3462SOL    HW121848   3.376   3.257   9.244  0.9636 -0.8465  0.2408
 3462SOL    HW221849   3.346   3.129   9.304 -3.4101 -1.9582  1.2546
 3463SOL     OW21850   3.001   0.583   3.998 -0.1106 -0.1170  0.8059
 3463SOL    HW121851   2.992   0.547   3.910 -2.7276  2.3503  0.0793
 3463SOL    HW221852   3.064   0.654   3.988  0.2400 -0.7425 -1.3042
 3464SOL     OW21853   2.215   1.517   3.043  0.3069  0.1623 -0.3077
 3464SOL    HW121854   2.247   1.607   3.051  0.4431 -0.0854  1.8533
 3464SOL    HW221855   2.164   1.510   3.123  2.0395 -0.8415  0.7046
 3465SOL     OW21856   3.302   3.489   6.120 -0.2070 -0.3276 -0.2576
 3465SOL    HW121857   3.284   3.554   6.052 -0.8835  0.2403  0.4539
 3465SOL    HW221858   3.360   3.435   6.066  1.6006  0.7336  0.6328
 3466SOL     OW21859   3.639   3.954   9.878  0.0339 -0.3101 -0.3181
 3466SOL    HW121860   3.684   3.950   9.793  1.1706 -0.8146  0.3087
 3466SOL    HW221861   3.640   4.050   9.881 -1.5401 -0.3744  1.5740
 3467SOL     OW21862   4.186   3.049   8.015 -0.1336 -0.5320  0.0025
 3467SOL    HW121863   4.142   3.090   8.090  0.0202  0.6846 -0.5776
 3467SOL    HW221864   4.265   3.103   8.008  0.4766 -1.4150  0.0605
 3468SOL     OW21865   4.246   1.758   8.674  0.0817  0.2496  0.4736
 3468SOL    HW121866   4.227   1.796   8.588  1.0779  1.4688  0.7821
 3468SOL    HW221867   4.275   1.670   8.652  1.0189  0.6397  0.1191
 3469SOL     OW21868   4.496   1.358   5.252 -0.0832  0.0706  0.5828
 3469SOL    HW121869   4.582   1.322   5.232 -0.2819  0.2771 -0.6414
 3469SOL    HW221870   4.494   1.345   5.347 -1.2413  0.9316  0.6654
 3470SOL     OW21871   1.137   0.959   2.439 -0.2315  0.0754 -0.1066
 3470SOL    HW121872   1.122   1.006   2.357 -0.1304  2.2561  1.1028
 3470SOL    HW221873   1.147   0.870   2.408  3.4480  0.6270 -0.4336
 3471SOL     OW21874   1.581   1.010  11.385 -0.2445 -0.6029 -0.2762
 3471SOL    HW121875   1.488   1.025  11.372 -0.2482 -1.2400 -0.9905
 3471SOL    HW221876   1.583   0.938  11.447 -3.3126  0.3293  0.8679
 3472SOL     OW21877   2.762   4.209   5.378  0.1378  0.9429  0.0025
 3472SOL    HW121878   2.734   4.280   5.435  1.2891  0.0646  1.6583
 3472SOL    HW221879   2.848   4.190   5.417 -0.5319  1.6610  1.8000
 3473SOL     OW21880   3.298   2.107   1.319 -0.3767  0.2434  0.3734
 3473SOL    HW121881   3.284   2.198   1.293  1.4023 -0.1166 -1.8351
 3473SOL    HW221882   3.207   2.099   1.348 -0.1854  2.3633  1.5505
 3474SOL     OW21883   0.982   2.573   1.668 -0.3149  0.1233 -0.4292
 3474SOL    HW121884   0.912   2.517   1.635 -0.8457 -0.2055  1.2510
 3474SOL    HW221885   0.984   2.542   1.759  0.8711  0.9247 -0.1868
 3475SOL     OW21886   2.370   1.669   7.480  0.0386  0.0715 -0.2842
 3475SOL    HW121887   2.321   1.660   7.561 -1.7714  0.5778 -1.3142
 3475SOL    HW221888   2.301   1.681   7.414 -1.6565 -2.7933  0.9830
 3476SOL     OW21889   2.562   3.820   8.535 -0.2283 -0.0885  1.4313
 3476SOL    HW121890   2.589   3.744   8.485  2.0681  2.7232 -1.5950
 3476SOL    HW221891   2.472   3.792   8.554 -0.7938 -0.3891 -1.6772
 3477SOL     OW21892   1.148   0.368  16.862 -0.4310  0.5842 -0.2512
 3477SOL    HW121893   1.160   0.309  16.787 -0.0861  0.0041  0.2588
 3477SOL    HW221894   1.155   0.446  16.807 -1.3357  0.5961 -0.3337
 3478SOL     OW21895   4.053   1.273   3.253  0.5249  0.6485  0.1511
 3478SOL    HW121896   4.030   1.270   3.160  1.3629  0.1748 -0.0384
 3478SOL    HW221897   4.104   1.194   3.267 -3.1919 -1.3988  1.9987
 3479SOL     OW21898   1.042   2.309   9.344 -0.5352 -0.2787  0.1407
 3479SOL    HW121899   1.007   2.270   9.424 -1.5845  1.8207  0.7045
 3479SOL    HW221900   1.010   2.399   9.346 -1.2995 -0.5412 -0.2983
 3480SOL     OW21901   2.460   1.887   8.134 -0.1995  0.1137  0.1546
 3480SOL    HW121902   2.407   1.824   8.183  0.4072 -0.9675 -0.5928
 3480SOL    HW221903   2.513   1.907   8.211  0.6425  0.8586 -0.6235
 3481SOL     OW21904   0.202   4.501  11.216  0.0211 -0.0851  0.2467
 3481SOL    HW121905   0.287   4.472  11.250 -0.7938 -0.7239  1.7946
 3481SOL    HW221906   0.148   4.423  11.231  0.2202 -0.1898  0.4194
 3482SOL     OW21907   3.712   0.660   8.505  0.1793  0.1824 -0.4532
 3482SOL    HW121908   3.730   0.585   8.561 -1.0582 -0.1667 -0.5260
 3482SOL    HW221909   3.620   0.641   8.490  0.7387 -0.1525 -3.3258
 3483SOL     OW21910   1.559   2.821   3.858 -0.2037  0.8114  0.0390
 3483SOL    HW121911   1.639   2.778   3.888  0.5473  3.4766  1.9227
 3483SOL    HW221912   1.578   2.915   3.862  0.3061  0.6874  0.4175
 3484SOL     OW21913   3.855   1.206   4.013 -0.4985 -0.0277  0.6357
 3484SOL    HW121914   3.760   1.196   4.016 -0.2632 -2.3751  0.6460
 3484SOL    HW221915   3.860   1.238   3.923  0.1177  0.8879  0.9931
 3485SOL     OW21916   3.538   0.648   6.907 -0.3236  0.8748 -0.2780
 3485SOL    HW121917   3.612   0.666   6.965  0.5403 -3.7854  0.0721
 3485SOL    HW221918   3.469   0.710   6.930  0.7776  1.2768  1.9827
 3486SOL     OW21919   2.085   3.088   6.809 -0.2092 -0.2775 -0.0197
 3486SOL    HW121920   2.078   3.017   6.873  1.6172 -0.8019 -0.3932
 3486SOL    HW221921   1.996   3.087   6.773  0.4929 -1.1327 -1.7414
 3487SOL     OW21922   2.091   4.412   2.588 -0.1063  0.1499  0.1965
 3487SOL    HW121923   2.133   4.467   2.654  0.4817  0.6679 -0.6029
 3487SOL    HW221924   2.043   4.359   2.651 -2.3830  2.2979  0.2639
 3488SOL     OW21925   2.845   0.884   9.500  0.4755  0.9657  0.3342
 3488SOL    HW121926   2.857   0.850   9.411  2.2559 -0.2610  1.0436
 3488SOL    HW221927   2.777   0.950   9.484  0.9104  1.3552  0.1151
 3489SOL     OW21928   1.137   2.315   8.531  0.4450  0.3372 -0.3607
 3489SOL    HW121929   1.205   2.298   8.465  0.1133  1.2355 -0.9150
 3489SOL    HW221930   1.187   2.372   8.589  2.3298 -0.0028 -1.6392
 3490SOL     OW21931   1.569   3.861   3.086  0.1759 -0.1478 -0.3970
 3490SOL    HW121932   1.544   3.891   3.174 -0.9699 -6.4593  1.4175
 3490SOL    HW221933   1.486   3.873   3.040  0.4131  2.4109 -0.1844
 3491SOL     OW21934   1.103   1.169  15.218  0.0512  0.0351 -0.1085
 3491SOL    HW121935   1.048   1.180  15.296 -1.1913 -0.3669 -0.9305
 3491SOL    HW221936   1.186   1.135  15.251  0.9316  0.9839 -1.3062
 3492SOL     OW21937   2.580   0.786   2.503  0.0379  0.1668  0.2959
 3492SOL    HW121938   2.540   0.775   2.589 -0.3279  0.3840  0.1538
 3492SOL    HW221939   2.667   0.748   2.518 -0.3740 -0.7782  0.2474
 3493SOL     OW21940   3.977   1.547   0.243  0.9140  0.4652  0.4392
 3493SOL    HW121941   3.990   1.461   0.282  1.5720  0.8914  1.1577
 3493SOL    HW221942   3.944   1.526   0.156 -1.7336  3.3880  0.7289
 3494SOL     OW21943   1.396   4.291   4.188 -0.2105 -0.0528 -0.0007
 3494SOL    HW121944   1.466   4.279   4.252  0.3445  3.3157 -0.0088
 3494SOL    HW221945   1.400   4.385   4.170 -0.0540 -0.0643 -0.0270
 3495SOL     OW21946   2.173   1.059  12.944 -0.4801  0.5001 -0.6602
 3495SOL    HW121947   2.248   1.099  12.988 -1.6098  1.9111 -0.0151
 3495SOL    HW221948   2.215   1.054  12.857  1.1519 -0.3366  0.1710
 3496SOL     OW21949   2.196   3.487   2.212 -0.0067  0.0459 -0.1040
 3496SOL    HW121950   2.251   3.409   2.210 -1.1734 -0.8421  3.9529
 3496SOL    HW221951   2.257   3.557   2.237 -0.7682  0.1339  1.4331
 3497SOL     OW21952   3.095   2.961  14.871 -0.5963  0.1684 -1.1463
 3497SOL    HW121953   3.061   2.907  14.942  0.5261 -2.2523 -2.4416
 3497SOL    HW221954   3.135   3.036  14.914  0.1588 -0.2686 -1.0870
 3498SOL     OW21955   2.346   0.594   5.384  0.1372  0.4456  0.4991
 3498SOL    HW121956   2.320   0.512   5.428  1.1087 -1.1281 -1.8705
 3498SOL    HW221957   2.263   0.636   5.405  0.4785  1.3618  0.0099
 3499SOL     OW21958   1.468   2.379  15.108  0.3487 -0.4137 -0.1246
 3499SOL    HW121959   1.554   2.376  15.152  0.1942  2.6923  0.3924
 3499SOL    HW221960   1.483   2.448  15.044  0.4389  0.1902  0.5454
 3500SOL     OW21961   3.824   0.549   5.431  0.0074  0.4125 -0.3374
 3500SOL    HW121962   3.832   0.516   5.520  0.6076  2.8044  0.5020
 3500SOL    HW221963   3.809   0.464   5.390 -0.8049  0.6702 -0.5808
 3501SOL     OW21964   0.268   3.917   2.898 -1.0516 -0.0181  0.5423
 3501SOL    HW121965   0.361   3.896   2.904 -0.7896  1.3733  1.5940
 3501SOL    HW221966   0.229   3.854   2.959 -1.0573 -1.5892 -1.1053
 3502SOL     OW21967   3.052   1.258   2.411  0.0203  0.1270 -0.1130
 3502SOL    HW121968   3.029   1.167   2.395 -2.1540  0.5770  0.4043
 3502SOL    HW221969   2.999   1.300   2.343 -0.7386 -0.4851  0.0992
 3503SOL     OW21970   3.933   4.671   5.557 -0.1391  0.3347 -0.0603
 3503SOL    HW121971   3.920   4.632   5.643  0.2382 -1.1256 -0.6684
 3503SOL    HW221972   3.909   0.044   5.568 -0.5433  0.4594 -2.1282
 3504SOL     OW21973   1.434   1.595   5.314 -0.2437  0.0424 -0.0428
 3504SOL    HW121974   1.421   1.538   5.239 -0.3194 -0.0810  0.0641
 3504SOL    HW221975   1.431   1.683   5.278  1.5196  0.2960  0.3860
 3505SOL     OW21976   2.152   4.045  12.106  0.4921  0.3302  0.6454
 3505SOL    HW121977   2.167   4.103  12.031 -0.0255 -2.0135 -1.2598
 3505SOL    HW221978   2.166   3.960  12.064 -0.3461 -0.6084  2.2401
 3506SOL     OW21979   3.489   1.340   0.881  0.1972 -0.0316  0.2214
 3506SOL    HW121980   3.472   1.254   0.919 -1.7749 -0.6064 -1.9402
 3506SOL    HW221981   3.452   1.391   0.953  0.6188  3.2755 -1.9390
 3507SOL     OW21982   1.551   3.865   4.018  0.2187 -0.1399 -0.1231
 3507SOL    HW121983   1.480   3.887   4.078  0.8364  1.3695  0.0543
 3507SOL    HW221984   1.601   3.945   4.035  0.7469 -0.8376  1.6022
 3508SOL     OW21985   2.379   2.546   5.759  0.1861  0.0702  0.1776
 3508SOL    HW121986   2.427   2.605   5.817  1.2676 -0.7565  0.1440
 3508SOL    HW221987   2.432   2.552   5.679  0.5354 -0.7668  0.3366
 3509SOL     OW21988   0.950   1.470   9.559 -0.3465  0.3057 -0.1306
 3509SOL    HW121989   0.888   1.485   9.630 -0.2265  0.8980 -0.1537
 3509SOL    HW221990   0.943   1.543   9.497  0.5917 -1.6177 -2.5296
 3510SOL     OW21991   2.108   3.877   8.498 -0.4161 -0.5084  0.2037
 3510SOL    HW121992   2.178   3.812   8.502 -1.1761 -1.1551  3.1245
 3510SOL    HW221993   2.038   3.824   8.536  2.4331 -1.7333  3.6893
 3511SOL     OW21994   2.195   3.396   5.262  0.5734  0.2724  0.1561
 3511SOL    HW121995   2.241   3.317   5.290 -1.9213 -1.5329 -0.8347
 3511SOL    HW221996   2.130   3.407   5.331  1.7601  0.4415  1.2503
 3512SOL     OW21997   4.447   0.445   6.914  0.3055 -0.4157 -0.0798
 3512SOL    HW121998   4.423   0.511   6.978 -1.2201 -0.9029 -0.1552
 3512SOL    HW221999   4.430   0.503   6.840  1.1062 -0.6100 -0.4210
 3513SOL     OW22000   2.043   0.972   7.141  0.1875 -0.2908 -0.0548
 3513SOL    HW122001   2.077   1.060   7.124  0.5759 -0.4143  0.0678
 3513SOL    HW222002   1.949   0.988   7.145  0.3469  0.7395 -0.2947
 3514SOL     OW22003   4.649   4.361   9.930  0.5235 -0.4487 -0.3426
 3514SOL    HW122004   4.711   4.315   9.986 -0.1239 -0.3730  0.4509
 3514SOL    HW222005   4.638   4.440   9.984  1.1088 -1.9276  1.9571
 3515SOL     OW22006   0.414   1.172  16.333 -0.0330 -0.5181  0.1554
 3515SOL    HW122007   0.341   1.208  16.284  0.4108 -0.6202 -0.5873
 3515SOL    HW222008   0.461   1.139  16.257 -0.8098  1.4524 -1.1921
 3516SOL     OW22009   1.425   3.862   1.549  0.5090 -0.1010  0.0722
 3516SOL    HW122010   1.423   3.945   1.501  0.2973 -1.0164 -1.5343
 3516SOL    HW222011   1.516   3.831   1.545  0.5241  0.1131 -1.2665
 3517SOL     OW22012   2.698   1.209   8.838 -0.5436 -0.4834  1.0629
 3517SOL    HW122013   2.757   1.138   8.811  0.2137  1.1446 -1.5101
 3517SOL    HW222014   2.750   1.289   8.829  1.1949 -1.7915 -0.4090
 3518SOL     OW22015   2.049   0.482   7.446  0.1801  0.0216 -0.2457
 3518SOL    HW122016   2.125   0.536   7.467  0.6713 -0.4437 -0.8492
 3518SOL    HW222017   2.059   0.467   7.352  0.3009 -2.4772  0.1831
 3519SOL     OW22018   2.206   3.344  11.432  0.3101  0.0007  0.3855
 3519SOL    HW122019   2.228   3.264  11.479  1.2095 -0.3580 -0.6541
 3519SOL    HW222020   2.151   3.319  11.358 -0.1120  2.4415 -0.1488
 3520SOL     OW22021   1.019   1.020   2.832  0.1962  0.6600 -0.4007
 3520SOL    HW122022   0.934   0.975   2.825  1.7011 -2.7891  3.5504
 3520SOL    HW222023   0.999   1.098   2.779 -0.4726  0.9944  0.3415
 3521SOL     OW22024   4.243   0.029  14.175  0.0445  0.2388  0.3973
 3521SOL    HW122025   4.274   4.718  14.090  0.6887  2.7914 -0.2980
 3521SOL    HW222026   4.150   0.050  14.162  0.2508  0.2284 -1.0665
 3522SOL     OW22027   0.394   4.701   8.449  0.5337 -0.5790  0.3154
 3522SOL    HW122028   0.489   4.709   8.459  0.7058 -2.1503 -0.0108
 3522SOL    HW222029   0.392   4.606   8.441 -0.5235 -0.6072  1.0368
 3523SOL     OW22030   0.228   2.509   3.600 -0.1362  0.6917  0.4060
 3523SOL    HW122031   0.220   2.438   3.537 -0.3592  0.9382  0.1554
 3523SOL    HW222032   0.298   2.465   3.649  0.9276 -0.1820 -1.8909
 3524SOL     OW22033   3.646   4.088  13.541 -0.6093  0.1230 -0.1203
 3524SOL    HW122034   3.635   3.992  13.541  1.0937 -0.0535  2.1646
 3524SOL    HW222035   3.603   4.109  13.623 -1.3734  0.2203 -0.5409
 3525SOL     OW22036   2.683   1.976   5.442  0.3565  0.0613 -0.1635
 3525SOL    HW122037   2.661   2.068   5.454  3.0294  0.6112  0.5555
 3525SOL    HW222038   2.613   1.953   5.502  1.8350  0.4591  1.6912
 3526SOL     OW22039   0.577   0.083   1.808 -0.0681 -0.0752 -0.4188
 3526SOL    HW122040   0.590   0.001   1.760  0.6786  0.6400 -1.4543
 3526SOL    HW222041   0.594   0.049   1.895 -1.3565  1.8240  0.5835
 3527SOL     OW22042   1.446   3.919   7.514  0.4997  0.0281  0.2105
 3527SOL    HW122043   1.357   3.899   7.541  0.3293  1.8510  0.9794
 3527SOL    HW222044   1.456   3.871   7.431 -1.5534  0.6604 -0.4085
 3528SOL     OW22045   2.285   2.641   3.306  0.0660  0.0565 -0.3915
 3528SOL    HW122046   2.232   2.700   3.360  0.4376 -0.4452  0.5282
 3528SOL    HW222047   2.214   2.613   3.248  0.6639  1.9376 -2.0181
 3529SOL     OW22048   1.832   1.144   5.809  0.1977  0.3834  0.0408
 3529SOL    HW122049   1.910   1.114   5.762  2.5054  0.1159  3.9625
 3529SOL    HW222050   1.863   1.134   5.899  0.0637  1.4956  0.2091
 3530SOL     OW22051   4.157   2.258   9.020 -0.0720  0.3707 -0.0892
 3530SOL    HW122052   4.230   2.198   9.031 -1.6384 -1.3346  1.1332
 3530SOL    HW222053   4.156   2.279   8.927 -3.4493  1.5016  0.1774
 3531SOL     OW22054   0.363   2.860   7.775 -0.0712 -0.6612  0.2697
 3531SOL    HW122055   0.443   2.866   7.828 -0.4254 -0.0163  0.7385
 3531SOL    HW222056   0.385   2.923   7.707  1.1594 -0.8060  0.5406
 3532SOL     OW22057   2.956   3.795   5.129 -0.1265  0.0074 -0.2897
 3532SOL    HW122058   2.919   3.881   5.108 -2.4958 -1.1657 -0.9305
 3532SOL    HW222059   2.880   3.749   5.094 -0.4275 -0.5770  1.1259
 3533SOL     OW22060   4.069   0.121   5.826  0.0193 -0.0797  0.6636
 3533SOL    HW122061   4.026   0.163   5.901 -1.6833  1.2937 -1.0820
 3533SOL    HW222062   4.159   0.118   5.858  0.7778  1.5300 -1.3418
 3534SOL     OW22063   0.298   1.669   9.244 -0.3487  0.4531 -0.4466
 3534SOL    HW122064   0.373   1.725   9.261 -0.2122 -0.0462  0.5606
 3534SOL    HW222065   0.271   1.696   9.156 -2.0824  0.0506 -0.0371
 3535SOL     OW22066   0.654   0.051   6.670 -0.3543  0.3843 -0.4428
 3535SOL    HW122067   0.637   0.109   6.744 -1.8321 -0.8392  0.1646
 3535SOL    HW222068   0.622   0.106   6.599 -0.4752  0.0107 -0.6767
 3536SOL     OW22069   0.999   2.340   8.163  0.2308 -0.8972 -0.9104
 3536SOL    HW122070   1.075   2.301   8.120  3.4484  1.7041  2.4459
 3536SOL    HW222071   1.024   2.433   8.161 -0.3218 -0.7656 -1.6671
 3537SOL     OW22072   0.904   2.686   7.924  0.0068 -0.6480  0.0593
 3537SOL    HW122073   0.828   2.628   7.918 -0.8397  0.3944  0.6226
 3537SOL    HW222074   0.913   2.716   7.834  0.1003  0.7586  0.5309
 3538SOL     OW22075   3.612   4.081  14.182 -0.7447  0.2677 -0.1657
 3538SOL    HW122076   3.569   4.006  14.223  1.7022 -0.1882  1.5343
 3538SOL    HW222077   3.551   4.082  14.108  0.5291 -0.8119 -1.2361
 3539SOL     OW22078   1.878   3.290   3.622 -0.1868 -0.2472  0.3757
 3539SOL    HW122079   1.897   3.383   3.615  1.6871 -0.5537  1.4287
 3539SOL    HW222080   1.783   3.299   3.621 -0.1267  0.3320 -0.3765
 3540SOL     OW22081   0.055   4.346   3.740  0.8987 -0.1539  0.2283
 3540SOL    HW122082   0.113   4.413   3.703 -0.4242  0.2912 -1.0085
 3540SOL    HW222083   0.022   4.305   3.660 -0.5728 -0.6468  1.1050
 3541SOL     OW22084   1.625   0.865  12.009 -0.1183  0.0118  0.2281
 3541SOL    HW122085   1.685   0.858  12.084  0.3103 -2.9495 -0.3922
 3541SOL    HW222086   1.646   0.952  11.975  0.2044  0.2856  1.1074
 3542SOL     OW22087   1.619   1.201   8.440  0.6186  0.3258 -0.1933
 3542SOL    HW122088   1.623   1.295   8.460 -0.6056  0.2501  0.4656
 3542SOL    HW222089   1.667   1.194   8.358 -0.0822 -0.2811 -0.5512
 3543SOL     OW22090   2.537   3.424   4.200 -0.0979  0.0549  0.3379
 3543SOL    HW122091   2.607   3.363   4.224  0.0271 -0.2159 -0.7231
 3543SOL    HW222092   2.493   3.373   4.132 -1.2005  0.3945  0.7895
 3544SOL     OW22093   3.777   0.811   2.684 -0.4890 -0.0612 -0.1703
 3544SOL    HW122094   3.693   0.813   2.729 -1.1765 -0.1472 -1.4782
 3544SOL    HW222095   3.740   0.781   2.601 -2.3689 -1.4707  1.1870
 3545SOL     OW22096   1.038   2.839   1.717  0.2122  0.4820  0.4953
 3545SOL    HW122097   1.038   2.744   1.701  1.4829  0.5412  0.1217
 3545SOL    HW222098   1.046   2.878   1.629 -2.0793 -1.5008 -0.6147
 3546SOL     OW22099   1.639   4.620   2.292  0.1936 -0.1979  0.3386
 3546SOL    HW122100   1.733   4.638   2.296 -0.0281  1.0000  0.1699
 3546SOL    HW222101   1.620   4.640   2.200 -1.6211 -0.7986  0.5852
 3547SOL     OW22102   1.504   4.427   3.781  0.1845 -0.0619 -0.0402
 3547SOL    HW122103   1.569   4.437   3.850 -1.0769 -2.6752  1.5691
 3547SOL    HW222104   1.430   4.387   3.827 -0.2142  0.7464  0.0263
 3548SOL     OW22105   3.039   2.628   1.109 -0.3389 -0.3581 -0.4748
 3548SOL    HW122106   3.027   2.624   1.014 -0.5780  1.7753 -0.5238
 3548SOL    HW222107   2.995   2.547   1.134 -0.4899  0.4858  1.9770
 3549SOL     OW22108   0.631   4.590   4.213  0.0360 -0.2419  0.6986
 3549SOL    HW122109   0.656   4.535   4.140 -1.8804  0.3221 -0.3892
 3549SOL    HW222110   0.691   4.662   4.196 -1.7731  1.0623 -0.2383
 3550SOL     OW22111   4.313   3.029   0.797 -0.4666 -0.4167  0.4249
 3550SOL    HW122112   4.312   3.123   0.776  1.6477 -0.4652  0.0825
 3550SOL    HW222113   4.250   3.030   0.869 -1.6968 -0.8680 -0.6453
 3551SOL     OW22114   3.399   1.858   5.172  0.0290  0.2296 -0.3837
 3551SOL    HW122115   3.315   1.859   5.218  0.4061 -2.1925  0.3476
 3551SOL    HW222116   3.451   1.921   5.222 -1.1984 -0.2950  1.5614
 3552SOL     OW22117   3.380   1.713   3.409 -0.7346 -0.1703  0.1123
 3552SOL    HW122118   3.439   1.712   3.333  0.9925 -0.4456  1.4610
 3552SOL    HW222119   3.297   1.747   3.376 -0.2912 -0.8392 -1.7029
 3553SOL     OW22120   2.007   0.497   8.978  1.1474 -0.1319 -0.3425
 3553SOL    HW122121   2.062   0.559   8.931 -1.0822  0.5040 -2.1559
 3553SOL    HW222122   1.976   0.443   8.906  0.4741  1.8254 -1.5194
 3554SOL     OW22123   3.331   2.089   3.569  0.1916 -0.2909  0.0082
 3554SOL    HW122124   3.278   2.161   3.534 -0.0209  0.1012  1.1371
 3554SOL    HW222125   3.334   2.125   3.657  1.8465  1.0554 -0.5979
 3555SOL     OW22126   1.243   2.022  12.444  0.2760 -0.1842 -0.0564
 3555SOL    HW122127   1.254   1.980  12.359  0.4148  1.7061 -0.9662
 3555SOL    HW222128   1.330   2.056  12.465  0.3939 -0.0282 -0.8026
 3556SOL     OW22129   4.483   2.093   2.034 -0.2445 -0.2372  0.0953
 3556SOL    HW122130   4.400   2.104   2.080 -1.2469 -0.2037 -1.7613
 3556SOL    HW222131   4.549   2.119   2.099  0.7130 -2.7394  0.1372
 3557SOL     OW22132   0.321   1.545   3.712 -0.1774  0.7014 -0.2491
 3557SOL    HW122133   0.348   1.523   3.801 -0.1371 -0.5319 -0.5742
 3557SOL    HW222134   0.403   1.567   3.669  0.5321  0.5550  1.0288
 3558SOL     OW22135   4.097   3.475   3.924 -0.2843 -0.4873  0.5337
 3558SOL    HW122136   4.155   3.551   3.921 -1.9593  0.9030  3.3169
 3558SOL    HW222137   4.112   3.443   4.013 -0.8784 -0.2968  0.6984
 3559SOL     OW22138   2.559   2.284   5.826  0.6607  0.3746 -0.0830
 3559SOL    HW122139   2.539   2.327   5.909 -0.8350  1.5865 -1.0790
 3559SOL    HW222140   2.505   2.206   5.828 -0.6245  1.2067 -2.4962
 3560SOL     OW22141   4.440   1.749   7.053 -0.0580  0.2741  0.0570
 3560SOL    HW122142   4.418   1.836   7.085 -1.7565 -0.0160 -0.3548
 3560SOL    HW222143   4.365   1.715   7.004 -1.9130  2.3501  1.4788
 3561SOL     OW22144   0.182   1.880  10.162  0.6220 -0.1504 -0.2349
 3561SOL    HW122145   0.208   1.860  10.072  0.0267 -1.9891  0.0065
 3561SOL    HW222146   0.233   1.823  10.220  0.5690 -0.2138 -0.2506
 3562SOL     OW22147   1.960   2.808   7.504  0.7290  0.4126  0.6395
 3562SOL    HW122148   2.047   2.846   7.512  1.1842 -0.2429 -1.1980
 3562SOL    HW222149   1.981   2.716   7.486  1.1355  0.8028 -0.8779
 3563SOL     OW22150   2.482   4.029   4.296 -0.0612  0.5877  0.4809
 3563SOL    HW122151   2.558   4.069   4.338  1.0694 -0.4690 -0.5288
 3563SOL    HW222152   2.444   3.972   4.363  0.1856  1.3017  1.2265
 3564SOL     OW22153   2.928   0.372   7.052  0.0521 -0.2921  0.6264
 3564SOL    HW122154   2.865   0.445   7.053 -0.0147 -0.3279 -0.8496
 3564SOL    HW222155   2.912   0.330   6.968  1.7391 -0.9859  0.6557
 3565SOL     OW22156   0.272   0.703  17.067 -0.9908  0.0190  0.0938
 3565SOL    HW122157   0.321   0.621  17.069  0.1845  0.7255  0.4288
 3565SOL    HW222158   0.223   0.706  16.985  1.9158 -0.9714 -1.6792
 3566SOL     OW22159   0.704   3.207   9.880 -0.0834 -0.8128  0.5797
 3566SOL    HW122160   0.627   3.168   9.840  0.8252 -0.7655 -1.1955
 3566SOL    HW222161   0.675   3.298   9.891 -0.7384 -0.8061 -1.2245
 3567SOL     OW22162   4.485   1.213   6.839  0.4682  0.5655 -0.3048
 3567SOL    HW122163   4.564   1.212   6.893  0.7507 -0.7104 -0.7464
 3567SOL    HW222164   4.516   1.185   6.753  1.2221  0.1807  0.0895
 3568SOL     OW22165   0.802   3.537   3.469  0.7377  0.0989 -0.0841
 3568SOL    HW122166   0.855   3.461   3.493  1.5997  1.4271  2.2527
 3568SOL    HW222167   0.873   3.589   3.430 -0.8545  0.4993 -2.4379
 3569SOL     OW22168   4.300   2.498   9.491 -0.0538  0.2767  0.1646
 3569SOL    HW122169   4.349   2.569   9.532  0.7215  0.3183 -0.8375
 3569SOL    HW222170   4.313   2.438   9.564  0.3054  0.6452  0.4017
 3570SOL     OW22171   3.627   0.589  16.274  0.2124  0.2914  0.3560
 3570SOL    HW122172   3.667   0.614  16.357  1.1538 -0.2809  0.0683
 3570SOL    HW222173   3.551   0.647  16.269 -0.7736 -0.8952  1.5826
 3571SOL     OW22174   0.683   2.096   1.400 -0.5785  0.2716  0.0026
 3571SOL    HW122175   0.605   2.045   1.377  0.2366  0.0374 -2.2412
 3571SOL    HW222176   0.732   2.034   1.455  0.0261 -1.5473 -2.5854
 3572SOL     OW22177   4.590   0.354   3.041 -0.2850  0.3857  0.2470
 3572SOL    HW122178   4.537   0.404   3.103  0.5126  0.5043  0.8477
 3572SOL    HW222179   4.532   0.312   2.978 -0.0475  1.8370 -0.9414
 3573SOL     OW22180   3.987   0.133   5.213 -0.1451 -0.5459 -0.1517
 3573SOL    HW122181   3.907   0.086   5.187 -1.4157  0.1904  2.3618
 3573SOL    HW222182   3.952   0.218   5.242 -1.6577 -0.3604 -2.5188
 3574SOL     OW22183   2.175   3.249   5.629  0.3567 -0.2831 -0.2576
 3574SOL    HW122184   2.269   3.236   5.614  0.8144  1.9460  0.7068
 3574SOL    HW222185   2.171   3.329   5.682  0.1729  1.1958 -2.4968
 3575SOL     OW22186   2.441   0.143   8.746 -0.2773 -0.0993  0.2454
 3575SOL    HW122187   2.531   0.146   8.715 -0.6425  1.4479 -0.6690
 3575SOL    HW222188   2.422   0.051   8.729 -3.5370  0.7161 -0.6970
 3576SOL     OW22189   4.432   3.829   4.137  0.9551 -0.0276 -0.2232
 3576SOL    HW122190   4.524   3.838   4.163  1.4283  1.0089 -2.2619
 3576SOL    HW222191   4.398   3.919   4.145 -0.5443 -0.8496  2.5961
 3577SOL     OW22192   1.270   1.273   4.157 -0.3193 -0.3607  0.3360
 3577SOL    HW122193   1.254   1.296   4.249 -1.6589  0.7881 -0.1795
 3577SOL    HW222194   1.358   1.239   4.167 -0.8659 -2.3493 -1.5657
 3578SOL     OW22195   1.235   4.065   7.366  0.5465  0.2478 -0.5708
 3578SOL    HW122196   1.318   4.020   7.350  0.9350  0.4455  0.8552
 3578SOL    HW222197   1.258   4.147   7.409 -2.1779  0.5615  0.2911
 3579SOL     OW22198   2.887   1.313   7.011  0.0053  0.1379 -0.0677
 3579SOL    HW122199   2.812   1.319   6.952 -0.9047 -0.5621  1.0375
 3579SOL    HW222200   2.896   1.404   7.037 -2.8459  0.3367  0.1864
 3580SOL     OW22201   2.441   0.857   4.657  0.9023  0.6373 -0.3743
 3580SOL    HW122202   2.424   0.868   4.750 -2.1229  0.8246 -0.9738
 3580SOL    HW222203   2.504   0.929   4.650  0.0528  1.2391 -1.8647
 3581SOL     OW22204   0.529   2.201  17.548 -0.0348  0.0458  0.0830
 3581SOL    HW122205   0.568   2.275  17.594  1.3989  0.0956 -1.2124
 3581SOL    HW222206   0.534   2.133  17.615  0.0939  0.3233  0.3532
 3582SOL     OW22207   0.075   0.042   8.290  0.2194  0.1008  0.3258
 3582SOL    HW122208   0.116   0.076   8.369  2.8690 -2.4725  0.0584
 3582SOL    HW222209   0.081   4.670   8.316 -0.0584  0.2329  0.8613
 3583SOL     OW22210   0.969   3.686   2.184  0.1202 -0.4798  0.1588
 3583SOL    HW122211   0.888   3.722   2.149  1.0449 -1.9486 -3.4799
 3583SOL    HW222212   1.029   3.761   2.191  0.0788 -0.1757 -2.4596
 3584SOL     OW22213   0.774   2.920  15.268  0.2449 -0.2918 -0.2118
 3584SOL    HW122214   0.731   2.909  15.352  1.2932  2.9729  0.7538
 3584SOL    HW222215   0.775   2.833  15.228  1.2408  0.2418 -1.3732
 3585SOL     OW22216   1.308   3.590   4.661 -1.1777 -0.4697  0.1156
 3585SOL    HW122217   1.275   3.603   4.750  0.6797  0.9722  0.5856
 3585SOL    HW222218   1.296   3.678   4.626 -0.5975 -0.3981  0.0933
 3586SOL     OW22219   1.630   4.664   9.941 -0.0290 -0.0841 -0.5105
 3586SOL    HW122220   1.568   0.017   9.937 -0.3191 -0.3865 -1.5934
 3586SOL    HW222221   1.675   4.669   9.856 -0.6966  1.4155 -0.7598
 3587SOL     OW22222   1.450   3.335  16.996  0.0951 -0.0158 -0.0447
 3587SOL    HW122223   1.519   3.387  16.954 -0.5975  1.8258  1.0760
 3587SOL    HW222224   1.373   3.385  16.970  0.1360 -0.8705 -1.8061
 3588SOL     OW22225   1.161   0.077   7.585  0.2693 -0.3268  0.3254
 3588SOL    HW122226   1.080   0.123   7.604  0.7193 -0.5529  2.8196
 3588SOL    HW222227   1.139   4.705   7.602 -1.6086 -0.2430 -1.6646
 3589SOL     OW22228   1.196   3.164   2.915  0.5679 -0.2740  0.0501
 3589SOL    HW122229   1.244   3.094   2.959  0.5740 -0.4396 -0.2215
 3589SOL    HW222230   1.175   3.125   2.830  0.7135 -1.6865  0.6602
 3590SOL     OW22231   4.407   2.320   5.122  0.1722  0.0676 -0.8507
 3590SOL    HW122232   4.478   2.345   5.062  0.0802  0.5069 -0.7804
 3590SOL    HW222233   4.451   2.330   5.206 -0.5047  1.9711 -0.7301
 3591SOL     OW22234   0.282   2.734   7.386 -0.0686  1.1119  0.2156
 3591SOL    HW122235   0.304   2.817   7.429  1.6560 -0.5232  2.4306
 3591SOL    HW222236   0.232   2.698   7.458  0.3110 -1.4441 -0.8162
 3592SOL     OW22237   4.438   4.228   4.644  0.0044 -0.3625  0.0470
 3592SOL    HW122238   4.525   4.228   4.606  0.4510 -0.4867  1.0786
 3592SOL    HW222239   4.412   4.138   4.621 -0.9818  0.5506 -2.3109
 3593SOL     OW22240   3.034   3.050   7.459 -0.7389 -0.1763  0.6767
 3593SOL    HW122241   3.021   3.075   7.551  0.8215 -1.7651  1.3254
 3593SOL    HW222242   3.072   3.134   7.436  1.3670 -0.9410  1.4009
 3594SOL     OW22243   4.364   1.829  12.281 -0.3202  0.0831 -0.7605
 3594SOL    HW122244   4.421   1.905  12.270 -0.5722  0.1194 -1.7957
 3594SOL    HW222245   4.275   1.865  12.286 -0.3610 -0.2521  0.8966
 3595SOL     OW22246   3.159   3.305  16.425 -0.2970  0.2533 -0.0227
 3595SOL    HW122247   3.074   3.267  16.445 -1.1430  1.4966 -1.2637
 3595SOL    HW222248   3.165   3.269  16.337  0.9609  3.1018 -1.1189
 3596SOL     OW22249   2.097   4.197  17.295  0.0480  0.0117  0.1677
 3596SOL    HW122250   2.015   4.191  17.246 -0.2721  2.8036  0.3708
 3596SOL    HW222251   2.153   4.224  17.222 -0.6086  0.2740 -0.2419
 3597SOL     OW22252   3.477   2.523  17.340  0.0763 -0.3364  0.6031
 3597SOL    HW122253   3.555   2.469  17.351  1.1701  1.2015  0.5179
 3597SOL    HW222254   3.413   2.469  17.293 -0.6919  2.9900 -2.2400
 3598SOL     OW22255   4.470   1.945   0.956 -0.1937 -0.4187  0.1197
 3598SOL    HW122256   4.446   2.037   0.944  1.3036 -0.4139 -2.9738
 3598SOL    HW222257   4.405   1.908   1.015 -0.3490 -1.5985 -0.7907
 3599SOL     OW22258   2.092   0.838  13.411  0.2666 -0.3929 -0.3097
 3599SOL    HW122259   2.009   0.837  13.459  0.1135  0.0949 -0.5637
 3599SOL    HW222260   2.052   0.883  13.337 -0.2389  0.7380  0.6560
 3600SOL     OW22261   3.036   0.030   7.018  0.2718 -0.6288 -0.4578
 3600SOL    HW122262   2.959   4.693   7.015  0.7910 -1.2841 -1.6379
 3600SOL    HW222263   3.107   4.690   7.042 -0.1734 -0.4394  1.3005
 3601SOL     OW22264   0.858   0.462  12.146  0.2082 -0.2905  0.1439
 3601SOL    HW122265   0.784   0.451  12.086  0.3096 -0.0037 -0.0360
 3601SOL    HW222266   0.813   0.462  12.230 -1.7668  1.1704 -0.9083
 3602SOL     OW22267   1.507   4.593  10.196 -0.5403  0.0732 -0.0503
 3602SOL    HW122268   1.551   4.613  10.114 -0.0462 -3.2664 -0.5871
 3602SOL    HW222269   1.452   4.671  10.193 -0.1992  0.3047 -0.1650
 3603SOL     OW22270   1.783   0.428  14.542  0.5648  0.2134 -0.4257
 3603SOL    HW122271   1.771   0.520  14.564 -0.8523  0.3009 -1.5856
 3603SOL    HW222272   1.863   0.412  14.592 -0.4739  0.8812  1.4491
 3604SOL     OW22273   0.390   0.886   7.410 -0.3075  0.0408 -0.2259
 3604SOL    HW122274   0.315   0.943   7.430 -2.9623 -3.5346  0.0237
 3604SOL    HW222275   0.407   0.842   7.493  0.6144 -2.2718 -1.6392
 3605SOL     OW22276   2.919   2.958   7.908 -0.0116 -0.0631  0.3192
 3605SOL    HW122277   2.981   3.028   7.929  0.9991 -0.3168 -1.8400
 3605SOL    HW222278   2.876   2.983   7.827 -0.5762  0.5568  0.8125
 3606SOL     OW22279   1.109   3.282   0.949 -0.1956 -0.0961  0.1242
 3606SOL    HW122280   1.059   3.290   1.030  0.5999  0.4297  0.5558
 3606SOL    HW222281   1.071   3.354   0.897  0.5415 -1.3358 -2.1212
 3607SOL     OW22282   2.708   2.056  12.297 -0.2017  0.1820 -0.2508
 3607SOL    HW122283   2.678   2.042  12.386 -1.8015 -1.1734 -1.0059
 3607SOL    HW222284   2.793   2.094  12.320  1.0646 -4.1718  2.1170
 3608SOL     OW22285   3.224   0.368   7.369  0.0569 -0.3430 -0.5015
 3608SOL    HW122286   3.180   0.284   7.378 -1.4850  0.5470  0.3808
 3608SOL    HW222287   3.275   0.341   7.292  0.5490 -1.1963  0.1239
 3609SOL     OW22288   3.504   4.439   5.302 -0.0641  0.6111  0.2426
 3609SOL    HW122289   3.434   4.494   5.338 -0.8162  0.7867 -1.4724
 3609SOL    HW222290   3.579   4.495   5.319  0.9020 -0.0150 -2.0167
 3610SOL     OW22291   4.636   3.716   6.871 -0.1532  0.4389  0.0440
 3610SOL    HW122292   4.703   3.682   6.812 -0.7425 -0.7426  0.0509
 3610SOL    HW222293   4.563   3.660   6.845 -0.5451  0.2610  1.5362
 3611SOL     OW22294   3.467   2.275   7.533  0.2504 -0.5940 -0.0558
 3611SOL    HW122295   3.427   2.299   7.450 -0.1885 -0.2072  0.2664
 3611SOL    HW222296   3.441   2.348   7.589  2.4563 -0.6321  1.0356
 3612SOL     OW22297   0.334   1.170   0.830  0.3740 -0.1081  1.2220
 3612SOL    HW122298   0.312   1.252   0.785  0.4048  0.8048  2.8811
 3612SOL    HW222299   0.326   1.111   0.755  2.3231  0.5295  0.5044
 3613SOL     OW22300   2.730   1.515  12.929 -0.2577  0.0471  0.1134
 3613SOL    HW122301   2.811   1.497  12.881  0.2829  2.3428  0.1422
 3613SOL    HW222302   2.660   1.486  12.870 -0.6056 -0.4126  0.7541
 3614SOL     OW22303   1.292   3.547   0.109 -0.1561 -0.5833  0.8222
 3614SOL    HW122304   1.339   3.471   0.075 -0.8287 -0.8518  0.5022
 3614SOL    HW222305   1.221   3.509   0.161 -0.6586 -1.7124 -0.7187
 3615SOL     OW22306   3.358   3.589   5.581 -0.1307 -0.4813 -0.6090
 3615SOL    HW122307   3.415   3.532   5.531  1.3055  2.7521 -2.6590
 3615SOL    HW222308   3.401   3.674   5.570 -0.2723 -0.7609 -3.1892
 3616SOL     OW22309   0.871   4.085   8.369  0.3801 -0.1349 -0.3256
 3616SOL    HW122310   0.790   4.080   8.420  0.8291 -0.1579  0.3886
 3616SOL    HW222311   0.893   4.171   8.405  0.4240  0.3878 -1.5849
 3617SOL     OW22312   0.514   4.056   9.000  0.2189 -0.2059 -0.3976
 3617SOL    HW122313   0.508   3.966   8.968  0.4970 -0.9414  1.5896
 3617SOL    HW222314   0.435   4.100   8.970 -0.5390 -0.5594  1.0586
 3618SOL     OW22315   3.820   1.538   8.133  0.4659  0.3858  0.7519
 3618SOL    HW122316   3.767   1.539   8.053  2.3340  1.2739 -0.4746
 3618SOL    HW222317   3.861   1.452   8.126 -0.6089 -0.0738  0.1470
 3619SOL     OW22318   3.472   3.438   9.252 -0.1607  0.1946 -0.4219
 3619SOL    HW122319   3.558   3.400   9.234 -0.0029  0.8819 -1.1233
 3619SOL    HW222320   3.440   3.458   9.164  0.8334 -2.3918 -1.3537
 3620SOL     OW22321   2.406   0.172   5.364 -0.2885 -0.3369  0.3336
 3620SOL    HW122322   2.472   0.198   5.300 -0.8591 -1.2467 -0.6204
 3620SOL    HW222323   2.456   0.091   5.377 -0.9187 -0.8344 -0.3622
 3621SOL     OW22324   2.089   0.274  15.826  0.3286  0.3008  0.0958
 3621SOL    HW122325   2.085   0.308  15.915  2.3858  1.8433 -0.4143
 3621SOL    HW222326   2.184   0.262  15.823  0.4152  0.6791  1.5953
 3622SOL     OW22327   1.949   3.924   7.606 -0.1542  0.1438  0.5170
 3622SOL    HW122328   1.942   3.955   7.696  1.4036  2.2312 -0.0938
 3622SOL    HW222329   1.902   3.977   7.542 -0.9134 -0.8400  0.2501
 3623SOL     OW22330   4.219   3.874  12.844  0.0556  0.0349  0.2237
 3623SOL    HW122331   4.314   3.863  12.850  0.0526  1.0700  2.3765
 3623SOL    HW222332   4.217   3.969  12.835 -0.5585  0.0711  0.7625
 3624SOL     OW22333   3.234   2.142   3.206  0.1357  0.6764  0.1582
 3624SOL    HW122334   3.317   2.116   3.246 -0.5796 -0.5609  0.8605
 3624SOL    HW222335   3.246   2.237   3.206 -1.3664  0.8739  0.9220
 3625SOL     OW22336   4.334   1.103   7.699 -0.2464 -0.0098  0.1522
 3625SOL    HW122337   4.283   1.182   7.714  0.2547 -0.0938  2.3380
 3625SOL    HW222338   4.277   1.043   7.748  0.8634 -1.1586  0.0366
 3626SOL     OW22339   1.142   1.530   1.991  0.2036 -0.4316  0.1681
 3626SOL    HW122340   1.185   1.519   2.077 -0.4912 -1.2275  0.4052
 3626SOL    HW222341   1.164   1.622   1.972 -0.0006 -0.3773  0.2006
 3627SOL     OW22342   3.373   4.371  10.094 -0.6012  0.5687  0.0042
 3627SOL    HW122343   3.387   4.319  10.015 -1.2333  2.3589 -1.2809
 3627SOL    HW222344   3.461   4.407  10.103 -0.6266  0.5383  0.3594
 3628SOL     OW22345   1.461   3.240   6.532 -0.0803 -0.0463 -0.2522
 3628SOL    HW122346   1.476   3.277   6.619 -1.1872 -0.0420 -0.0565
 3628SOL    HW222347   1.392   3.291   6.490 -1.5871 -0.3110  1.8430
 3629SOL     OW22348   0.884   1.543   7.716 -0.7131 -0.4031  0.2850
 3629SOL    HW122349   0.943   1.608   7.678  0.0856  0.8565  3.6794
 3629SOL    HW222350   0.949   1.474   7.728  0.6032  1.2696  2.5690
 3630SOL     OW22351   4.341   0.173   6.182  0.4467 -0.0938  0.1543
 3630SOL    HW122352   4.426   0.197   6.218 -0.3419  1.3306  1.0782
 3630SOL    HW222353   4.370   0.093   6.139 -0.4063 -0.4974  0.3186
 3631SOL     OW22354   0.620   0.847   9.508  0.0756  0.8028 -0.0949
 3631SOL    HW122355   0.606   0.760   9.546 -0.6450  0.2565 -1.6079
 3631SOL    HW222356   0.614   0.900   9.587 -1.4404 -0.5966  0.7297
 3632SOL     OW22357   2.108   4.408  12.546  0.5143  0.7634  0.5148
 3632SOL    HW122358   2.050   4.341  12.581 -0.1456  0.0300 -2.0306
 3632SOL    HW222359   2.152   4.357  12.479 -1.3418 -0.9418  0.6058
 3633SOL     OW22360   1.635   2.828   5.956  0.0555 -0.3227 -0.1363
 3633SOL    HW122361   1.681   2.754   5.917  1.6685  1.4200 -1.5139
 3633SOL    HW222362   1.588   2.867   5.882  1.0073  1.6373  0.2944
 3634SOL     OW22363   4.710   2.595   3.014 -0.3400  0.6933  0.6152
 3634SOL    HW122364   4.681   2.512   3.052  0.4887  1.7827  3.6195
 3634SOL    HW222365   0.080   2.588   3.048 -0.5551  1.6831  1.3731
 3635SOL     OW22366   3.095   4.419   3.664  0.0302 -0.3753  0.3144
 3635SOL    HW122367   3.049   4.415   3.580  0.6729  1.3445 -0.1140
 3635SOL    HW222368   3.109   4.326   3.680  1.4707 -0.3160 -0.6269
 3636SOL     OW22369   3.104   3.975  12.420  0.2930  0.3288 -0.3180
 3636SOL    HW122370   3.012   4.001  12.427  0.2455  0.5251 -1.6131
 3636SOL    HW222371   3.132   3.985  12.510 -2.5874 -2.5261  0.8741
 3637SOL     OW22372   2.842   1.467  14.637 -0.2627  0.0463  0.8182
 3637SOL    HW122373   2.767   1.507  14.682  0.5984  0.9856  1.4168
 3637SOL    HW222374   2.916   1.506  14.683  0.3470 -0.0189 -0.1031
 3638SOL     OW22375   4.040   0.536  10.567  0.6248  0.2434  0.3742
 3638SOL    HW122376   4.056   0.469  10.633 -1.6498  0.8972  1.5859
 3638SOL    HW222377   3.958   0.576  10.595 -0.1088  1.2457 -3.2082
 3639SOL     OW22378   0.412   3.559  14.877  0.0399  0.2369 -0.6666
 3639SOL    HW122379   0.476   3.609  14.825 -0.8017  2.7540  0.7058
 3639SOL    HW222380   0.469   3.504  14.931 -0.1826  0.7742  0.1123
 3640SOL     OW22381   0.705   0.315   2.117  0.4887 -0.0757  0.1613
 3640SOL    HW122382   0.623   0.335   2.071  0.0911  1.8024  1.6779
 3640SOL    HW222383   0.701   0.373   2.193  0.0951  1.1720 -0.8096
 3641SOL     OW22384   0.249   0.520   9.402  0.0614  0.3166  0.4261
 3641SOL    HW122385   0.321   0.573   9.366 -1.5108  1.0560 -1.6254
 3641SOL    HW222386   0.294   0.436   9.393  0.7466  0.7680 -0.3772
 3642SOL     OW22387   1.411   2.275   9.574  0.6157  0.8411  0.4563
 3642SOL    HW122388   1.382   2.364   9.596  0.3439  0.4538  1.6614
 3642SOL    HW222389   1.505   2.286   9.586  0.5083  0.9819  1.2132
 3643SOL     OW22390   3.065   2.235   7.328  0.5644 -0.2383 -0.4100
 3643SOL    HW122391   2.972   2.260   7.327  0.2452 -1.3051  3.5960
 3643SOL    HW222392   3.084   2.210   7.418 -3.1106  0.1627  0.4937
 3644SOL     OW22393   4.341   0.478   5.538 -0.5916  0.1756 -0.0795
 3644SOL    HW122394   4.264   0.456   5.485 -0.2735  0.0681 -0.5021
 3644SOL    HW222395   4.321   0.567   5.568 -0.1009  0.0659  0.5624
 3645SOL     OW22396   3.517   0.830   2.771 -0.2120  0.2795 -0.0366
 3645SOL    HW122397   3.438   0.777   2.782  0.0672  0.3017  2.0821
 3645SOL    HW222398   3.548   0.858   2.857  1.3603 -1.6200  0.0332
 3646SOL     OW22399   2.869   3.722   5.628 -0.0731 -0.1845  0.4491
 3646SOL    HW122400   2.870   3.631   5.597  1.2720 -0.2947  0.8321
 3646SOL    HW222401   2.904   3.762   5.549  1.6368 -0.6489  0.9605
 3647SOL     OW22402   3.993   0.609   0.416 -0.0250 -0.2746  0.2870
 3647SOL    HW122403   4.087   0.594   0.411  0.0432  0.4634 -0.5827
 3647SOL    HW222404   3.957   0.538   0.470 -0.6629 -1.6869 -2.0197
 3648SOL     OW22405   1.585   3.052   2.276 -0.0531 -0.2853 -0.2871
 3648SOL    HW122406   1.543   3.082   2.196 -0.9488  0.2711  0.3839
 3648SOL    HW222407   1.654   2.999   2.237  0.7070  1.5488 -1.4272
 3649SOL     OW22408   0.583   4.313   0.429 -0.6582 -0.3156  0.4388
 3649SOL    HW122409   0.528   4.262   0.370 -3.0594  1.8168  0.8199
 3649SOL    HW222410   0.571   4.262   0.509 -1.4456 -0.4392  0.2351
 3650SOL     OW22411   0.949   3.424   2.030  0.7188  0.1400  0.0660
 3650SOL    HW122412   0.960   3.519   2.031 -0.6194  0.2968 -0.9415
 3650SOL    HW222413   0.856   3.408   2.044  0.2276  1.1381 -2.0078
 3651SOL     OW22414   2.676   0.448   2.584 -0.5300 -0.2734 -0.2158
 3651SOL    HW122415   2.619   0.487   2.519  0.6415  1.8755  0.0602
 3651SOL    HW222416   2.742   0.518   2.586  0.2556 -1.0058 -0.3441
 3652SOL     OW22417   2.858   4.169  11.904  0.1432 -0.2985  0.1920
 3652SOL    HW122418   2.938   4.123  11.927  0.0825 -0.0617  0.8738
 3652SOL    HW222419   2.803   4.119  11.963  0.3959 -0.0839  0.6059
 3653SOL     OW22420   0.587   1.004  16.499 -0.2552 -0.0017  0.1469
 3653SOL    HW122421   0.513   1.059  16.472 -1.3968 -1.1704  0.9068
 3653SOL    HW222422   0.608   0.935  16.435  0.8974  2.3414 -1.9814
 3654SOL     OW22423   2.676   3.789  11.859  0.8693  0.3747 -0.0646
 3654SOL    HW122424   2.621   3.732  11.807 -1.5340  1.5780  1.1396
 3654SOL    HW222425   2.611   3.836  11.911  0.5442 -0.0400 -0.1005
 3655SOL     OW22426   0.086   0.882   8.831  0.1385  0.6189  0.2094
 3655SOL    HW122427   0.041   0.963   8.807 -0.9843 -0.7906 -2.4259
 3655SOL    HW222428   0.117   0.913   8.917 -1.3393 -1.9912  1.6891
 3656SOL     OW22429   2.105   1.108  15.622  0.1173 -0.1112 -0.2809
 3656SOL    HW122430   2.199   1.127  15.617 -0.0180  0.8066  0.7470
 3656SOL    HW222431   2.081   1.049  15.550 -0.9890  0.0438 -0.0382
 3657SOL     OW22432   0.816   2.192   4.718 -0.4932  0.3161  0.4795
 3657SOL    HW122433   0.772   2.146   4.647 -0.1869  1.7848 -0.6579
 3657SOL    HW222434   0.739   2.240   4.750 -1.7982 -0.7545 -1.0560
 3658SOL     OW22435   2.119   2.745   4.480 -0.5403  0.1640  0.1126
 3658SOL    HW122436   2.143   2.836   4.461  0.8501  0.0721  1.4052
 3658SOL    HW222437   2.044   2.756   4.539  0.4305  3.9298  0.6241
 3659SOL     OW22438   0.073   0.023   5.925 -0.4078  0.5171  0.7926
 3659SOL    HW122439   0.026   0.106   5.914 -2.5805 -0.5223  1.9952
 3659SOL    HW222440   0.154   0.034   5.974  1.1796  3.3283 -2.4325
 3660SOL     OW22441   1.813   3.962   4.536 -0.2059 -0.6748  0.1579
 3660SOL    HW122442   1.766   3.948   4.454 -0.3459 -1.5163  0.3827
 3660SOL    HW222443   1.879   3.895   4.526  1.8521  1.1150  1.7659
 3661SOL     OW22444   1.237   4.326   4.962  0.2178  0.5684 -0.7580
 3661SOL    HW122445   1.189   4.395   4.915  1.0855  0.3882 -1.9013
 3661SOL    HW222446   1.322   4.369   4.963  1.8355 -2.6274 -3.4848
 3662SOL     OW22447   3.841   2.590   7.260 -0.1622  0.0936 -0.1886
 3662SOL    HW122448   3.906   2.632   7.317 -0.9020  2.4784 -1.0957
 3662SOL    HW222449   3.825   2.660   7.196  0.3298  0.1212 -0.2832
 3663SOL     OW22450   0.243   4.572   6.681 -0.2763  0.3778 -0.0853
 3663SOL    HW122451   0.291   4.600   6.759  0.2074 -1.6580  0.3548
 3663SOL    HW222452   0.267   4.641   6.619  1.6876 -1.2995 -1.1757
 3664SOL     OW22453   0.351   0.970   0.661 -0.0291 -0.4885  0.5682
 3664SOL    HW122454   0.363   0.937   0.572  1.2519  3.6675 -0.8370
 3664SOL    HW222455   0.428   0.933   0.704  0.4327  1.6424  1.5928
 3665SOL     OW22456   3.630   1.697  10.821 -0.1714  0.1656  0.1569
 3665SOL    HW122457   3.644   1.745  10.903  0.1390 -0.2201  0.3281
 3665SOL    HW222458   3.540   1.665  10.830  0.5405 -2.0884 -0.8962
 3666SOL     OW22459   4.111   3.843  12.477  0.0629  0.0777  0.3901
 3666SOL    HW122460   4.134   3.776  12.413 -0.6298  1.2208 -1.0582
 3666SOL    HW222461   4.016   3.838  12.465  0.3784 -0.0365 -1.9487
 3667SOL     OW22462   1.804   2.775  10.165 -0.2901 -0.4457 -0.6193
 3667SOL    HW122463   1.890   2.815  10.163  0.5311 -2.2026 -0.5874
 3667SOL    HW222464   1.757   2.839  10.219 -0.3087  0.0473 -1.2230
 3668SOL     OW22465   1.463   3.588   7.683  0.6051  0.2803 -0.4610
 3668SOL    HW122466   1.535   3.646   7.707 -0.3104  1.8110 -1.4267
 3668SOL    HW222467   1.394   3.653   7.674  0.6830  0.5980  1.1728
 3669SOL     OW22468   3.702   3.662  12.508  0.1980 -0.4184 -0.1783
 3669SOL    HW122469   3.786   3.618  12.523  1.0517  0.6081 -1.9146
 3669SOL    HW222470   3.658   3.655  12.592 -0.8760 -1.1735 -0.8109
 3670SOL     OW22471   4.177   0.543   8.440  0.6301  0.8783 -0.2243
 3670SOL    HW122472   4.184   0.620   8.496  0.8731 -0.5059  1.6205
 3670SOL    HW222473   4.238   0.485   8.484 -1.7806  0.0871  2.0537
 3671SOL     OW22474   3.858   2.005   2.624  0.4145 -0.6218  0.2347
 3671SOL    HW122475   3.766   2.018   2.600 -0.5147 -2.3542  2.7613
 3671SOL    HW222476   3.860   1.910   2.611 -2.2816 -0.7065  0.4825
 3672SOL     OW22477   4.423   4.585   6.811 -0.1916 -0.3762  0.1467
 3672SOL    HW122478   4.372   4.632   6.876  1.1819  0.2101  0.8018
 3672SOL    HW222479   4.371   4.506   6.795  1.6511 -1.7257  0.8234
 3673SOL     OW22480   3.890   1.294  17.034  0.1818 -0.1835 -0.0818
 3673SOL    HW122481   3.888   1.376  17.084  1.9516  0.7021 -1.5126
 3673SOL    HW222482   3.971   1.256  17.067  0.5603 -0.2244 -1.0814
 3674SOL     OW22483   0.457   4.556   3.017  0.6232 -0.1290 -0.0707
 3674SOL    HW122484   0.421   4.643   3.031 -2.6365 -1.5828  0.5327
 3674SOL    HW222485   0.411   4.508   3.086 -1.1028  1.6083 -0.0251
 3675SOL     OW22486   2.589   0.465   6.879  0.3687  0.2470  0.3922
 3675SOL    HW122487   2.550   0.516   6.949 -0.9186  1.2225 -1.0525
 3675SOL    HW222488   2.615   0.390   6.933  0.1701 -0.9712 -1.2091
 3676SOL     OW22489   4.000   3.047  14.213 -0.6492  0.1746 -0.1093
 3676SOL    HW122490   4.066   3.100  14.169  1.2926 -0.6148  1.8666
 3676SOL    HW222491   3.923   3.060  14.158 -0.1454  0.3307 -0.7786
 3677SOL     OW22492   3.619   0.446   7.474  0.0579  0.1096  0.9157
 3677SOL    HW122493   3.568   0.483   7.402 -0.4116 -0.6273  0.8725
 3677SOL    HW222494   3.681   0.392   7.423 -0.1701 -0.4247  1.2129
 3678SOL     OW22495   2.602   0.824   4.999 -0.7145 -0.1034  0.2713
 3678SOL    HW122496   2.513   0.797   4.976 -0.4499 -1.3702  0.7020
 3678SOL    HW222497   2.591   0.917   4.980 -2.9416 -0.9602 -2.6244
 3679SOL     OW22498   4.436   2.904   7.148  0.0018 -0.4760  0.0230
 3679SOL    HW122499   4.396   2.896   7.234  0.8962  2.7948  0.7537
 3679SOL    HW222500   4.459   2.812   7.132 -0.5342 -0.4755 -0.7210
 3680SOL     OW22501   3.219   1.561  14.495  0.2265 -0.2085 -0.3896
 3680SOL    HW122502   3.189   1.579  14.584 -1.9431  0.9872 -1.3834
 3680SOL    HW222503   3.145   1.510  14.463  1.5612 -3.7599  2.1200
 3681SOL     OW22504   3.158   3.177   7.778  0.3101 -0.1680 -0.1388
 3681SOL    HW122505   3.248   3.161   7.807  0.0345 -1.6860 -0.1126
 3681SOL    HW222506   3.136   3.092   7.741  1.0096 -0.4817  0.1602
 3682SOL     OW22507   1.478   3.995   6.600  0.1774 -0.2412  0.2465
 3682SOL    HW122508   1.503   3.915   6.647  1.1902 -0.0657  0.0034
 3682SOL    HW222509   1.434   3.962   6.522 -2.4595 -1.5077  2.2509
 3683SOL     OW22510   0.796   3.362   2.338  0.3128  0.3207 -0.2684
 3683SOL    HW122511   0.754   3.393   2.257  1.7446 -1.5446 -1.7345
 3683SOL    HW222512   0.787   3.268   2.323  3.0520  0.3035 -1.8756
 3684SOL     OW22513   0.724   1.166   9.249  0.5165  0.2444 -0.2198
 3684SOL    HW122514   0.791   1.218   9.294 -0.4477  1.7974 -0.5851
 3684SOL    HW222515   0.668   1.147   9.325  0.2151  0.0751 -0.4859
 3685SOL     OW22516   1.542   4.318  10.131  0.5201  0.2510 -0.3999
 3685SOL    HW122517   1.467   4.300  10.074 -1.6220 -1.7432  3.0700
 3685SOL    HW222518   1.508   4.398  10.171  0.7381 -0.4315  1.1184
 3686SOL     OW22519   1.464   3.921   2.760  0.3850  0.5671  0.6574
 3686SOL    HW122520   1.505   3.954   2.680  1.1704  0.3741  0.9782
 3686SOL    HW222521   1.395   3.986   2.776 -0.9726 -1.1460  1.6681
 3687SOL     OW22522   1.097   1.118  13.881 -0.2461  0.5200 -0.1923
 3687SOL    HW122523   1.025   1.181  13.880 -1.0315 -0.3813 -1.0227
 3687SOL    HW222524   1.120   1.102  13.790 -2.4522  0.0757 -0.6715
 3688SOL     OW22525   2.816   3.080   9.779 -0.2551  0.6528  0.5279
 3688SOL    HW122526   2.855   3.031   9.852  1.2923  0.6302 -0.3037
 3688SOL    HW222527   2.886   3.139   9.750 -1.6923  1.9125 -0.4065
 3689SOL     OW22528   1.096   2.336   1.484 -0.2450 -0.2320 -0.1472
 3689SOL    HW122529   1.021   2.381   1.524 -2.2118 -0.4683 -3.5441
 3689SOL    HW222530   1.055   2.293   1.408  4.3949 -0.0673 -2.7360
 3690SOL     OW22531   0.211   4.086   3.774 -0.2564 -0.4377  0.1527
 3690SOL    HW122532   0.146   4.150   3.801 -2.4480 -1.5969 -2.3716
 3690SOL    HW222533   0.163   4.004   3.771 -2.1014  0.7097 -1.8699
 3691SOL     OW22534   0.282   2.291   7.877 -0.0398  0.6563  0.0771
 3691SOL    HW122535   0.210   2.240   7.914  0.0613  0.4193 -0.0534
 3691SOL    HW222536   0.293   2.354   7.948 -0.5347  0.3533  0.4241
 3692SOL     OW22537   1.989   1.838  15.705 -0.1469 -0.1135 -0.2273
 3692SOL    HW122538   2.002   1.751  15.741  2.2846  0.2363 -0.2383
 3692SOL    HW222539   1.910   1.826  15.653 -1.0228 -2.4687  1.6730
 3693SOL     OW22540   3.276   4.602   2.916 -0.2084 -0.8216 -0.1085
 3693SOL    HW122541   3.311   4.667   2.855  0.9186 -0.9814  0.3710
 3693SOL    HW222542   3.318   4.629   2.998 -2.6252  1.5986  0.3438
 3694SOL     OW22543   3.638   1.964   9.712 -0.0239  0.1099  0.3310
 3694SOL    HW122544   3.660   1.873   9.692 -0.6551  0.3681 -1.5362
 3694SOL    HW222545   3.585   1.955   9.791  0.3290 -1.5971  0.3810
 3695SOL     OW22546   1.850   1.054   4.418 -0.1535  0.4052  0.0038
 3695SOL    HW122547   1.789   1.128   4.423  0.2977  0.8506 -1.1244
 3695SOL    HW222548   1.832   1.026   4.328 -2.4957 -1.8089  1.1541
 3696SOL     OW22549   0.446   1.912   8.211  0.0546 -0.2923  0.0096
 3696SOL    HW122550   0.432   1.884   8.302 -1.6335  1.9604  0.4453
 3696SOL    HW222551   0.520   1.971   8.225  0.2445 -0.4198 -0.4802
 3697SOL     OW22552   3.952   4.093   6.080 -0.2949 -0.2076  0.5385
 3697SOL    HW122553   4.022   4.105   6.144  1.3053 -1.2273 -1.0225
 3697SOL    HW222554   3.882   4.120   6.139 -0.2157  1.1534  0.0202
 3698SOL     OW22555   4.192   4.153   2.400 -0.1151 -0.1308 -0.6870
 3698SOL    HW122556   4.235   4.080   2.356  1.0095  0.4380 -0.5551
 3698SOL    HW222557   4.106   4.157   2.359 -0.9374 -2.9592  0.8390
 3699SOL     OW22558   0.104   4.617   8.816 -0.0891 -0.0978 -0.1251
 3699SOL    HW122559   0.044   4.593   8.887  0.7813 -2.7470 -0.2928
 3699SOL    HW222560   0.111   4.709   8.838 -1.3897 -0.2291  0.8711
 3700SOL     OW22561   0.512   3.580   1.625 -0.1972 -0.3191 -0.0621
 3700SOL    HW122562   0.482   3.565   1.715  1.1962 -1.5595  0.1970
 3700SOL    HW222563   0.460   3.516   1.576  0.6211  0.2087 -1.6318
 3701SOL     OW22564   1.184   3.032  15.904  0.0100  0.1114  0.4079
 3701SOL    HW122565   1.189   3.082  15.822 -2.2536  1.5242  1.1172
 3701SOL    HW222566   1.257   2.971  15.900 -0.9313 -0.8615 -2.0478
 3702SOL     OW22567   0.689   3.138   0.068  0.5224 -0.3664 -0.2575
 3702SOL    HW122568   0.767   3.128   0.014  0.7615  2.1356 -0.3586
 3702SOL    HW222569   0.629   3.091   0.009 -1.4634 -0.9750  2.2608
 3703SOL     OW22570   4.411   2.801   4.985  0.2280 -0.6303  0.2870
 3703SOL    HW122571   4.342   2.743   5.016 -0.6937  0.5528  0.4673
 3703SOL    HW222572   4.429   2.744   4.910 -1.5769 -2.2168  1.0862
 3704SOL     OW22573   1.524   2.836   7.872 -0.6133  0.3775 -0.6536
 3704SOL    HW122574   1.547   2.929   7.869  0.7196  0.0010 -2.0170
 3704SOL    HW222575   1.499   2.820   7.781 -2.8985 -3.0326  0.5976
 3705SOL     OW22576   0.406   2.945  14.175  0.2385  0.1935 -0.6924
 3705SOL    HW122577   0.418   2.869  14.119  0.2068 -0.6939  0.4918
 3705SOL    HW222578   0.481   2.942  14.235 -0.8024  0.0051  0.6022
 3706SOL     OW22579   0.580   0.888  15.724  0.1335  0.1452  0.1098
 3706SOL    HW122580   0.614   0.856  15.808 -0.2912 -0.1291  0.1783
 3706SOL    HW222581   0.657   0.937  15.696 -0.6487  1.3981  0.1254
 3707SOL     OW22582   2.034   4.595  14.881  0.6121  0.1496 -0.1374
 3707SOL    HW122583   1.995   4.581  14.968  0.0938 -1.0848 -0.5675
 3707SOL    HW222584   2.074   4.681  14.887  0.4713  0.1286  1.2723
 3708SOL     OW22585   4.640   2.952   7.345 -0.1628  0.5438 -0.5516
 3708SOL    HW122586   4.637   2.954   7.250  0.5776  2.8078 -0.5265
 3708SOL    HW222587   4.650   3.045   7.366 -1.9716  0.2112  1.7830
 3709SOL     OW22588   4.087   2.850  12.836  0.1189 -0.0662 -0.3939
 3709SOL    HW122589   4.044   2.927  12.873  1.3110  0.4956 -0.1779
 3709SOL    HW222590   4.016   2.807  12.789  0.1746 -0.9540  0.3320
 3710SOL     OW22591   0.642   2.007   7.565 -0.2379 -0.6848 -0.0054
 3710SOL    HW122592   0.714   2.026   7.504  1.5615 -1.9343  1.7384
 3710SOL    HW222593   0.582   1.980   7.496 -1.6039  1.4438  0.3537
 3711SOL     OW22594   1.520   2.380   4.660  0.4351 -0.2737 -0.2751
 3711SOL    HW122595   1.449   2.430   4.699  1.2907  0.7942 -0.0893
 3711SOL    HW222596   1.529   2.303   4.716  0.1488 -1.1275 -1.4068
 3712SOL     OW22597   3.890   4.564   3.442 -0.2790  0.2327  0.2181
 3712SOL    HW122598   3.867   4.643   3.491 -1.8318  0.8754 -1.5239
 3712SOL    HW222599   3.853   4.594   3.359 -1.5207 -1.2033  0.2598
 3713SOL     OW22600   1.683   4.089   5.910 -0.0192  0.2702  0.1862
 3713SOL    HW122601   1.739   4.127   5.978  1.0383  0.4251 -0.7681
 3713SOL    HW222602   1.725   4.122   5.831 -0.8203 -0.6640 -0.6205
 3714SOL     OW22603   2.493   0.859  16.505  0.2927  0.1507  0.2444
 3714SOL    HW122604   2.567   0.871  16.564 -0.5321 -1.0897  1.5514
 3714SOL    HW222605   2.514   0.922  16.436  2.1708  1.5222  2.0878
 3715SOL     OW22606   3.977   4.582  12.872  0.1890 -0.8051 -0.7801
 3715SOL    HW122607   4.044   4.649  12.883 -1.2086  0.5264 -0.3709
 3715SOL    HW222608   3.907   4.605  12.933  1.0523 -0.0490 -0.0594
 3716SOL     OW22609   3.225   0.885   1.659  0.1513  0.3542 -0.0573
 3716SOL    HW122610   3.146   0.837   1.636 -0.0898  0.6246  0.2108
 3716SOL    HW222611   3.217   0.966   1.609 -0.9477  1.6798  2.2759
 3717SOL     OW22612   3.267   4.241   3.910 -0.7755 -0.0638 -0.3129
 3717SOL    HW122613   3.202   4.190   3.957 -0.5313 -0.5991 -0.5543
 3717SOL    HW222614   3.291   4.179   3.840  0.7531  1.5587 -1.2286
 3718SOL     OW22615   1.912   1.545   1.362 -0.0815 -0.1089  0.4621
 3718SOL    HW122616   1.898   1.451   1.365 -0.7587 -0.0241 -0.0924
 3718SOL    HW222617   1.840   1.572   1.419  0.1986  0.1314  0.6992
 3719SOL     OW22618   3.949   0.808  13.093  0.1063 -0.3991 -0.2872
 3719SOL    HW122619   3.966   0.735  13.151  0.7614 -0.1860 -0.2122
 3719SOL    HW222620   3.965   0.772  13.006 -0.6065 -0.2331 -0.4878
 3720SOL     OW22621   3.377   0.620   5.286  0.1361  0.0236 -0.0625
 3720SOL    HW122622   3.310   0.573   5.335  1.3078 -1.9780 -0.3631
 3720SOL    HW222623   3.446   0.643   5.349  0.2040  2.3235 -0.9916
 3721SOL     OW22624   3.189   3.319   4.509 -0.1587  0.0576  0.0373
 3721SOL    HW122625   3.164   3.231   4.536  0.5861 -0.1526  0.0361
 3721SOL    HW222626   3.284   3.323   4.502 -0.2029  1.6530  0.2226
 3722SOL     OW22627   2.458   2.807   4.693 -0.0853  0.1143 -0.3636
 3722SOL    HW122628   2.411   2.754   4.629  2.5246 -2.2387 -0.2949
 3722SOL    HW222629   2.382   2.850   4.734 -0.1050 -0.6413  0.3826
 3723SOL     OW22630   1.458   2.264   2.192 -0.1255  0.1350 -0.3214
 3723SOL    HW122631   1.438   2.177   2.225 -0.0796  0.5000  0.6666
 3723SOL    HW222632   1.551   2.250   2.172  0.1127  0.8278  0.2987
 3724SOL     OW22633   2.711   3.961   8.716  0.0544  0.4585  0.1801
 3724SOL    HW122634   2.793   3.942   8.671  0.0835  0.2862  0.3079
 3724SOL    HW222635   2.660   3.896   8.668  0.3114  0.8283 -0.6047
 3725SOL     OW22636   4.585   2.469  11.538 -0.2915  0.2349 -0.5285
 3725SOL    HW122637   4.541   2.540  11.492 -1.0667 -1.4604 -2.3878
 3725SOL    HW222638   4.670   2.508  11.561 -0.8211  1.5480 -0.8002
 3726SOL     OW22639   3.679   1.318   1.752  0.1318 -0.4148 -0.2879
 3726SOL    HW122640   3.601   1.361   1.786  0.9102  0.1846  0.7252
 3726SOL    HW222641   3.738   1.384   1.788 -1.7344  1.1568 -0.0992
 3727SOL     OW22642   4.331   2.737   3.287  0.2068 -0.0266 -0.0632
 3727SOL    HW122643   4.368   2.733   3.199 -0.6367 -0.5423 -0.3852
 3727SOL    HW222644   4.411   2.746   3.341 -0.9435  0.4935  1.5569
 3728SOL     OW22645   1.301   1.053   4.367  0.0657 -0.4676 -0.1775
 3728SOL    HW122646   1.360   0.980   4.348  0.5737 -0.3620  0.9706
 3728SOL    HW222647   1.339   1.094   4.445 -0.6517 -0.5574  0.2210
 3729SOL     OW22648   1.982   1.090   7.504 -0.0548 -0.8912  0.4306
 3729SOL    HW122649   1.985   1.104   7.410  0.5947  0.1255  0.6042
 3729SOL    HW222650   1.975   1.179   7.537  3.6494 -0.7949  0.9713
 3730SOL     OW22651   0.624   1.593   7.033 -0.6390 -0.7036 -0.6450
 3730SOL    HW122652   0.594   1.677   7.067  1.2016  1.1208 -3.4495
 3730SOL    HW222653   0.631   1.541   7.113  2.2329 -0.5058 -0.7459
 3731SOL     OW22654   3.235   1.630   3.091  0.0510 -0.1917 -0.4171
 3731SOL    HW122655   3.318   1.675   3.077  0.4110 -0.0704  2.2885
 3731SOL    HW222656   3.169   1.699   3.104 -0.5205 -0.8278  0.0830
 3732SOL     OW22657   2.044   1.471  15.406  0.0557 -1.0352 -0.1398
 3732SOL    HW122658   2.089   1.555  15.409  0.8402 -1.3390 -3.5331
 3732SOL    HW222659   1.997   1.473  15.490 -1.6999  0.7904 -1.1609
 3733SOL     OW22660   4.039   2.735   7.114 -0.3210 -0.3478 -0.3039
 3733SOL    HW122661   4.107   2.802   7.121  1.6113 -2.4526  1.1571
 3733SOL    HW222662   3.998   2.764   7.033  1.0555 -1.1950 -1.3072
 3734SOL     OW22663   3.685   1.122   2.393 -0.2114  0.0013  0.4244
 3734SOL    HW122664   3.611   1.073   2.429 -0.6451 -0.5623 -1.2649
 3734SOL    HW222665   3.765   1.069   2.385  0.1027  0.6223 -0.4394
 3735SOL     OW22666   0.726   2.094   5.276 -0.2758  0.1887  0.0443
 3735SOL    HW122667   0.685   2.068   5.358  0.4138  2.0098  0.9652
 3735SOL    HW222668   0.690   2.182   5.262 -3.4796 -0.9940  0.9120
 3736SOL     OW22669   2.328   1.390   5.901 -0.2106 -0.1756 -0.5485
 3736SOL    HW122670   2.415   1.352   5.916 -0.0703 -0.5446 -2.3135
 3736SOL    HW222671   2.281   1.312   5.872 -0.4389  0.5033 -1.9719
 3737SOL     OW22672   0.651   0.012   8.238  0.1779 -0.7758 -0.4336
 3737SOL    HW122673   0.655   4.718   8.333 -0.4332  0.2640 -0.2620
 3737SOL    HW222674   0.730   4.689   8.207  0.8050  0.5941 -0.7361
 3738SOL     OW22675   0.279   3.599  10.743 -0.7118 -0.1195 -0.2806
 3738SOL    HW122676   0.306   3.689  10.760 -1.6797  0.3725 -1.3709
 3738SOL    HW222677   0.184   3.614  10.742 -1.0471 -2.2839 -0.3989
 3739SOL     OW22678   0.631   0.764   6.075 -0.0184  0.1725  0.4460
 3739SOL    HW122679   0.593   0.812   6.001  1.1425  0.9611  0.3612
 3739SOL    HW222680   0.590   0.679   6.058 -0.0909 -0.2239  2.6019
 3740SOL     OW22681   1.587   4.625   1.328  0.5603 -0.4568 -0.2010
 3740SOL    HW122682   1.589   4.585   1.415  1.0136  1.1178  0.5300
 3740SOL    HW222683   1.494   4.634   1.308  0.0467 -1.3652  1.8149
 3741SOL     OW22684   3.899   2.003   1.670 -0.0552 -0.5669 -0.0031
 3741SOL    HW122685   3.839   1.929   1.681  1.9125 -2.2137 -0.3381
 3741SOL    HW222686   3.893   2.048   1.754 -0.2263  1.0723 -0.8858
 3742SOL     OW22687   3.142   2.957  15.180  0.1443  0.0460  0.0654
 3742SOL    HW122688   3.110   2.867  15.168  0.2343  0.1269 -0.8030
 3742SOL    HW222689   3.119   2.974  15.271  0.3346 -1.3559  0.3747
 3743SOL     OW22690   2.738   0.527  10.113  0.0940 -0.7099 -0.2677
 3743SOL    HW122691   2.659   0.581  10.100  1.8218  1.9497  0.1458
 3743SOL    HW222692   2.788   0.576  10.048  3.3015  0.4545  3.0698
 3744SOL     OW22693   0.930   2.072  17.189  0.0016 -0.2113  1.0228
 3744SOL    HW122694   0.919   2.161  17.222 -0.8573  0.0691  0.0031
 3744SOL    HW222695   0.860   2.022  17.231 -1.1537  0.8457  0.3556
 3745SOL     OW22696   4.003   1.341   7.649 -0.0147 -0.3760  0.0921
 3745SOL    HW122697   4.076   1.345   7.711 -0.7967 -0.7892  1.0309
 3745SOL    HW222698   4.043   1.296   7.574  1.7538  0.3585  0.5974
 3746SOL     OW22699   0.019   2.732   7.827  0.1216  0.6649  0.3507
 3746SOL    HW122700   4.706   2.642   7.831  3.5067 -0.4899  1.4466
 3746SOL    HW222701   0.108   2.709   7.852  1.0462  3.2851 -0.4930
 3747SOL     OW22702   3.035   0.238   1.223  0.0519  0.0245  0.0526
 3747SOL    HW122703   2.950   0.276   1.247  0.5600  0.4724  1.1505
 3747SOL    HW222704   2.997   0.160   1.182 -0.3448  0.2649 -0.0420
 3748SOL     OW22705   1.968   2.715   8.288 -0.0637 -0.0669 -0.0632
 3748SOL    HW122706   1.998   2.763   8.365  1.7125  1.9467 -1.9986
 3748SOL    HW222707   1.957   2.784   8.222 -2.5635 -0.1232  0.2787
 3749SOL     OW22708   3.136   3.080   2.205 -0.0245 -0.0973 -0.4737
 3749SOL    HW122709   3.216   3.030   2.189 -0.6812 -1.2688 -0.1040
 3749SOL    HW222710   3.081   3.007   2.234  1.6751 -0.6220  1.4351
 3750SOL     OW22711   3.604   4.282   6.598  0.9171 -0.2533  0.3324
 3750SOL    HW122712   3.686   4.328   6.578  0.7222 -0.4024 -0.7934
 3750SOL    HW222713   3.545   4.327   6.538  3.2697 -1.5409 -2.9639
 3751SOL     OW22714   1.258   2.886   1.315  1.1868 -0.2458 -0.7566
 3751SOL    HW122715   1.240   2.941   1.391  2.0413  0.9767 -1.4378
 3751SOL    HW222716   1.265   2.799   1.354  0.3401 -0.1813 -0.4427
 3752SOL     OW22717   1.270   3.418   9.410 -0.2769  0.2433  0.7660
 3752SOL    HW122718   1.185   3.458   9.430 -0.7530 -2.1799  3.4954
 3752SOL    HW222719   1.235   3.335   9.377 -0.8999  0.3790  1.0728
 3753SOL     OW22720   4.515   2.138  15.881  0.5706 -0.4503  0.5357
 3753SOL    HW122721   4.471   2.053  15.887 -1.5661  0.5323 -1.1821
 3753SOL    HW222722   4.530   2.143  15.787  1.5705 -0.7916  0.6775
 3754SOL     OW22723   3.549   4.603   2.425  0.1315  0.2947  0.0350
 3754SOL    HW122724   3.581   4.589   2.336 -0.5279  0.4910 -0.2312
 3754SOL    HW222725   3.566   4.697   2.437 -0.7706  0.4730 -0.1043
 3755SOL     OW22726   3.834   2.258   3.751 -0.1905  0.1241 -0.3852
 3755SOL    HW122727   3.911   2.202   3.763 -0.5047 -0.3186 -0.4322
 3755SOL    HW222728   3.861   2.317   3.680  0.0836  0.3801 -0.0664
 3756SOL     OW22729   1.679   3.425  11.603 -0.1520 -0.0877  0.6355
 3756SOL    HW122730   1.744   3.358  11.621 -0.7805 -1.0075 -0.5421
 3756SOL    HW222731   1.623   3.415  11.681  0.5308 -0.3818  1.0859
 3757SOL     OW22732   0.153   3.282  14.157  0.0374 -0.3792  0.1804
 3757SOL    HW122733   0.187   3.366  14.185 -0.3312  0.2309 -1.1916
 3757SOL    HW222734   0.067   3.276  14.197 -0.2942 -1.9266 -0.7565
 3758SOL     OW22735   0.440   2.118  17.131  0.7905  0.4271  0.0265
 3758SOL    HW122736   0.495   2.190  17.099  1.1377 -0.8338 -2.2487
 3758SOL    HW222737   0.381   2.160  17.193  1.3648  3.7138 -1.6220
 3759SOL     OW22738   1.554   3.111   1.756  0.5624  0.3267 -0.3808
 3759SOL    HW122739   1.518   3.193   1.724 -0.7958 -0.1259  0.0047
 3759SOL    HW222740   1.510   3.042   1.706  0.7070 -0.3833  0.4541
 3760SOL     OW22741   0.275   3.164   5.202  0.5636 -0.1015 -0.2681
 3760SOL    HW122742   0.345   3.215   5.242 -0.9336  1.4692  0.3702
 3760SOL    HW222743   0.223   3.229   5.153 -0.8357  0.5396  2.0345
 3761SOL     OW22744   1.612   3.073   3.695  0.1157 -0.3120 -0.5668
 3761SOL    HW122745   1.609   2.986   3.656 -0.7876  0.4047 -2.0956
 3761SOL    HW222746   1.636   3.127   3.620 -1.9584  0.3550 -0.7625
 3762SOL     OW22747   2.525   2.815   8.850  0.6379  0.5059 -0.0777
 3762SOL    HW122748   2.443   2.855   8.877  0.2929 -0.6301  0.5555
 3762SOL    HW222749   2.551   2.787   8.938 -0.5023 -0.9907 -0.2330
 3763SOL     OW22750   0.130   0.039   4.560  0.2416 -0.0403  0.0289
 3763SOL    HW122751   0.153   4.689   4.498  0.8987 -0.6876  1.0068
 3763SOL    HW222752   0.139   0.007   4.649  0.5897 -0.6258 -0.2121
 3764SOL     OW22753   4.667   2.308   3.610 -0.5715 -0.5303  0.1097
 3764SOL    HW122754   4.616   2.388   3.592  0.3573 -0.3152 -1.5716
 3764SOL    HW222755   4.691   2.290   3.519 -0.0978  0.8276 -0.0425
 3765SOL     OW22756   2.653   1.524   1.882  0.0127 -0.3713 -0.9061
 3765SOL    HW122757   2.595   1.594   1.913  0.9269 -0.7667  1.6656
 3765SOL    HW222758   2.607   1.497   1.802 -1.1387 -3.1895  0.7204
 3766SOL     OW22759   2.295   2.846  14.615 -0.0243 -0.3460  0.1732
 3766SOL    HW122760   2.334   2.916  14.563 -0.4562 -0.5600 -0.4513
 3766SOL    HW222761   2.286   2.775  14.551  0.1913 -0.5173  0.3325
 3767SOL     OW22762   0.378   0.178   7.475 -0.5781 -0.1541 -0.3046
 3767SOL    HW122763   0.411   0.176   7.565 -1.2815 -0.3333 -0.0503
 3767SOL    HW222764   0.444   0.126   7.429  1.2382  1.3687  0.5796
 3768SOL     OW22765   3.638   4.649   4.274 -0.2842  0.8141  0.3308
 3768SOL    HW122766   3.725   4.625   4.240 -0.0283  2.5908 -0.2448
 3768SOL    HW222767   3.627   4.559   4.305 -0.2157  0.9385  0.7150
 3769SOL     OW22768   2.056   0.512  16.496 -0.4112  0.0487 -0.4599
 3769SOL    HW122769   2.089   0.554  16.416  0.6769  0.1210  0.0347
 3769SOL    HW222770   2.112   0.553  16.562  1.5491 -0.9724 -1.4908
 3770SOL     OW22771   2.786   1.990   2.766  0.6679  0.1977  0.4516
 3770SOL    HW122772   2.799   1.916   2.706 -0.1981 -1.6120  2.5032
 3770SOL    HW222773   2.699   1.968   2.798  1.0688 -1.1259  0.6353
 3771SOL     OW22774   1.226   1.180   8.552 -0.5598 -0.5524 -0.3105
 3771SOL    HW122775   1.282   1.112   8.516 -0.6206 -1.0235  0.4971
 3771SOL    HW222776   1.292   1.236   8.593 -0.0322  0.6256 -2.7117
 3772SOL     OW22777   2.976   4.118   5.512 -0.0018 -1.1386 -0.6471
 3772SOL    HW122778   2.988   4.025   5.492 -1.3488 -1.5361  0.3395
 3772SOL    HW222779   3.052   4.134   5.567 -0.8029 -1.3579  0.5344
 3773SOL     OW22780   0.831   2.635  17.227  0.2542 -0.1701 -0.2577
 3773SOL    HW122781   0.896   2.565  17.221  1.7864  0.9794  3.1842
 3773SOL    HW222782   0.896   2.697  17.262 -0.7733  0.4358  0.5767
 3774SOL     OW22783   2.276   1.090   7.660 -0.0479  0.4059  0.4116
 3774SOL    HW122784   2.285   1.068   7.567  0.0659 -1.3439  0.8318
 3774SOL    HW222785   2.183   1.073   7.670 -0.6056  2.3446 -1.4216
 3775SOL     OW22786   2.883   2.597   3.558  0.6221 -0.0291 -0.2710
 3775SOL    HW122787   2.913   2.608   3.467 -1.3835 -2.1845 -1.1961
 3775SOL    HW222788   2.970   2.585   3.596  0.6579  3.4611  0.7565
 3776SOL     OW22789   2.059   1.138   4.581 -0.6329 -0.3820 -0.0998
 3776SOL    HW122790   1.994   1.103   4.520  0.8785 -1.6527 -0.9877
 3776SOL    HW222791   2.132   1.078   4.562  1.0925  2.0610 -1.2409
 3777SOL     OW22792   2.809   3.885   4.392 -0.7023 -0.6971 -0.2491
 3777SOL    HW122793   2.745   3.879   4.463  0.9609 -1.6793  1.1708
 3777SOL    HW222794   2.753   3.881   4.315 -2.2461 -0.9838  0.8733
 3778SOL     OW22795   3.746   4.216   7.093 -0.2314 -0.7627 -0.0558
 3778SOL    HW122796   3.745   4.155   7.019 -2.3370 -1.4587  0.5334
 3778SOL    HW222797   3.836   4.218   7.127 -0.1961 -0.0522 -0.1944
 3779SOL     OW22798   2.273   0.114   2.803 -0.3626  0.1063 -0.6965
 3779SOL    HW122799   2.250   0.024   2.782  1.4191 -0.5741  0.3294
 3779SOL    HW222800   2.280   0.159   2.719  0.8201 -1.6304 -1.5074
 3780SOL     OW22801   3.451   0.833  16.243 -0.0580 -0.1401  0.1637
 3780SOL    HW122802   3.417   0.857  16.329  0.9452 -0.3241  0.6108
 3780SOL    HW222803   3.543   0.860  16.237 -0.0592 -0.3877 -1.0059
 3781SOL     OW22804   2.668   3.516   9.180 -0.0521 -0.0559  0.2754
 3781SOL    HW122805   2.705   3.560   9.257 -3.1528  0.6823  1.3422
 3781SOL    HW222806   2.586   3.489   9.222 -0.6070  0.3977 -0.5240
 3782SOL     OW22807   2.278   4.112   6.257 -0.5463  0.5400 -0.5829
 3782SOL    HW122808   2.207   4.176   6.267 -2.0460 -1.0778 -0.9445
 3782SOL    HW222809   2.234   4.041   6.210  1.0107 -0.6925 -0.1568
 3783SOL     OW22810   1.315   4.053   4.946  0.6514  0.0340 -0.1856
 3783SOL    HW122811   1.397   4.006   4.962  0.4039 -0.4651 -0.3659
 3783SOL    HW222812   1.338   4.145   4.951 -1.7502  0.5286  1.6059
 3784SOL     OW22813   1.885   2.804   1.227 -0.0392  0.2644  0.3454
 3784SOL    HW122814   1.847   2.750   1.297 -1.4045  1.2984  0.4169
 3784SOL    HW222815   1.979   2.808   1.246  0.5687 -0.5461 -2.6082
 3785SOL     OW22816   2.161   2.893   8.450 -0.3143 -0.6641  0.0184
 3785SOL    HW122817   2.149   2.844   8.532 -3.5494 -1.1577 -0.7587
 3785SOL    HW222818   2.241   2.943   8.467  0.2862 -1.1355 -1.4114
 3786SOL     OW22819   2.298   0.317   4.754 -0.1098  0.0833 -0.4652
 3786SOL    HW122820   2.218   0.346   4.711  0.8370  4.1850  0.4625
 3786SOL    HW222821   2.269   0.332   4.844  1.4714 -0.4755  0.1435
 3787SOL     OW22822   2.822   3.763   1.454  0.5339  0.0878  0.0917
 3787SOL    HW122823   2.862   3.763   1.541 -2.0157 -1.4047  1.2623
 3787SOL    HW222824   2.892   3.723   1.402 -0.2008 -0.1879 -0.6899
 3788SOL     OW22825   3.431   1.915   1.124 -0.5833  0.9057  0.2590
 3788SOL    HW122826   3.392   1.957   1.200  1.1039  0.4787  1.3597
 3788SOL    HW222827   3.372   1.930   1.050 -1.7581  0.0315  1.0373
 3789SOL     OW22828   0.198   2.903  10.386  0.0841  0.3596  0.4150
 3789SOL    HW122829   0.149   2.837  10.434 -0.2406  1.7172  1.9128
 3789SOL    HW222830   0.182   2.870  10.297 -1.5235  1.6787  0.2216
 3790SOL     OW22831   3.625   3.095   6.817 -0.4984 -0.1503 -0.2709
 3790SOL    HW122832   3.616   3.094   6.722  0.2594 -0.7719 -0.3301
 3790SOL    HW222833   3.710   3.139   6.810 -0.0880 -1.2350 -2.0824
 3791SOL     OW22834   2.114   4.024   3.153  0.0484 -0.2751  0.6158
 3791SOL    HW122835   2.097   4.022   3.059 -0.0472  0.8065  0.6111
 3791SOL    HW222836   2.086   4.113   3.175 -1.2218 -0.7438  0.9292
 3792SOL     OW22837   1.086   3.484   1.433 -0.1564  0.3950 -0.4473
 3792SOL    HW122838   1.127   3.560   1.475  0.7564  0.3466 -1.2439
 3792SOL    HW222839   0.994   3.504   1.448 -0.9960 -3.8746 -0.0725
 3793SOL     OW22840   2.166   2.537   2.716  0.1930  0.7129 -0.5889
 3793SOL    HW122841   2.110   2.606   2.751 -1.9833 -1.2025 -0.3183
 3793SOL    HW222842   2.250   2.582   2.728  0.2479  0.0129  1.6418
 3794SOL     OW22843   1.037   0.069   5.566 -0.1488 -0.1725  1.0073
 3794SOL    HW122844   1.085   0.085   5.484 -2.0787 -3.2907 -0.7368
 3794SOL    HW222845   1.089   0.132   5.616  1.1079  0.1260 -0.6930
 3795SOL     OW22846   3.307   1.708  13.583  0.1155  0.1299 -0.0386
 3795SOL    HW122847   3.388   1.698  13.632  0.1609 -0.0068 -0.1452
 3795SOL    HW222848   3.256   1.775  13.630 -1.0670 -0.6434 -0.2184
 3796SOL     OW22849   0.285   3.587  11.014 -0.3721 -0.0329 -0.5634
 3796SOL    HW122850   0.360   3.536  11.043 -0.1160 -0.4889 -2.0091
 3796SOL    HW222851   0.306   3.609  10.923  3.0723 -1.1149 -0.0164
 3797SOL     OW22852   1.284   2.573  12.247 -0.0958  0.2066  0.0347
 3797SOL    HW122853   1.236   2.607  12.322 -0.8681 -1.3188  0.2354
 3797SOL    HW222854   1.350   2.642  12.248  1.1686 -0.9694 -2.9148
 3798SOL     OW22855   1.837   4.493   9.297  0.4355  0.6814 -0.4576
 3798SOL    HW122856   1.855   4.571   9.349  1.9824 -0.5213  0.8050
 3798SOL    HW222857   1.909   4.491   9.234  1.7505 -2.8575  1.1613
 3799SOL     OW22858   3.717   2.919   4.356 -0.3001 -0.5572 -0.1810
 3799SOL    HW122859   3.739   2.957   4.270  2.7070  1.2008  1.3708
 3799SOL    HW222860   3.628   2.952   4.366 -1.0431 -3.1495  1.8432
 3800SOL     OW22861   1.609   3.251  10.689 -0.0250  0.2776  0.0016
 3800SOL    HW122862   1.560   3.182  10.644  1.8091  0.2488 -1.9229
 3800SOL    HW222863   1.635   3.298  10.610 -0.5472  0.4886 -0.0483
 3801SOL     OW22864   0.758   4.515  12.231  0.4062  0.1123 -0.0786
 3801SOL    HW122865   0.713   4.538  12.313 -0.1879  0.7667 -0.5878
 3801SOL    HW222866   0.843   4.558  12.239  0.8522 -0.6600 -0.6545
 3802SOL     OW22867   2.255   0.138  14.639 -0.1986 -0.3260  0.1995
 3802SOL    HW122868   2.207   0.135  14.723  1.1714 -0.4973  0.9755
 3802SOL    HW222869   2.339   0.175  14.664 -0.4149  1.6816 -2.0831
 3803SOL     OW22870   3.408   3.673   1.219  0.2258  0.5981  0.5500
 3803SOL    HW122871   3.330   3.655   1.271  0.2910  0.0228  0.4409
 3803SOL    HW222872   3.365   3.712   1.142  2.2393 -1.5144 -1.6452
 3804SOL     OW22873   1.029   2.750   3.763 -0.1813 -0.2116  0.9795
 3804SOL    HW122874   1.123   2.745   3.780 -0.5795 -1.8109  2.6933
 3804SOL    HW222875   0.995   2.664   3.789  0.8863 -1.0554 -0.4101
 3805SOL     OW22876   0.616   4.134   4.431 -0.7032 -0.5084  0.1492
 3805SOL    HW122877   0.530   4.109   4.466 -0.2406  1.0780  2.4742
 3805SOL    HW222878   0.665   4.146   4.513  0.4328  2.2504 -0.9309
 3806SOL     OW22879   0.865   3.832  16.163 -0.0543  0.0117 -0.0433
 3806SOL    HW122880   0.930   3.821  16.233 -0.4201 -2.3408 -0.0876
 3806SOL    HW222881   0.842   3.924  16.178 -1.7365 -0.5432  0.7974
 3807SOL     OW22882   1.661   2.069   5.668  0.0688 -0.2303  0.0489
 3807SOL    HW122883   1.739   2.022   5.698  0.6726  1.1860  0.7229
 3807SOL    HW222884   1.622   2.101   5.749  1.6084 -0.1284  0.7508
 3808SOL     OW22885   2.118   1.622   6.193  0.1554 -0.6513 -0.1289
 3808SOL    HW122886   2.037   1.609   6.144  1.5198  2.5518 -3.2382
 3808SOL    HW222887   2.148   1.532   6.192  2.0994 -0.0013  0.0324
 3809SOL     OW22888   1.364   1.129   2.467 -0.3483 -0.6278 -0.2683
 3809SOL    HW122889   1.395   1.139   2.377 -1.8657  1.7199 -0.5336
 3809SOL    HW222890   1.274   1.096   2.457 -0.3529 -0.7927  0.3154
 3810SOL     OW22891   3.539   4.036   4.007 -0.4630  0.3935 -0.4394
 3810SOL    HW122892   3.491   4.062   3.928  0.2565 -1.4141 -1.4957
 3810SOL    HW222893   3.627   4.034   3.968 -0.5427  1.4184 -0.6707
 3811SOL     OW22894   3.832   2.381  11.077  0.1568  0.0136 -0.2381
 3811SOL    HW122895   3.917   2.424  11.072  0.2390 -0.0158  0.8836
 3811SOL    HW222896   3.811   2.367  11.170 -1.1848 -0.0153 -0.5379
 3812SOL     OW22897   3.399   1.283   2.102 -0.0871  0.5515  0.0002
 3812SOL    HW122898   3.332   1.275   2.035  0.6621 -0.6467 -0.5940
 3812SOL    HW222899   3.392   1.376   2.125  1.5557  1.0893 -1.6794
 3813SOL     OW22900   0.021   3.320   8.730 -0.4024  0.7016 -0.1956
 3813SOL    HW122901   4.656   3.276   8.722  0.7408 -1.0185 -2.7749
 3813SOL    HW222902   0.003   3.344   8.821 -2.6574 -1.2820 -0.1394
 3814SOL     OW22903   0.480   2.195   3.839 -0.1325 -0.6244  0.2784
 3814SOL    HW122904   0.566   2.226   3.868 -0.3127  1.4706 -1.3821
 3814SOL    HW222905   0.504   2.143   3.763  3.8382  1.6792 -0.0347
 3815SOL     OW22906   0.713   1.999   6.174 -0.0723 -0.3738  0.0761
 3815SOL    HW122907   0.712   2.077   6.230  2.1686 -1.6888  1.9496
 3815SOL    HW222908   0.699   2.041   6.089  2.3743  0.5571  0.1235
 3816SOL     OW22909   4.065   0.526   5.159 -0.3875 -0.1949 -0.1899
 3816SOL    HW122910   4.038   0.602   5.211  0.1168  0.9257 -1.5771
 3816SOL    HW222911   4.053   0.466   5.233 -0.5898  1.3130  0.9969
 3817SOL     OW22912   2.011   1.651  16.092  0.2672  0.1715 -0.1430
 3817SOL    HW122913   2.066   1.724  16.122  0.1724 -0.9958  2.7682
 3817SOL    HW222914   2.022   1.665  15.997  2.3103  2.5598  0.4449
 3818SOL     OW22915   4.452   0.886   1.899  0.7990 -0.1272  0.0312
 3818SOL    HW122916   4.484   0.957   1.844 -2.7961 -0.1028 -2.0680
 3818SOL    HW222917   4.505   0.812   1.867  1.5556  0.2707  0.3739
 3819SOL     OW22918   1.419   0.904   2.272 -0.1266  0.2869 -0.0465
 3819SOL    HW122919   1.513   0.919   2.287  0.0549 -0.1781 -0.6827
 3819SOL    HW222920   1.383   0.890   2.359  1.9452  2.0513  1.0911
 3820SOL     OW22921   0.847   1.045   8.823 -0.1123  0.3970 -0.0576
 3820SOL    HW122922   0.805   1.131   8.828 -0.9274 -0.0438  0.7845
 3820SOL    HW222923   0.770   0.993   8.844  0.3493 -0.5298 -0.6534
 3821SOL     OW22924   1.638   2.481  14.123  0.3070 -0.3990  0.4301
 3821SOL    HW122925   1.634   2.574  14.100  0.3760 -0.4789  0.1010
 3821SOL    HW222926   1.726   2.448  14.104  0.1919  0.3711 -1.4317
 3822SOL     OW22927   3.669   0.411   2.706 -0.3742  0.4141  0.0401
 3822SOL    HW122928   3.653   0.408   2.612 -1.2918  2.8196  0.1202
 3822SOL    HW222929   3.763   0.401   2.719 -0.2579  1.2097 -0.2099
 3823SOL     OW22930   3.997   2.320   1.407  0.1745  0.0015 -0.0805
 3823SOL    HW122931   4.034   2.373   1.478 -1.3836  0.4633  0.3850
 3823SOL    HW222932   3.907   2.354   1.406 -1.1394 -3.4336  0.6223
 3824SOL     OW22933   0.251   4.192  13.447  0.2840  0.0547 -0.0238
 3824SOL    HW122934   0.201   4.236  13.378 -0.9862 -1.2759  0.0580
 3824SOL    HW222935   0.185   4.201  13.515  0.0084 -0.7269 -0.1928
 3825SOL     OW22936   2.400   1.342   8.286 -0.3827  0.0234 -0.3426
 3825SOL    HW122937   2.453   1.326   8.208 -0.1017  0.8972 -0.3346
 3825SOL    HW222938   2.440   1.293   8.358  1.0249  0.1150 -1.0619
 3826SOL     OW22939   2.346   1.159   3.793 -0.4542  0.0697 -0.2995
 3826SOL    HW122940   2.287   1.087   3.771 -1.5187  0.3003  1.7777
 3826SOL    HW222941   2.288   1.225   3.829  0.8596  1.1551 -0.1877
 3827SOL     OW22942   3.551   3.272   8.478 -0.4479 -0.5493 -0.2172
 3827SOL    HW122943   3.588   3.209   8.539  2.1623 -0.4914 -1.7433
 3827SOL    HW222944   3.468   3.229   8.455 -0.5910 -0.2641 -0.2317
 3828SOL     OW22945   2.986   1.575  12.019 -0.1201  0.2169  0.5958
 3828SOL    HW122946   3.074   1.564  12.056  1.2886 -0.2446 -2.9259
 3828SOL    HW222947   2.942   1.495  12.047 -0.1869  0.2080  0.4606
 3829SOL     OW22948   1.077   0.794  15.607 -0.2293 -0.3125  0.2855
 3829SOL    HW122949   1.076   0.732  15.534  1.3853  0.0530 -0.0458
 3829SOL    HW222950   1.077   0.725  15.673  0.2321 -0.5226  0.0624
 3830SOL     OW22951   2.308   0.284   2.602  0.2161 -0.0419  0.1723
 3830SOL    HW122952   2.367   0.260   2.530 -0.6721  1.9961 -1.2611
 3830SOL    HW222953   2.248   0.338   2.550  1.3117  1.3154  0.2866
 3831SOL     OW22954   0.207   0.873   2.993 -0.3680 -0.0203 -0.0514
 3831SOL    HW122955   0.250   0.879   3.078 -1.8931 -1.0258  0.7909
 3831SOL    HW222956   0.279   0.871   2.931 -0.7723  2.1291 -0.5988
 3832SOL     OW22957   0.233   4.689   2.784 -0.0763  0.7900  0.2550
 3832SOL    HW122958   0.321   4.655   2.773 -0.7620 -0.9704  0.2228
 3832SOL    HW222959   0.221   0.019   2.703 -3.2973 -0.1852  0.1440
 3833SOL     OW22960   1.833   1.156  15.596  0.3987  0.0989 -0.4532
 3833SOL    HW122961   1.822   1.249  15.575  0.2509  0.2752  0.4044
 3833SOL    HW222962   1.924   1.157  15.624 -0.4208 -1.3917  2.2592
 3834SOL     OW22963   3.214   3.499   6.868 -1.2416 -0.3773 -0.0955
 3834SOL    HW122964   3.282   3.562   6.844 -0.7321 -0.6870  0.5017
 3834SOL    HW222965   3.226   3.432   6.801 -0.7496  0.4079 -0.7931
 3835SOL     OW22966   3.343   0.397   3.234 -0.1624  0.2822 -0.1429
 3835SOL    HW122967   3.340   0.388   3.329  1.5392  1.6391  0.0453
 3835SOL    HW222968   3.428   0.433   3.209 -0.6106  1.2133 -0.3624
 3836SOL     OW22969   1.481   2.343  13.845 -0.6501  0.4796 -0.2702
 3836SOL    HW122970   1.501   2.436  13.841  0.0065  0.3330 -0.5593
 3836SOL    HW222971   1.554   2.300  13.891 -1.8130 -1.3141 -0.0801
 3837SOL     OW22972   3.279   3.914   4.811 -0.5828 -0.5977  0.0959
 3837SOL    HW122973   3.273   3.876   4.724 -1.2348  0.1151 -0.1635
 3837SOL    HW222974   3.198   3.965   4.819 -0.7268 -0.8329  0.1467
 3838SOL     OW22975   4.665   0.882   7.269  0.6007 -0.2556  0.5526
 3838SOL    HW122976   4.597   0.918   7.326  0.6283 -0.3504  0.6462
 3838SOL    HW222977   4.643   0.935   7.192  0.4917 -0.2288  0.6026
 3839SOL     OW22978   0.055   2.733  16.947 -0.1125 -0.1681 -0.2334
 3839SOL    HW122979   0.066   2.811  17.000 -0.1846 -0.5588  0.3608
 3839SOL    HW222980   4.705   2.765  16.889 -0.6560  2.1677  1.7395
 3840SOL     OW22981   0.017   2.418   2.710 -0.2148 -0.4977 -0.5628
 3840SOL    HW122982   0.099   2.418   2.759  0.9951  0.8570 -2.5825
 3840SOL    HW222983   0.045   2.477   2.641 -0.0227 -0.2298 -0.2570
 3841SOL     OW22984   3.631   2.728   6.169  0.2227  0.9333  0.2601
 3841SOL    HW122985   3.545   2.689   6.188  0.0124  0.7682 -0.9886
 3841SOL    HW222986   3.643   2.727   6.074  0.9972 -0.6952  0.3885
 3842SOL     OW22987   3.444   4.012   6.395 -0.3125 -0.5383  0.1794
 3842SOL    HW122988   3.512   3.945   6.402  0.0065 -0.2239  0.0840
 3842SOL    HW222989   3.429   4.040   6.485 -0.9821 -0.4568  0.0454
 3843SOL     OW22990   2.587   2.822  13.066  0.7390 -0.3759  0.3155
 3843SOL    HW122991   2.638   2.884  13.116  1.9973 -0.5594 -0.7439
 3843SOL    HW222992   2.654   2.758  13.043  0.0809 -0.8354 -0.3395
 3844SOL     OW22993   0.351   3.827   8.518 -0.8537  0.1788 -0.1094
 3844SOL    HW122994   0.434   3.833   8.471 -0.4076 -0.7619  0.5664
 3844SOL    HW222995   0.335   3.732   8.523 -0.1852  0.0973  0.5535
 3845SOL     OW22996   3.812   3.524  12.095 -0.0680  0.1857 -0.0938
 3845SOL    HW122997   3.834   3.431  12.105 -0.3725  0.5269  3.8336
 3845SOL    HW222998   3.902   3.559  12.092 -0.2646  0.7455  0.4472
 3846SOL     OW22999   0.112   0.592   6.525 -0.6333 -0.7027  0.2547
 3846SOL    HW123000   0.171   0.575   6.599 -1.0188  1.5130  1.0817
 3846SOL    HW223001   0.061   0.661   6.567 -2.4210 -1.0456 -1.3499
 3847SOL     OW23002   0.833   1.162   0.420  0.3764  0.5082 -0.1059
 3847SOL    HW123003   0.765   1.109   0.379  0.7176 -0.1654  0.2006
 3847SOL    HW223004   0.794   1.167   0.507  1.7926 -0.0214  0.5722
 3848SOL     OW23005   0.249   2.949   7.112 -0.2982  0.0643  0.7329
 3848SOL    HW123006   0.212   3.036   7.127 -0.0559  0.0018  1.7167
 3848SOL    HW223007   0.162   2.911   7.099 -0.5958  0.1323  2.5722
 3849SOL     OW23008   0.697   4.447  14.790 -0.3962  0.4748  0.3370
 3849SOL    HW123009   0.629   4.386  14.760 -0.6638  0.6878  0.5095
 3849SOL    HW223010   0.644   4.526  14.780  1.6203  2.0761  2.4707
 3850SOL     OW23011   3.546   3.420   1.160  0.4482  0.0242 -0.0097
 3850SOL    HW123012   3.473   3.392   1.105 -0.5513  0.2733  1.1996
 3850SOL    HW223013   3.522   3.508   1.186  1.0195  0.2497 -0.2326
 3851SOL     OW23014   0.613   0.533   8.698 -0.1421  0.0431 -0.2878
 3851SOL    HW123015   0.595   0.590   8.772 -2.9711 -0.7266 -0.3560
 3851SOL    HW223016   0.691   0.497   8.741 -0.0277 -2.1768 -2.3553
 3852SOL     OW23017   0.549   2.377   5.568  0.3177 -0.9070  1.0817
 3852SOL    HW123018   0.598   2.435   5.509 -0.6867 -0.8458  0.3113
 3852SOL    HW223019   0.605   2.300   5.561  1.2732 -0.1508  0.3677
 3853SOL     OW23020   0.899   1.208   6.820  0.3448  0.4112  0.2635
 3853SOL    HW123021   0.953   1.135   6.853 -0.7927  0.4951  2.2676
 3853SOL    HW223022   0.951   1.278   6.858  0.0804  1.1820 -0.7959
 3854SOL     OW23023   3.414   3.508  14.984  0.2677  0.0954  0.4736
 3854SOL    HW123024   3.401   3.415  14.998  2.1391  0.1003  2.1938
 3854SOL    HW223025   3.504   3.516  14.951  0.0158  2.9010  0.4163
 3855SOL     OW23026   2.588   0.678  13.577 -0.8057 -0.0454  0.5599
 3855SOL    HW123027   2.672   0.717  13.604 -0.2889  0.6647 -2.0958
 3855SOL    HW223028   2.615   0.596  13.535  1.4558  0.7398  0.4619
 3856SOL     OW23029   2.100   3.865   6.662  0.6076 -0.0979 -0.3230
 3856SOL    HW123030   2.189   3.891   6.687  1.1129  0.2247 -2.4537
 3856SOL    HW223031   2.066   3.951   6.639 -0.0414 -0.5068 -0.8668
 3857SOL     OW23032   3.468   3.117   9.883 -0.5049 -0.6008  0.2327
 3857SOL    HW123033   3.389   3.169   9.867 -0.1575  0.0803  0.7578
 3857SOL    HW223034   3.458   3.114   9.978 -0.0525  1.2896  0.3288
 3858SOL     OW23035   4.004   0.973  15.963 -0.6083 -0.2456  0.3486
 3858SOL    HW123036   3.986   1.051  15.910 -0.7704 -0.5668 -0.0696
 3858SOL    HW223037   3.919   0.930  15.966 -0.6414  0.0371  3.6693
 3859SOL     OW23038   3.924   1.546   5.461 -0.5934  0.6675  0.1756
 3859SOL    HW123039   3.989   1.598   5.413  0.2765 -2.1303 -1.6517
 3859SOL    HW223040   3.936   1.462   5.416 -2.2862  0.8872 -0.6963
 3860SOL     OW23041   2.956   4.120   3.010 -0.0226  0.1783  0.1759
 3860SOL    HW123042   3.036   4.160   3.045  1.1009 -0.5516 -1.5383
 3860SOL    HW223043   3.000   4.062   2.948 -1.7252  1.1022 -1.8826
 3861SOL     OW23044   2.288   0.661   6.069 -0.3096 -0.0592  0.2255
 3861SOL    HW123045   2.355   0.692   6.009  0.0356 -0.2325  0.5146
 3861SOL    HW223046   2.299   0.728   6.136 -0.2179  0.0180  0.1312
 3862SOL     OW23047   0.094   4.233   5.298 -0.4985 -0.3179  0.2317
 3862SOL    HW123048   0.054   4.258   5.381 -0.2596  0.4328  0.1256
 3862SOL    HW223049   0.053   4.291   5.234  0.3688  1.0852  0.9593
 3863SOL     OW23050   3.847   0.433   9.357 -0.5589 -0.2604 -0.0078
 3863SOL    HW123051   3.756   0.460   9.348 -0.8069 -1.6452 -1.6503
 3863SOL    HW223052   3.831   0.340   9.343  0.4791 -0.4112 -0.2042
 3864SOL     OW23053   1.542   1.176   4.172  0.3536  0.4638 -0.2604
 3864SOL    HW123054   1.547   1.096   4.226  0.2044  2.2485  2.4176
 3864SOL    HW223055   1.634   1.187   4.149  0.9683 -3.3974  0.2146
 3865SOL     OW23056   2.635   0.427   3.740  0.6167  0.1847  0.6962
 3865SOL    HW123057   2.632   0.434   3.645 -2.3754  0.7166  0.8205
 3865SOL    HW223058   2.724   0.396   3.754  0.9078  1.3005  1.2773
 3866SOL     OW23059   0.905   3.378   6.432  0.1339 -0.1740  0.4046
 3866SOL    HW123060   0.880   3.307   6.491 -2.8408  0.5235 -0.0517
 3866SOL    HW223061   0.942   3.444   6.491  0.5407  0.9688 -1.1466
 3867SOL     OW23062   2.460   1.735   1.079 -0.0806 -0.2327 -0.1994
 3867SOL    HW123063   2.370   1.719   1.106  0.6317 -0.4933  1.9828
 3867SOL    HW223064   2.484   1.808   1.135  0.9798 -0.1127 -0.8033
 3868SOL     OW23065   4.257   1.799  11.970 -0.3282 -0.0996  0.1109
 3868SOL    HW123066   4.261   1.889  11.937 -1.2064 -1.2486 -3.1624
 3868SOL    HW223067   4.260   1.758  11.883  0.2729 -1.2042  0.6537
 3869SOL     OW23068   3.997   1.807   3.353  0.1378  0.0833 -0.1941
 3869SOL    HW123069   4.056   1.870   3.313 -1.5657  1.1653 -1.0331
 3869SOL    HW223070   4.033   1.729   3.312 -1.2947  0.0651 -1.4439
 3870SOL     OW23071   1.718   3.483   3.396 -0.0524  1.1997 -0.3269
 3870SOL    HW123072   1.671   3.457   3.475  0.1308 -0.1089 -0.6407
 3870SOL    HW223073   1.756   3.569   3.413  0.0810  0.9287  0.7198
 3871SOL     OW23074   2.159   0.644   4.830  0.2778 -0.0913  0.0788
 3871SOL    HW123075   2.150   0.566   4.884  0.6067 -0.4218 -0.3408
 3871SOL    HW223076   2.121   0.615   4.747 -1.0237 -0.1912  0.7093
 3872SOL     OW23077   2.521   1.578   6.684  0.3306  0.0384  0.5249
 3872SOL    HW123078   2.502   1.671   6.694  0.2961  0.1265 -0.3987
 3872SOL    HW223079   2.555   1.583   6.595  1.1867 -1.2530  0.7820
 3873SOL     OW23080   1.552   2.643   0.734  0.1523  0.1191  0.3093
 3873SOL    HW123081   1.516   2.609   0.653  0.3075 -0.2034  0.3764
 3873SOL    HW223082   1.548   2.737   0.720 -1.7161  0.2026  1.3480
 3874SOL     OW23083   3.410   3.358   3.020 -0.1329 -0.3455  0.3649
 3874SOL    HW123084   3.498   3.383   3.050  0.4801 -2.8201  0.6216
 3874SOL    HW223085   3.435   3.278   2.974 -0.0947 -0.5158  0.6813
 3875SOL     OW23086   3.373   4.320   1.369 -0.0820  0.1215 -0.1407
 3875SOL    HW123087   3.321   4.317   1.449  2.3058 -2.4483  1.3092
 3875SOL    HW223088   3.379   4.229   1.338  0.4409 -0.0594  0.4984
 3876SOL     OW23089   4.590   0.428   0.290  0.5338  0.2947  0.2067
 3876SOL    HW123090   4.570   0.397   0.201  0.1464 -0.2160  0.4722
 3876SOL    HW223091   4.536   0.507   0.287 -1.0123 -0.8004 -0.7022
 3877SOL     OW23092   2.541   1.574   8.522 -0.4933  0.3908 -0.0257
 3877SOL    HW123093   2.508   1.506   8.582  0.0800 -0.3110 -0.5031
 3877SOL    HW223094   2.503   1.546   8.438  0.0734 -0.5473  0.0279
 3878SOL     OW23095   3.041   3.323   7.045  0.4925 -0.6158 -0.2154
 3878SOL    HW123096   3.132   3.331   7.015  0.6434 -0.0041  0.4118
 3878SOL    HW223097   3.040   3.404   7.095  2.0056  0.6314 -2.1972
 3879SOL     OW23098   0.855   2.521   7.526 -0.2781 -0.1962 -0.3784
 3879SOL    HW123099   0.848   2.534   7.431 -0.4598 -1.9597 -0.6112
 3879SOL    HW223100   0.862   2.426   7.524 -0.4027 -0.2613  2.8701
 3880SOL     OW23101   0.260   3.070   0.000  0.0313  0.4166  0.2162
 3880SOL    HW123102   0.175   3.090   0.038 -1.0009  0.0222 -1.9200
 3880SOL    HW223103   0.315   3.097   0.074 -1.4518  2.6235  0.5241
 3881SOL     OW23104   2.391   0.190   6.141  0.1775 -0.0117  1.1434
 3881SOL    HW123105   2.414   0.137   6.065 -1.6119 -0.8460  1.1743
 3881SOL    HW223106   2.318   0.136   6.173  0.3223 -1.4583 -0.9766
 3882SOL     OW23107   0.872   3.704   0.699 -0.1601 -0.1348  0.3731
 3882SOL    HW123108   0.890   3.797   0.716 -1.0675  0.7386 -3.6204
 3882SOL    HW223109   0.811   3.689   0.771  0.2812 -1.5892  0.4397
 3883SOL     OW23110   3.723   3.962  15.711 -0.5538 -0.4239  0.1781
 3883SOL    HW123111   3.635   3.949  15.747 -0.5976 -0.1672  0.1691
 3883SOL    HW223112   3.718   3.924  15.624 -0.0468  3.6830 -1.6460
 3884SOL     OW23113   4.239   0.167   5.091 -0.0329  0.0736  0.2196
 3884SOL    HW123114   4.154   0.165   5.134 -1.3633  0.7165 -2.3949
 3884SOL    HW223115   4.291   0.159   5.171  0.4697  0.9096 -0.0194
 3885SOL     OW23116   3.367   0.444   3.497 -0.2643  0.5892  0.2147
 3885SOL    HW123117   3.308   0.520   3.504 -1.4192 -0.3513  0.6510
 3885SOL    HW223118   3.350   0.381   3.567  1.9614 -0.0939  0.1243
 3886SOL     OW23119   0.115   0.457  11.782 -0.0499  0.0683 -0.0028
 3886SOL    HW123120   0.168   0.454  11.862 -1.2816  0.0030  0.8026
 3886SOL    HW223121   0.028   0.467  11.819  0.9681  1.3227  2.0773
 3887SOL     OW23122   0.802   2.478   6.728  0.3955 -0.3594  0.4096
 3887SOL    HW123123   0.855   2.430   6.665  1.2268 -2.6264  2.8126
 3887SOL    HW223124   0.834   2.437   6.808 -1.8412  0.0907  1.5447
 3888SOL     OW23125   3.555   1.722  13.705 -0.2741 -0.8003 -0.9261
 3888SOL    HW123126   3.628   1.690  13.652 -0.6210 -2.0852 -0.6341
 3888SOL    HW223127   3.553   1.658  13.777  1.4831  2.2703  1.8748
 3889SOL     OW23128   1.419   1.789   0.758 -0.0982 -0.6744  0.2013
 3889SOL    HW123129   1.447   1.807   0.668 -2.0698  0.5171 -0.1898
 3889SOL    HW223130   1.416   1.879   0.791 -1.2131  0.2365 -2.3311
 3890SOL     OW23131   4.509   3.264  13.032 -0.2864 -0.0598 -0.4320
 3890SOL    HW123132   4.529   3.175  13.003  2.1842  0.0929  0.8098
 3890SOL    HW223133   4.424   3.252  13.075 -0.5784 -0.3512 -1.0947
 3891SOL     OW23134   1.017   3.067   9.473  0.1835  0.4430  0.6773
 3891SOL    HW123135   1.019   3.154   9.513  0.1993 -0.1710  2.0221
 3891SOL    HW223136   0.952   3.030   9.533 -0.3182 -2.5175 -1.7015
 3892SOL     OW23137   0.937   0.319   5.846 -0.0861  0.7853 -0.4299
 3892SOL    HW123138   1.009   0.276   5.893  0.8237 -0.8590 -3.2752
 3892SOL    HW223139   0.983   0.361   5.773  0.8527  2.2830  1.0482
 3893SOL     OW23140   1.931   1.643  17.423  0.8755 -0.3596 -0.1417
 3893SOL    HW123141   1.910   1.565  17.473  3.5029 -1.3688 -0.6377
 3893SOL    HW223142   1.998   1.615  17.360  2.5455 -0.1898  1.5731
 3894SOL     OW23143   2.491   2.724  15.599 -0.2346 -0.0746 -0.0494
 3894SOL    HW123144   2.566   2.743  15.542 -0.1184 -0.5611 -0.0604
 3894SOL    HW223145   2.521   2.668  15.671 -1.0045  1.6525  1.6001
 3895SOL     OW23146   0.579   1.967   4.207  0.4957  0.0217 -0.9942
 3895SOL    HW123147   0.606   2.009   4.125  0.7848  1.2625 -0.2548
 3895SOL    HW223148   0.666   1.946   4.240  0.1114 -2.5910 -1.6145
 3896SOL     OW23149   3.258   2.636  17.500  0.0013  0.3452 -0.4809
 3896SOL    HW123150   3.204   2.668  17.428 -1.1475 -0.9431 -0.1897
 3896SOL    HW223151   3.340   2.601  17.463 -0.8463  0.6541 -2.6643
 3897SOL     OW23152   1.259   0.996  15.990 -0.2374  0.1186  0.3467
 3897SOL    HW123153   1.281   1.088  15.975  2.1926 -0.3564  1.0443
 3897SOL    HW223154   1.313   0.940  15.935  0.0228 -0.9041  1.6367
 3898SOL     OW23155   3.243   4.271   7.685  0.3645  0.0133  0.1046
 3898SOL    HW123156   3.287   4.308   7.761 -1.6814  0.6327  1.0002
 3898SOL    HW223157   3.277   4.182   7.683  1.3828  0.3339  3.8112
 3899SOL     OW23158   1.262   0.192   9.727 -0.0626  0.1533 -0.2853
 3899SOL    HW123159   1.256   0.287   9.736 -1.3410  0.0902 -0.3996
 3899SOL    HW223160   1.356   0.187   9.716  0.1328  0.1269  1.3892
 3900SOL     OW23161   1.928   2.852   3.511 -0.8271 -0.2385  0.1659
 3900SOL    HW123162   1.897   2.762   3.517  0.1632 -0.6499 -0.9122
 3900SOL    HW223163   1.840   2.889   3.517 -0.7337  0.3631 -2.2726
 3901SOL     OW23164   1.033   2.454  15.886 -0.7410  0.2692 -0.2779
 3901SOL    HW123165   1.074   2.518  15.944  0.0105  1.1124 -1.7470
 3901SOL    HW223166   1.095   2.385  15.865  0.1688  0.5933  1.3957
 3902SOL     OW23167   0.568   1.707   3.659 -0.1375  0.0452  0.6114
 3902SOL    HW123168   0.593   1.745   3.574 -0.2277 -1.0287  0.1107
 3902SOL    HW223169   0.655   1.681   3.688  1.2652  3.1724 -0.7708
 3903SOL     OW23170   2.199   1.282   9.149 -0.4182  0.8734 -0.2804
 3903SOL    HW123171   2.189   1.203   9.095  0.8461  0.8383 -0.4633
 3903SOL    HW223172   2.279   1.255   9.194 -0.7373  0.0736 -0.2003
 3904SOL     OW23173   2.087   0.695   5.399 -0.3429  0.2532 -0.3020
 3904SOL    HW123174   2.086   0.778   5.352 -0.3109  0.0509 -0.6578
 3904SOL    HW223175   2.008   0.654   5.361  0.0226 -0.6357 -0.1039
 3905SOL     OW23176   3.852   1.956   6.433  0.3406  0.0001  0.2877
 3905SOL    HW123177   3.936   1.938   6.476  0.4729 -1.3322 -0.5239
 3905SOL    HW223178   3.803   1.874   6.440 -0.2867  0.1783 -2.0804
 3906SOL     OW23179   0.743   0.475  14.503  0.2436  0.2846 -0.1243
 3906SOL    HW123180   0.737   0.571  14.500  0.3015  0.3541  2.5424
 3906SOL    HW223181   0.729   0.466  14.597 -2.6205  0.2689 -0.5447
 3907SOL     OW23182   1.370   2.311   3.104 -0.2651 -0.4439  0.1286
 3907SOL    HW123183   1.413   2.254   3.041  0.2831 -0.8272  0.8544
 3907SOL    HW223184   1.309   2.247   3.140 -0.4266  0.5560  1.6300
 3908SOL     OW23185   2.998   2.973   3.696  0.0767  0.5623 -0.1034
 3908SOL    HW123186   2.949   2.945   3.619  1.8081 -1.2346 -0.5602
 3908SOL    HW223187   3.088   2.952   3.671 -0.4224 -0.4712 -1.0261
 3909SOL     OW23188   1.240   0.104   5.377 -0.0928 -0.1117  0.0520
 3909SOL    HW123189   1.290   0.174   5.334  1.1725 -2.0126 -1.6076
 3909SOL    HW223190   1.292   0.072   5.451  0.9672 -0.4122 -0.8261
 3910SOL     OW23191   4.156   3.602  12.785  0.7788  0.1710 -0.0921
 3910SOL    HW123192   4.110   3.624  12.704 -1.6894 -0.8139  1.0753
 3910SOL    HW223193   4.202   3.683  12.808  1.9621 -1.0187  1.7434
 3911SOL     OW23194   1.588   3.978   1.856  0.1084 -0.2529 -0.5368
 3911SOL    HW123195   1.673   4.009   1.888 -0.5077 -0.0519  0.9005
 3911SOL    HW223196   1.622   3.918   1.790 -3.1542  1.0342 -3.3891
 3912SOL     OW23197   3.564   3.709   9.877 -0.5262 -0.4942 -0.0585
 3912SOL    HW123198   3.580   3.800   9.854 -0.4530  0.5674  4.1775
 3912SOL    HW223199   3.581   3.704   9.971 -1.7136 -1.3773  0.1186
 3913SOL     OW23200   2.171   1.675   9.688 -0.4808 -0.2795 -0.0562
 3913SOL    HW123201   2.139   1.695   9.776  2.9145 -0.3250  1.1777
 3913SOL    HW223202   2.087   1.674   9.643 -0.4272 -2.9407 -0.0978
 3914SOL     OW23203   2.568   3.898  12.682  0.5481  0.1154  0.6721
 3914SOL    HW123204   2.538   3.836  12.750 -2.1474  0.8903  0.1921
 3914SOL    HW223205   2.574   3.982  12.728  1.5676  0.2716  0.2606
 3915SOL     OW23206   4.400   3.608   4.328  0.4466  0.1321  0.6546
 3915SOL    HW123207   4.469   3.544   4.311 -0.0384 -1.2163  3.7809
 3915SOL    HW223208   4.399   3.649   4.241 -0.6227  1.8997  1.4992
 3916SOL     OW23209   1.494   1.046   8.191  0.2186 -0.3049  0.0081
 3916SOL    HW123210   1.483   1.028   8.097  2.6897 -0.8982 -0.1636
 3916SOL    HW223211   1.421   1.100   8.222  0.4858  1.1526 -1.8529
 3917SOL     OW23212   4.245   0.064   8.872 -0.4595 -0.0540  0.2172
 3917SOL    HW123213   4.263   0.153   8.901 -0.8726  0.9061 -2.4367
 3917SOL    HW223214   4.276   0.057   8.782  0.4849  1.6128  0.4131
 3918SOL     OW23215   0.165   0.858   9.110  0.3655  0.0501 -0.1304
 3918SOL    HW123216   0.093   0.817   9.158 -1.2323  2.7705 -0.2070
 3918SOL    HW223217   0.179   0.931   9.170  1.2655  0.2844 -0.6232
 3919SOL     OW23218   0.719   3.567  17.421  0.4938  0.0190 -0.0066
 3919SOL    HW123219   0.654   3.524  17.475  0.5222 -1.1169 -0.8640
 3919SOL    HW223220   0.746   3.639  17.478 -1.1443  0.9319 -0.3803
 3920SOL     OW23221   4.585   3.354   2.397  0.0735  0.0018  0.2314
 3920SOL    HW123222   4.659   3.409   2.424  2.0094 -1.4318 -2.1237
 3920SOL    HW223223   4.590   3.383   2.306  0.9135  0.7187  0.4970
 3921SOL     OW23224   2.394   3.060   8.457  0.1998  0.2878  0.2305
 3921SOL    HW123225   2.454   3.063   8.531 -0.0048 -0.4403  0.4239
 3921SOL    HW223226   2.459   3.076   8.389  0.0356  0.2105  0.0555
 3922SOL     OW23227   1.456   3.749   3.713 -0.1131  0.2967  0.2518
 3922SOL    HW123228   1.550   3.755   3.698 -0.3496 -0.3759 -1.4788
 3922SOL    HW223229   1.421   3.727   3.626  0.6612 -0.9836  0.2576
 3923SOL     OW23230   4.484   3.271   5.450  0.8446  0.5552 -0.4519
 3923SOL    HW123231   4.424   3.339   5.418 -0.9475 -0.8749 -0.1789
 3923SOL    HW223232   4.494   3.315   5.534  0.0295 -1.2647  0.5966
 3924SOL     OW23233   4.528   3.973   2.240  0.5974 -0.0237 -0.5501
 3924SOL    HW123234   4.513   3.900   2.180 -0.5410 -0.3540  0.1269
 3924SOL    HW223235   4.475   3.942   2.313  0.2164 -1.0657 -1.2733
 3925SOL     OW23236   1.885   4.601   7.084 -0.5292  0.0768 -0.3363
 3925SOL    HW123237   1.823   4.537   7.120 -0.8863  0.8248  0.3646
 3925SOL    HW223238   1.831   4.649   7.022  1.7274  2.6418 -0.3097
 3926SOL     OW23239   1.178   2.439  12.044  0.0113  0.0812 -0.2695
 3926SOL    HW123240   1.221   2.490  12.112 -0.8530 -0.2120  0.5034
 3926SOL    HW223241   1.135   2.515  12.004  1.5121  1.3069  0.4788
 3927SOL     OW23242   1.828   2.209   8.852 -0.5574  0.4787 -0.3050
 3927SOL    HW123243   1.880   2.260   8.790  0.7500 -0.0422  0.3610
 3927SOL    HW223244   1.816   2.123   8.813  3.8831 -0.5937  0.6503
 3928SOL     OW23245   1.320   3.608   8.478 -0.9596 -0.6826 -0.3594
 3928SOL    HW123246   1.387   3.645   8.420 -2.1675  0.8873 -0.7440
 3928SOL    HW223247   1.364   3.527   8.503 -0.9476 -0.4066  0.5148
 3929SOL     OW23248   2.618   3.198   3.002  0.5597 -0.0991 -0.5637
 3929SOL    HW123249   2.555   3.257   3.041  2.6039  1.1651  0.8252
 3929SOL    HW223250   2.702   3.224   3.039 -0.2611 -0.6326  1.6472
 3930SOL     OW23251   0.472   3.424   2.486 -0.0201  0.5211  0.1512
 3930SOL    HW123252   0.421   3.487   2.537 -0.8587  0.4396 -0.6017
 3930SOL    HW223253   0.479   3.465   2.400 -0.1981 -0.8892 -0.5484
 3931SOL     OW23254   3.657   2.100   2.138  0.0477 -0.5080  0.1040
 3931SOL    HW123255   3.737   2.048   2.134  0.0982 -0.3206 -1.2979
 3931SOL    HW223256   3.595   2.065   2.203 -2.0614  0.2568 -1.4797
 3932SOL     OW23257   1.624   1.366   1.562  0.1410  0.0671 -0.4294
 3932SOL    HW123258   1.641   1.460   1.564  0.2970  0.0217  0.3691
 3932SOL    HW223259   1.702   1.326   1.524 -1.2905 -1.2837 -1.9069
 3933SOL     OW23260   0.707   0.667   0.277 -0.1505 -0.3364 -0.1323
 3933SOL    HW123261   0.755   0.584   0.279 -0.4595 -0.4769  1.3656
 3933SOL    HW223262   0.764   0.724   0.226 -0.1014 -3.2782 -3.4184
 3934SOL     OW23263   2.363   3.263   6.116  0.2644  0.2969 -0.2666
 3934SOL    HW123264   2.276   3.302   6.111  1.1428  2.0450 -1.8212
 3934SOL    HW223265   2.381   3.266   6.210  1.7737  1.3166 -0.5809
 3935SOL     OW23266   0.997   1.802   8.200  0.2468  0.4612 -0.2575
 3935SOL    HW123267   0.974   1.725   8.252  2.4524 -1.3744 -1.9831
 3935SOL    HW223268   1.060   1.852   8.251  0.2084 -0.7638  0.9879
 3936SOL     OW23269   0.168   2.880   3.158 -0.1164  0.6701  0.1078
 3936SOL    HW123270   0.188   2.931   3.079 -1.1826  1.1928  0.1716
 3936SOL    HW223271   0.081   2.918   3.169 -0.2774  0.5287 -0.6906
 3937SOL     OW23272   1.074   2.736   8.627  0.1740 -0.3484  0.1185
 3937SOL    HW123273   1.043   2.699   8.545 -1.3283 -0.4946  0.7494
 3937SOL    HW223274   0.993   2.781   8.649  0.7557 -0.2273  2.0379
 3938SOL     OW23275   4.410   1.222   8.081 -0.0366 -0.4975  0.5168
 3938SOL    HW123276   4.451   1.181   8.004  1.9521  1.0244  0.7573
 3938SOL    HW223277   4.487   1.233   8.137  0.6746 -3.2514  0.0673
 3939SOL     OW23278   3.888   1.671   7.121 -1.0289 -0.1223 -0.1288
 3939SOL    HW123279   3.863   1.729   7.193  0.2308 -0.5977  0.6856
 3939SOL    HW223280   3.873   1.724   7.042 -0.2867  1.1481  0.5837
 3940SOL     OW23281   0.844   4.195  17.250 -0.1534 -0.1977  0.0201
 3940SOL    HW123282   0.936   4.200  17.274 -0.0377  0.7013 -0.6065
 3940SOL    HW223283   0.826   4.289  17.246  0.0030 -0.2782 -2.6271
 3941SOL     OW23284   4.701   2.990   6.364 -1.4543 -0.4373 -0.3117
 3941SOL    HW123285   4.703   2.972   6.458 -0.4845  1.0548 -0.0359
 3941SOL    HW223286   0.039   3.067   6.357 -0.9807 -1.0339 -2.8933
 3942SOL     OW23287   3.237   1.859   4.945 -0.6922 -0.1933  0.7967
 3942SOL    HW123288   3.176   1.789   4.966  1.2639 -1.2528  3.0428
 3942SOL    HW223289   3.292   1.864   5.023 -1.2664 -3.6266  1.4058
 3943SOL     OW23290   0.245   2.434   2.841 -0.1763 -0.0924  0.1043
 3943SOL    HW123291   0.306   2.363   2.821 -0.0568 -0.3699  1.4308
 3943SOL    HW223292   0.302   2.511   2.845  0.2416 -0.3649 -0.7079
 3944SOL     OW23293   3.045   2.977   5.929 -0.1765 -0.1182  0.5642
 3944SOL    HW123294   3.096   3.033   5.871 -1.2640  0.5224  0.2238
 3944SOL    HW223295   3.033   2.901   5.871 -1.8799 -0.5591  1.4812
 3945SOL     OW23296   1.848   3.150   3.338 -0.0439  0.0493 -0.4947
 3945SOL    HW123297   1.916   3.137   3.405  1.1949 -2.6398 -2.2853
 3945SOL    HW223298   1.776   3.182   3.392  0.6624  0.6037  0.1216
 3946SOL     OW23299   3.997   1.782   5.904  0.5062 -0.0649  0.2241
 3946SOL    HW123300   3.978   1.694   5.937  1.7363 -1.0554 -1.6783
 3946SOL    HW223301   4.054   1.757   5.831  1.8134 -1.5729  1.7836
 3947SOL     OW23302   2.847   0.222   3.777  0.2162  0.6582 -0.0076
 3947SOL    HW123303   2.771   0.188   3.826  0.2167  1.8297  0.7989
 3947SOL    HW223304   2.924   0.188   3.822 -0.6813 -2.1491 -0.5697
 3948SOL     OW23305   3.687   2.058   3.033 -0.1312 -0.0992 -0.1470
 3948SOL    HW123306   3.678   1.970   3.068 -0.2511 -0.7056 -1.6930
 3948SOL    HW223307   3.774   2.052   2.993 -0.7881  1.1390 -1.7275
 3949SOL     OW23308   1.838   4.167   5.706 -0.8784 -0.3692  0.0659
 3949SOL    HW123309   1.856   4.087   5.656 -0.2107  1.2292 -2.2206
 3949SOL    HW223310   1.915   4.182   5.760 -0.8972 -2.4629  0.7073
 3950SOL     OW23311   2.420   0.547  14.960  0.3389 -0.0011 -0.3110
 3950SOL    HW123312   2.489   0.605  14.929  0.4006  1.2189  2.1256
 3950SOL    HW223313   2.335   0.583  14.937  0.9118  2.3341  1.2336
 3951SOL     OW23314   4.272   3.248   4.563 -0.2670  0.3271  0.2295
 3951SOL    HW123315   4.264   3.267   4.469 -1.4084  3.1571  0.9141
 3951SOL    HW223316   4.223   3.320   4.600 -0.1251  0.9348 -0.7708
 3952SOL     OW23317   0.528   4.401  16.811 -0.0108  0.2748  0.2441
 3952SOL    HW123318   0.472   4.443  16.876 -0.1332  1.0617 -0.3679
 3952SOL    HW223319   0.463   4.378  16.743 -0.4106 -0.3030  0.8155
 3953SOL     OW23320   4.417   1.641  14.320  0.4863 -0.0342 -0.5174
 3953SOL    HW123321   4.465   1.688  14.388 -1.3303  0.1403  0.6413
 3953SOL    HW223322   4.328   1.675  14.327  1.1538  1.8540 -1.0823
 3954SOL     OW23323   3.898   0.254   6.699  0.0623 -0.5209 -0.3004
 3954SOL    HW123324   3.812   0.258   6.741 -0.4245 -1.2528 -1.2155
 3954SOL    HW223325   3.934   0.183   6.751  3.0307  1.2510  0.0069
 3955SOL     OW23326   1.693   1.931   8.183  0.0709  0.3316 -0.3555
 3955SOL    HW123327   1.706   1.867   8.113  0.5061  0.8096 -0.7140
 3955SOL    HW223328   1.660   1.874   8.251  1.9969  0.7583  0.9546
 3956SOL     OW23329   0.581   4.148   7.997 -0.2496 -0.0120  0.3534
 3956SOL    HW123330   0.620   4.060   7.994  1.1202  0.5837  0.5973
 3956SOL    HW223331   0.579   4.156   8.093 -0.5794  1.1043  0.2489
 3957SOL     OW23332   0.670   3.976   3.265 -0.5933  0.0379 -0.4332
 3957SOL    HW123333   0.734   3.922   3.221 -4.9856 -1.6720 -4.7542
 3957SOL    HW223334   0.589   3.958   3.216 -0.6781 -0.9619  0.0715
 3958SOL     OW23335   4.228   3.960   7.971  0.2387  0.1583  0.0003
 3958SOL    HW123336   4.305   4.008   8.001  0.4667  1.2760 -2.3298
 3958SOL    HW223337   4.269   3.885   7.928  0.4096 -0.6636  1.6034
 3959SOL     OW23338   3.956   3.253  12.192  0.5451  0.1709 -0.2108
 3959SOL    HW123339   3.948   3.196  12.115 -0.0399 -0.8261  0.5811
 3959SOL    HW223340   3.942   3.186  12.259 -1.9604  0.6786 -0.2287
 3960SOL     OW23341   3.216   2.304   8.355 -0.3322  0.2987 -0.5092
 3960SOL    HW123342   3.263   2.257   8.424  0.4599  0.5558 -0.8755
 3960SOL    HW223343   3.142   2.243   8.356 -0.1461  0.0736 -0.3828
 3961SOL     OW23344   3.392   3.253   0.025  0.3439 -0.0351  0.2766
 3961SOL    HW123345   3.466   3.309   0.046  1.2691 -0.9824 -0.4801
 3961SOL    HW223346   3.339   3.255   0.105 -0.3765  1.1644 -0.2190
 3962SOL     OW23347   2.437   2.688   6.563 -0.2028 -0.2837  0.6415
 3962SOL    HW123348   2.358   2.646   6.597  0.8401 -0.4451  2.8775
 3962SOL    HW223349   2.472   2.740   6.637  0.2947 -1.2392  1.0790
 3963SOL     OW23350   4.480   2.189   4.695  0.4823  0.4764  0.6810
 3963SOL    HW123351   4.471   2.094   4.705  0.0047  0.7652  3.0429
 3963SOL    HW223352   4.533   2.196   4.616 -1.1661 -0.1293 -0.4766
 3964SOL     OW23353   2.129   4.528   5.363  0.1044 -0.0906 -0.0069
 3964SOL    HW123354   2.165   4.488   5.284  0.5930  2.3740 -1.0413
 3964SOL    HW223355   2.133   4.614   5.321 -0.0859  0.4042  0.9911
 3965SOL     OW23356   2.101   1.728   5.509  0.0878 -0.1611 -0.2815
 3965SOL    HW123357   2.085   1.813   5.467 -2.1882 -1.5805 -2.3710
 3965SOL    HW223358   2.027   1.673   5.483  1.9143 -2.2582 -1.0024
 3966SOL     OW23359   2.850   1.008  15.643 -0.7983  0.3695 -0.3183
 3966SOL    HW123360   2.834   0.964  15.727 -1.5773  0.2610 -0.5203
 3966SOL    HW223361   2.931   1.057  15.650 -0.2696 -0.3993 -1.1281
 3967SOL     OW23362   4.122   1.189  17.134  0.4828 -0.3346  0.5228
 3967SOL    HW123363   4.195   1.132  17.111  1.0077  0.6821 -0.3475
 3967SOL    HW223364   4.112   1.167  17.226  1.7604 -0.2634  0.6747
 3968SOL     OW23365   0.731   4.555   5.391 -0.4161 -0.3117 -0.1132
 3968SOL    HW123366   0.678   4.484   5.354 -0.4372 -0.1264 -0.4392
 3968SOL    HW223367   0.784   4.577   5.315 -0.5217  1.5640  0.3701
 3969SOL     OW23368   0.194   2.971   9.965 -0.1889 -0.0948  0.1939
 3969SOL    HW123369   0.221   3.050  10.013  1.2300 -0.4259 -0.0648
 3969SOL    HW223370   0.248   2.973   9.887  1.8955  2.0171  1.7011
 3970SOL     OW23371   3.273   0.753   5.083  0.5447 -0.2309 -0.3701
 3970SOL    HW123372   3.329   0.724   5.010  0.4514 -0.7526 -0.2362
 3970SOL    HW223373   3.291   0.686   5.149  1.5229  1.8729  1.5026
 3971SOL     OW23374   0.696   2.925   4.341  0.1468 -0.0879  0.0575
 3971SOL    HW123375   0.661   2.973   4.266  1.5179 -0.8422 -1.0596
 3971SOL    HW223376   0.677   2.990   4.409  0.8799  0.8043 -0.5882
 3972SOL     OW23377   1.273   3.264   1.411 -0.0727  0.1712 -0.7144
 3972SOL    HW123378   1.212   3.336   1.429  0.3399 -0.3788  2.8717
 3972SOL    HW223379   1.307   3.286   1.324 -1.7844  0.6928 -1.2646
 3973SOL     OW23380   4.212   0.864  10.411 -0.2396 -0.0582  0.0141
 3973SOL    HW123381   4.244   0.777  10.386 -0.8493 -0.4807  0.7135
 3973SOL    HW223382   4.129   0.861  10.362 -0.1470 -1.6968 -0.0464
 3974SOL     OW23383   2.820   0.343   1.352 -0.5293 -0.1602 -0.5527
 3974SOL    HW123384   2.825   0.422   1.298  0.7172  0.8469  1.0744
 3974SOL    HW223385   2.740   0.308   1.312  0.1154 -2.6582  0.3884
 3975SOL     OW23386   0.234   0.859   3.589  0.6082 -0.3922 -0.0444
 3975SOL    HW123387   0.171   0.857   3.517  0.5649 -1.2333  0.0238
 3975SOL    HW223388   0.180   0.869   3.667  0.6512 -0.8429  0.0423
 3976SOL     OW23389   4.404   4.434  10.094  0.2768  0.0920  0.0676
 3976SOL    HW123390   4.479   4.494  10.094 -0.1188  0.5671  2.1620
 3976SOL    HW223391   4.370   4.449  10.005 -0.7165  1.5786  0.7057
 3977SOL     OW23392   2.774   1.108  11.925  0.4112  0.4999 -0.3829
 3977SOL    HW123393   2.682   1.131  11.919  0.0987 -0.1684  1.6906
 3977SOL    HW223394   2.793   1.119  11.832 -0.2401 -0.9254 -0.6702
 3978SOL     OW23395   1.721   2.482   0.886 -0.4360  0.3213 -0.0089
 3978SOL    HW123396   1.664   2.531   0.826 -0.9056 -1.3609 -0.9096
 3978SOL    HW223397   1.722   2.548   0.956  1.8899  1.3530 -1.0392
 3979SOL     OW23398   0.501   4.399   3.775  0.0127 -0.3407 -0.2174
 3979SOL    HW123399   0.498   4.307   3.802  0.9635 -0.0126  1.0443
 3979SOL    HW223400   0.432   4.404   3.709 -0.5111 -1.7533  0.2036
 3980SOL     OW23401   4.452   4.053   6.834  0.1496 -0.6410  0.1747
 3980SOL    HW123402   4.508   4.130   6.849 -0.4313 -0.3150  0.6765
 3980SOL    HW223403   4.434   4.069   6.741  0.5331 -1.7440 -0.0808
 3981SOL     OW23404   1.389   1.007  17.344 -0.8543  0.5434  0.3431
 3981SOL    HW123405   1.316   1.027  17.285 -0.8776  1.1064  0.5648
 3981SOL    HW223406   1.469   1.032  17.298 -1.0976 -0.7009 -0.7595
 3982SOL     OW23407   3.414   2.530  11.351  0.2835  0.2444 -0.3546
 3982SOL    HW123408   3.419   2.444  11.392 -1.5185 -0.4723 -1.6252
 3982SOL    HW223409   3.457   2.517  11.267  1.7611 -2.9059  0.9215
 3983SOL     OW23410   2.631   4.382   5.534 -0.1468 -0.2715 -0.2592
 3983SOL    HW123411   2.663   4.467   5.503  3.3850 -2.2686 -2.0292
 3983SOL    HW223412   2.539   4.380   5.507 -0.1390 -0.2255 -0.2902
 3984SOL     OW23413   1.939   1.197  13.012 -0.3399  0.0188  0.8549
 3984SOL    HW123414   1.982   1.267  13.061 -0.0174 -0.4335  1.2157
 3984SOL    HW223415   2.011   1.136  12.995  1.4151  2.4787 -0.4593
 3985SOL     OW23416   1.993   2.236   0.969 -0.1566 -0.0139  0.1917
 3985SOL    HW123417   1.999   2.164   1.032  1.7888  1.1212  1.3040
 3985SOL    HW223418   2.067   2.204   0.916 -0.5466  2.2032 -1.7052
 3986SOL     OW23419   3.458   0.126   4.233  0.0657 -0.3170 -0.1446
 3986SOL    HW123420   3.492   0.175   4.307 -1.2139  1.0742 -0.4958
 3986SOL    HW223421   3.511   0.048   4.250 -0.8479 -1.2352 -1.3923
 3987SOL     OW23422   4.358   3.400  14.551 -0.8252 -0.7347  0.0438
 3987SOL    HW123423   4.427   3.336  14.568 -0.6676 -1.1279 -2.1337
 3987SOL    HW223424   4.377   3.477  14.605  1.1027 -2.0469  1.2355
 3988SOL     OW23425   1.063   4.026   3.192 -0.0885  0.3576  0.3670
 3988SOL    HW123426   1.045   4.097   3.254 -0.3075  0.6447 -0.0241
 3988SOL    HW223427   0.988   4.048   3.137 -0.0018  1.4178  0.6643
 3989SOL     OW23428   0.631   3.778  14.912  0.4903 -0.1577  0.4385
 3989SOL    HW123429   0.551   3.809  14.955 -0.2601 -0.5325 -0.7081
 3989SOL    HW223430   0.611   3.799  14.821  0.3683  1.5017  0.8470
 3990SOL     OW23431   0.225   2.050   6.700  0.2702  0.5186  0.1714
 3990SOL    HW123432   0.167   2.114   6.659 -1.3638 -1.6521 -0.8748
 3990SOL    HW223433   0.277   2.100   6.763  1.9479  0.7508 -1.3830
 3991SOL     OW23434   3.493   4.525   1.539 -0.0448  0.0099  0.1332
 3991SOL    HW123435   3.446   4.500   1.459 -1.7671  1.6888  0.6291
 3991SOL    HW223436   3.580   4.486   1.527  0.1558 -0.3796  3.0563
 3992SOL     OW23437   3.589   1.983  15.648  0.0366 -0.0291  0.0959
 3992SOL    HW123438   3.666   2.035  15.627  1.0200 -1.5376 -0.0197
 3992SOL    HW223439   3.582   1.935  15.565 -1.9802 -1.9003  1.3247
 3993SOL     OW23440   2.505   2.639   8.346  0.2240 -0.8449 -0.1042
 3993SOL    HW123441   2.432   2.616   8.290  0.8085 -2.0629 -0.3738
 3993SOL    HW223442   2.465   2.619   8.431  1.0791  0.9546  0.7171
 3994SOL     OW23443   4.166   4.345   8.433  0.2173  0.1535  0.1331
 3994SOL    HW123444   4.106   4.416   8.410  0.3147 -0.2746 -1.4542
 3994SOL    HW223445   4.194   4.321   8.345 -0.4024 -0.1771  0.0223
 3995SOL     OW23446   3.300   4.142   8.663 -0.1676  0.2397  0.3872
 3995SOL    HW123447   3.286   4.075   8.595 -0.1089  0.8949 -0.2671
 3995SOL    HW223448   3.266   4.096   8.740 -3.0237  1.7527  0.0498
 3996SOL     OW23449   0.674   2.938   5.101 -0.1987 -0.1353 -0.1997
 3996SOL    HW123450   0.584   2.933   5.070 -0.9002 -1.5218  2.0097
 3996SOL    HW223451   0.719   2.981   5.028  0.0638 -2.1026 -1.2206
 3997SOL     OW23452   4.250   0.766   6.208  0.8037  0.0710 -0.2297
 3997SOL    HW123453   4.340   0.745   6.183  0.8168 -0.2289  0.0614
 3997SOL    HW223454   4.233   0.694   6.269 -0.7055 -1.0080 -1.8935
 3998SOL     OW23455   3.582   2.947  11.990 -0.2852 -0.1809  0.1043
 3998SOL    HW123456   3.594   2.937  11.895  2.5336  1.3711  0.3026
 3998SOL    HW223457   3.549   2.859  12.008 -3.6701  0.5774 -2.2494
 3999SOL     OW23458   0.887   1.328   6.196 -0.1408 -0.2402 -0.1103
 3999SOL    HW123459   0.827   1.318   6.270  0.5819 -2.0411  0.2217
 3999SOL    HW223460   0.933   1.405   6.232  1.0717 -0.6736 -0.7519
 4000SOL     OW23461   2.747   0.783  16.330  0.3640  0.3302  0.1996
 4000SOL    HW123462   2.784   0.809  16.414  1.1940 -1.8649  0.5096
 4000SOL    HW223463   2.696   0.861  16.307 -0.5669 -1.1895 -2.9974
 4001SOL     OW23464   2.369   2.678   4.457 -0.3668  0.0818 -0.2373
 4001SOL    HW123465   2.276   2.690   4.476 -0.6235 -0.9324 -0.8225
 4001SOL    HW223466   2.359   2.611   4.389  0.0268  0.0810 -0.2949
 4002SOL     OW23467   2.324   0.364   6.836 -0.6544  0.3281  0.2759
 4002SOL    HW123468   2.410   0.403   6.853 -0.9364 -0.1789  2.9262
 4002SOL    HW223469   2.324   0.295   6.902 -0.1847  0.4038  0.3551
 4003SOL     OW23470   3.232   1.003   7.161  0.6146 -0.8380 -0.8211
 4003SOL    HW123471   3.235   1.005   7.256  1.2122 -0.2801 -0.8514
 4003SOL    HW223472   3.140   1.021   7.140  1.0759  1.0631 -1.2224
 4004SOL     OW23473   0.057   2.426   0.626 -0.5650 -0.1679 -0.7730
 4004SOL    HW123474   4.715   2.494   0.600 -2.0965 -0.4520  2.1079
 4004SOL    HW223475   4.704   2.365   0.639  0.6105 -1.1340  1.2331
 4005SOL     OW23476   0.369   1.576   9.511 -0.2907 -0.1056  0.2601
 4005SOL    HW123477   0.385   1.488   9.477  2.2487  0.8985 -1.1463
 4005SOL    HW223478   0.307   1.615   9.451  0.7993 -0.2260 -0.9347
 4006SOL     OW23479   3.041   3.237   6.347  0.4128 -0.4683  0.0058
 4006SOL    HW123480   2.987   3.221   6.424  1.6624  0.3233  1.0326
 4006SOL    HW223481   3.125   3.262   6.385  0.9609 -0.0236 -1.5175
 4007SOL     OW23482   4.317   1.101   5.908 -0.0444  0.1754  0.4323
 4007SOL    HW123483   4.250   1.052   5.861 -1.3687  2.4676 -0.0360
 4007SOL    HW223484   4.330   1.175   5.850  1.0658  0.0430  0.5014
 4008SOL     OW23485   3.143   0.585   5.467  0.0140  0.6385  0.2816
 4008SOL    HW123486   3.147   0.604   5.561 -2.3796  1.9518  0.1008
 4008SOL    HW223487   3.105   0.667   5.435  0.8043  0.0389 -2.1366
 4009SOL     OW23488   0.112   1.857   7.814 -0.3090 -0.3023 -0.2504
 4009SOL    HW123489   0.145   1.821   7.731  0.9378 -1.0087  0.5526
 4009SOL    HW223490   0.033   1.905   7.792  0.4189  1.6175  1.3092
 4010SOL     OW23491   2.151   3.819  13.537 -0.2563  0.8566  0.6224
 4010SOL    HW123492   2.215   3.890  13.543 -0.4968  1.1774 -0.6693
 4010SOL    HW223493   2.098   3.849  13.464  1.0405  0.4002 -0.5104
 4011SOL     OW23494   1.226   2.079   3.160  0.0129 -0.4759 -0.2145
 4011SOL    HW123495   1.197   2.024   3.087  0.8487  0.2386 -1.0811
 4011SOL    HW223496   1.148   2.078   3.215 -1.2057  2.5627 -1.8956
 4012SOL     OW23497   0.580   1.195   8.986  0.1850 -0.0834 -0.4632
 4012SOL    HW123498   0.649   1.191   9.052  0.5893 -1.4085 -0.9555
 4012SOL    HW223499   0.568   1.101   8.972  0.5820 -0.0455 -1.0760
 4013SOL     OW23500   1.302   2.518   6.642 -0.3478  0.0631  0.4007
 4013SOL    HW123501   1.269   2.447   6.586  0.9375  0.8654 -1.3893
 4013SOL    HW223502   1.323   2.576   6.569 -1.8600 -0.1102 -0.1758
 4014SOL     OW23503   2.496   1.731   7.894 -0.5233  0.7643 -0.3580
 4014SOL    HW123504   2.421   1.674   7.907  1.5994 -1.7773  0.8514
 4014SOL    HW223505   2.509   1.778   7.976  1.8482  0.8040 -0.7389
 4015SOL     OW23506   4.390   3.687   1.303 -0.0741  0.1073  0.3697
 4015SOL    HW123507   4.365   3.641   1.223  0.1991  1.2546 -0.3592
 4015SOL    HW223508   4.484   3.697   1.292  0.1230 -0.7411  1.3075
 4016SOL     OW23509   3.352   1.392  15.704 -0.6686 -0.1719  0.2765
 4016SOL    HW123510   3.440   1.382  15.667 -0.4778 -1.5823  1.0787
 4016SOL    HW223511   3.351   1.481  15.670 -0.5131  0.5684  2.2426
 4017SOL     OW23512   2.180   1.393   2.526 -0.4515 -0.7674 -0.0732
 4017SOL    HW123513   2.126   1.343   2.464 -2.7292  0.5234  0.9013
 4017SOL    HW223514   2.265   1.354   2.504  0.9651  2.7163 -0.8046
 4018SOL     OW23515   3.603   0.456   0.115  0.1159 -0.1444 -0.0546
 4018SOL    HW123516   3.530   0.510   0.145  0.2582 -0.5901  1.0638
 4018SOL    HW223517   3.676   0.500   0.158  0.9697 -0.4659 -1.1544
 4019SOL     OW23518   0.361   2.224   8.893  0.0884  0.5643  0.0182
 4019SOL    HW123519   0.401   2.308   8.917 -0.5373  0.5145  1.2123
 4019SOL    HW223520   0.270   2.249   8.911 -0.6867 -2.3429  0.0590
 4020SOL     OW23521   4.681   3.649   7.774 -0.7544  0.4863 -0.1809
 4020SOL    HW123522   0.010   3.628   7.854 -1.5059 -1.3613 -0.1990
 4020SOL    HW223523   4.602   3.594   7.777  1.1872 -2.3466 -1.5095
 4021SOL     OW23524   4.212   1.305   8.400 -0.3369 -0.3528  0.2374
 4021SOL    HW123525   4.289   1.268   8.444  1.2363  1.9383 -0.5511
 4021SOL    HW223526   4.140   1.243   8.408  0.0013 -0.8729 -0.7312
 4022SOL     OW23527   4.460   4.029   3.186  0.1956  0.1113  0.6318
 4022SOL    HW123528   4.520   4.102   3.175  0.5070 -0.2095  0.2224
 4022SOL    HW223529   4.521   3.960   3.213 -0.0331 -0.4781 -0.3517
 4023SOL     OW23530   2.034   1.033   6.788  0.4705  0.5310 -0.1270
 4023SOL    HW123531   2.011   1.095   6.718  0.5359  0.7670  0.0604
 4023SOL    HW223532   2.048   1.095   6.860 -0.7663 -0.1109  0.6639
 4024SOL     OW23533   2.678   2.701   7.847  0.3964 -0.4483  0.0310
 4024SOL    HW123534   2.634   2.783   7.868  0.8965 -0.8614  2.7528
 4024SOL    HW223535   2.604   2.647   7.817  0.1025  0.6230 -1.1845
 4025SOL     OW23536   1.911   3.389   5.828  0.2347 -0.2785  0.0071
 4025SOL    HW123537   1.872   3.421   5.747  1.4411  1.7052  0.2197
 4025SOL    HW223538   1.969   3.458   5.860 -1.5521  0.0841  2.4219
 4026SOL     OW23539   2.319   4.111   3.755 -0.4487  0.1621  0.2124
 4026SOL    HW123540   2.235   4.149   3.779  0.6339  2.0605  0.9620
 4026SOL    HW223541   2.285   4.074   3.674 -1.3077 -0.0571  0.6799
 4027SOL     OW23542   1.700   2.539  10.310  0.4774  0.0624 -0.0133
 4027SOL    HW123543   1.731   2.600  10.243  1.1049  0.1706  0.3759
 4027SOL    HW223544   1.675   2.462  10.258  0.6936  1.8877 -2.8386
 4028SOL     OW23545   3.379   2.204   9.778  0.1387  0.1112 -0.8912
 4028SOL    HW123546   3.459   2.154   9.796 -1.1689 -1.2523  1.1595
 4028SOL    HW223547   3.323   2.129   9.800  2.5327 -1.7635 -1.1911
 4029SOL     OW23548   3.202   2.286   6.583  0.1793  0.7085  0.4258
 4029SOL    HW123549   3.267   2.246   6.524 -1.6058  0.0447 -1.0799
 4029SOL    HW223550   3.124   2.266   6.532 -0.1662 -2.2604  2.1306
 4030SOL     OW23551   1.560   0.548   3.223  0.2573 -0.4792 -0.2807
 4030SOL    HW123552   1.636   0.560   3.166  0.1172  0.6434 -0.2214
 4030SOL    HW223553   1.510   0.491   3.164 -1.5370  1.8070 -0.9502
 4031SOL     OW23554   2.529   3.322   8.831 -0.6520  0.0545 -0.1529
 4031SOL    HW123555   2.549   3.272   8.910 -1.6930  2.0889  1.3862
 4031SOL    HW223556   2.608   3.308   8.778  0.5075  1.1754  1.2950
 4032SOL     OW23557   1.310   1.255   7.366  0.9162  0.3311 -0.7966
 4032SOL    HW123558   1.344   1.184   7.420  1.8645  0.5288 -1.1370
 4032SOL    HW223559   1.378   1.245   7.299 -0.8052 -0.1352 -2.5012
 4033SOL     OW23560   0.545   3.710   0.610  0.1352  0.1649  0.3691
 4033SOL    HW123561   0.573   3.694   0.700  3.4124 -0.1122 -0.6859
 4033SOL    HW223562   0.628   3.731   0.567  1.3171  1.0077  3.0936
 4034SOL     OW23563   4.050   4.221   5.827  0.4581 -0.7449  0.2018
 4034SOL    HW123564   4.009   4.178   5.902 -0.7266 -0.7992 -0.4841
 4034SOL    HW223565   3.979   4.277   5.795 -0.4477 -1.5035  0.8736
 4035SOL     OW23566   0.491   4.443  17.590  0.0871 -0.2304  0.3820
 4035SOL    HW123567   0.541   4.491  17.524 -0.2145  0.1510  0.4302
 4035SOL    HW223568   0.402   4.431  17.557  1.9192  1.4723 -5.2254
 4036SOL     OW23569   3.333   3.940   7.444 -0.4283  0.1708 -0.0060
 4036SOL    HW123570   3.389   3.872   7.482  0.2963  0.6642 -0.1885
 4036SOL    HW223571   3.254   3.887   7.435 -0.1990 -0.3838  1.3094
 4037SOL     OW23572   3.205   2.361   5.525 -0.3918  0.3990  0.4904
 4037SOL    HW123573   3.208   2.454   5.501 -2.4867 -0.3415 -2.6615
 4037SOL    HW223574   3.243   2.369   5.613  3.1964  1.3197 -1.1794
 4038SOL     OW23575   2.593   3.337   8.469  0.1103 -0.2215 -0.7940
 4038SOL    HW123576   2.677   3.333   8.513 -0.3416  1.3536  0.2395
 4038SOL    HW223577   2.604   3.264   8.409  0.9321  1.2914 -2.4949
 4039SOL     OW23578   3.227   1.290   7.299  0.6255 -0.4007 -0.0373
 4039SOL    HW123579   3.216   1.333   7.385  0.3726  0.0501 -0.2946
 4039SOL    HW223580   3.136   1.273   7.275  0.7386 -0.3434 -0.5062
 4040SOL     OW23581   1.555   0.070   5.763 -0.3012  0.4084 -0.5835
 4040SOL    HW123582   1.627   0.008   5.775 -0.6760 -0.0280 -0.5654
 4040SOL    HW223583   1.588   0.147   5.809 -1.4533 -0.2559  1.3595
 4041SOL     OW23584   3.849   0.167   8.768  0.3349 -0.5324  0.1216
 4041SOL    HW123585   3.930   0.218   8.774 -0.8150  1.2781  0.2924
 4041SOL    HW223586   3.838   0.179   8.673  2.9040  0.6826 -0.0288
 4042SOL     OW23587   4.051   1.077   2.257 -0.1028  0.2443  0.0394
 4042SOL    HW123588   3.976   1.034   2.297  0.8986 -1.7411 -0.2158
 4042SOL    HW223589   4.083   1.011   2.195  1.0193  1.7857 -1.0609
 4043SOL     OW23590   3.975   2.237   8.481  0.3588 -0.2797 -0.3113
 4043SOL    HW123591   3.901   2.287   8.446  1.2649  1.6863  0.5928
 4043SOL    HW223592   4.006   2.201   8.397  0.1081 -0.6484 -0.2487
 4044SOL     OW23593   1.306   0.411  10.081  0.1329 -0.0129  0.8186
 4044SOL    HW123594   1.396   0.378  10.068 -0.0396  0.9464 -2.9041
 4044SOL    HW223595   1.313   0.447  10.169  0.2454  1.1780  0.3267
 4045SOL     OW23596   4.094   2.270   4.511 -0.0641 -0.2315  0.2532
 4045SOL    HW123597   4.175   2.227   4.483 -0.2575  0.5679 -1.5165
 4045SOL    HW223598   4.104   2.236   4.600 -1.1562  1.1018  0.8946
 4046SOL     OW23599   3.566   4.699  11.110 -0.0401  0.3467 -0.4874
 4046SOL    HW123600   3.573   4.619  11.058 -2.3422  0.1351 -0.4709
 4046SOL    HW223601   3.644   4.679  11.161 -1.5929  1.1099  2.1762
 4047SOL     OW23602   0.997   2.313   7.346 -0.5230  0.0921  0.0785
 4047SOL    HW123603   0.965   2.378   7.284 -1.4265 -0.1139  0.3176
 4047SOL    HW223604   1.090   2.332   7.354 -0.4949 -0.4500  1.0941
 4048SOL     OW23605   4.647   2.755   4.174 -0.0386 -0.1304  0.5571
 4048SOL    HW123606   4.702   2.731   4.100 -2.0426  0.0707 -1.0039
 4048SOL    HW223607   4.573   2.697   4.154 -1.2886  1.6539  0.1028
 4049SOL     OW23608   1.832   2.629   7.694  0.4010  0.1463 -0.8479
 4049SOL    HW123609   1.900   2.565   7.715  0.3491  0.5269  0.4577
 4049SOL    HW223610   1.821   2.681   7.773  1.5980  0.1149 -0.6622
 4050SOL     OW23611   0.637   1.119   8.186  0.3046 -0.1509  0.6828
 4050SOL    HW123612   0.594   1.053   8.242 -0.3850 -1.5028 -1.4523
 4050SOL    HW223613   0.590   1.101   8.105  1.8745 -1.9722  0.1785
 4051SOL     OW23614   1.884   2.659  17.512  0.2264  0.2850  0.3498
 4051SOL    HW123615   1.831   2.738  17.523  0.7883  1.0304 -2.2626
 4051SOL    HW223616   1.877   2.655  17.417  0.0353  0.1946  0.3674
 4052SOL     OW23617   4.583   2.095   5.829 -0.1867 -0.7282  0.0710
 4052SOL    HW123618   4.628   2.149   5.764 -3.3251  0.0227 -1.4835
 4052SOL    HW223619   4.627   2.126   5.908 -0.9653  1.7650 -0.4917
 4053SOL     OW23620   4.189   3.718   7.074  0.0607  0.2796  0.1429
 4053SOL    HW123621   4.262   3.778   7.083  0.9617 -0.9210  0.8780
 4053SOL    HW223622   4.164   3.692   7.163  1.8279 -2.7078 -0.2161
 4054SOL     OW23623   0.728   3.537   3.853 -0.1134 -0.7941  0.6201
 4054SOL    HW123624   0.740   3.445   3.829  4.6912  0.0263 -0.1415
 4054SOL    HW223625   0.659   3.553   3.790  0.5346  0.0966  0.1405
 4055SOL     OW23626   2.225   4.319   2.938 -0.0319 -0.6170  0.2711
 4055SOL    HW123627   2.163   4.307   3.011 -0.8195 -1.9136 -0.6129
 4055SOL    HW223628   2.306   4.279   2.970  1.7617  1.3133 -1.9660
 4056SOL     OW23629   3.577   4.389   9.445  0.2242  0.1758  0.2476
 4056SOL    HW123630   3.555   4.297   9.437 -2.4321  0.8299 -0.0723
 4056SOL    HW223631   3.566   4.417   9.536 -1.5684 -0.2903  0.1631
 4057SOL     OW23632   0.940   3.876   5.707 -0.1308  0.0781  0.1686
 4057SOL    HW123633   0.905   3.847   5.791  1.2463 -1.2622  0.2911
 4057SOL    HW223634   0.910   3.967   5.708 -0.1947  0.0559  0.2480
 4058SOL     OW23635   0.050   1.370   5.227  0.1033 -0.6869 -0.1657
 4058SOL    HW123636   0.057   1.465   5.237  0.6586 -1.0377  2.7545
 4058SOL    HW223637   0.104   1.347   5.152 -2.5828 -0.8785 -2.0398
 4059SOL     OW23638   3.651   1.633   5.926  0.2607  0.2135 -0.4408
 4059SOL    HW123639   3.629   1.645   5.833 -1.8524  1.8076  0.2661
 4059SOL    HW223640   3.565   1.656   5.959  0.3728  0.6104 -0.4289
 4060SOL     OW23641   2.699   1.476   7.337  0.5113 -0.3410  0.1370
 4060SOL    HW123642   2.762   1.450   7.404 -1.0099 -2.1498  0.8580
 4060SOL    HW223643   2.632   1.412   7.361  0.5387 -0.0553  0.9607
 4061SOL     OW23644   0.539   1.624   4.826  0.6761  0.3030  0.0231
 4061SOL    HW123645   0.478   1.689   4.861 -2.2537 -2.3785 -0.0737
 4061SOL    HW223646   0.535   1.648   4.734  1.1849 -1.3572 -0.4131
 4062SOL     OW23647   4.258   0.869  16.547 -0.3939  0.5249  0.3657
 4062SOL    HW123648   4.304   0.787  16.531  2.2253  1.9792  0.4000
 4062SOL    HW223649   4.268   0.889  16.640 -0.1111 -0.2085  0.4961
 4063SOL     OW23650   0.623   4.057   1.581  0.1022 -0.2526  0.3828
 4063SOL    HW123651   0.629   4.110   1.661 -4.4574  3.5431 -1.8392
 4063SOL    HW223652   0.546   4.003   1.596  0.7133 -1.2637 -0.1466
 4064SOL     OW23653   0.262   4.186   4.494 -0.0608  0.2306 -0.3459
 4064SOL    HW123654   0.282   4.138   4.414  0.6821 -1.6460  0.9762
 4064SOL    HW223655   0.316   4.142   4.559 -1.4098 -0.3445  0.3945
 4065SOL     OW23656   0.494   3.764  13.122 -0.0578  0.0458 -0.0689
 4065SOL    HW123657   0.411   3.778  13.168  0.6083 -0.4591  1.2863
 4065SOL    HW223658   0.495   3.668  13.116  2.0602  0.1859 -2.0258
 4066SOL     OW23659   3.898   3.695   4.209 -0.5211  0.5942 -0.1338
 4066SOL    HW123660   3.808   3.663   4.198  0.3198 -2.0819  0.8113
 4066SOL    HW223661   3.886   3.747   4.289  1.3537  2.7370 -1.2619
 4067SOL     OW23662   1.591   2.065  14.723  0.1937 -0.1755 -0.4414
 4067SOL    HW123663   1.570   2.148  14.766 -0.6543  0.2778 -1.7221
 4067SOL    HW223664   1.677   2.048  14.759  0.8386 -0.1038 -1.9353
 4068SOL     OW23665   4.455   2.864   8.215 -0.4818  0.0324  0.0525
 4068SOL    HW123666   4.460   2.919   8.137  1.1628 -1.0721 -0.6036
 4068SOL    HW223667   4.399   2.794   8.181  1.1472 -2.0627  1.7272
 4069SOL     OW23668   3.337   4.270  14.167 -0.0806  0.0517 -0.5570
 4069SOL    HW123669   3.356   4.177  14.154 -1.3570  0.1465 -3.1047
 4069SOL    HW223670   3.263   4.274  14.108 -1.0677 -0.4982  0.6422
 4070SOL     OW23671   4.115   1.128   2.956  0.2746  0.3249  0.0776
 4070SOL    HW123672   4.190   1.098   2.905  1.1248  0.7941  1.0428
 4070SOL    HW223673   4.088   1.208   2.911  1.6808  0.1725 -1.0276
 4071SOL     OW23674   3.933   3.437   7.975  0.2197 -0.2206 -0.2922
 4071SOL    HW123675   3.894   3.471   8.055  3.2930 -0.0903  1.1258
 4071SOL    HW223676   3.898   3.498   7.909 -1.7516 -0.9982  0.0099
 4072SOL     OW23677   3.292   0.377   4.999  0.1836 -0.0528 -0.3107
 4072SOL    HW123678   3.276   0.283   4.986  2.8028 -0.2395 -2.0698
 4072SOL    HW223679   3.301   0.390   5.093 -0.2862  1.6704 -0.5124
 4073SOL     OW23680   3.443   1.675   7.487 -0.7342  0.0378  0.1316
 4073SOL    HW123681   3.532   1.664   7.455 -0.0678  1.7161  1.4185
 4073SOL    HW223682   3.394   1.711   7.413  0.3709  0.9486 -0.1508
 4074SOL     OW23683   2.806   3.508   8.256  0.1674 -0.0205  0.1053
 4074SOL    HW123684   2.729   3.529   8.308  0.9716  0.9810  0.8890
 4074SOL    HW223685   2.780   3.540   8.170 -1.6069  0.5631  0.8661
 4075SOL     OW23686   0.574   1.729   6.111  0.7109 -0.1488  0.2566
 4075SOL    HW123687   0.600   1.820   6.122 -1.3459  0.5966 -0.9889
 4075SOL    HW223688   0.548   1.740   6.019  2.8637 -0.1227 -0.3393
 4076SOL     OW23689   4.102   3.342   5.567  0.2140 -0.5652  0.2772
 4076SOL    HW123690   4.150   3.340   5.484 -0.9585 -0.1262 -0.4123
 4076SOL    HW223691   4.146   3.270   5.611  1.4317  1.9779  3.2405
 4077SOL     OW23692   1.247   2.532   4.069 -0.4023  0.3148  0.2752
 4077SOL    HW123693   1.297   2.522   4.149  2.5858  0.1450 -1.6210
 4077SOL    HW223694   1.302   2.481   4.009  0.8056  1.3111  0.5508
 4078SOL     OW23695   3.607   0.674   6.273  0.1139 -0.4902  0.0353
 4078SOL    HW123696   3.541   0.616   6.234  0.4699 -0.2469 -0.8998
 4078SOL    HW223697   3.557   0.698   6.351  2.2282 -2.1035  1.8810
 4079SOL     OW23698   3.693   2.724   7.061 -0.5680  0.2895 -0.4312
 4079SOL    HW123699   3.620   2.737   7.121  0.3731  0.3203  0.7056
 4079SOL    HW223700   3.661   2.655   7.003 -2.3513 -0.3432  1.3313
 4080SOL     OW23701   3.109   4.693   5.081  0.0410 -0.2434 -0.1235
 4080SOL    HW123702   3.188   0.023   5.059  0.7076 -0.7146  1.2151
 4080SOL    HW223703   3.057   4.700   5.000 -0.1293  0.7288  0.0677
 4081SOL     OW23704   0.464   3.506   1.879  0.3958 -0.2053 -0.4600
 4081SOL    HW123705   0.414   3.580   1.912  1.0728 -0.5627  1.4002
 4081SOL    HW223706   0.401   3.440   1.909 -1.8338  1.9126 -0.5108
 4082SOL     OW23707   1.595   2.301  14.835  0.0441 -0.4758  0.1883
 4082SOL    HW123708   1.597   2.361  14.910  0.2732 -0.0350 -0.1721
 4082SOL    HW223709   1.533   2.347  14.779  1.7166  1.0434 -0.4139
 4083SOL     OW23710   0.999   1.589   0.875 -0.1153  0.0684  0.2168
 4083SOL    HW123711   1.041   1.674   0.889  1.0687  0.0725 -3.4686
 4083SOL    HW223712   0.922   1.591   0.933  1.0683  0.6929  1.7785
 4084SOL     OW23713   2.000   1.844  10.373  0.3654 -0.2584 -0.2292
 4084SOL    HW123714   2.003   1.938  10.392  1.2129  0.0527 -1.8707
 4084SOL    HW223715   1.977   1.841  10.280 -0.5499  1.6023 -0.0573
 4085SOL     OW23716   2.190   2.284   7.861 -0.0247  0.3403  0.2887
 4085SOL    HW123717   2.190   2.353   7.927 -0.3430 -2.2267  3.0092
 4085SOL    HW223718   2.222   2.207   7.908  0.2507  0.3263  0.0799
 4086SOL     OW23719   2.042   3.972  14.526 -0.3777 -0.4947  0.2052
 4086SOL    HW123720   2.113   3.913  14.503 -1.5115 -1.5449 -0.5685
 4086SOL    HW223721   2.004   3.985  14.439  0.9625  0.7311 -0.2008
 4087SOL     OW23722   0.530   4.011   6.299 -0.2538 -0.6395  0.2070
 4087SOL    HW123723   0.536   4.083   6.360  0.6698 -1.0794  0.6326
 4087SOL    HW223724   0.584   3.946   6.344 -1.5758 -2.2076 -0.4185
 4088SOL     OW23725   3.849   1.522   4.584 -0.3388 -0.2110 -0.2388
 4088SOL    HW123726   3.905   1.457   4.626 -0.3733  0.2126  0.4754
 4088SOL    HW223727   3.770   1.521   4.637 -0.3513  2.0424 -0.2012
 4089SOL     OW23728   1.761   1.831  12.522  0.4427  0.4659  0.2326
 4089SOL    HW123729   1.849   1.856  12.493  1.3335 -1.7696  0.9988
 4089SOL    HW223730   1.710   1.883  12.459  0.9133  0.1852 -0.3713
 4090SOL     OW23731   0.729   1.779   2.928 -0.0532  0.1397 -0.4323
 4090SOL    HW123732   0.799   1.752   2.868 -0.8840 -0.6584 -1.0522
 4090SOL    HW223733   0.677   1.839   2.874 -0.5870 -0.2753 -0.3756
 4091SOL     OW23734   4.666   1.710  10.297  0.4399 -0.5534  0.4756
 4091SOL    HW123735   4.609   1.678  10.228  1.4031  2.1759 -1.6094
 4091SOL    HW223736   0.026   1.663  10.273  0.4078  0.2576 -1.2077
 4092SOL     OW23737   4.279   3.393   7.577 -0.1454 -0.2950 -0.6958
 4092SOL    HW123738   4.214   3.413   7.645  1.5984 -0.8442  1.1511
 4092SOL    HW223739   4.323   3.314   7.609 -2.1034 -0.6711  1.0759
 4093SOL     OW23740   3.323   3.736   4.537 -0.2612  0.2838 -0.1003
 4093SOL    HW123741   3.239   3.704   4.502  0.5079 -1.6002 -0.2046
 4093SOL    HW223742   3.380   3.666   4.504 -2.0538 -0.8237 -0.9024
 4094SOL     OW23743   1.136   2.966   5.981 -0.2918  0.3394  0.2706
 4094SOL    HW123744   1.098   2.973   5.894  0.1571  1.9225  0.2061
 4094SOL    HW223745   1.204   3.033   5.973  0.3432 -0.2327  0.8350
 4095SOL     OW23746   3.376   2.525   6.563  0.3184 -0.3095 -0.7254
 4095SOL    HW123747   3.412   2.547   6.649 -0.5208  2.9580 -1.2058
 4095SOL    HW223748   3.310   2.464   6.596 -0.1187  0.7101  0.3009
 4096SOL     OW23749   3.934   4.613  13.323  0.3664 -0.6964  0.7930
 4096SOL    HW123750   4.026   4.611  13.295 -0.1559  0.0374 -1.0191
 4096SOL    HW223751   3.906   4.526  13.297 -0.5140 -0.0250 -0.4996
 4097SOL     OW23752   3.903   0.850   9.602  0.0315 -0.3637 -0.0852
 4097SOL    HW123753   3.939   0.878   9.518  0.8389  1.8364  0.9877
 4097SOL    HW223754   3.887   0.935   9.643  1.3712 -1.6518  3.1014
 4098SOL     OW23755   2.015   4.258   4.106 -0.0043 -0.5746  0.2597
 4098SOL    HW123756   1.997   4.225   4.194 -0.5579 -1.6302 -0.2530
 4098SOL    HW223757   1.990   4.350   4.119  0.6364 -0.3463 -0.1357
 4099SOL     OW23758   1.498   0.303   7.467 -0.5571  0.0528 -0.7075
 4099SOL    HW123759   1.502   0.369   7.537 -0.0396 -0.2576 -0.4381
 4099SOL    HW223760   1.471   0.364   7.399  0.2039 -0.0999 -1.1527
 4100SOL     OW23761   3.885   1.737   6.807  0.3562 -0.2972  0.2259
 4100SOL    HW123762   3.904   1.830   6.820 -2.7420  0.4209 -0.3461
 4100SOL    HW223763   3.962   1.707   6.759  1.0576  0.0170  1.1685
 4101SOL     OW23764   1.552   2.182   6.428 -0.1727 -0.8754  0.0641
 4101SOL    HW123765   1.545   2.096   6.388  1.3263 -1.0438  0.1852
 4101SOL    HW223766   1.607   2.164   6.504  0.5027 -2.6414 -0.8480
 4102SOL     OW23767   3.522   0.091   3.555 -0.6201  0.1046  0.2454
 4102SOL    HW123768   3.450   0.070   3.496  0.1455 -0.6348 -0.4201
 4102SOL    HW223769   3.567   0.150   3.495 -0.3974  1.3731  1.6716
 4103SOL     OW23770   3.893   0.399  10.077  0.2204  0.3576 -0.2490
 4103SOL    HW123771   3.848   0.468  10.125 -1.9000  0.7581 -2.8008
 4103SOL    HW223772   3.963   0.373  10.136 -1.0466  2.7294  2.2867
 4104SOL     OW23773   3.669   2.674  11.354 -0.3530  0.2146  0.1658
 4104SOL    HW123774   3.634   2.618  11.284  0.4287 -1.6410  1.2568
 4104SOL    HW223775   3.591   2.693  11.406  1.1819 -0.2476  2.6024
 4105SOL     OW23776   4.068   0.447   1.943 -0.4415  0.5636 -0.0231
 4105SOL    HW123777   4.044   0.368   1.990  0.6451  0.1931 -0.0699
 4105SOL    HW223778   4.156   0.471   1.974 -0.2748  0.9575 -0.7822
 4106SOL     OW23779   0.110   4.412   7.328 -0.7340  0.0018  0.2473
 4106SOL    HW123780   0.022   4.387   7.355  0.2181 -0.6962  2.6822
 4106SOL    HW223781   0.144   4.455   7.406 -1.1916 -1.3921  1.2004
 4107SOL     OW23782   4.010   3.206   7.474  0.5620 -0.1224  0.1853
 4107SOL    HW123783   3.999   3.122   7.518  2.3185 -1.8338 -2.6615
 4107SOL    HW223784   4.104   3.203   7.455  1.0950  1.7344  2.6540
 4108SOL     OW23785   3.823   4.375   8.283  0.5564 -0.7504  0.2783
 4108SOL    HW123786   3.809   4.375   8.378  2.9506  1.5683  0.6245
 4108SOL    HW223787   3.874   4.454   8.266 -2.1376  1.1231  0.8530
 4109SOL     OW23788   4.540   1.201   2.904 -0.0426 -0.0452 -0.4566
 4109SOL    HW123789   4.457   1.163   2.875 -0.7246 -0.2911  1.7859
 4109SOL    HW223790   4.602   1.132   2.880  0.8321  0.2690  0.8545
 4110SOL     OW23791   0.937   0.744   7.370 -0.0321  0.8707 -0.7040
 4110SOL    HW123792   0.918   0.830   7.409  1.7929  0.1622  1.7633
 4110SOL    HW223793   1.011   0.768   7.314  1.5920  0.8249  1.4161
 4111SOL     OW23794   4.091   0.589   0.797 -1.3832  0.7446  0.5741
 4111SOL    HW123795   4.042   0.575   0.878 -1.3557  1.9534  0.8035
 4111SOL    HW223796   4.162   0.525   0.802 -1.0401  1.1463  0.8974
 4112SOL     OW23797   3.439   1.131  13.622 -0.1291 -0.3438 -0.2675
 4112SOL    HW123798   3.354   1.088  13.611  0.4860 -1.6458  0.0697
 4112SOL    HW223799   3.479   1.121  13.536  0.7832  0.0542  0.1151
 4113SOL     OW23800   3.866   2.282   0.033  0.2793  0.4787  0.0441
 4113SOL    HW123801   3.914   2.325  17.643 -3.1401 -0.5327 -2.8928
 4113SOL    HW223802   3.908   2.197   0.043 -0.3289  0.0014 -1.4918
 4114SOL     OW23803   1.267   2.468   2.181 -0.0095 -0.5793 -0.2122
 4114SOL    HW123804   1.336   2.402   2.175 -0.7957 -1.4734  0.5924
 4114SOL    HW223805   1.218   2.429   2.253 -1.9769 -2.4069 -2.5587
 4115SOL     OW23806   1.961   4.316   2.800 -0.1513  0.1715 -0.0333
 4115SOL    HW123807   1.876   4.286   2.770 -0.2000  0.3764 -0.0980
 4115SOL    HW223808   1.990   4.245   2.858 -1.4285  0.5604  1.0809
 4116SOL     OW23809   0.462   4.281  15.010  0.0310 -0.2945  0.1427
 4116SOL    HW123810   0.403   4.356  15.010  0.2221 -0.1478  0.5444
 4116SOL    HW223811   0.413   4.212  15.053 -1.3092 -0.8799 -2.2884
 4117SOL     OW23812   0.953   3.980  17.576  0.1943 -0.4821 -0.4551
 4117SOL    HW123813   0.956   3.890  17.545 -1.2481 -1.7892  3.2807
 4117SOL    HW223814   1.042   4.016  17.571 -0.1075  0.6046  2.0491
 4118SOL     OW23815   3.978   2.986   2.889  0.6081 -0.6390 -0.1565
 4118SOL    HW123816   3.978   2.898   2.851 -0.7884 -0.2089 -1.1350
 4118SOL    HW223817   4.033   2.970   2.966 -0.9874  0.0688  1.1267
 4119SOL     OW23818   3.074   0.058  13.560  0.6763  0.1362  0.3131
 4119SOL    HW123819   3.004   4.714  13.550 -1.7382  2.4827  2.2722
 4119SOL    HW223820   3.067   0.103  13.476 -1.2602 -0.3200  0.2551
 4120SOL     OW23821   0.777   2.389  13.567  0.1493 -0.0661 -0.2229
 4120SOL    HW123822   0.735   2.427  13.490  0.2411  1.5686  0.5455
 4120SOL    HW223823   0.730   2.306  13.556 -0.0530  0.0146  0.0518
 4121SOL     OW23824   2.724   1.716   5.792  0.3042  0.2044 -0.0648
 4121SOL    HW123825   2.661   1.786   5.773  3.0149  2.2694 -1.4808
 4121SOL    HW223826   2.803   1.770   5.783  0.5731  0.1287  1.8020
 4122SOL     OW23827   2.783   0.728   7.514 -0.3555 -0.4615  0.3790
 4122SOL    HW123828   2.825   0.655   7.558 -1.7015 -1.1744  0.4861
 4122SOL    HW223829   2.842   0.758   7.445 -0.3953  1.4659  1.1858
 4123SOL     OW23830   1.216   3.660   6.412 -0.0455 -0.6958 -0.1021
 4123SOL    HW123831   1.272   3.737   6.402 -0.6376 -0.1449  0.8220
 4123SOL    HW223832   1.267   3.587   6.377  0.4161 -0.7683  0.7216
 4124SOL     OW23833   0.066   3.446   3.522 -0.6062 -0.1408 -0.3801
 4124SOL    HW123834   0.032   3.480   3.440 -1.6235  0.5384  0.3197
 4124SOL    HW223835   0.098   3.520   3.574  1.6185 -1.7922  0.6176
 4125SOL     OW23836   1.725   4.413   3.973  0.1071 -0.3920 -0.3021
 4125SOL    HW123837   1.805   4.452   3.936  0.8762 -0.3097  1.4872
 4125SOL    HW223838   1.692   4.493   4.015  0.5691 -0.3101 -0.0969
 4126SOL     OW23839   2.279   3.507   6.759  0.0173 -0.3514  0.3744
 4126SOL    HW123840   2.310   3.489   6.848 -0.9906 -1.3713  0.5183
 4126SOL    HW223841   2.310   3.596   6.741 -1.8197  0.0922 -0.5695
 4127SOL     OW23842   2.465   3.480   7.014  0.2071  0.3177 -0.7385
 4127SOL    HW123843   2.434   3.484   7.105 -2.1523  1.1530 -1.5721
 4127SOL    HW223844   2.534   3.546   7.016  2.6501 -2.2176 -0.2041
 4128SOL     OW23845   3.312   0.368   2.548 -0.2552  0.3490  0.1108
 4128SOL    HW123846   3.235   0.393   2.600 -1.1723 -0.0462 -1.0593
 4128SOL    HW223847   3.353   0.453   2.529  0.5178 -0.3450 -1.2596
 4129SOL     OW23848   0.670   1.201  15.323  0.5621 -0.1311  0.2826
 4129SOL    HW123849   0.603   1.177  15.259  0.0216  1.0744  0.3974
 4129SOL    HW223850   0.635   1.288  15.344 -1.0033 -0.2131 -1.9455
 4130SOL     OW23851   1.204   2.233   7.593 -0.3959  0.1090 -0.0486
 4130SOL    HW123852   1.178   2.200   7.679 -0.2418  1.0369  0.3437
 4130SOL    HW223853   1.124   2.221   7.541 -0.0389  1.9267 -1.0250
 4131SOL     OW23854   2.491   4.004  11.515  0.6821 -0.1191  0.3120
 4131SOL    HW123855   2.550   4.048  11.576  1.1088 -2.5581  1.6413
 4131SOL    HW223856   2.508   4.066  11.445 -1.3104  0.3161  0.1971
 4132SOL     OW23857   1.890   1.082   8.455 -0.3927 -0.0431 -0.1724
 4132SOL    HW123858   1.866   1.022   8.385 -0.0671  0.9066 -1.0917
 4132SOL    HW223859   1.961   1.135   8.418  0.0979 -0.2447  0.4713
 4133SOL     OW23860   0.394   2.152  15.702  0.2274  0.1812 -0.1188
 4133SOL    HW123861   0.472   2.111  15.738 -0.2274 -0.6668 -0.1094
 4133SOL    HW223862   0.410   2.244  15.724 -1.3994  0.0243  1.7175
 4134SOL     OW23863   2.540   4.713   3.663 -0.6123 -0.0610  0.7371
 4134SOL    HW123864   2.624   0.036   3.645 -0.1271 -1.4807 -0.2956
 4134SOL    HW223865   2.491   0.008   3.582  1.4284  1.1155 -0.2702
 4135SOL     OW23866   3.538   1.909   0.080 -0.1966  0.4349  0.0673
 4135SOL    HW123867   3.491   1.890  17.680 -1.3925  0.7357  0.7022
 4135SOL    HW223868   3.595   1.832   0.087  0.2397  0.4888 -2.9397
 4136SOL     OW23869   2.608   3.917   6.014  0.5554  0.1883 -0.3931
 4136SOL    HW123870   2.557   3.997   6.000  0.9405  0.5307  0.1413
 4136SOL    HW223871   2.672   3.918   5.943  1.0074  1.5217  0.0208
 4137SOL     OW23872   3.670   1.266   6.725  0.4262  0.3848  0.8589
 4137SOL    HW123873   3.621   1.262   6.807 -0.2321 -1.2529  0.3829
 4137SOL    HW223874   3.633   1.195   6.673 -0.9152 -0.9409  3.6383
 4138SOL     OW23875   0.509   0.700   6.640 -0.2439  0.1454 -0.7067
 4138SOL    HW123876   0.491   0.745   6.558 -1.7593 -0.1715 -0.5523
 4138SOL    HW223877   0.539   0.773   6.693  0.7288 -0.7126 -0.0686
 4139SOL     OW23878   1.645   3.055   6.867  0.0296  0.6683 -0.1970
 4139SOL    HW123879   1.684   3.142   6.863  1.5241  0.0345  0.9958
 4139SOL    HW223880   1.571   3.062   6.806 -0.9187  2.0682  1.1396
 4140SOL     OW23881   1.758   1.415   9.739 -0.9034  0.2019  0.2728
 4140SOL    HW123882   1.834   1.370   9.777 -1.5190 -2.3495 -1.5283
 4140SOL    HW223883   1.787   1.438   9.651 -4.2813  0.9054 -0.6338
 4141SOL     OW23884   4.293   2.687   5.751 -0.3466  0.7052 -0.5103
 4141SOL    HW123885   4.290   2.605   5.801  0.6033 -0.0626 -1.7092
 4141SOL    HW223886   4.362   2.667   5.688  0.6493  2.0022  0.1855
 4142SOL     OW23887   2.240   3.929  11.485  0.2380  0.2175 -0.1848
 4142SOL    HW123888   2.234   3.912  11.391  0.1493  0.4264 -0.2154
 4142SOL    HW223889   2.304   4.000  11.486 -0.8434  1.1864 -1.8607
 4143SOL     OW23890   1.862   2.645   3.213  0.0713 -0.8495 -0.1870
 4143SOL    HW123891   1.845   2.736   3.190  0.3098 -0.8730 -0.4531
 4143SOL    HW223892   1.797   2.622   3.280  0.2866 -0.5249  0.1300
 4144SOL     OW23893   3.244   0.063   5.744  0.5648 -0.1846  0.1522
 4144SOL    HW123894   3.296   4.718   5.697  0.1716  0.6940 -1.4894
 4144SOL    HW223895   3.154   0.041   5.720 -0.5909  2.8721  1.6934
 4145SOL     OW23896   0.957   3.206  10.457  0.2952 -0.2785  0.0555
 4145SOL    HW123897   0.877   3.163  10.488  1.2823 -1.3562  1.0949
 4145SOL    HW223898   0.930   3.252  10.378 -1.3455 -1.2565  0.0427
 4146SOL     OW23899   1.601   2.921  16.515 -0.1814 -0.1824  0.3891
 4146SOL    HW123900   1.633   2.859  16.449  2.9088  0.1285  1.5705
 4146SOL    HW223901   1.530   2.960  16.465  1.0124  0.6404 -0.6782
 4147SOL     OW23902   3.072   0.595   4.578 -0.1660 -0.4439 -0.0474
 4147SOL    HW123903   3.160   0.624   4.554 -0.6328  0.7605 -0.2817
 4147SOL    HW223904   3.097   0.506   4.605 -0.8378 -0.9033 -0.9271
 4148SOL     OW23905   0.122   1.135   1.024  0.2431  0.1119 -0.6304
 4148SOL    HW123906   0.205   1.170   0.992  1.9865 -2.1428  1.4606
 4148SOL    HW223907   0.077   1.095   0.949 -1.1503 -0.3632  0.4595
 4149SOL     OW23908   3.163   1.980   9.133  0.0635  0.2732 -0.0319
 4149SOL    HW123909   3.198   1.955   9.047  0.3589 -0.7593  0.3979
 4149SOL    HW223910   3.092   2.042   9.112 -2.0810 -0.9305  3.7167
 4150SOL     OW23911   2.097   2.053  10.649  0.1247  0.0656  0.1479
 4150SOL    HW123912   2.010   2.018  10.668  0.3847 -0.7065 -0.1063
 4150SOL    HW223913   2.098   2.134  10.700  2.1119  0.2224 -0.1367
 4151SOL     OW23914   2.900   2.473   3.942 -0.2708 -0.2102  0.5919
 4151SOL    HW123915   2.846   2.484   4.019 -1.6833  0.8384 -0.5559
 4151SOL    HW223916   2.834   2.452   3.876  0.5326  1.7574 -0.8630
 4152SOL     OW23917   3.253   3.262  15.177 -0.0325  0.0361  0.3404
 4152SOL    HW123918   3.208   3.179  15.163  0.7432 -0.0393 -1.6158
 4152SOL    HW223919   3.187   3.312  15.128  0.5492  1.7839  1.3235
 4153SOL     OW23920   1.688   1.396   2.595  0.5281 -0.2967  0.5497
 4153SOL    HW123921   1.747   1.428   2.663 -0.3936 -0.4032  1.4080
 4153SOL    HW223922   1.616   1.363   2.650 -2.1702  0.1572 -2.7686
 4154SOL     OW23923   2.646   3.730  17.119 -0.6967 -1.2242  0.7951
 4154SOL    HW123924   2.709   3.659  17.112  0.4267  0.0077 -1.5336
 4154SOL    HW223925   2.696   3.803  17.082  0.4900 -2.1509  0.5912
 4155SOL     OW23926   4.586   0.546  15.742 -0.3258 -0.4907  0.1506
 4155SOL    HW123927   4.568   0.466  15.692 -0.4350  0.3195 -1.0947
 4155SOL    HW223928   4.507   0.555  15.797  0.3575  2.0970  0.6833
 4156SOL     OW23929   2.209   1.267   2.258 -0.5949  0.9063 -0.3052
 4156SOL    HW123930   2.259   1.348   2.272  1.1633  0.0596 -1.6621
 4156SOL    HW223931   2.274   1.213   2.214 -0.6949 -0.6756  1.5085
 4157SOL     OW23932   2.347   0.017   7.970  0.5648  0.4618  0.8147
 4157SOL    HW123933   2.327   4.643   7.969 -0.6287  0.7308 -0.1019
 4157SOL    HW223934   2.258   0.052   7.966  0.1269 -0.6018  1.3871
 4158SOL     OW23935   1.014   1.106   4.279  0.4727 -0.0323 -0.1150
 4158SOL    HW123936   1.106   1.132   4.276 -0.2501  2.7837  2.1372
 4158SOL    HW223937   1.000   1.113   4.185  0.9799 -0.1805 -0.2000
 4159SOL     OW23938   4.071   0.033   3.176 -0.5305 -0.1325 -0.2490
 4159SOL    HW123939   4.128   4.716   3.109 -2.1387 -0.8460 -1.2296
 4159SOL    HW223940   4.111   4.700   3.246 -1.4721 -0.4558  0.0554
 4160SOL     OW23941   0.035   3.892   3.789 -0.2230 -0.0291  0.3980
 4160SOL    HW123942   4.661   3.877   3.773 -0.5154 -1.4569  3.6041
 4160SOL    HW223943   0.056   3.839   3.866  0.7934  0.8354  0.7156
 4161SOL     OW23944   2.264   4.581   8.392 -0.1254  0.0274  0.6610
 4161SOL    HW123945   2.260   4.658   8.334  1.6389  0.7013  1.4303
 4161SOL    HW223946   2.336   4.530   8.354 -1.1579  1.0507 -2.7072
 4162SOL     OW23947   4.129   4.131   0.362  0.0662 -0.1221 -0.4439
 4162SOL    HW123948   4.162   4.045   0.389 -2.9091 -0.6082  1.6483
 4162SOL    HW223949   4.160   4.189   0.431 -1.1445 -2.3329  1.9562
 4163SOL     OW23950   1.409   2.141  12.124 -0.0563 -0.2225 -0.5329
 4163SOL    HW123951   1.315   2.145  12.144  0.1217 -1.2111  0.5037
 4163SOL    HW223952   1.416   2.073  12.056 -0.1257 -0.6778 -0.0833
 4164SOL     OW23953   4.540   4.230   7.832  0.0197 -0.2345 -0.6709
 4164SOL    HW123954   4.608   4.188   7.781  0.2099  1.3942 -1.7489
 4164SOL    HW223955   4.464   4.191   7.789 -0.3308  0.3647 -0.5980
 4165SOL     OW23956   2.898   0.912   1.885 -0.4138 -0.0595  0.1672
 4165SOL    HW123957   2.823   0.915   1.944  0.3856 -0.6916  1.1942
 4165SOL    HW223958   2.863   0.959   1.808  0.4683  1.8295  0.9146
 4166SOL     OW23959   0.115   4.173   2.532  0.1136  0.3535  0.0287
 4166SOL    HW123960   0.076   4.095   2.495  1.0971 -0.2782  0.3113
 4166SOL    HW223961   0.125   4.153   2.625  0.6693 -1.6272 -0.4693
 4167SOL     OW23962   4.704   0.477   2.828  0.0502  0.2919 -0.1389
 4167SOL    HW123963   0.028   0.398   2.794  0.8753  0.4403  0.5726
 4167SOL    HW223964   4.676   0.449   2.915  1.5657 -2.5623 -0.5515
 4168SOL     OW23965   0.070   2.258   6.844 -0.2449 -0.6231 -0.1373
 4168SOL    HW123966   0.121   2.321   6.793 -0.5291 -1.1043 -1.0125
 4168SOL    HW223967   0.147   2.218   6.885  0.0922 -0.6686 -0.8167
 4169SOL     OW23968   3.871   4.327  12.981 -0.4172  0.4718  0.4132
 4169SOL    HW123969   3.866   4.337  13.076 -0.7979  0.1278  0.4292
 4169SOL    HW223970   3.803   4.383  12.943 -1.1293  0.2902  1.4175
 4170SOL     OW23971   0.284   3.141   1.889  0.5523  0.0836 -0.4675
 4170SOL    HW123972   0.312   3.145   1.798  1.4698  1.8890 -0.0999
 4170SOL    HW223973   0.260   3.230   1.912 -0.1130 -0.2384  0.0930
 4171SOL     OW23974   1.539   4.446  12.977  0.1266 -0.3100  0.0480
 4171SOL    HW123975   1.561   4.476  13.065 -1.2033 -0.5101  0.4588
 4171SOL    HW223976   1.512   4.356  12.994  1.5677 -1.0959 -1.8547
 4172SOL     OW23977   2.490   0.628   7.631 -0.4013 -0.1150  0.3380
 4172SOL    HW123978   2.493   0.540   7.667  1.3250 -0.8393 -1.5933
 4172SOL    HW223979   2.447   0.612   7.548 -0.7652  0.2535  0.4532
 4173SOL     OW23980   2.541   2.756   5.006  0.5498  0.0967 -0.1405
 4173SOL    HW123981   2.587   2.709   5.076  1.9575  0.3842 -0.8751
 4173SOL    HW223982   2.471   2.806   5.049 -0.9441 -1.2378 -1.0276
 4174SOL     OW23983   3.659   0.228  16.109  0.6095  0.1786 -0.0564
 4174SOL    HW123984   3.566   0.249  16.106  0.4618 -0.7681 -2.3560
 4174SOL    HW223985   3.653   0.143  16.151  2.8726 -0.9355 -1.9573
 4175SOL     OW23986   0.396   2.929   2.086 -0.2911  0.1055 -0.1731
 4175SOL    HW123987   0.436   2.980   2.156 -2.2478  1.1580  0.1829
 4175SOL    HW223988   0.390   2.990   2.013  1.1487  0.8784  0.3637
 4176SOL     OW23989   1.445   0.438   1.950 -0.0892  0.0001  0.0819
 4176SOL    HW123990   1.421   0.456   2.041  3.2053  1.7568  0.5799
 4176SOL    HW223991   1.487   0.522   1.932 -1.7736  0.8381  0.0823
 4177SOL     OW23992   2.392   3.350   3.971 -0.6950  0.3753 -0.2547
 4177SOL    HW123993   2.320   3.397   3.930 -0.5614  2.3065  1.7305
 4177SOL    HW223994   2.397   3.269   3.920  0.6560 -0.5813  1.3932
 4178SOL     OW23995   2.997   2.484   0.261 -0.3443 -0.5424  0.1311
 4178SOL    HW123996   3.023   2.554   0.201 -0.5137 -1.4907 -1.0283
 4178SOL    HW223997   3.012   2.529   0.344  2.3453 -2.8865  0.8868
 4179SOL     OW23998   1.636   4.633   4.131 -0.0296 -0.0166 -0.0771
 4179SOL    HW123999   1.595   4.719   4.119  1.3321  0.4127 -1.6853
 4179SOL    HW224000   1.663   4.638   4.222 -0.2819  0.8288 -0.0516
 4180SOL     OW24001   0.152   0.016   3.378  0.4429  0.0046  0.6708
 4180SOL    HW124002   0.091   0.016   3.305 -1.6631 -1.1699  2.4467
 4180SOL    HW224003   0.106   0.072   3.441  1.2879  1.0940  0.3253
 4181SOL     OW24004   3.418   4.199   5.668  0.4763 -0.5031 -0.3373
 4181SOL    HW124005   3.458   4.123   5.627  0.1758  1.2535 -3.9737
 4181SOL    HW224006   3.473   4.272   5.639  0.4325 -0.2061  0.3395
 4182SOL     OW24007   3.802   1.185   8.504 -0.0742 -0.0423  0.1702
 4182SOL    HW124008   3.773   1.118   8.566  0.6965 -1.0945 -0.6247
 4182SOL    HW224009   3.772   1.266   8.545  1.6400  0.3686  0.6103
 4183SOL     OW24010   3.603   3.741  12.121  0.5004  0.0328 -0.6051
 4183SOL    HW124011   3.673   3.680  12.145  0.9854  0.9530  0.2871
 4183SOL    HW224012   3.528   3.688  12.147  0.1489  0.4746 -0.7268
 4184SOL     OW24013   0.373   4.179  14.345  0.0462  0.5488 -0.2992
 4184SOL    HW124014   0.286   4.159  14.308 -0.4520  1.9368  0.1319
 4184SOL    HW224015   0.345   4.234  14.418  3.1264 -1.1784  2.1491
 4185SOL     OW24016   3.473   1.833   6.237  0.5278 -0.3538  0.2366
 4185SOL    HW124017   3.467   1.741   6.263 -2.0544  0.0194  0.9435
 4185SOL    HW224018   3.399   1.867   6.287  0.0496 -2.7062  1.1342
 4186SOL     OW24019   0.229   0.904   1.436 -0.0786 -0.0096 -0.4331
 4186SOL    HW124020   0.277   0.879   1.515 -2.3340 -0.5991  0.7387
 4186SOL    HW224021   0.296   0.950   1.385  0.6638  1.0373  1.4790
 4187SOL     OW24022   0.502   3.216   4.712  0.0871 -0.1421  0.3812
 4187SOL    HW124023   0.498   3.156   4.787 -1.3462 -1.0322 -0.4262
 4187SOL    HW224024   0.539   3.296   4.749 -0.8691  0.3917  0.1721
 4188SOL     OW24025   2.348   2.831   1.884  0.2344 -0.1118 -0.4594
 4188SOL    HW124026   2.262   2.872   1.895  0.7650  0.9764 -0.2740
 4188SOL    HW224027   2.396   2.897   1.833  0.0198  0.9239  0.6706
 4189SOL     OW24028   0.506   0.206   7.709  0.1355  0.7911  0.0033
 4189SOL    HW124029   0.574   0.273   7.721  0.4695  0.7260 -1.5241
 4189SOL    HW224030   0.527   0.149   7.784 -0.9015  1.8557  1.1030
 4190SOL     OW24031   1.345   3.424   6.976 -0.5880  0.4013  0.3585
 4190SOL    HW124032   1.326   3.516   6.957  0.2514  0.1183 -1.8646
 4190SOL    HW224033   1.347   3.436   7.071  0.0669 -0.7160  0.4814
 4191SOL     OW24034   0.099   4.172  14.216  0.0371 -0.4773  0.2677
 4191SOL    HW124035   0.013   4.198  14.248  0.7779  0.7695  1.2572
 4191SOL    HW224036   0.088   4.160  14.122 -3.4249 -0.1132  0.6161
 4192SOL     OW24037   3.317   2.752  16.281  0.1696  0.3338  0.1774
 4192SOL    HW124038   3.346   2.839  16.256  0.9100  0.4571  1.4972
 4192SOL    HW224039   3.252   2.734  16.212  0.0058 -0.3829  0.5166
 4193SOL     OW24040   3.201   0.761   0.106 -0.0847 -0.1042  0.6568
 4193SOL    HW124041   3.155   0.770   0.023  0.5788  0.1096  0.3033
 4193SOL    HW224042   3.211   0.851   0.137 -1.6116  0.1459  0.4173
 4194SOL     OW24043   0.888   2.401   6.285  0.0111 -0.1958  0.4132
 4194SOL    HW124044   0.896   2.399   6.381 -2.6713  1.3233  0.6783
 4194SOL    HW224045   0.935   2.481   6.263  1.2836 -1.0817 -0.0615
 4195SOL     OW24046   0.441   2.486   8.900 -0.0537  0.1373  0.0546
 4195SOL    HW124047   0.496   2.502   8.824  0.1717 -0.7443  0.0236
 4195SOL    HW224048   0.496   2.525   8.968 -0.4319 -0.7351  0.8690
 4196SOL     OW24049   2.371   3.232  15.762  0.0404  0.1024  0.4072
 4196SOL    HW124050   2.337   3.294  15.698 -0.7794  0.1118  0.8559
 4196SOL    HW224051   2.354   3.148  15.719  0.5164  0.2915 -0.1542
 4197SOL     OW24052   2.623   1.982  14.287 -0.1447  0.1885 -0.3086
 4197SOL    HW124053   2.652   1.902  14.331  0.8479  1.6598  1.7136
 4197SOL    HW224054   2.529   1.964  14.283  0.1382 -2.2030  3.9993
 4198SOL     OW24055   3.499   1.320   9.929  0.3612  0.3802 -0.0125
 4198SOL    HW124056   3.543   1.395   9.888  2.9276  0.2589  2.4585
 4198SOL    HW224057   3.410   1.352   9.917  0.1339  0.3007  1.4462
 4199SOL     OW24058   3.337   1.120   2.682 -0.2196  0.3752  0.9084
 4199SOL    HW124059   3.246   1.111   2.711  0.1669 -2.4920  1.3097
 4199SOL    HW224060   3.377   1.150   2.763 -3.8054  1.7371  2.1826
 4200SOL     OW24061   1.286   1.125   5.890  0.7714 -0.3184 -0.8564
 4200SOL    HW124062   1.274   1.199   5.830 -0.4548  0.9129  0.9045
 4200SOL    HW224063   1.212   1.135   5.951  1.3839 -2.2959  0.2041
 4201SOL     OW24064   0.757   1.740  11.120 -0.5110  0.3898 -0.5080
 4201SOL    HW124065   0.825   1.772  11.179 -0.6880 -2.4683  1.2123
 4201SOL    HW224066   0.701   1.816  11.105  2.0687  2.0409 -1.9846
 4202SOL     OW24067   3.359   1.642  13.068  0.6646  0.0401  0.0184
 4202SOL    HW124068   3.341   1.607  13.155 -2.6103  0.7124 -0.3992
 4202SOL    HW224069   3.289   1.704  13.051  1.6920  0.7423 -1.6650
 4203SOL     OW24070   0.734   1.784   9.743  0.3659  0.0332 -0.2802
 4203SOL    HW124071   0.689   1.745   9.669  0.6046  1.1204 -0.9939
 4203SOL    HW224072   0.796   1.712   9.757 -1.8035 -1.2959  2.4445
 4204SOL     OW24073   0.161   3.607   3.696  0.3265  0.0731  0.4401
 4204SOL    HW124074   0.234   3.648   3.741 -0.0558  1.3538 -0.1091
 4204SOL    HW224075   0.108   3.596   3.775  1.2513  2.1397  1.3226
 4205SOL     OW24076   2.861   2.097   7.470  0.3003 -0.1826 -0.3933
 4205SOL    HW124077   2.852   2.027   7.535 -1.3439 -0.2679 -0.7026
 4205SOL    HW224078   2.809   2.052   7.402 -0.0950 -0.9650  0.4208
 4206SOL     OW24079   0.673   0.860   5.104  0.1709  0.1341 -0.1088
 4206SOL    HW124080   0.726   0.906   5.040 -3.2538  1.0669 -2.3017
 4206SOL    HW224081   0.736   0.845   5.175  0.7288 -1.5588 -0.9583
 4207SOL     OW24082   1.692   3.161  10.110 -0.5729  0.5809 -0.0874
 4207SOL    HW124083   1.771   3.125  10.150 -1.1563  0.4671  0.9554
 4207SOL    HW224084   1.731   3.215  10.041 -0.1343  0.0432 -0.2663
 4208SOL     OW24085   1.770   1.466  10.810  0.3072 -0.2320  0.1287
 4208SOL    HW124086   1.763   1.459  10.715  3.2478 -0.3848 -0.0718
 4208SOL    HW224087   1.691   1.514  10.838 -1.2314 -2.8143  0.1559
 4209SOL     OW24088   2.800   2.961   7.293  0.7436 -0.0950  0.0076
 4209SOL    HW124089   2.863   3.019   7.334  0.4566  1.0343 -1.1502
 4209SOL    HW224090   2.857   2.906   7.239  1.4441  0.1817  0.4700
 4210SOL     OW24091   1.286   0.120  17.537  0.3110  0.3008  0.0615
 4210SOL    HW124092   1.319   0.199  17.495  1.2726 -0.4469 -0.6153
 4210SOL    HW224093   1.332   0.052  17.487  1.2211  2.8091 -2.4926
 4211SOL     OW24094   0.458   4.545   4.421 -0.2895 -0.5388 -0.1681
 4211SOL    HW124095   0.512   4.518   4.347 -1.1618 -1.2702 -0.5438
 4211SOL    HW224096   0.525   4.566   4.485 -0.2521 -3.5083  0.7660
 4212SOL     OW24097   2.206   0.921   3.711 -0.1726  0.3992 -0.2145
 4212SOL    HW124098   2.111   0.922   3.707 -0.2925 -2.7390  1.2631
 4212SOL    HW224099   2.212   0.948   3.620 -0.6283 -1.5516 -0.8403
 4213SOL     OW24100   3.141   4.454  10.897  0.0838  0.2209  0.4290
 4213SOL    HW124101   3.142   4.550  10.898  3.6003  0.1566  2.2081
 4213SOL    HW224102   3.095   4.441  10.980  0.1391 -4.5855 -0.3238
 4214SOL     OW24103   1.817   4.296   3.175  0.0206  0.2869 -0.6986
 4214SOL    HW124104   1.834   4.389   3.165 -1.3986  0.5293 -0.8318
 4214SOL    HW224105   1.778   4.280   3.089 -0.5978  0.0677 -0.3759
 4215SOL     OW24106   1.146   0.774   8.482  0.0986 -0.2973 -0.2975
 4215SOL    HW124107   1.136   0.680   8.496 -0.0087 -0.0762  1.0664
 4215SOL    HW224108   1.229   0.790   8.437  0.4682  0.9320  0.8382
 4216SOL     OW24109   3.398   2.320   9.147 -0.2901  0.3862  0.8327
 4216SOL    HW124110   3.420   2.328   9.240 -0.8400 -1.5044  1.1258
 4216SOL    HW224111   3.451   2.244   9.125 -1.4575 -0.5618  1.2769
 4217SOL     OW24112   3.205   2.655   9.071 -0.1278  0.3472 -0.0507
 4217SOL    HW124113   3.219   2.750   9.071  1.8657  0.0497 -0.8624
 4217SOL    HW224114   3.252   2.629   8.992  1.1948 -0.1503  0.9120
 4218SOL     OW24115   3.435   1.299   8.164 -0.5064 -0.1559  0.2249
 4218SOL    HW124116   3.375   1.316   8.092 -0.7927 -0.5031  0.3834
 4218SOL    HW224117   3.428   1.208   8.193 -2.8131 -0.2937 -0.8030
 4219SOL     OW24118   3.376   1.577   8.414 -0.1644 -0.0155 -0.2307
 4219SOL    HW124119   3.288   1.613   8.398 -0.7548 -1.7179 -0.8876
 4219SOL    HW224120   3.382   1.587   8.509  2.6444 -1.4128 -0.2920
 4220SOL     OW24121   4.388   1.775   3.995 -0.1349 -0.0656 -0.3883
 4220SOL    HW124122   4.452   1.843   4.016 -0.8423 -0.2480  2.2509
 4220SOL    HW224123   4.323   1.802   4.060 -1.2363 -0.0261 -1.4967
 4221SOL     OW24124   0.827   2.262  16.994 -0.1182 -0.4240  0.0845
 4221SOL    HW124125   0.874   2.284  17.074  0.9071 -2.2755 -0.0153
 4221SOL    HW224126   0.744   2.305  17.017 -0.2287  0.8149 -2.5766
 4222SOL     OW24127   2.970   1.755   6.925 -0.4566  0.3287 -0.2514
 4222SOL    HW124128   2.925   1.726   7.005 -0.6731 -2.5477 -1.4321
 4222SOL    HW224129   3.001   1.842   6.952 -2.0901  0.4126  1.3580
 4223SOL     OW24130   3.739   0.877  16.269 -0.1614 -0.9016  0.9254
 4223SOL    HW124131   3.747   0.860  16.175 -1.8909 -2.4673  1.0663
 4223SOL    HW224132   3.751   0.972  16.270 -0.8780 -0.8184  1.7217
 4224SOL     OW24133   3.933   0.750   9.223  0.0325 -0.0065 -0.0490
 4224SOL    HW124134   3.922   0.766   9.129  3.2955 -1.6515 -0.7318
 4224SOL    HW224135   3.854   0.703   9.248 -0.3271  0.8370  0.4053
 4225SOL     OW24136   1.770   3.241  16.456 -0.1211  0.9877  0.5994
 4225SOL    HW124137   1.685   3.233  16.501 -0.6126 -0.2433 -0.5444
 4225SOL    HW224138   1.766   3.181  16.382 -0.3552 -0.7828  2.0610
 4226SOL     OW24139   0.317   4.414   8.725 -0.2937 -0.2526  0.2185
 4226SOL    HW124140   0.317   4.424   8.630 -2.2257 -0.0281  0.2329
 4226SOL    HW224141   0.304   4.502   8.760 -1.5713  0.7049 -2.5996
 4227SOL     OW24142   4.241   0.881  10.689 -0.3708 -0.3252  0.3823
 4227SOL    HW124143   4.221   0.897  10.597 -0.0845 -0.6016  0.2712
 4227SOL    HW224144   4.283   0.795  10.687  1.0289  0.3507  0.6369
 4228SOL     OW24145   0.285   0.155  10.837 -0.1556 -0.2873 -0.6211
 4228SOL    HW124146   0.317   0.066  10.853 -2.4784 -1.1845 -0.9490
 4228SOL    HW224147   0.196   0.136  10.809 -0.9156  0.4609  1.2307
 4229SOL     OW24148   4.653   1.893  10.564 -0.4677 -0.2447 -0.4609
 4229SOL    HW124149   4.668   1.837  10.640 -2.7685  1.1206  1.0212
 4229SOL    HW224150   4.581   1.940  10.606 -1.2190  1.5702 -3.7376
 4230SOL     OW24151   0.909   1.344   4.945  0.2137 -0.7305  0.0875
 4230SOL    HW124152   0.843   1.347   4.875  1.2787  0.6594 -0.8591
 4230SOL    HW224153   0.901   1.432   4.980  0.2397 -0.7319  0.0971
 4231SOL     OW24154   3.463   2.358   3.458 -0.0488 -0.4965 -0.7692
 4231SOL    HW124155   3.516   2.371   3.537 -2.1512 -0.7936  0.6753
 4231SOL    HW224156   3.451   2.448   3.428  1.0829  0.3609  1.3559
 4232SOL     OW24157   3.022   3.799   5.413  0.0140  0.0125  0.1452
 4232SOL    HW124158   3.017   3.755   5.329  1.9581 -0.2055  0.1487
 4232SOL    HW224159   3.090   3.861   5.388 -0.5948  1.4614  2.0487
 4233SOL     OW24160   3.234   3.710  14.350 -0.7666  0.4783  0.1079
 4233SOL    HW124161   3.155   3.695  14.404 -0.0377  2.8524  1.8083
 4233SOL    HW224162   3.284   3.642  14.394 -0.0673  0.7055 -0.3491
 4234SOL     OW24163   2.535   0.036   9.094 -0.0170 -0.1740  0.2712
 4234SOL    HW124164   2.560   0.067   9.181  0.7409  2.0415 -0.7371
 4234SOL    HW224165   2.440   0.036   9.096 -0.0524  2.3381 -0.7376
 4235SOL     OW24166   2.378   2.325   5.549 -0.2631  0.0810  0.3979
 4235SOL    HW124167   2.437   2.396   5.520 -1.4862  1.3214  0.9659
 4235SOL    HW224168   2.360   2.363   5.634 -0.2390  0.6841  0.1366
 4236SOL     OW24169   4.157   2.556   8.979  0.0081  0.2734  0.1359
 4236SOL    HW124170   4.248   2.568   8.952 -0.0128 -0.8907 -0.4529
 4236SOL    HW224171   4.166   2.470   9.020 -1.5091  0.0424  0.0076
 4237SOL     OW24172   3.535   3.947   2.878 -0.2869  0.5766  0.1024
 4237SOL    HW124173   3.462   3.923   2.821  0.1143 -2.9383  1.0813
 4237SOL    HW224174   3.604   3.889   2.847 -0.6183  0.4138 -0.3214
 4238SOL     OW24175   2.032   2.702  11.230 -0.1789  0.2032 -0.1527
 4238SOL    HW124176   2.119   2.685  11.267  0.2243 -0.3528 -1.3322
 4238SOL    HW224177   2.024   2.629  11.168  0.1141  0.5197 -0.5663
 4239SOL     OW24178   3.051   4.653  14.462 -0.7112  0.2328 -0.2365
 4239SOL    HW124179   3.030   4.637  14.370 -0.9854  2.1975 -0.5066
 4239SOL    HW224180   3.035   0.028  14.464  0.7055  0.5063 -1.9654
 4240SOL     OW24181   1.663   2.173   8.310 -0.0730 -0.0555  0.0862
 4240SOL    HW124182   1.614   2.240   8.261 -0.9175 -0.2016  0.7191
 4240SOL    HW224183   1.657   2.102   8.246 -1.4377  1.2325 -1.2201
 4241SOL     OW24184   3.742   3.022   1.596 -0.4628 -0.6988  0.2960
 4241SOL    HW124185   3.687   2.994   1.670  0.4932  0.0217  1.2698
 4241SOL    HW224186   3.792   3.091   1.640  1.1992 -2.2613  0.9026
 4242SOL     OW24187   2.825   3.347   9.380  0.3134  0.1088  0.3467
 4242SOL    HW124188   2.812   3.399   9.460  0.8175 -0.6891  0.9456
 4242SOL    HW224189   2.886   3.401   9.330  2.0620 -0.2189  2.1384
 4243SOL     OW24190   4.062   1.719   0.989 -0.3484  0.1867  0.1142
 4243SOL    HW124191   3.972   1.692   0.969 -0.3304 -0.4956  0.9505
 4243SOL    HW224192   4.048   1.802   1.033  0.7036  0.2568  0.3119
 4244SOL     OW24193   0.845   4.378   1.739  0.2393 -0.0091 -1.2366
 4244SOL    HW124194   0.825   4.470   1.726 -2.7646 -0.6150 -0.8690
 4244SOL    HW224195   0.859   4.354   1.647 -1.7957  0.1439 -1.5707
 4245SOL     OW24196   0.222   4.458   4.522 -0.3483 -0.1415  0.2463
 4245SOL    HW124197   0.236   4.364   4.522  3.2557  0.3734 -1.4282
 4245SOL    HW224198   0.298   4.484   4.469 -1.6164 -0.2047 -1.6099
 4246SOL     OW24199   0.229   1.218   4.549 -0.0859 -0.7674 -0.1512
 4246SOL    HW124200   0.187   1.262   4.476  0.6658 -1.5015 -1.0277
 4246SOL    HW224201   0.317   1.255   4.543  0.1589 -0.9783  1.8844
 4247SOL     OW24202   3.932   2.046   1.397 -0.4207  0.5007 -0.0163
 4247SOL    HW124203   3.905   2.022   1.485  1.1336  1.5421  0.7404
 4247SOL    HW224204   3.957   2.138   1.405  1.8846  0.0623 -2.2762
 4248SOL     OW24205   2.516   1.165   4.419 -0.4748 -0.8495  0.4133
 4248SOL    HW124206   2.426   1.171   4.385  0.0331  1.3366 -0.6160
 4248SOL    HW224207   2.511   1.128   4.507 -1.3260  1.1483  1.2207
 4249SOL     OW24208   2.663   0.225  13.525  0.0711  0.0469  0.4780
 4249SOL    HW124209   2.666   0.150  13.584  2.1655  1.1232  1.7181
 4249SOL    HW224210   2.567   0.231  13.529 -0.1100 -0.9925 -2.3945
 4250SOL     OW24211   2.940   4.516   8.550  0.1187  0.3549 -0.6677
 4250SOL    HW124212   2.993   4.448   8.509 -1.3567 -2.1570  1.5988
 4250SOL    HW224213   2.916   4.471   8.631 -0.7297  0.7956 -0.6708
 4251SOL     OW24214   2.659   1.306  13.994  0.1199  0.5317  0.0665
 4251SOL    HW124215   2.634   1.382  13.941 -1.0103 -1.1484 -1.8074
 4251SOL    HW224216   2.581   1.321  14.048  0.2088  0.0302  0.3323
 4252SOL     OW24217   2.203   3.898   1.302  0.0740 -0.6116 -0.0690
 4252SOL    HW124218   2.177   3.952   1.377 -1.3346 -0.7611 -0.4349
 4252SOL    HW224219   2.142   3.927   1.234 -0.1363  0.3338  0.5251
 4253SOL     OW24220   3.061   4.627   4.177  0.0913 -0.3736  0.3891
 4253SOL    HW124221   3.054   4.537   4.145 -2.8783  0.1740 -0.5704
 4253SOL    HW224222   3.116   4.679   4.119  1.8054 -1.1303  1.3589
 4254SOL     OW24223   4.243   2.621   5.085 -0.0903  0.1965 -0.4927
 4254SOL    HW124224   4.214   2.557   5.020 -0.0944 -1.7929  1.4822
 4254SOL    HW224225   4.301   2.575   5.145 -0.7035  0.8438  0.5862
 4255SOL     OW24226   0.468   0.151   2.991 -1.1981  0.1664  0.4156
 4255SOL    HW124227   0.429   0.152   3.079 -0.3814 -0.1363  0.7756
 4255SOL    HW224228   0.510   0.237   2.995 -0.0895 -0.3728  0.2049
 4256SOL     OW24229   1.097   0.129  12.323  0.2865  0.5935 -0.0476
 4256SOL    HW124230   1.120   0.218  12.297  2.0340 -0.2047 -1.2644
 4256SOL    HW224231   1.023   0.147  12.380  1.2016 -0.5815  1.4946
 4257SOL     OW24232   0.423   0.452  15.711 -0.5451 -0.4535 -0.4475
 4257SOL    HW124233   0.436   0.358  15.720 -0.0533 -0.4682 -1.3547
 4257SOL    HW224234   0.488   0.471  15.779  1.8174  0.6695 -3.0384
 4258SOL     OW24235   0.776   0.950  15.441  0.9751  0.1749  0.3250
 4258SOL    HW124236   0.814   0.963  15.528  0.7686  2.3094  0.0987
 4258SOL    HW224237   0.763   1.040  15.411  1.9866  0.2442  0.0906
 4259SOL     OW24238   1.521   3.697  11.341 -0.8858  0.0104 -0.4173
 4259SOL    HW124239   1.487   3.608  11.328 -0.6582  0.3371 -3.1671
 4259SOL    HW224240   1.439   3.737  11.370  0.4937  2.7590 -0.3414
 4260SOL     OW24241   3.662   1.760  10.087 -0.1462 -0.2829  0.4988
 4260SOL    HW124242   3.604   1.697  10.130 -0.4903 -0.3410 -0.0457
 4260SOL    HW224243   3.730   1.764  10.154 -0.0905 -0.2785  0.4419
 4261SOL     OW24244   0.930   1.422   4.314  0.0242  0.2844 -0.0695
 4261SOL    HW124245   0.969   1.340   4.346  1.6379  1.0498 -0.0944
 4261SOL    HW224246   0.991   1.448   4.245 -1.6932  2.8304 -0.6116
 4262SOL     OW24247   0.484   1.610  14.073  0.0103 -0.4728  0.2618
 4262SOL    HW124248   0.494   1.685  14.015  0.6405  0.8970  2.1401
 4262SOL    HW224249   0.475   1.657  14.156  2.7411  1.0346 -0.3079
 4263SOL     OW24250   0.547   2.981   2.454  0.2791  0.0192 -0.6647
 4263SOL    HW124251   0.613   2.925   2.495 -1.1219 -2.4127 -1.7264
 4263SOL    HW224252   0.607   3.024   2.393 -0.1940 -0.5787 -1.5487
 4264SOL     OW24253   1.927   0.930   3.736  0.5211  0.0606  0.5547
 4264SOL    HW124254   1.932   0.988   3.812 -3.0472  1.8553 -0.5588
 4264SOL    HW224255   1.841   0.940   3.695  0.6707  0.9486  0.4570
 4265SOL     OW24256   1.127   3.994  15.372 -0.1894  0.1044 -0.0941
 4265SOL    HW124257   1.151   3.941  15.296  0.9644  0.3617  0.1012
 4265SOL    HW224258   1.186   4.069  15.367 -0.7186  0.3373 -3.1458
 4266SOL     OW24259   0.133   0.363  14.204  0.5417 -0.7384  0.1415
 4266SOL    HW124260   0.163   0.348  14.115  1.4950 -2.7763  0.7942
 4266SOL    HW224261   0.156   0.451  14.235 -1.7345 -0.9638  2.4771
 4267SOL     OW24262   0.282   2.319   7.365 -0.2269  0.5392 -0.0893
 4267SOL    HW124263   0.323   2.369   7.294  0.4250 -1.5241 -1.1454
 4267SOL    HW224264   0.189   2.334   7.346 -0.2222 -0.7312 -1.1165
 4268SOL     OW24265   2.254   1.799   9.062 -0.6508  0.0499 -0.6352
 4268SOL    HW124266   2.198   1.730   9.024 -1.5175 -0.0651  0.8445
 4268SOL    HW224267   2.315   1.749   9.116 -0.6704 -0.1303 -0.7802
 4269SOL     OW24268   3.619   3.734   5.161 -0.0406 -0.5921 -0.1763
 4269SOL    HW124269   3.647   3.735   5.253 -1.3048 -0.3815  0.2060
 4269SOL    HW224270   3.527   3.749   5.180  0.6939 -0.6984  3.5007
 4270SOL     OW24271   0.971   4.691   1.891  0.0612 -0.1109  0.1002
 4270SOL    HW124272   1.062   4.707   1.917 -0.1351  0.4573  0.4273
 4270SOL    HW224273   0.968   4.612   1.945 -0.0897  0.4514  0.9071
 4271SOL     OW24274   4.465   1.567   8.328 -0.1262  0.3850  0.8766
 4271SOL    HW124275   4.530   1.636   8.316  0.5779 -0.4808 -0.3245
 4271SOL    HW224276   4.417   1.578   8.246  2.0105  0.8414 -0.3326
 4272SOL     OW24277   1.125   3.223   2.080 -0.3095 -0.5331  0.3349
 4272SOL    HW124278   1.060   3.293   2.081  1.6596  1.3430 -1.4111
 4272SOL    HW224279   1.114   3.193   1.990 -0.4821  0.0915  0.1453
 4273SOL     OW24280   3.021   0.279   1.875  0.3503  0.6738 -0.0747
 4273SOL    HW124281   3.067   0.214   1.821 -0.8006 -2.1000  2.2799
 4273SOL    HW224282   2.985   0.228   1.948  1.4054  0.0566  0.0182
 4274SOL     OW24283   4.457   2.141  14.601 -0.7166 -0.1220  0.1580
 4274SOL    HW124284   4.490   2.231  14.597 -1.7802  0.2622 -0.0902
 4274SOL    HW224285   4.441   2.131  14.695  0.3894  0.0215  0.3652
 4275SOL     OW24286   1.538   1.166   2.030  0.0356 -0.1948  0.0226
 4275SOL    HW124287   1.561   1.076   2.053  1.5378  0.5538  1.4754
 4275SOL    HW224288   1.560   1.212   2.111 -2.1557  1.2156 -0.1827
 4276SOL     OW24289   2.106   4.081   1.762  0.1665  0.1117  0.8851
 4276SOL    HW124290   2.095   4.000   1.813 -0.0743 -0.4638 -0.0796
 4276SOL    HW224291   2.195   4.110   1.781  0.3712  1.3282 -2.0221
 4277SOL     OW24292   0.149   3.822   2.658 -0.4429 -0.3954  0.5410
 4277SOL    HW124293   0.140   3.897   2.717  0.3129 -0.0826  0.2624
 4277SOL    HW224294   0.105   3.847   2.577  0.3970 -0.9333 -0.0924
 4278SOL     OW24295   2.268   0.255   3.298  0.3881  0.0683  0.3090
 4278SOL    HW124296   2.218   0.334   3.315 -0.8740 -0.4227 -1.1015
 4278SOL    HW224297   2.273   0.260   3.203 -2.1964 -2.9979 -0.0057
 4279SOL     OW24298   2.435   1.628   5.078 -0.1468  0.6088  0.4796
 4279SOL    HW124299   2.484   1.548   5.091  1.2397  1.2257 -0.9430
 4279SOL    HW224300   2.392   1.601   4.997  1.3649 -1.2068  0.3044
 4280SOL     OW24301   1.598   0.621   9.681  0.2416  0.2991 -0.6762
 4280SOL    HW124302   1.552   0.576   9.610  0.0558  0.2961 -0.5516
 4280SOL    HW224303   1.616   0.702   9.633  1.9219  0.5651  0.3936
 4281SOL     OW24304   3.684   4.316   0.039  0.8875 -0.1931  0.2197
 4281SOL    HW124305   3.653   4.388  17.664  2.0123 -0.1514 -0.3449
 4281SOL    HW224306   3.713   4.358   0.120  0.3444  0.2126  0.2123
 4282SOL     OW24307   3.360   0.212   8.599 -0.6593  0.0097 -0.2252
 4282SOL    HW124308   3.331   0.230   8.688  1.1948  0.6450  0.2583
 4282SOL    HW224309   3.334   0.124   8.573  1.2159  0.2791 -3.1236
 4283SOL     OW24310   1.626   0.313   5.888  0.1240  0.5094 -0.3986
 4283SOL    HW124311   1.641   0.352   5.974 -0.7033  1.4051 -0.6543
 4283SOL    HW224312   1.682   0.361   5.827  0.0617 -0.2769 -1.0770
 4284SOL     OW24313   0.738   0.031   5.578  0.0259 -0.0140 -0.3479
 4284SOL    HW124314   0.736   4.681   5.513  0.0675  0.4094 -0.8057
 4284SOL    HW224315   0.831   0.055   5.572  0.0877  0.0430  0.9302
 4285SOL     OW24316   0.949   1.704   2.783 -0.3494 -0.0771  0.1071
 4285SOL    HW124317   0.953   1.789   2.738  0.1053 -0.5241 -0.6999
 4285SOL    HW224318   1.033   1.694   2.828 -1.5830 -2.0298  1.9487
 4286SOL     OW24319   3.350   1.012   3.700  0.3160 -0.3626  0.2133
 4286SOL    HW124320   3.340   1.087   3.758  2.8902 -0.9001  1.3531
 4286SOL    HW224321   3.273   0.957   3.716  0.8926 -1.8659 -2.1825
 4287SOL     OW24322   4.159   0.877   8.964  0.6467 -0.0674  0.6172
 4287SOL    HW124323   4.162   0.964   8.923 -1.0603 -0.0639  0.5011
 4287SOL    HW224324   4.066   0.864   8.942  0.7189  0.7525 -0.1987
 4288SOL     OW24325   3.685   2.973  10.292 -0.0041 -0.0888  0.2171
 4288SOL    HW124326   3.754   3.037  10.275  3.3385 -3.6982  0.1568
 4288SOL    HW224327   3.655   2.943  10.206  0.6252 -1.0258  0.3152
 4289SOL     OW24328   1.027   3.860   7.360  0.7265 -0.1842 -0.3193
 4289SOL    HW124329   0.991   3.850   7.448 -1.5795  1.3317 -1.0909
 4289SOL    HW224330   1.093   3.926   7.382  0.2357 -0.8255  2.9942
 4290SOL     OW24331   1.942   4.554  12.917  0.1670 -0.5487 -0.2802
 4290SOL    HW124332   1.901   4.523  12.998 -1.1973  0.9522 -0.4127
 4290SOL    HW224333   1.871   4.535  12.856 -0.3453  1.3782 -0.2737
 4291SOL     OW24334   2.413   3.699   2.268  0.4638  0.0713  0.2085
 4291SOL    HW124335   2.468   3.775   2.254  0.3472  0.1867  0.3789
 4291SOL    HW224336   2.368   3.721   2.350 -0.4157 -0.2646 -0.1782
 4292SOL     OW24337   3.114   1.600   3.503 -0.3907 -0.1263  0.2515
 4292SOL    HW124338   3.205   1.571   3.508  0.3293  1.7366 -2.2322
 4292SOL    HW224339   3.105   1.673   3.441  0.2210  0.0737  0.4042
 4293SOL     OW24340   2.214   1.973   1.887  0.5259 -0.0502 -0.3628
 4293SOL    HW124341   2.150   1.911   1.853  0.2427  0.9837 -1.7152
 4293SOL    HW224342   2.297   1.933   1.861  0.7945  0.0479  0.3464
 4294SOL     OW24343   4.609   3.243   3.495  0.0177  0.5399 -0.1893
 4294SOL    HW124344   4.679   3.178   3.486  0.8884  1.7420 -1.9755
 4294SOL    HW224345   4.656   3.324   3.511  0.9730 -0.2616  1.1251
 4295SOL     OW24346   1.623   1.243   4.997  0.2795  0.1434  0.0736
 4295SOL    HW124347   1.690   1.211   5.058  0.0099 -1.4463 -0.4647
 4295SOL    HW224348   1.568   1.166   4.990  0.3185 -0.2988  4.7254
 4296SOL     OW24349   1.748   3.338  12.599  0.0467  0.0711  0.2610
 4296SOL    HW124350   1.811   3.300  12.661  0.8685 -1.0103 -1.2411
 4296SOL    HW224351   1.668   3.342  12.651 -0.3551 -1.2320 -0.2491
 4297SOL     OW24352   3.003   0.304  12.373 -0.0969 -0.0244 -0.2046
 4297SOL    HW124353   3.086   0.258  12.381 -0.5914 -0.4549  2.4461
 4297SOL    HW224354   2.962   0.258  12.300  2.1833  1.3366 -2.3013
 4298SOL     OW24355   1.724   0.936  14.505  0.5577 -0.0715 -0.0847
 4298SOL    HW124356   1.753   0.845  14.498  0.4984 -0.1092  0.1635
 4298SOL    HW224357   1.645   0.919  14.556 -0.6574  2.3561 -1.1261
 4299SOL     OW24358   0.091   0.557   4.537 -0.1401 -0.6394 -0.0499
 4299SOL    HW124359   0.024   0.618   4.507 -0.1761 -0.6816 -0.0552
 4299SOL    HW224360   0.061   0.538   4.626 -0.9914 -0.2048 -0.2465
 4300SOL     OW24361   0.175   1.892   2.382 -0.0748 -0.1433  0.1417
 4300SOL    HW124362   0.086   1.864   2.402  0.1087 -1.1040 -0.3931
 4300SOL    HW224363   0.219   1.808   2.368 -2.1274 -0.9498 -1.4922
 4301SOL     OW24364   0.019   0.788   4.966 -0.3993 -0.0541  0.1401
 4301SOL    HW124365   0.007   0.748   5.052  0.4813 -3.5255 -1.3405
 4301SOL    HW224366   4.653   0.770   4.927 -1.3032 -0.3444  2.2939
 4302SOL     OW24367   3.420   0.895   9.006 -0.0067 -0.3821  0.2680
 4302SOL    HW124368   3.408   0.990   9.013  2.1223 -0.1457  0.6393
 4302SOL    HW224369   3.336   0.864   9.042 -0.6519  0.3226 -0.6108
 4303SOL     OW24370   3.299   1.348   3.475  0.2552 -0.3895 -0.3277
 4303SOL    HW124371   3.230   1.317   3.533  0.4088 -4.2018 -2.2208
 4303SOL    HW224372   3.363   1.279   3.491  0.1711 -0.8479 -1.9934
 4304SOL     OW24373   1.554   3.379   0.951 -0.0167  0.6562 -0.1832
 4304SOL    HW124374   1.551   3.373   0.856  1.2561  1.0660 -0.2510
 4304SOL    HW224375   1.485   3.319   0.980  0.4865 -0.8899 -2.1771
 4305SOL     OW24376   3.092   0.016   1.731 -0.2242  0.1573 -0.3021
 4305SOL    HW124377   3.145   4.656   1.729 -0.8435 -0.2470 -0.6895
 4305SOL    HW224378   3.118   0.059   1.650 -1.6295 -2.5194 -2.1529
 4306SOL     OW24379   2.350   2.638  12.766  0.4098  0.4346  0.4338
 4306SOL    HW124380   2.315   2.582  12.696 -2.4523  2.2395  0.4103
 4306SOL    HW224381   2.436   2.650  12.725  0.4251  1.6804  0.8304
 4307SOL     OW24382   3.902   2.188   5.171  0.7570  0.1017 -0.0790
 4307SOL    HW124383   3.824   2.201   5.225 -1.8573 -0.1931 -3.7164
 4307SOL    HW224384   3.868   2.225   5.089  0.6567 -0.6835 -0.3915
 4308SOL     OW24385   1.514   0.305   6.379  0.6076  0.4606 -0.3266
 4308SOL    HW124386   1.563   0.294   6.460 -0.6630  1.3636  0.5621
 4308SOL    HW224387   1.580   0.317   6.311 -0.9782 -2.1974 -2.3128
 4309SOL     OW24388   2.670   4.654   4.192 -0.1828 -0.2741  0.2671
 4309SOL    HW124389   2.673   4.659   4.288  0.5854 -0.3323  0.2488
 4309SOL    HW224390   2.598   4.598   4.165  1.0987 -1.1343 -1.3859
 4310SOL     OW24391   4.060   4.453   0.102 -0.0652  0.2301 -0.7953
 4310SOL    HW124392   4.150   4.482   0.089 -0.9859  3.8109  1.0783
 4310SOL    HW224393   4.024   4.534   0.068  0.0227  1.0230  1.0241
 4311SOL     OW24394   0.169   2.576   5.555  0.8004  0.7923 -0.3353
 4311SOL    HW124395   0.102   2.631   5.515 -1.1494 -1.5437 -0.2798
 4311SOL    HW224396   0.247   2.612   5.512  1.0276 -0.3580 -0.8620
 4312SOL     OW24397   2.223   0.699   8.248  0.0969 -0.1722  0.3741
 4312SOL    HW124398   2.274   0.678   8.169 -0.2733 -0.7985  0.3001
 4312SOL    HW224399   2.159   0.631   8.227  1.1971 -0.3598 -2.4764
 4313SOL     OW24400   2.151   1.059   6.388  0.2956 -0.3662 -0.0709
 4313SOL    HW124401   2.177   0.993   6.452 -0.0749  1.1802  1.6617
 4313SOL    HW224402   2.143   1.140   6.439 -0.2023  0.0311 -0.7699
 4314SOL     OW24403   1.727   1.340   8.240 -0.6075 -0.3498  0.1503
 4314SOL    HW124404   1.786   1.279   8.196  0.0654  0.7029 -0.4124
 4314SOL    HW224405   1.762   1.408   8.183 -1.9573 -1.0302 -1.4697
 4315SOL     OW24406   1.195   0.653   3.489 -0.0336 -0.1662  0.2506
 4315SOL    HW124407   1.238   0.700   3.417 -1.4665  1.1198  0.2261
 4315SOL    HW224408   1.183   0.566   3.450 -0.4845 -0.6599  1.5167
 4316SOL     OW24409   4.507   0.141   7.013  0.2710  0.5930 -0.1888
 4316SOL    HW124410   4.457   0.183   6.943  0.7830  1.7245  0.1280
 4316SOL    HW224411   4.593   0.134   6.970  0.0453 -4.4418  0.1751
 4317SOL     OW24412   1.754   2.792   7.092  0.0862 -0.1594  0.3489
 4317SOL    HW124413   1.822   2.746   7.141  1.2743  1.0252 -0.1640
 4317SOL    HW224414   1.769   2.750   7.007  1.3436  1.0028 -0.0084
 4318SOL     OW24415   4.520   1.072   1.736  0.1074 -0.4861 -0.4570
 4318SOL    HW124416   4.574   1.021   1.676  0.1661  1.3022 -1.9415
 4318SOL    HW224417   4.566   1.155   1.749  0.2974 -0.8403  1.1368
 4319SOL     OW24418   3.029   1.742   3.718  0.1481 -0.2670 -0.3881
 4319SOL    HW124419   3.065   1.676   3.776  1.5588 -0.9601 -2.0194
 4319SOL    HW224420   3.032   1.697   3.633  2.2952 -1.0659  0.1095
 4320SOL     OW24421   1.810   2.898   4.807 -0.0859 -0.2330  0.2718
 4320SOL    HW124422   1.792   2.988   4.835  0.0377  0.3012 -1.3608
 4320SOL    HW224423   1.760   2.851   4.874  2.3218 -0.7304  1.6876
 4321SOL     OW24424   2.279   0.603   4.272 -0.0796  0.4000  0.1672
 4321SOL    HW124425   2.186   0.616   4.285  0.2715  0.9629  2.1209
 4321SOL    HW224426   2.309   0.588   4.362  0.5669 -0.5242 -0.2025
 4322SOL     OW24427   0.451   4.581   7.734  0.5708 -0.2310 -0.2719
 4322SOL    HW124428   0.363   4.552   7.758  0.0033  2.7978  1.4083
 4322SOL    HW224429   0.482   4.620   7.815  0.5847  0.8332 -0.7837
 4323SOL     OW24430   2.416   3.592  11.172 -0.0311  0.3757 -0.0361
 4323SOL    HW124431   2.323   3.568  11.168 -0.3658  1.9894 -2.0727
 4323SOL    HW224432   2.423   3.606  11.266 -0.0897  0.1275  0.0037
 4324SOL     OW24433   3.595   2.447   4.422  0.1748 -0.5662  0.0473
 4324SOL    HW124434   3.534   2.519   4.442 -0.9178 -2.1010  2.2317
 4324SOL    HW224435   3.646   2.490   4.353 -1.3523 -0.2831 -0.9104
 4325SOL     OW24436   3.576   0.238   4.456 -0.6726  0.0736  0.0745
 4325SOL    HW124437   3.524   0.314   4.483 -1.3772 -0.8679  1.4004
 4325SOL    HW224438   3.665   0.260   4.484 -0.9795  1.3723  0.0122
 4326SOL     OW24439   2.077   2.629   5.421  0.5197 -0.4727 -0.2737
 4326SOL    HW124440   2.117   2.578   5.351  1.4790  0.1732 -0.2004
 4326SOL    HW224441   2.145   2.695   5.440  0.3217 -0.3323 -0.0523
 4327SOL     OW24442   2.131   1.462   3.530  0.5931 -0.1089  0.0164
 4327SOL    HW124443   2.128   1.555   3.509  2.6062  0.1012  0.6657
 4327SOL    HW224444   2.199   1.422   3.476 -0.5440 -1.9377 -0.0548
 4328SOL     OW24445   2.771   0.492   3.084  0.1976 -1.0881 -0.0669
 4328SOL    HW124446   2.839   0.539   3.132 -0.1610  0.5550 -1.2028
 4328SOL    HW224447   2.797   0.403   3.109 -1.3507 -1.9573 -1.5763
 4329SOL     OW24448   2.193   4.355   3.546  0.1796  0.0410  0.0728
 4329SOL    HW124449   2.229   4.370   3.633 -1.7162  0.6979  0.7507
 4329SOL    HW224450   2.273   4.345   3.494 -1.1770 -0.1143 -2.0133
 4330SOL     OW24451   2.096   0.126  11.539 -0.2755 -0.6211 -0.2662
 4330SOL    HW124452   2.116   0.132  11.632 -1.7257  2.2187 -0.1162
 4330SOL    HW224453   2.064   0.215  11.521 -0.5240 -0.0569  2.9297
 4331SOL     OW24454   3.693   1.835   1.476  0.2078 -0.2313  0.2722
 4331SOL    HW124455   3.654   1.919   1.453 -0.4688 -1.0706 -1.6314
 4331SOL    HW224456   3.765   1.831   1.413  0.2842  1.4467  0.2634
 4332SOL     OW24457   1.435   1.010   7.874  0.3392 -0.6852 -0.3193
 4332SOL    HW124458   1.402   0.962   7.798  0.1759  0.7189 -1.1125
 4332SOL    HW224459   1.368   1.076   7.889 -0.2716 -1.3312 -0.1560
 4333SOL     OW24460   2.375   1.784   7.032 -0.1949  0.6457 -0.2951
 4333SOL    HW124461   2.453   1.794   7.087 -0.8429  0.8558  0.5761
 4333SOL    HW224462   2.333   1.866   7.057  1.0146  0.8576  1.0627
 4334SOL     OW24463   0.404   0.576   3.883 -0.2576 -0.0173  0.1556
 4334SOL    HW124464   0.444   0.507   3.935  1.4085 -0.8542 -2.2167
 4334SOL    HW224465   0.353   0.529   3.816  0.4229 -3.5892  2.1528
 4335SOL     OW24466   1.239   0.340  11.744  0.4731  0.0335  0.0758
 4335SOL    HW124467   1.218   0.407  11.809  2.0653  0.4607  0.1340
 4335SOL    HW224468   1.231   0.383  11.659  2.6169  1.3731  0.5624
 4336SOL     OW24469   2.421   3.600   5.581  0.0063 -0.7160  0.5188
 4336SOL    HW124470   2.424   3.669   5.647 -1.3722  0.1356 -0.2898
 4336SOL    HW224471   2.476   3.639   5.513 -0.3474  0.1283  0.7135
 4337SOL     OW24472   4.099   4.315   2.616  0.4920  0.5541 -0.5496
 4337SOL    HW124473   4.142   4.251   2.559 -0.3660 -1.0175  0.5595
 4337SOL    HW224474   4.008   4.307   2.585  0.5329  1.1449 -0.8263
 4338SOL     OW24475   2.696   0.173  13.244  0.3113 -0.2745 -0.5059
 4338SOL    HW124476   2.675   0.162  13.337 -2.3785 -3.5412 -1.5072
 4338SOL    HW224477   2.644   0.098  13.212 -0.1195 -0.4344  0.5652
 4339SOL     OW24478   4.457   2.589   4.816 -0.1941  0.5104  0.2955
 4339SOL    HW124479   4.525   2.522   4.823  0.6694  1.4074  0.4859
 4339SOL    HW224480   4.376   2.538   4.822 -0.5713  1.0600 -0.1942
 4340SOL     OW24481   0.765   4.532   0.067 -0.2546  0.0912 -0.4774
 4340SOL    HW124482   0.673   4.553   0.083  0.0203 -0.2048  1.4210
 4340SOL    HW224483   0.754   4.438   0.048  1.0703 -0.1726  0.0694
 4341SOL     OW24484   4.154   3.137   2.454  0.5384 -0.5441  0.4975
 4341SOL    HW124485   4.172   3.049   2.420 -0.9947 -1.5810  2.3479
 4341SOL    HW224486   4.219   3.187   2.406 -1.7421  0.4645 -1.4959
 4342SOL     OW24487   3.924   4.270   4.206 -0.3737  0.3898 -0.3013
 4342SOL    HW124488   3.841   4.225   4.221  0.7335 -1.0074  1.4677
 4342SOL    HW224489   3.914   4.288   4.112 -0.4260  1.7468 -0.0428
 4343SOL     OW24490   1.093   3.967   4.809 -0.9103 -0.0315 -0.0372
 4343SOL    HW124491   1.014   3.988   4.858 -0.9487 -0.3892  0.0486
 4343SOL    HW224492   1.166   3.990   4.868 -0.8498 -2.4949  0.8363
 4344SOL     OW24493   3.900   0.989   4.361  0.0668 -0.1719  0.2519
 4344SOL    HW124494   3.855   0.937   4.294  0.2052 -0.5869  0.4759
 4344SOL    HW224495   3.964   1.024   4.299  0.0524 -0.2696  0.1804
 4345SOL     OW24496   0.958   2.212   9.572  0.6879  0.8060 -0.4663
 4345SOL    HW124497   0.982   2.276   9.639  0.6015  0.7019 -0.3376
 4345SOL    HW224498   0.863   2.202   9.579  0.6671  1.3569 -0.0028
 4346SOL     OW24499   1.558   1.659  15.100  0.2425 -0.4687 -0.4617
 4346SOL    HW124500   1.530   1.715  15.029 -0.9708 -0.9533 -0.3618
 4346SOL    HW224501   1.626   1.712  15.142  0.5201 -0.6370 -0.6984
 4347SOL     OW24502   0.874   2.908   7.376  0.4852  0.2904  0.2768
 4347SOL    HW124503   0.851   3.001   7.383  1.5399  0.5925 -0.0984
 4347SOL    HW224504   0.920   2.905   7.292 -0.2866  0.7600 -0.1593
 4348SOL     OW24505   2.378   1.901   4.061  0.1471 -0.1337 -0.2669
 4348SOL    HW124506   2.399   1.959   4.134  3.0744 -1.1755 -0.2808
 4348SOL    HW224507   2.467   1.895   4.026  0.2912  2.6182 -0.4431
 4349SOL     OW24508   2.533   0.374   3.434 -0.6483 -0.3092  0.0312
 4349SOL    HW124509   2.454   0.420   3.461  0.2570  0.9378  0.5566
 4349SOL    HW224510   2.508   0.282   3.424  1.0894 -0.7962  0.0793
 4350SOL     OW24511   2.134   1.795   3.208 -0.0399  0.1211 -0.0516
 4350SOL    HW124512   2.102   1.842   3.131 -0.7227  2.1288  1.4554
 4350SOL    HW224513   2.108   1.840   3.288 -1.4956 -0.3546 -0.2542
 4351SOL     OW24514   3.173   4.455  11.378  0.1213  0.1257 -0.4203
 4351SOL    HW124515   3.211   4.536  11.344  2.0252 -0.4868  0.2291
 4351SOL    HW224516   3.085   4.451  11.340 -0.7127 -2.2305  1.7270
 4352SOL     OW24517   1.567   1.309   6.369 -0.3694 -0.1003 -0.4285
 4352SOL    HW124518   1.561   1.403   6.353 -0.5062  0.1515  1.1259
 4352SOL    HW224519   1.489   1.301   6.423  1.5767  0.0709  2.4279
 4353SOL     OW24520   4.160   3.363   7.828 -0.0275  0.2069 -0.0145
 4353SOL    HW124521   4.073   3.383   7.865  0.3715  1.8201  0.0454
 4353SOL    HW224522   4.178   3.285   7.880  1.2575  0.0426 -0.7091
 4354SOL     OW24523   1.112   1.248   6.454  0.1298  0.1396  0.8049
 4354SOL    HW124524   1.165   1.171   6.474 -0.8363 -0.3759  1.3476
 4354SOL    HW224525   1.032   1.207   6.486 -0.9298  1.8979  0.4477
 4355SOL     OW24526   2.105   3.996  10.896 -0.6042 -0.4256 -0.0190
 4355SOL    HW124527   2.027   3.991  10.841 -1.5325 -1.0060  1.3575
 4355SOL    HW224528   2.072   4.060  10.960  0.0715 -1.7596  1.6536
 4356SOL     OW24529   2.120   3.284   0.350 -0.2403 -0.5135  0.4027
 4356SOL    HW124530   2.140   3.217   0.415  0.0021 -0.7203  0.1163
 4356SOL    HW224531   2.145   3.230   0.275  1.2521  1.8010 -0.7698
 4357SOL     OW24532   1.338   0.012   8.802  0.3485 -0.9917 -0.3481
 4357SOL    HW124533   1.268   4.713   8.864  2.0717 -3.7708  0.7858
 4357SOL    HW224534   1.306   0.092   8.761 -0.1997 -0.1934  1.6656
 4358SOL     OW24535   0.540   2.098   9.229 -0.1473  0.4813  0.0851
 4358SOL    HW124536   0.548   2.186   9.194 -1.0688  1.3897  2.1496
 4358SOL    HW224537   0.577   2.111   9.317  1.1680  1.1578 -0.5791
 4359SOL     OW24538   0.151   0.806   4.257  0.1204  0.5055 -0.2612
 4359SOL    HW124539   0.113   0.781   4.173 -0.8317  0.8264  0.0740
 4359SOL    HW224540   0.165   0.718   4.294  1.7905  1.3831  1.1960
 4360SOL     OW24541   4.141   4.214   1.164  0.5423  0.1561 -0.7245
 4360SOL    HW124542   4.211   4.204   1.229 -0.3073 -4.7647 -0.6012
 4360SOL    HW224543   4.074   4.167   1.213  0.3703  1.2261  0.0671
 4361SOL     OW24544   2.047   2.505   5.161 -0.0398  0.1744  0.1978
 4361SOL    HW124545   2.137   2.531   5.142 -0.0838 -0.3688 -0.7290
 4361SOL    HW224546   2.064   2.417   5.196  0.6496  0.7111  1.2082
 4362SOL     OW24547   1.957   3.939   5.604  0.2549 -0.2173 -0.1370
 4362SOL    HW124548   1.878   3.896   5.569 -0.1669  1.5147 -1.2818
 4362SOL    HW224549   2.014   3.863   5.589 -0.4700 -0.8563  0.2970
 4363SOL     OW24550   3.063   0.174   7.579  0.2310 -0.2403 -0.0622
 4363SOL    HW124551   3.091   0.114   7.510  1.3449  1.5477 -1.1888
 4363SOL    HW224552   2.975   0.195   7.547  0.0604 -2.7843 -1.2720
 4364SOL     OW24553   4.176   3.019   6.189 -0.3433 -0.6483 -0.3652
 4364SOL    HW124554   4.187   2.946   6.250 -4.0869  0.9590  2.2251
 4364SOL    HW224555   4.268   3.038   6.171  0.3161 -2.2728  1.3734
 4365SOL     OW24556   2.146   3.075   3.035 -0.3389 -0.4425 -0.7643
 4365SOL    HW124557   2.052   3.082   3.049 -0.2637  0.7144 -0.7755
 4365SOL    HW224558   2.178   3.137   3.102 -1.2558  0.2612 -0.9810
 4366SOL     OW24559   3.910   3.382   1.083 -0.1311 -0.1341 -0.1742
 4366SOL    HW124560   3.871   3.452   1.031 -0.1346 -0.0293 -0.0311
 4366SOL    HW224561   3.998   3.369   1.047 -0.1442 -1.7894  0.4057
 4367SOL     OW24562   1.910   1.210   6.622  0.3866  0.7035  0.1345
 4367SOL    HW124563   1.882   1.298   6.644 -1.6412 -0.1222  0.8237
 4367SOL    HW224564   1.907   1.201   6.527  1.5065 -0.2696  0.1806
 4368SOL     OW24565   3.890   2.919  12.153  0.0090 -0.2666  0.1777
 4368SOL    HW124566   3.857   2.979  12.085 -2.6576  1.4348  2.9582
 4368SOL    HW224567   3.876   2.975  12.230 -0.7820 -1.1790  0.7050
 4369SOL     OW24568   4.550   0.015   3.735 -0.4593 -0.7129  0.2783
 4369SOL    HW124569   4.486   4.665   3.720 -2.1007  0.6434  0.9976
 4369SOL    HW224570   4.498   0.094   3.749  0.6286  0.2773 -1.1888
 4370SOL     OW24571   1.642   4.229   2.975 -0.4674 -0.8103  0.2591
 4370SOL    HW124572   1.550   4.205   2.990 -0.5771 -0.6474 -0.1637
 4370SOL    HW224573   1.673   4.177   2.901 -2.8600  1.2220 -2.2040
 4371SOL     OW24574   4.090   4.537  16.725 -0.5567  0.0048 -0.4839
 4371SOL    HW124575   4.170   4.572  16.687 -1.1137  1.3709 -0.3956
 4371SOL    HW224576   4.118   4.501  16.809  0.5852  0.6202 -0.6063
 4372SOL     OW24577   4.194   1.783   1.485 -0.8889  0.1099  0.5342
 4372SOL    HW124578   4.245   1.851   1.442 -1.0496 -0.9908 -1.4146
 4372SOL    HW224579   4.250   1.705   1.493  1.0805  1.6210  1.6521
 4373SOL     OW24580   0.346   0.153   0.031 -0.2733 -0.6086 -0.1729
 4373SOL    HW124581   0.415   0.220   0.029 -0.0253 -0.7866  2.1852
 4373SOL    HW224582   0.275   0.210   0.001  0.6042  1.3577  1.4519
 4374SOL     OW24583   0.674   1.893   5.061 -0.6505 -0.4908 -0.1295
 4374SOL    HW124584   0.729   1.955   5.109  0.7733 -2.0412  0.2232
 4374SOL    HW224585   0.660   1.947   4.983 -0.6265  1.4812  1.2326
 4375SOL     OW24586   0.845   1.948  16.937 -0.1063 -0.0392  0.1268
 4375SOL    HW124587   0.859   2.012  17.006  0.6432  1.5575 -1.5190
 4375SOL    HW224588   0.913   1.884  16.957 -1.5686 -2.3701 -2.3536
 4376SOL     OW24589   0.710   1.506  10.603  0.1138 -0.0605  0.9661
 4376SOL    HW124590   0.660   1.432  10.638  1.5782 -1.0285  1.0113
 4376SOL    HW224591   0.775   1.528  10.670 -0.5469  1.9176  0.9514
 4377SOL     OW24592   0.936   1.807   3.535 -1.0773 -0.4395 -0.4065
 4377SOL    HW124593   0.941   1.767   3.622 -0.6845 -1.1115 -0.7434
 4377SOL    HW224594   0.965   1.731   3.486  0.0165  0.9110 -1.8761
 4378SOL     OW24595   0.416   0.597  12.136 -0.5830  0.1006  0.1863
 4378SOL    HW124596   0.504   0.635  12.139 -0.2821 -0.5770 -0.1397
 4378SOL    HW224597   0.394   0.579  12.227 -0.4432 -0.5025  0.0999
 4379SOL     OW24598   3.104   4.522  10.140  0.0107  0.6084  0.0409
 4379SOL    HW124599   3.185   4.478  10.115 -0.8961 -0.7849 -0.4664
 4379SOL    HW224600   3.104   4.500  10.233  0.3244 -0.4627 -0.2106
 4380SOL     OW24601   2.476   0.483   5.039  0.3312 -0.4943  0.3210
 4380SOL    HW124602   2.461   0.390   5.024 -3.0621 -0.2598  2.1909
 4380SOL    HW224603   2.560   0.480   4.994 -0.8843  0.1740 -1.9550
 4381SOL     OW24604   0.619   0.057   3.244  0.4432 -0.3169 -0.7940
 4381SOL    HW124605   0.670   0.109   3.306 -1.7343 -0.0166  0.7389
 4381SOL    HW224606   0.532   0.094   3.258 -0.1620 -2.6074  1.3394
 4382SOL     OW24607   1.173   1.812   4.243 -0.4052  0.2168  0.1046
 4382SOL    HW124608   1.214   1.769   4.318  0.4459  0.7381 -0.0657
 4382SOL    HW224609   1.175   1.732   4.191 -0.5665 -0.3710  0.9942
 4383SOL     OW24610   1.392   0.960  17.611  0.0386 -0.3434  0.0832
 4383SOL    HW124611   1.424   0.972  17.521 -1.0006 -1.0134 -0.3749
 4383SOL    HW224612   1.422   1.041  17.653 -0.7448  0.1667 -0.3323
 4384SOL     OW24613   4.341   0.926   4.751 -0.2746  0.2412  0.1831
 4384SOL    HW124614   4.301   0.839   4.761 -1.1011  0.7103  0.9710
 4384SOL    HW224615   4.303   0.966   4.673 -0.0559 -0.2638 -0.1819
 4385SOL     OW24616   3.392   1.964  14.216 -0.3405 -0.2503  0.5076
 4385SOL    HW124617   3.393   2.023  14.291  1.1211  0.0818  0.2157
 4385SOL    HW224618   3.416   1.883  14.261 -0.2818 -1.1578 -1.1661
 4386SOL     OW24619   0.544   0.152   9.674  0.1017 -0.4906  0.0050
 4386SOL    HW124620   0.583   0.085   9.731 -0.0735  0.1917  0.9339
 4386SOL    HW224621   0.460   0.109   9.657  0.0641 -0.8553  1.0853
 4387SOL     OW24622   3.794   4.669  13.035  1.0648 -0.0172 -0.7865
 4387SOL    HW124623   3.833   4.699  13.117  1.0122 -0.2410 -0.6803
 4387SOL    HW224624   3.711   4.632  13.064  0.4157  2.0629  0.0622
 4388SOL     OW24625   2.195   4.475  15.723  0.6712 -0.5290  0.0101
 4388SOL    HW124626   2.182   4.460  15.629 -0.6152  0.3226  0.0550
 4388SOL    HW224627   2.140   4.408  15.763  0.8145  0.4298  1.7982
 4389SOL     OW24628   0.182   4.271   0.866  0.1509 -0.1199  0.0423
 4389SOL    HW124629   0.116   4.307   0.807 -1.3452 -2.5962  0.2179
 4389SOL    HW224630   0.135   4.289   0.948  0.8422 -1.1647  0.6682
 4390SOL     OW24631   3.377   1.539   9.337 -0.4705  0.1323  0.0818
 4390SOL    HW124632   3.302   1.572   9.289  0.8781  2.0010 -0.7327
 4390SOL    HW224633   3.385   1.606   9.405  0.7020 -0.8012  0.8716
 4391SOL     OW24634   0.098   1.838   1.601  0.1831 -0.2440 -0.1187
 4391SOL    HW124635   0.015   1.872   1.570 -0.4522 -1.3011  0.4173
 4391SOL    HW224636   0.108   1.862   1.693 -0.0733  0.9497 -0.4007
 4392SOL     OW24637   1.712   4.250   2.237  0.2173 -0.2473 -0.1813
 4392SOL    HW124638   1.677   4.333   2.271  1.2599  0.7133 -1.4884
 4392SOL    HW224639   1.743   4.273   2.150  0.0228  1.6139  0.2340
 4393SOL     OW24640   0.961   2.743   6.554  0.0581  0.1455 -0.4567
 4393SOL    HW124641   0.876   2.751   6.598  0.5867  0.6593  0.4587
 4393SOL    HW224642   1.012   2.729   6.633 -2.4721 -0.9036  1.0173
 4394SOL     OW24643   4.533   0.424   7.266  0.1564  0.4656  0.5356
 4394SOL    HW124644   4.622   0.455   7.251  0.0652  0.7332  0.5485
 4394SOL    HW224645   4.484   0.485   7.209  0.4433 -0.4661 -0.7052
 4395SOL     OW24646   3.266   0.676   6.750 -0.2863 -0.1228  0.1692
 4395SOL    HW124647   3.212   0.726   6.812 -0.2108 -0.9402  0.8960
 4395SOL    HW224648   3.201   0.606   6.741  1.0788 -1.7096  2.8226
 4396SOL     OW24649   2.515   3.069   6.547  0.9908  0.0628  0.0831
 4396SOL    HW124650   2.495   2.978   6.570 -0.1194  0.3930  0.4502
 4396SOL    HW224651   2.453   3.112   6.607  1.1250  0.4228 -0.0385
 4397SOL     OW24652   4.514   1.580  14.052  0.1923 -0.4982 -0.2384
 4397SOL    HW124653   4.582   1.644  14.031  0.6865 -0.7869  0.4690
 4397SOL    HW224654   4.478   1.603  14.138  1.0829  1.8809 -0.5180
 4398SOL     OW24655   0.812   0.820  16.620  0.2331 -0.5099 -0.5037
 4398SOL    HW124656   0.742   0.779  16.569  1.2310 -2.9700  0.1186
 4398SOL    HW224657   0.760   0.901  16.623  2.3569  0.8669 -1.0660
 4399SOL     OW24658   4.203   4.551   9.466  0.1975 -0.1572 -0.1196
 4399SOL    HW124659   4.142   4.522   9.399  0.9138 -3.5623  0.7180
 4399SOL    HW224660   4.200   4.646   9.457  1.3421 -0.3621 -2.7656
 4400SOL     OW24661   4.349   1.180   9.070 -0.2512 -0.2586  0.0337
 4400SOL    HW124662   4.276   1.176   9.007 -2.3784 -1.0995  2.5453
 4400SOL    HW224663   4.402   1.246   9.027  2.5018 -1.6160  1.3572
 4401SOL     OW24664   4.190   0.340  10.727  0.3980 -0.1751  0.1998
 4401SOL    HW124665   4.164   0.249  10.737 -0.2288 -0.2501 -2.1689
 4401SOL    HW224666   4.185   0.368  10.818  1.5336 -1.1341  0.5586
 4402SOL     OW24667   1.523   4.426   2.597  0.2037  0.3791  0.0004
 4402SOL    HW124668   1.467   4.474   2.657 -0.8061 -1.8180  0.8358
 4402SOL    HW224669   1.598   4.481   2.577 -0.8008  1.3834 -1.0469
 4403SOL     OW24670   3.677   1.612   4.370 -0.0711 -0.0083 -0.6105
 4403SOL    HW124671   3.704   1.672   4.300  0.1879 -0.3450 -0.7986
 4403SOL    HW224672   3.741   1.621   4.440 -0.9224 -0.0306  0.1764
 4404SOL     OW24673   0.366   4.258   0.256 -0.2779 -0.1163 -0.2663
 4404SOL    HW124674   0.325   4.201   0.191  1.0647 -1.3428 -0.0263
 4404SOL    HW224675   0.290   4.300   0.297 -0.9335 -1.2264 -0.3408
 4405SOL     OW24676   3.750   0.166   9.350  0.0262  0.0146 -0.1068
 4405SOL    HW124677   3.655   0.179   9.352  0.0100  0.0705 -1.3498
 4405SOL    HW224678   3.753   0.089   9.292  0.4446 -0.1639  0.1496
 4406SOL     OW24679   2.046   4.666  17.035 -0.0258 -0.0810 -0.5405
 4406SOL    HW124680   2.120   4.659  16.974 -0.4723  0.0534 -1.0902
 4406SOL    HW224681   2.073   4.659  17.127 -0.3705  1.1512 -0.3396
 4407SOL     OW24682   0.861   0.569   2.939  0.3280  0.4694 -0.0239
 4407SOL    HW124683   0.906   0.596   2.859 -0.9550 -0.5835 -1.0929
 4407SOL    HW224684   0.776   0.558   2.897 -0.9363  0.2521  2.5998
 4408SOL     OW24685   3.084   2.747  11.174  0.0159 -0.3368 -0.1933
 4408SOL    HW124686   3.143   2.734  11.248  0.5769 -2.0248 -0.9492
 4408SOL    HW224687   3.047   2.835  11.183  1.6303  0.0861  2.4340
 4409SOL     OW24688   1.136   3.440  17.291  0.8341  0.0435  1.2780
 4409SOL    HW124689   1.216   3.486  17.267  0.9654 -1.2383 -0.6937
 4409SOL    HW224690   1.118   3.383  17.217 -0.7676  2.0087  0.1605
 4410SOL     OW24691   0.473   1.847  12.768 -0.0421  0.2043 -0.1294
 4410SOL    HW124692   0.402   1.852  12.832 -0.0999  0.8628 -0.2430
 4410SOL    HW224693   0.421   1.853  12.687  2.0319 -0.1570 -1.5027
 4411SOL     OW24694   0.375   1.773   4.042 -0.4832  0.5191 -0.2750
 4411SOL    HW124695   0.464   1.778   4.007 -0.2226  2.0410  0.6273
 4411SOL    HW224696   0.355   1.866   4.049  0.8439  0.7465  0.4539
 4412SOL     OW24697   2.509   4.716  13.737  0.4697 -0.0483 -0.2960
 4412SOL    HW124698   2.530   0.007  13.829 -2.3802  0.7337  0.2528
 4412SOL    HW224699   2.493   4.621  13.733 -1.2544  0.1835  1.3471
 4413SOL     OW24700   4.396   4.119   2.729 -0.2130  0.1784  0.2651
 4413SOL    HW124701   4.484   4.157   2.727 -0.7383  1.3924  0.3383
 4413SOL    HW224702   4.347   4.173   2.668 -0.9832 -1.5405 -0.6506
 4414SOL     OW24703   0.980   0.676  12.675 -0.0891 -0.1190 -0.2101
 4414SOL    HW124704   0.932   0.607  12.721  1.9545 -1.1882  0.3088
 4414SOL    HW224705   0.911   0.743  12.675 -0.8838 -0.9507 -1.6440
 4415SOL     OW24706   2.319   2.561   5.160 -0.3608  0.0554 -0.5961
 4415SOL    HW124707   2.402   2.531   5.125  0.7213  2.2431  0.1091
 4415SOL    HW224708   2.348   2.638   5.209  0.9298 -0.9923  0.2610
 4416SOL     OW24709   0.358   3.222   2.646 -0.3219  0.4397 -0.1614
 4416SOL    HW124710   0.387   3.288   2.583 -1.6204  0.6786 -0.5091
 4416SOL    HW224711   0.346   3.145   2.590  0.2287  0.6953 -0.6310
 4417SOL     OW24712   4.001   3.384   2.209  0.3303 -0.4795 -0.2572
 4417SOL    HW124713   3.980   3.381   2.116  0.9765  3.9042 -0.5546
 4417SOL    HW224714   3.970   3.296   2.227  2.0132 -1.1156 -0.4447
 4418SOL     OW24715   0.964   4.603  15.113 -0.5393  0.2234  0.1415
 4418SOL    HW124716   0.889   4.663  15.115  0.9475  2.0460  1.2898
 4418SOL    HW224717   0.915   4.526  15.083 -0.4371 -0.2466  1.1842
 4419SOL     OW24718   0.643   0.313   3.659  0.2518 -0.2575 -0.3243
 4419SOL    HW124719   0.615   0.311   3.750 -3.3903  1.1912 -1.4189
 4419SOL    HW224720   0.624   0.405   3.637  0.1525 -0.0131  0.7990
 4420SOL     OW24721   0.959   1.783  12.424  0.4048 -0.1506 -0.8026
 4420SOL    HW124722   0.867   1.760  12.417 -0.0467  1.6074 -0.4237
 4420SOL    HW224723   0.972   1.742  12.510  0.6686 -2.1638 -1.7835
 4421SOL     OW24724   0.847   3.624  14.361  0.2433 -0.0662 -0.4016
 4421SOL    HW124725   0.879   3.642  14.450 -0.0085 -1.1431 -0.0911
 4421SOL    HW224726   0.902   3.550  14.334  1.1037  0.5874 -0.4391
 4422SOL     OW24727   2.277   0.367   5.517  0.1147  0.1513  0.3676
 4422SOL    HW124728   2.294   0.341   5.607  1.0102 -0.4552  0.0235
 4422SOL    HW224729   2.331   0.302   5.471 -0.4135 -0.6012  0.8002
 4423SOL     OW24730   2.960   1.999  12.687 -0.0469  0.1175  0.1592
 4423SOL    HW124731   3.013   2.062  12.638  0.9290 -0.3242  0.6457
 4423SOL    HW224732   2.935   2.057  12.760  0.6181  0.4946  0.0900
 4424SOL     OW24733   2.480   4.058   8.216 -0.1215  0.2949  0.4534
 4424SOL    HW124734   2.466   4.062   8.311 -2.0585 -0.0920  0.1838
 4424SOL    HW224735   2.535   3.980   8.211 -0.2586  0.2943 -1.1269
 4425SOL     OW24736   3.347   1.314   4.842  0.1788 -0.2069 -0.2277
 4425SOL    HW124737   3.400   1.247   4.800 -0.9783 -0.6483 -0.9718
 4425SOL    HW224738   3.386   1.321   4.929  2.6064 -0.7300 -1.2570
 4426SOL     OW24739   0.307   0.251   9.084 -0.2972  0.2208 -0.7122
 4426SOL    HW124740   0.389   0.279   9.123 -1.0447  2.4344 -0.7432
 4426SOL    HW224741   0.278   0.338   9.058  0.2628  0.9745  1.1938
 4427SOL     OW24742   2.158   3.835   0.282  0.2700 -0.2446 -0.0185
 4427SOL    HW124743   2.189   3.773   0.216 -0.9985  0.2577 -1.0820
 4427SOL    HW224744   2.228   3.842   0.348  0.1859  0.8429 -0.0409
 4428SOL     OW24745   2.851   4.413   3.044  0.0845  1.1097 -0.4633
 4428SOL    HW124746   2.918   4.403   2.978  0.7277  1.7943  0.0803
 4428SOL    HW224747   2.817   4.324   3.049  0.6277  0.8731 -1.0470
 4429SOL     OW24748   0.605   3.881  17.084  0.2401  0.2922 -0.5349
 4429SOL    HW124749   0.538   3.862  17.150  0.4900  1.7838  0.1538
 4429SOL    HW224750   0.668   3.811  17.103 -1.0327  0.1115  3.1163
 4430SOL     OW24751   3.653   4.041   8.599  0.4395  0.6990 -0.1215
 4430SOL    HW124752   3.675   4.120   8.648 -0.8825  0.9285  0.0988
 4430SOL    HW224753   3.601   4.071   8.525  0.6330 -0.2106 -0.6259
 4431SOL     OW24754   2.876   2.047   3.025  0.0052  0.2076 -0.9347
 4431SOL    HW124755   2.821   2.035   2.947  0.7121  0.8103 -1.5326
 4431SOL    HW224756   2.935   2.121   3.007  1.4228 -1.1016 -1.7444
 4432SOL     OW24757   4.184   2.142   6.436  0.1683 -1.0694  0.0829
 4432SOL    HW124758   4.169   2.051   6.412  0.4626 -1.2125  0.4538
 4432SOL    HW224759   4.253   2.162   6.373 -1.1619 -0.3092 -1.1494
 4433SOL     OW24760   1.312   4.501  15.665 -0.1277  0.3298  0.1415
 4433SOL    HW124761   1.269   4.547  15.737  1.5942  1.5447  0.4035
 4433SOL    HW224762   1.380   4.454  15.714  0.0409 -0.2674 -0.6584
 4434SOL     OW24763   0.802   3.673   4.305  0.0650 -0.1229  0.4643
 4434SOL    HW124764   0.795   3.767   4.318  1.2967  0.4393 -2.9046
 4434SOL    HW224765   0.724   3.653   4.253  1.2174  2.9464 -2.4464
 4435SOL     OW24766   0.567   2.928   2.977  0.3192  0.3607 -0.4004
 4435SOL    HW124767   0.608   2.990   3.037 -1.1731  1.9572 -1.0609
 4435SOL    HW224768   0.520   2.985   2.918  1.8113  0.3532 -1.5992
 4436SOL     OW24769   3.891   1.808   7.418 -0.3417 -0.2433 -0.0265
 4436SOL    HW124770   3.835   1.836   7.490  0.0112  1.5069 -0.4417
 4436SOL    HW224771   3.936   1.732   7.457  0.7986  0.8243  0.7617
 4437SOL     OW24772   1.801   3.218   1.833 -0.2847 -0.6082 -0.1057
 4437SOL    HW124773   1.721   3.184   1.795 -1.0998 -0.4435  1.4631
 4437SOL    HW224774   1.850   3.140   1.807  0.5767 -0.6349  1.5833
 4438SOL     OW24775   2.954   1.259  12.079 -0.3621 -1.1096 -0.0955
 4438SOL    HW124776   2.903   1.182  12.055 -0.5414 -1.1077  0.2824
 4438SOL    HW224777   2.981   1.282  11.990  0.8659 -0.0340  0.5475
 4439SOL     OW24778   3.698   1.475  14.918  0.7961 -0.4177 -0.3190
 4439SOL    HW124779   3.624   1.428  14.956  1.8826 -2.6093 -0.8861
 4439SOL    HW224780   3.686   1.460  14.824 -2.2280  1.0512 -0.1581
 4440SOL     OW24781   3.715   2.297   6.743 -0.5141  0.1453  0.2125
 4440SOL    HW124782   3.726   2.313   6.649  3.3023 -4.4030 -0.0521
 4440SOL    HW224783   3.805   2.294   6.774  0.6727 -3.0945 -3.5841
 4441SOL     OW24784   1.206   1.234  12.208  0.4951 -0.0568 -0.1273
 4441SOL    HW124785   1.272   1.246  12.140 -0.3433  1.6261 -0.6321
 4441SOL    HW224786   1.249   1.178  12.273  1.8015 -0.5564 -1.4383
 4442SOL     OW24787   4.290   0.108   7.505  0.6826  0.1974  0.5181
 4442SOL    HW124788   4.327   0.127   7.418 -2.3501 -0.1022 -0.8439
 4442SOL    HW224789   4.310   0.016   7.520  0.1647 -0.3633 -2.1396
 4443SOL     OW24790   0.103   2.627   7.563  0.4693 -0.4567 -0.2425
 4443SOL    HW124791   0.088   2.534   7.543 -2.6393 -0.0796  0.3166
 4443SOL    HW224792   0.060   2.646   7.646 -2.4679 -1.7430 -1.4765
 4444SOL     OW24793   2.773   0.017   1.820 -0.1120 -1.0621 -0.0391
 4444SOL    HW124794   2.758   0.022   1.725  2.1829 -0.0294 -0.3456
 4444SOL    HW224795   2.868   0.027   1.820 -0.0365 -1.8438  0.6489
 4445SOL     OW24796   4.392   0.808  12.934 -0.0573 -0.0312 -0.6245
 4445SOL    HW124797   4.345   0.726  12.918  0.9509 -0.9135  1.0056
 4445SOL    HW224798   4.352   0.817  13.020  1.5353  1.4916 -0.0481
 4446SOL     OW24799   3.139   3.023   4.424  0.2108  0.0958 -0.3616
 4446SOL    HW124800   3.055   3.034   4.380 -1.3920  0.9417  2.8662
 4446SOL    HW224801   3.111   2.956   4.487  2.3800  1.5091  2.0820
 4447SOL     OW24802   3.299   3.637  10.119 -0.2841 -0.2748 -0.0638
 4447SOL    HW124803   3.365   3.576  10.152  0.5544 -0.2306 -1.6360
 4447SOL    HW224804   3.332   3.704  10.179 -0.4266 -0.8751  0.6786
 4448SOL     OW24805   2.178   3.172   1.431 -1.1547  0.0901 -0.3511
 4448SOL    HW124806   2.169   3.138   1.341 -0.3942  1.1497 -0.8240
 4448SOL    HW224807   2.088   3.202   1.444 -1.2046 -1.1196  2.0520
 4449SOL     OW24808   2.438   3.897   2.739  0.1352  0.6269 -0.0404
 4449SOL    HW124809   2.390   3.981   2.737 -0.6083  0.1893 -1.0327
 4449SOL    HW224810   2.513   3.935   2.783 -0.2447  1.2863  0.0449
 4450SOL     OW24811   1.415   4.211   5.687  0.0649  0.3290  0.2286
 4450SOL    HW124812   1.328   4.178   5.668 -0.9849  1.7886  2.4674
 4450SOL    HW224813   1.451   4.126   5.713 -0.3998  0.3560  0.9618
 4451SOL     OW24814   2.567   4.112   2.548  0.3738  0.6871 -0.3080
 4451SOL    HW124815   2.594   4.023   2.529  2.4210  2.3123 -4.9388
 4451SOL    HW224816   2.628   4.134   2.619 -0.4388  2.7259 -0.2453
 4452SOL     OW24817   0.777   3.606  10.209 -0.4679  0.2336  0.1051
 4452SOL    HW124818   0.872   3.620  10.210 -0.3056 -1.0018  1.6526
 4452SOL    HW224819   0.775   3.511  10.203 -2.1411  0.2605  0.3386
 4453SOL     OW24820   4.344   1.497   1.712  0.4661 -0.4861 -0.5058
 4453SOL    HW124821   4.352   1.402   1.705 -3.3635 -1.1342  3.7080
 4453SOL    HW224822   4.346   1.523   1.620 -1.0841  1.0612 -0.1086
 4454SOL     OW24823   0.824   2.867   0.813 -0.4567  0.0079  0.9175
 4454SOL    HW124824   0.915   2.839   0.823 -0.3586 -0.1426 -0.3454
 4454SOL    HW224825   0.825   2.962   0.823 -2.9793  0.0463  0.7484
 4455SOL     OW24826   2.183   2.490   4.376  0.0575  0.2588 -0.1427
 4455SOL    HW124827   2.127   2.558   4.415  0.4994  1.0158 -0.8257
 4455SOL    HW224828   2.173   2.420   4.441  2.9363 -0.6266 -0.6872
 4456SOL     OW24829   1.116   1.657   8.768 -0.1487 -0.4562 -0.5930
 4456SOL    HW124830   1.125   1.563   8.784  0.2553 -0.1946  0.6785
 4456SOL    HW224831   1.145   1.682   8.855 -0.7815 -1.0593 -0.2052
 4457SOL     OW24832   1.396   4.397  10.565 -0.0882 -0.7965  0.1501
 4457SOL    HW124833   1.418   4.487  10.587 -2.7092 -1.0455  3.8508
 4457SOL    HW224834   1.440   4.351  10.637  1.4971  0.2770 -0.1500
 4458SOL     OW24835   0.757   3.910   5.147  0.1618  0.3652 -0.2223
 4458SOL    HW124836   0.663   3.894   5.144  0.2800 -0.6129  1.3786
 4458SOL    HW224837   0.803   3.826   5.148  0.6513  0.6474  0.6015
 4459SOL     OW24838   2.084   1.979  16.556 -0.1123  0.6239 -0.3196
 4459SOL    HW124839   2.122   1.927  16.628  0.7329  0.8465 -0.5991
 4459SOL    HW224840   2.130   1.933  16.486 -0.3553  0.9052 -0.6578
 4460SOL     OW24841   1.881   0.469   4.152 -0.4056 -0.3380  0.1886
 4460SOL    HW124842   1.960   0.464   4.098  1.5131  0.6615  2.9131
 4460SOL    HW224843   1.894   0.558   4.186  1.1395 -0.3833 -0.2472
 4461SOL     OW24844   3.404   1.516  12.605 -0.7760 -0.4643  0.3168
 4461SOL    HW124845   3.478   1.545  12.551 -1.6259  1.6429  0.2884
 4461SOL    HW224846   3.422   1.567  12.683 -2.4871  2.6399 -1.3321
 4462SOL     OW24847   1.837   2.694   2.195  0.5654 -0.2735 -0.3021
 4462SOL    HW124848   1.880   2.662   2.274  0.5910  0.7537  0.1001
 4462SOL    HW224849   1.785   2.617   2.172 -0.2697 -0.0737  0.9972
 4463SOL     OW24850   0.935   2.055  15.325  0.5031 -0.1161 -0.7615
 4463SOL    HW124851   0.868   2.015  15.380  3.0147 -0.5286  1.9453
 4463SOL    HW224852   0.889   2.056  15.241  0.6615 -3.6447 -0.9001
 4464SOL     OW24853   1.569   2.558  14.912 -0.0478 -0.4616 -0.1610
 4464SOL    HW124854   1.541   2.548  14.821  1.7167 -0.0330 -0.7380
 4464SOL    HW224855   1.558   2.653  14.907  1.0823 -0.2334  1.7687
 4465SOL     OW24856   0.256   0.649   5.380  0.5866  0.1184  0.7615
 4465SOL    HW124857   0.325   0.710   5.356 -0.2107 -0.2543 -2.4133
 4465SOL    HW224858   0.302   0.566   5.370  1.3546  0.4238  1.7024
 4466SOL     OW24859   2.454   0.725   6.712  0.7198 -0.1192 -0.0742
 4466SOL    HW124860   2.402   0.649   6.738  1.5980 -0.5093  0.5684
 4466SOL    HW224861   2.457   0.717   6.617 -0.7271  0.1875 -0.1431
 4467SOL     OW24862   1.049   1.828   5.052  0.6888 -0.1267 -0.2017
 4467SOL    HW124863   1.055   1.878   4.970  0.3667 -1.2036 -0.8825
 4467SOL    HW224864   1.121   1.769   5.030 -0.4444 -0.9598 -1.6563
 4468SOL     OW24865   2.231   2.311  13.261  0.3729 -0.2164  0.3845
 4468SOL    HW124866   2.233   2.403  13.286 -1.0027  0.4531 -1.9372
 4468SOL    HW224867   2.269   2.300  13.174  0.7614 -2.7725  0.8623
 4469SOL     OW24868   0.057   0.114  10.685 -0.4158 -0.0598  0.1679
 4469SOL    HW124869   4.688   0.137  10.654 -1.3070 -1.0541  1.9439
 4469SOL    HW224870   0.099   0.099  10.601 -0.2297 -0.1805  0.2835
 4470SOL     OW24871   0.583   3.609  13.701 -0.4539 -0.1933 -0.7396
 4470SOL    HW124872   0.607   3.586  13.791  1.8162  0.6247 -1.1393
 4470SOL    HW224873   0.531   3.685  13.727  1.9234  0.8544  1.0463
 4471SOL     OW24874   0.707   3.454   7.272 -0.3341 -0.2277 -0.8647
 4471SOL    HW124875   0.655   3.382   7.309 -1.2370  1.7665  1.7452
 4471SOL    HW224876   0.722   3.516   7.343 -1.5188  0.0313 -0.8497
 4472SOL     OW24877   2.282   0.487  10.975 -0.0573 -0.1435 -0.3632
 4472SOL    HW124878   2.245   0.399  10.986 -2.8019  0.7764 -2.1136
 4472SOL    HW224879   2.360   0.476  11.029 -0.9678 -1.3571  0.7082
 4473SOL     OW24880   0.628   2.724   6.375 -0.1141  0.7999  0.1715
 4473SOL    HW124881   0.695   2.710   6.307 -1.2192  0.7662 -0.9196
 4473SOL    HW224882   0.548   2.715   6.324  0.9097  0.6612 -1.4277
 4474SOL     OW24883   3.324   1.243   3.881  0.3138 -0.4820 -0.0205
 4474SOL    HW124884   3.230   1.243   3.895  0.3819 -0.4099  0.4377
 4474SOL    HW224885   3.339   1.332   3.849 -2.2940 -0.0104  0.0794
 4475SOL     OW24886   1.849   4.380   5.326 -0.6117  0.0723  0.3424
 4475SOL    HW124887   1.807   4.296   5.307 -0.2397 -0.5621  2.3088
 4475SOL    HW224888   1.935   4.340   5.342 -0.5965 -1.1447 -2.7523
 4476SOL     OW24889   3.231   0.982   3.122 -0.1380  0.6294 -0.7592
 4476SOL    HW124890   3.309   1.037   3.115  0.9480 -0.7109  0.7784
 4476SOL    HW224891   3.217   1.006   3.214 -1.4857 -1.8050 -0.3262
 4477SOL     OW24892   2.820   4.232   7.330  0.0643  0.3453 -0.1843
 4477SOL    HW124893   2.902   4.192   7.361 -0.2375  1.6728  2.3870
 4477SOL    HW224894   2.849   4.275   7.250  1.3618  0.7568  0.5032
 4478SOL     OW24895   1.162   1.965   9.900 -0.5041  0.8182  0.3735
 4478SOL    HW124896   1.188   2.017   9.824 -0.3551 -0.0633 -0.1837
 4478SOL    HW224897   1.072   1.967   9.869 -0.4534  0.2188  0.1758
 4479SOL     OW24898   4.321   3.991   4.386 -0.4385  0.2462  0.1996
 4479SOL    HW124899   4.365   4.076   4.388 -1.8733  1.0181 -0.9944
 4479SOL    HW224900   4.382   3.943   4.442  0.4841  2.7306  1.2979
 4480SOL     OW24901   0.993   1.368   2.396  0.1153 -0.3907 -0.5404
 4480SOL    HW124902   0.916   1.409   2.358  0.2600  0.0531 -0.3553
 4480SOL    HW224903   1.019   1.307   2.326  0.5008 -0.2793 -0.4944
 4481SOL     OW24904   4.065   3.412   9.654 -0.2798 -0.0922  0.3079
 4481SOL    HW124905   3.995   3.347   9.654  0.7015 -1.1460 -0.2088
 4481SOL    HW224906   4.079   3.444   9.565  2.0321 -1.2836  0.2290
 4482SOL     OW24907   2.251   3.621   1.491  0.1604 -0.3480 -0.4830
 4482SOL    HW124908   2.292   3.669   1.563 -0.3109 -0.7072  0.0160
 4482SOL    HW224909   2.279   3.529   1.491  0.1161 -0.3545  0.7156
 4483SOL     OW24910   0.637   4.385  10.750 -0.3212  0.3633 -0.4844
 4483SOL    HW124911   0.729   4.373  10.725 -0.0564 -0.6090  1.0026
 4483SOL    HW224912   0.645   4.475  10.782  0.7944  0.6163 -1.4553
 4484SOL     OW24913   2.127   1.685  17.048  0.3014 -0.2169 -0.2773
 4484SOL    HW124914   2.147   1.618  16.982  0.5881  0.1373 -0.5540
 4484SOL    HW224915   2.053   1.736  17.014  1.6152 -0.2107 -3.1483
 4485SOL     OW24916   0.686   2.386   3.903  0.0265 -0.1850  0.6328
 4485SOL    HW124917   0.636   2.359   3.980  0.5216 -1.9532  0.3410
 4485SOL    HW224918   0.764   2.334   3.922 -0.1047  0.3220  2.5421
 4486SOL     OW24919   3.825   2.396   3.497 -0.1114  0.3129  0.2438
 4486SOL    HW124920   3.764   2.456   3.456 -1.8156 -1.0383  0.8060
 4486SOL    HW224921   3.838   2.330   3.429 -0.8514 -0.5461  0.9324
 4487SOL     OW24922   0.805   2.945   3.842  0.0292 -0.0426 -0.3537
 4487SOL    HW124923   0.717   2.912   3.826 -0.4818  1.8101 -1.4873
 4487SOL    HW224924   0.854   2.870   3.876 -0.7533 -0.2186  0.3646
 4488SOL     OW24925   2.459   2.452  15.140 -0.1815  0.8363 -0.1933
 4488SOL    HW124926   2.395   2.383  15.124  0.2715 -0.0821  1.8781
 4488SOL    HW224927   2.397   2.520  15.165 -0.9900 -0.4529  1.3923
 4489SOL     OW24928   0.002   1.897   3.310  0.1551 -0.3025 -0.2097
 4489SOL    HW124929   0.042   1.960   3.250 -0.7014  0.0259 -0.4346
 4489SOL    HW224930   0.055   1.912   3.388  0.9109  0.0482 -0.7857
 4490SOL     OW24931   2.178   2.961   2.320 -0.2176 -0.0998 -0.0470
 4490SOL    HW124932   2.155   2.893   2.383 -0.1307  0.0516  0.1492
 4490SOL    HW224933   2.220   3.020   2.383 -1.3064 -0.1344  0.7184
 4491SOL     OW24934   0.792   4.109   5.761  0.1490 -0.5085  0.3673
 4491SOL    HW124935   0.716   4.120   5.704  0.0179  0.4959  0.7302
 4491SOL    HW224936   0.762   4.091   5.850 -2.0283 -1.4052 -0.5519
 4492SOL     OW24937   3.010   0.992   2.426 -0.2159  0.1021  0.6957
 4492SOL    HW124938   3.095   0.963   2.393 -0.0990 -0.2046  1.2624
 4492SOL    HW224939   2.953   0.937   2.373  1.6009  0.3309 -1.4804
 4493SOL     OW24940   0.595   2.120   7.956  0.2587 -0.5324 -0.8051
 4493SOL    HW124941   0.502   2.145   7.961  0.5714  0.1677  1.7012
 4493SOL    HW224942   0.611   2.127   8.050 -1.3500 -1.2080 -0.4742
 4494SOL     OW24943   1.018   4.176   0.460 -0.0871 -0.1032  0.0830
 4494SOL    HW124944   0.967   4.105   0.498  0.5582 -0.1032  0.9361
 4494SOL    HW224945   0.955   4.227   0.409 -0.2215 -0.8050 -0.4593
 4495SOL     OW24946   1.843   2.025   1.967  0.1339 -0.4545  0.5728
 4495SOL    HW124947   1.912   1.968   2.002  0.3098 -0.4293  0.2727
 4495SOL    HW224948   1.760   1.978   1.974 -0.4040  0.1532 -1.7747
 4496SOL     OW24949   1.368   3.254   0.110  0.2404 -0.3013 -1.0503
 4496SOL    HW124950   1.341   3.229   0.022 -1.3871  0.8033 -0.8565
 4496SOL    HW224951   1.463   3.259   0.103  0.4719 -1.2444  1.3754
 4497SOL     OW24952   3.299   1.839   6.441  0.0291 -0.2691 -0.8248
 4497SOL    HW124953   3.208   1.817   6.462 -0.9099  1.1425 -3.4211
 4497SOL    HW224954   3.336   1.822   6.527 -1.2131 -1.7320 -0.5690
 4498SOL     OW24955   3.516   3.911  16.629  0.2266  0.2114 -0.1772
 4498SOL    HW124956   3.569   3.949  16.699  1.9361 -0.2308 -1.2293
 4498SOL    HW224957   3.567   3.935  16.552 -0.1085  1.7570  0.0866
 4499SOL     OW24958   3.444   4.260   8.992 -0.2520  0.0441 -0.2678
 4499SOL    HW124959   3.464   4.173   8.959 -2.6009  0.3568 -2.5475
 4499SOL    HW224960   3.506   4.270   9.064 -0.3172 -1.7760  0.0221
 4500SOL     OW24961   2.944   1.418   2.890  0.0105  0.6006 -0.3562
 4500SOL    HW124962   2.927   1.387   2.801 -1.3258 -1.4098  0.6135
 4500SOL    HW224963   2.883   1.492   2.895  1.5690  1.8326  0.4304
 4501SOL     OW24964   2.421   3.861  15.524  0.1013 -0.2416 -0.0412
 4501SOL    HW124965   2.475   3.836  15.599 -2.3460 -1.2988  1.3909
 4501SOL    HW224966   2.464   3.942  15.497 -1.6907  0.4408 -0.8526
 4502SOL     OW24967   2.276   2.925  14.179  0.3321  0.2915  0.2403
 4502SOL    HW124968   2.212   2.890  14.116  0.9337  0.0084 -0.2204
 4502SOL    HW224969   2.335   2.977  14.124 -0.6611 -1.1009 -2.1691
 4503SOL     OW24970   1.533   0.103  15.350 -0.0830  0.2587 -1.1728
 4503SOL    HW124971   1.477   0.080  15.276  1.1818 -0.0770 -2.0000
 4503SOL    HW224972   1.522   0.023  15.402  2.9425 -0.3252 -1.4837
 4504SOL     OW24973   3.014   2.747   4.226  0.7592  0.3362 -0.2025
 4504SOL    HW124974   2.921   2.754   4.208  0.8668  0.4723 -0.7263
 4504SOL    HW224975   3.050   2.801   4.155  0.7201  1.5826  0.7326
 4505SOL     OW24976   1.762   3.507   4.744 -0.0241 -0.5673  0.1245
 4505SOL    HW124977   1.790   3.483   4.655  1.1745 -1.8560  0.8539
 4505SOL    HW224978   1.667   3.502   4.731 -0.1023 -1.5761  1.0828
 4506SOL     OW24979   0.319   4.562   4.188  0.0285  0.3681 -0.0795
 4506SOL    HW124980   0.238   4.612   4.192  0.2601  0.7768 -0.4558
 4506SOL    HW224981   0.355   4.577   4.275 -0.9750 -0.1584  0.4212
 4507SOL     OW24982   2.281   4.486   6.227 -0.4928  0.4969  0.5184
 4507SOL    HW124983   2.334   4.446   6.297  1.2138 -0.5341 -1.3709
 4507SOL    HW224984   2.264   4.576   6.254  1.0145  1.3861 -1.5383
 4508SOL     OW24985   2.966   1.496   9.169 -0.1170 -0.3676  0.5892
 4508SOL    HW124986   2.906   1.569   9.156 -0.0082 -0.6510 -1.5749
 4508SOL    HW224987   3.051   1.530   9.143 -0.5540  0.1040 -0.2270
 4509SOL     OW24988   0.149   2.888  17.269 -0.0114  0.6491  0.9388
 4509SOL    HW124989   0.056   2.870  17.257  0.8477 -2.5313 -0.8393
 4509SOL    HW224990   0.167   2.849  17.355  0.1754  2.1001  1.5607
 4510SOL     OW24991   4.443   4.554  10.884 -0.0778 -0.3542  0.6050
 4510SOL    HW124992   4.513   4.579  10.825 -0.8126 -0.7162 -0.4195
 4510SOL    HW224993   4.496   4.511  10.952  0.4258 -0.6100  0.0485
 4511SOL     OW24994   1.084   0.702   4.193 -0.1587 -0.0042  0.6583
 4511SOL    HW124995   1.099   0.762   4.266  0.5314  0.1876  0.3494
 4511SOL    HW224996   1.059   0.762   4.123  0.0214  0.2978  0.8530
 4512SOL     OW24997   1.969   0.496  17.147  0.1236 -0.1596 -0.0204
 4512SOL    HW124998   2.055   0.522  17.114  0.0985 -0.1087 -0.0459
 4512SOL    HW224999   1.922   0.580  17.151  1.5138  0.6109  0.2520
 4513SOL     OW25000   3.044   2.123  16.075 -0.9919  0.1590  0.0136
 4513SOL    HW125001   3.113   2.057  16.073  0.7756  2.0847 -2.1386
 4513SOL    HW225002   2.976   2.073  16.030 -0.8728  0.4059 -0.4401
 4514SOL     OW25003   3.162   1.998   6.063 -0.0647  0.2603 -0.1898
 4514SOL    HW125004   3.162   1.910   6.101  1.2339  0.4640  0.2695
 4514SOL    HW225005   3.146   1.967   5.974 -0.9755  1.3094 -0.3972
 4515SOL     OW25006   3.798   1.121  12.622  0.1629  0.0051  0.2617
 4515SOL    HW125007   3.805   1.207  12.664  0.6611 -1.2288  2.7505
 4515SOL    HW225008   3.857   1.072  12.679 -1.4519 -0.1957  1.7732
 4516SOL     OW25009   0.616   4.579  12.449  0.2986 -0.0756  0.4122
 4516SOL    HW125010   0.614   4.592  12.544 -0.0884  1.8913  0.1213
 4516SOL    HW225011   0.530   4.610  12.422  1.3768  0.7717 -2.0692
 4517SOL     OW25012   3.635   2.475  10.864 -0.6868 -0.0142  0.1577
 4517SOL    HW125013   3.674   2.479  10.777 -1.0345 -0.8409 -0.0320
 4517SOL    HW225014   3.704   2.444  10.924 -1.4671  0.0445  1.0810
 4518SOL     OW25015   1.522   1.306   9.633  0.0924  0.4199 -0.3301
 4518SOL    HW125016   1.607   1.328   9.671  1.0781 -2.6101 -0.7319
 4518SOL    HW225017   1.495   1.397   9.623 -0.6102 -0.0095 -2.3634
 4519SOL     OW25018   0.029   3.923   2.428  0.0698  0.4675 -0.7684
 4519SOL    HW125019   0.047   3.855   2.364 -0.1782 -0.2214 -0.1002
 4519SOL    HW225020   4.675   3.973   2.392 -0.8014  0.0091  0.3976
 4520SOL     OW25021   1.416   3.359   2.117 -0.1726 -0.7033  0.4217
 4520SOL    HW125022   1.321   3.346   2.121 -0.3313  0.1116 -0.5343
 4520SOL    HW225023   1.426   3.447   2.081  1.7635 -0.9113  0.4752
 4521SOL     OW25024   1.888   1.427   5.008  0.3647  0.2395  0.1073
 4521SOL    HW125025   1.886   1.350   5.066 -0.4246 -0.5291 -0.9296
 4521SOL    HW225026   1.831   1.491   5.049 -0.8730  0.1832 -1.5080
 4522SOL     OW25027   1.528   4.425   0.768  0.0655  0.4960 -0.0107
 4522SOL    HW125028   1.451   4.474   0.741 -0.1946  1.6332  2.9272
 4522SOL    HW225029   1.472   4.356   0.803  1.8012 -0.8664  0.0755
 4523SOL     OW25030   0.381   2.744   5.754 -0.2977  0.2127  0.6056
 4523SOL    HW125031   0.417   2.788   5.677 -0.4514  0.1366  0.4901
 4523SOL    HW225032   0.333   2.817   5.795 -1.8152 -1.0702  1.1071
 4524SOL     OW25033   4.062   3.446   4.190  0.1407  0.0135  0.1299
 4524SOL    HW125034   3.985   3.502   4.187  0.2169  0.1954  1.4527
 4524SOL    HW225035   4.095   3.469   4.277  1.0558  2.3177 -0.8288
 4525SOL     OW25036   0.392   0.908   2.812  0.3471 -1.0874 -0.8656
 4525SOL    HW125037   0.384   0.830   2.758  0.0242 -1.4374 -0.3087
 4525SOL    HW225038   0.416   0.974   2.747 -0.4120  0.8007  0.7708
 4526SOL     OW25039   3.297   0.441   6.512  0.5788  0.3981  0.0109
 4526SOL    HW125040   3.360   0.448   6.584 -0.0222  0.8187  0.4937
 4526SOL    HW225041   3.222   0.410   6.563  1.3320  1.4227  1.7080
 4527SOL     OW25042   0.970   2.828   8.335 -0.2872  0.1596 -0.4801
 4527SOL    HW125043   1.057   2.858   8.309  0.9584 -1.1396  2.2825
 4527SOL    HW225044   0.991   2.736   8.352  0.1937 -0.0717 -2.2523
 4528SOL     OW25045   2.539   1.720   2.039 -0.8906 -0.1654 -0.4860
 4528SOL    HW125046   2.465   1.773   2.068 -2.1151 -2.4354  0.5057
 4528SOL    HW225047   2.594   1.786   1.996  2.2976 -1.5273  1.4471
 4529SOL     OW25048   2.870   2.075  10.088 -0.2437 -0.4418  0.6656
 4529SOL    HW125049   2.910   2.131  10.021  1.8235 -1.2166  1.2580
 4529SOL    HW225050   2.902   2.116  10.168  0.4694  0.4068 -0.0528
 4530SOL     OW25051   0.732   0.538   6.686  0.6741 -0.3030 -0.1935
 4530SOL    HW125052   0.655   0.595   6.693 -0.0479 -1.2699 -0.3596
 4530SOL    HW225053   0.792   0.597   6.732  0.8677  0.2248 -1.1175
 4531SOL     OW25054   2.396   4.248   4.630  0.3694 -0.0251  0.0248
 4531SOL    HW125055   2.426   4.161   4.657  0.7481  0.1366  0.1363
 4531SOL    HW225056   2.465   4.275   4.569 -1.7085  1.2436 -1.7466
 4532SOL     OW25057   4.331   2.943   6.425  0.2935 -0.6671  0.1932
 4532SOL    HW125058   4.390   2.946   6.349 -0.3483 -2.1661 -0.3702
 4532SOL    HW225059   4.305   2.851   6.418 -1.2200 -0.1463 -0.8123
 4533SOL     OW25060   0.917   0.704   3.293  0.4258  0.5542  0.3986
 4533SOL    HW125061   0.867   0.786   3.289  0.6570  0.7852  2.1529
 4533SOL    HW225062   1.002   0.745   3.308  0.6887 -0.0872  0.6429
 4534SOL     OW25063   2.797   3.734  15.966  0.3291  1.2436 -0.3876
 4534SOL    HW125064   2.834   3.722  16.054 -0.2810  2.6162  0.0517
 4534SOL    HW225065   2.873   3.749  15.910  2.5997 -2.8241  1.6066
 4535SOL     OW25066   1.312   0.351   7.253 -0.2554 -0.1536  0.0664
 4535SOL    HW125067   1.311   0.274   7.310  0.8744 -0.7039 -0.6697
 4535SOL    HW225068   1.240   0.328   7.194 -0.8570  1.7970  0.0342
 4536SOL     OW25069   3.018   1.493   1.263 -0.2089  0.0171 -0.2773
 4536SOL    HW125070   2.971   1.576   1.272 -1.1514 -0.1418 -3.7086
 4536SOL    HW225071   3.019   1.461   1.353 -3.6364  0.4169 -0.0904
 4537SOL     OW25072   2.490   2.950   2.175  0.0342 -0.2548  0.4107
 4537SOL    HW125073   2.504   2.964   2.269  0.5631  2.4244 -0.0923
 4537SOL    HW225074   2.577   2.967   2.139 -0.2341 -0.6595 -0.4347
 4538SOL     OW25075   2.167   1.443   8.264  0.0652  0.4282  0.2461
 4538SOL    HW125076   2.255   1.406   8.273  0.2586  0.8125 -0.1004
 4538SOL    HW225077   2.128   1.356   8.251  0.7572 -0.1855  2.2730
 4539SOL     OW25078   0.009   1.846   1.022 -0.8981 -0.2441 -0.2495
 4539SOL    HW125079   4.643   1.868   0.983 -2.4444  0.1408  3.3809
 4539SOL    HW225080   0.069   1.880   0.955 -0.4818 -1.7485 -0.6631
 4540SOL     OW25081   2.932   1.958   8.245  0.3269  0.2217  0.0413
 4540SOL    HW125082   2.936   1.985   8.337  1.4680  0.7007 -0.1593
 4540SOL    HW225083   2.994   2.023   8.212  0.4208  0.1526  0.0823
 4541SOL     OW25084   2.804   2.289  15.925  0.1126  0.2693  0.0206
 4541SOL    HW125085   2.718   2.287  15.967  0.4598  0.1552  0.7273
 4541SOL    HW225086   2.796   2.366  15.869 -0.1493 -0.3387 -0.7847
 4542SOL     OW25087   0.076   3.221   0.241  0.0577 -0.1113  0.3003
 4542SOL    HW125088   0.021   3.245   0.166 -0.4582 -1.7611  0.1548
 4542SOL    HW225089   0.126   3.302   0.253  0.8458 -0.5855  0.2419
 4543SOL     OW25090   0.786   1.308  15.693  0.3766  0.2594 -0.0009
 4543SOL    HW125091   0.704   1.346  15.663  1.7736  3.8508  0.7700
 4543SOL    HW225092   0.803   1.350  15.777 -0.0518  0.4776 -0.0295
 4544SOL     OW25093   4.376   4.558   8.482  0.2584 -0.1364  0.2892
 4544SOL    HW125094   4.363   4.465   8.495  1.7618 -0.0445  2.4317
 4544SOL    HW225095   4.396   4.565   8.388 -1.5305  2.9768  0.1475
 4545SOL     OW25096   4.028   0.564   6.923  0.4114  0.0075 -0.7785
 4545SOL    HW125097   3.945   0.531   6.958  0.7830 -0.8070 -0.6740
 4545SOL    HW225098   4.067   0.571   7.010  1.1119 -0.2759 -1.0752
 4546SOL     OW25099   0.213   2.585   3.125  0.1469 -0.1521 -0.5346
 4546SOL    HW125100   0.257   2.582   3.039 -1.1620  0.2772 -1.2145
 4546SOL    HW225101   0.210   2.678   3.147  0.3475 -0.0482 -0.9345
 4547SOL     OW25102   0.146   2.397  11.839  1.2117  0.1519 -0.3699
 4547SOL    HW125103   0.162   2.487  11.812 -0.3497  0.5368 -0.0056
 4547SOL    HW225104   0.234   2.365  11.821  1.5429  0.5739  0.5315
 4548SOL     OW25105   0.024   3.714   4.909 -0.1245 -0.3209 -0.6184
 4548SOL    HW125106   4.687   3.694   4.984  0.9418 -0.4557  0.1479
 4548SOL    HW225107   0.021   3.632   4.859 -2.3716  0.4466 -1.7226
 4549SOL     OW25108   3.482   3.089   2.355 -0.7807  0.9836  0.2222
 4549SOL    HW125109   3.443   3.163   2.308 -0.0663  1.3701  0.2436
 4549SOL    HW225110   3.546   3.058   2.291  1.8320 -0.4018  3.5444
 4550SOL     OW25111   2.751   1.737  16.137 -0.4909  0.0702  0.1577
 4550SOL    HW125112   2.709   1.680  16.073  0.6875 -1.0916  0.4444
 4550SOL    HW225113   2.731   1.824  16.100 -1.5441 -0.3518 -0.2708
 4551SOL     OW25114   3.283   0.801   4.172 -1.1119 -0.0520  0.3580
 4551SOL    HW125115   3.273   0.745   4.249 -0.7754  0.2434  0.6139
 4551SOL    HW225116   3.363   0.851   4.188 -1.1309 -0.2440  1.0337
 4552SOL     OW25117   4.672   4.419   5.144 -0.3750  0.0514 -0.7162
 4552SOL    HW125118   4.588   4.464   5.138  0.3119  1.3579 -0.7067
 4552SOL    HW225119   4.702   4.437   5.054  1.5601 -3.9997 -0.8607
 4553SOL     OW25120   0.368   2.977   1.270 -0.5895 -0.3775 -0.8398
 4553SOL    HW125121   0.372   2.921   1.193 -1.9859 -0.0197 -1.1810
 4553SOL    HW225122   0.293   2.941   1.318 -1.3924  2.0882 -0.2139
 4554SOL     OW25123   4.322   0.059  12.118  0.1404 -0.2633  0.4308
 4554SOL    HW125124   4.294   0.021  12.035 -1.4991 -0.2270  0.9700
 4554SOL    HW225125   4.292   4.705  12.172  2.3224 -1.9825 -0.7323
 4555SOL     OW25126   3.268   1.031   6.573  0.1709 -0.0018  0.2164
 4555SOL    HW125127   3.284   1.123   6.596 -1.7285  0.0365  1.3692
 4555SOL    HW225128   3.228   1.004   6.656  0.2551  2.4576  1.0602
 4556SOL     OW25129   3.570   1.999   7.400 -0.4952  0.2416  0.3086
 4556SOL    HW125130   3.501   1.976   7.338 -0.5909  0.1553  0.4469
 4556SOL    HW225131   3.529   1.998   7.487  1.9698 -0.8253  1.4771
 4557SOL     OW25132   1.375   1.342   5.727  0.2953  0.5813 -0.4378
 4557SOL    HW125133   1.439   1.287   5.682  0.9056  0.4612  0.5851
 4557SOL    HW225134   1.349   1.395   5.652 -2.8171 -0.6999 -0.2769
 4558SOL     OW25135   3.520   0.544   7.221 -0.5905  0.5447 -0.4269
 4558SOL    HW125136   3.495   0.514   7.134 -1.1180 -1.4905  0.4115
 4558SOL    HW225137   3.594   0.598   7.195  1.2064 -1.7979 -0.1205
 4559SOL     OW25138   3.631   0.286   0.837 -0.5443 -0.8402 -0.1329
 4559SOL    HW125139   3.613   0.244   0.921  1.2028  0.2415  0.7849
 4559SOL    HW225140   3.561   0.255   0.780 -1.0295  0.1005 -0.0542
 4560SOL     OW25141   3.926   1.718  11.883  0.0217  0.5339  0.1013
 4560SOL    HW125142   3.879   1.640  11.852 -0.8538  1.3108 -0.5442
 4560SOL    HW225143   3.955   1.753  11.799  0.9651  1.6437  0.8809
 4561SOL     OW25144   1.120   3.258   6.965  0.0262  0.7493 -0.8625
 4561SOL    HW125145   1.194   3.315   6.985  0.8937 -0.9651  0.8226
 4561SOL    HW225146   1.121   3.267   6.870  0.1259 -0.9258 -1.0159
 4562SOL     OW25147   1.419   0.638   9.937 -0.2934  0.0977  0.2314
 4562SOL    HW125148   1.466   0.556   9.951  0.0392  0.4046  0.8889
 4562SOL    HW225149   1.473   0.673   9.866  2.2549  0.7910  2.5280
 4563SOL     OW25150   2.249   1.503  13.250 -0.1044 -0.2505  0.0474
 4563SOL    HW125151   2.298   1.585  13.255 -0.1899 -0.1631 -0.5805
 4563SOL    HW225152   2.322   1.443  13.263 -0.9932 -1.3629 -0.0516
 4564SOL     OW25153   3.055   1.384   8.285 -0.0019  0.3000 -0.0058
 4564SOL    HW125154   2.973   1.393   8.332  1.3791  1.8826  2.0618
 4564SOL    HW225155   3.074   1.293   8.310 -1.3509  0.0863  0.2665
 4565SOL     OW25156   0.059   4.396   4.288 -0.1103 -0.1220  0.0601
 4565SOL    HW125157   0.067   4.437   4.202 -1.8317 -0.6710 -0.3792
 4565SOL    HW225158   0.118   4.458   4.329  2.1283 -1.9210 -0.4478
 4566SOL     OW25159   2.420   1.244   2.465  0.1865  0.4255 -0.2211
 4566SOL    HW125160   2.456   1.232   2.378  0.9790  2.2275 -0.1407
 4566SOL    HW225161   2.364   1.166   2.457 -1.8833  1.8912  0.0526
 4567SOL     OW25162   1.471   2.699   4.942  0.1406  0.2825 -0.7280
 4567SOL    HW125163   1.549   2.732   4.986 -0.6078 -0.8220  1.4275
 4567SOL    HW225164   1.402   2.759   4.971  3.0472  1.5031  3.7461
 4568SOL     OW25165   1.208   4.294   3.519 -0.8253  0.7584  0.1530
 4568SOL    HW125166   1.162   4.302   3.603 -2.4150  1.9798 -0.8378
 4568SOL    HW225167   1.293   4.320   3.554  2.0075 -3.3045 -3.8016
 4569SOL     OW25168   3.227   1.329   4.441  0.5372 -0.1983 -0.1324
 4569SOL    HW125169   3.320   1.343   4.420  0.4667  0.3358 -0.0729
 4569SOL    HW225170   3.189   1.353   4.357 -1.2302 -1.3262  0.3478
 4570SOL     OW25171   4.099   3.199   2.745 -0.0425  0.4156  0.1871
 4570SOL    HW125172   4.136   3.152   2.670 -0.2162  0.7000 -0.0783
 4570SOL    HW225173   4.062   3.124   2.792  1.4856 -0.5259 -0.1383
 4571SOL     OW25174   2.273   4.422  14.337 -0.7752 -0.2278 -0.2573
 4571SOL    HW125175   2.281   4.327  14.343  2.4527 -0.0521 -1.8214
 4571SOL    HW225176   2.192   4.435  14.387  0.4470 -1.1032  1.9696
 4572SOL     OW25177   4.087   2.293   6.077 -0.0267  0.6148  0.1035
 4572SOL    HW125178   4.009   2.326   6.032 -1.0141 -0.8336  0.7652
 4572SOL    HW225179   4.052   2.219   6.126  3.0209 -0.1005  1.1824
 4573SOL     OW25180   2.040   4.258  14.786 -0.0999 -0.0052 -0.3893
 4573SOL    HW125181   2.102   4.235  14.856 -0.1648 -1.3228 -0.7688
 4573SOL    HW225182   2.096   4.321  14.740  0.8165 -0.5089  0.0330
 4574SOL     OW25183   3.432   4.615   4.768 -0.2599  0.2729 -0.2984
 4574SOL    HW125184   3.434   4.695   4.821  0.1640  0.6354 -0.8586
 4574SOL    HW225185   3.479   4.652   4.693  0.7162 -1.1809 -0.4079
 4575SOL     OW25186   1.187   2.601   7.109  0.3326  0.2748  0.2103
 4575SOL    HW125187   1.208   2.535   7.042 -1.3140 -0.1823  0.1459
 4575SOL    HW225188   1.128   2.657   7.059 -1.2701  0.5839  2.4298
 4576SOL     OW25189   2.065   0.632   3.193  0.6758 -1.0818 -0.0201
 4576SOL    HW125190   2.039   0.639   3.285  1.9160 -1.5474  0.3603
 4576SOL    HW225191   2.137   0.695   3.191  1.3861 -1.8766  0.5168
 4577SOL     OW25192   1.348   3.487   7.242 -0.2326  0.8306 -0.7117
 4577SOL    HW125193   1.436   3.471   7.278 -0.6678  0.0363  0.0050
 4577SOL    HW225194   1.300   3.418   7.287  2.1299  1.1875  2.3685
 4578SOL     OW25195   2.627   3.919   9.071  0.1959 -0.3961 -0.1429
 4578SOL    HW125196   2.632   3.853   9.001 -1.1330 -0.4619 -0.1882
 4578SOL    HW225197   2.667   3.994   9.028 -0.6324  1.0476  1.6303
 4579SOL     OW25198   4.476   2.484  15.368 -0.6044  0.1139 -0.6812
 4579SOL    HW125199   4.416   2.485  15.293 -4.5255 -0.8343  2.4382
 4579SOL    HW225200   4.558   2.441  15.342 -1.0663 -1.1503 -0.0900
 4580SOL     OW25201   1.864   1.429   2.824 -0.8130  0.1385  0.2498
 4580SOL    HW125202   1.889   1.391   2.908  0.2648  0.5350  0.1006
 4580SOL    HW225203   1.915   1.509   2.828  0.5660 -0.6077 -2.4587
 4581SOL     OW25204   1.163   4.541   4.799  0.1399 -0.1822 -0.1465
 4581SOL    HW125205   1.093   4.541   4.733 -1.5349  1.5648  1.6206
 4581SOL    HW225206   1.145   4.617   4.853  1.1270  0.0765 -0.1912
 4582SOL     OW25207   3.264   2.912   9.080 -0.4424  0.1853 -0.0903
 4582SOL    HW125208   3.332   2.954   9.028 -1.6839  0.2566 -1.6736
 4582SOL    HW225209   3.186   2.943   9.033 -0.9829 -0.6945  0.2198
 4583SOL     OW25210   2.743   1.811  17.062 -0.0389 -0.1084 -0.1155
 4583SOL    HW125211   2.801   1.816  17.138  1.8881 -2.9194 -1.4169
 4583SOL    HW225212   2.702   1.731  17.094 -2.2531  1.6334  1.3979
 4584SOL     OW25213   1.287   0.200  11.973 -0.1247  0.3369  0.1446
 4584SOL    HW125214   1.254   0.222  11.886 -2.0415 -2.6018  0.1114
 4584SOL    HW225215   1.239   0.261  12.028  1.3053  1.9250 -0.3597
 4585SOL     OW25216   2.972   2.426   8.196 -0.1052  0.0863  0.4735
 4585SOL    HW125217   2.919   2.446   8.119 -0.3935  2.1719  1.1891
 4585SOL    HW225218   2.942   2.497   8.253 -0.3826  0.0485  0.3743
 4586SOL     OW25219   0.374   0.770  12.635  0.7260 -0.3077  0.1034
 4586SOL    HW125220   0.288   0.785  12.676  1.3741  3.3213  0.1754
 4586SOL    HW225221   0.342   0.777  12.545 -2.4792  4.5499  1.6091
 4587SOL     OW25222   3.520   3.552   8.535 -0.1600  0.9057 -0.8123
 4587SOL    HW125223   3.485   3.464   8.521  0.1407  0.6020  0.3342
 4587SOL    HW225224   3.511   3.586   8.446 -0.0970  2.5473 -0.1949
 4588SOL     OW25225   4.244   0.589   3.625  0.8117 -0.0506  0.2355
 4588SOL    HW125226   4.335   0.602   3.602 -0.4657  3.2341 -2.8334
 4588SOL    HW225227   4.223   0.505   3.584  0.1662  1.9015 -3.4623
 4589SOL     OW25228   4.267   3.768   4.763 -0.2941 -0.3566  0.4453
 4589SOL    HW125229   4.188   3.714   4.759 -0.1271 -0.6039  0.4982
 4589SOL    HW225230   4.321   3.719   4.701 -1.4887 -0.5651 -0.4364
 4590SOL     OW25231   3.798   3.747   1.099 -0.0523  1.0989 -0.4613
 4590SOL    HW125232   3.740   3.799   1.043 -0.9977  2.0103  1.3375
 4590SOL    HW225233   3.754   3.663   1.098  1.3416  0.3668  0.1200
 4591SOL     OW25234   3.845   1.776   3.601  0.3047 -0.0402  0.0181
 4591SOL    HW125235   3.863   1.800   3.510 -0.7839  1.0375  0.0974
 4591SOL    HW225236   3.923   1.724   3.623  1.2770  1.6651  0.6585
 4592SOL     OW25237   0.755   0.306  13.051 -0.6801 -0.1979 -0.6031
 4592SOL    HW125238   0.772   0.221  13.091  0.1443  0.2193 -0.0804
 4592SOL    HW225239   0.698   0.337  13.121  2.0498  1.3267  0.9303
 4593SOL     OW25240   0.594   2.695  10.778 -0.1964 -0.6850 -0.1781
 4593SOL    HW125241   0.589   2.687  10.683 -0.9549 -0.8547 -0.1228
 4593SOL    HW225242   0.601   2.790  10.788  1.5566 -1.0519  2.2491
 4594SOL     OW25243   2.190   3.538   0.467  0.3019  0.8671 -0.2104
 4594SOL    HW125244   2.168   3.456   0.424 -0.6247  1.6837 -1.2858
 4594SOL    HW225245   2.226   3.595   0.399 -0.2612 -0.3843 -1.5491
 4595SOL     OW25246   3.248   1.696   4.228 -0.3711 -0.3979  0.2674
 4595SOL    HW125247   3.272   1.700   4.321  0.4216  0.2386  0.0397
 4595SOL    HW225248   3.154   1.680   4.232 -0.1785 -1.8054 -0.6854
 4596SOL     OW25249   4.280   0.797   7.310 -0.4419 -1.2712  0.0038
 4596SOL    HW125250   4.276   0.803   7.406 -3.8518 -1.3133 -0.1474
 4596SOL    HW225251   4.208   0.853   7.282  2.5297  1.5307 -2.0897
 4597SOL     OW25252   3.636   1.923  15.965  0.2151  0.0175  0.3572
 4597SOL    HW125253   3.578   1.948  16.037  0.1155  1.0569 -0.0781
 4597SOL    HW225254   3.654   2.008  15.925  0.8963  0.2956  1.2432
 4598SOL     OW25255   2.803   1.885   3.254  0.7431  0.2169 -0.1674
 4598SOL    HW125256   2.859   1.935   3.194 -0.7940  0.2309 -1.6117
 4598SOL    HW225257   2.857   1.878   3.332  0.1711 -0.3102  0.1781
 4599SOL     OW25258   0.836   4.249   4.241  0.1466 -0.7304  0.5100
 4599SOL    HW125259   0.744   4.229   4.257 -0.6125  1.6253 -0.8244
 4599SOL    HW225260   0.849   4.213   4.153  1.4520  0.1987  0.3107
 4600SOL     OW25261   2.988   4.242   2.247  0.5801 -0.0906 -0.5522
 4600SOL    HW125262   2.941   4.304   2.304  3.1598  0.9424  0.4568
 4600SOL    HW225263   2.962   4.284   2.165  1.3350 -0.5960 -1.0445
 4601SOL     OW25264   2.506   2.980  10.126 -0.2412  0.2613 -0.3448
 4601SOL    HW125265   2.468   3.059  10.088  2.0109  1.0557 -0.9869
 4601SOL    HW225266   2.520   2.943  10.039 -0.1607 -0.4628 -0.0219
 4602SOL     OW25267   3.822   1.512  11.740  0.1141  0.1532 -0.1248
 4602SOL    HW125268   3.883   1.442  11.717  0.6111  0.1381  1.2199
 4602SOL    HW225269   3.748   1.501  11.681 -0.5045  2.1407  0.3033
 4603SOL     OW25270   3.897   1.106   2.685  0.0499  0.2289  0.1962
 4603SOL    HW125271   3.820   1.128   2.738  0.8684 -0.3431  1.6265
 4603SOL    HW225272   3.870   1.023   2.647  1.9985 -0.8741  1.1822
 4604SOL     OW25273   3.549   3.427   6.736 -0.0894 -0.1933 -0.3090
 4604SOL    HW125274   3.465   3.381   6.731  0.9135 -1.9071 -1.3133
 4604SOL    HW225275   3.587   3.402   6.652  2.0671 -1.4215  1.0065
 4605SOL     OW25276   1.572   0.940   4.327 -0.8703 -0.1183  0.1847
 4605SOL    HW125277   1.611   0.969   4.409  1.0856 -1.5287 -0.2503
 4605SOL    HW225278   1.620   0.864   4.294 -3.0768 -1.4473  0.0691
 4606SOL     OW25279   1.063   3.572  10.995 -0.5911 -0.3641 -0.2007
 4606SOL    HW125280   1.158   3.573  11.012 -0.5798 -0.4408 -0.2582
 4606SOL    HW225281   1.035   3.659  11.020 -1.4553 -1.0800  1.3092
 4607SOL     OW25282   3.974   2.243   6.616 -0.7909  0.0112  0.1027
 4607SOL    HW125283   3.925   2.292   6.550  0.7692  1.7370  0.2429
 4607SOL    HW225284   4.054   2.216   6.571  0.4549  1.1168  1.6670
 4608SOL     OW25285   2.468   3.393   3.591  0.4246  0.4004  0.1525
 4608SOL    HW125286   2.389   3.446   3.590  1.1260  1.4359 -0.1606
 4608SOL    HW225287   2.443   3.301   3.581 -0.2991  0.6401 -0.2513
 4609SOL     OW25288   4.377   0.761   2.747 -0.2651 -0.0008 -0.2439
 4609SOL    HW125289   4.417   0.717   2.672 -2.0199 -0.9747 -0.6125
 4609SOL    HW225290   4.286   0.764   2.716 -0.0900 -1.7987 -0.9417
 4610SOL     OW25291   2.308   1.296   8.003  0.2528  0.0873  0.5194
 4610SOL    HW125292   2.396   1.309   8.037  0.1880 -1.1434  1.1576
 4610SOL    HW225293   2.261   1.250   8.072 -0.6997  0.2994  0.0079
 4611SOL     OW25294   3.729   2.640   3.010  0.1079  0.4704  0.2622
 4611SOL    HW125295   3.658   2.607   3.065  0.3901  0.0634  0.3830
 4611SOL    HW225296   3.802   2.581   3.032  0.0864  0.1003 -0.6544
 4612SOL     OW25297   3.576   1.767   6.896 -0.4664  0.5582 -0.3995
 4612SOL    HW125298   3.626   1.810   6.964  1.2733 -0.8431 -0.7920
 4612SOL    HW225299   3.637   1.766   6.822  0.2107  1.2479  0.1617
 4613SOL     OW25300   2.097   1.244  17.074  0.2967  0.8667  1.0552
 4613SOL    HW125301   2.075   1.204  16.990  3.1246  1.1215  0.1879
 4613SOL    HW225302   2.181   1.200  17.083  0.5077  0.9450 -0.5748
 4614SOL     OW25303   1.199   0.050  11.681  0.5354  0.0763  0.1719
 4614SOL    HW125304   1.255   0.090  11.614  1.5299 -0.2600  0.8166
 4614SOL    HW225305   1.115   0.092  11.662  0.6264  0.6157  0.9816
 4615SOL     OW25306   1.381   0.262   8.555 -0.2953  0.0890  0.0267
 4615SOL    HW125307   1.422   0.176   8.564 -1.8953 -0.7172 -0.4078
 4615SOL    HW225308   1.343   0.271   8.643 -1.1135 -2.9466 -0.0313
 4616SOL     OW25309   0.646   0.290   4.433 -0.0786 -0.0169 -0.3815
 4616SOL    HW125310   0.610   0.203   4.413  1.3652 -0.4022 -1.2786
 4616SOL    HW225311   0.624   0.291   4.526 -2.0797  3.1175 -0.8974
 4617SOL     OW25312   2.023   1.367   3.997  0.4583  0.3013  0.1093
 4617SOL    HW125313   1.953   1.353   3.933  0.1375  1.4048  0.2294
 4617SOL    HW225314   2.102   1.354   3.946  1.4012 -1.6075  2.0541
 4618SOL     OW25315   0.912   0.028   3.709  0.7934  0.3768 -0.2258
 4618SOL    HW125316   0.885   4.656   3.700 -0.5472  0.5928  1.5065
 4618SOL    HW225317   0.909   0.040   3.804 -1.0627 -0.1100 -0.2192
 4619SOL     OW25318   4.283   0.808  13.178  0.3322  0.2411 -0.3019
 4619SOL    HW125319   4.307   0.733  13.233  0.3572  2.4974  2.7222
 4619SOL    HW225320   4.222   0.844  13.243 -0.4168 -0.6041 -0.5220
 4620SOL     OW25321   2.790   2.725   6.444 -0.6512 -0.6546  0.2226
 4620SOL    HW125322   2.708   2.681   6.465 -0.8401  0.0635  1.0029
 4620SOL    HW225323   2.840   2.723   6.526 -0.1636 -2.6187 -0.1342
 4621SOL     OW25324   2.804   3.164  12.901 -0.1862 -0.4535  0.5439
 4621SOL    HW125325   2.868   3.094  12.914  0.4951  0.5221  2.4274
 4621SOL    HW225326   2.866   3.235  12.882 -0.2681  0.5708  4.1832
 4622SOL     OW25327   1.936   2.719  15.235 -0.2136  0.6749 -0.0884
 4622SOL    HW125328   1.900   2.750  15.152 -0.7769  2.5092  0.8460
 4622SOL    HW225329   2.004   2.665  15.194 -0.6661 -1.5861  2.1726
 4623SOL     OW25330   4.365   2.639   2.216  0.6269  0.2607 -0.1556
 4623SOL    HW125331   4.388   2.548   2.199 -1.1086  0.0137 -1.1166
 4623SOL    HW225332   4.270   2.644   2.209  0.7890 -0.3833 -2.5583
 4624SOL     OW25333   1.383   4.084   9.904 -0.0832  0.4368 -0.2245
 4624SOL    HW125334   1.447   4.064   9.972  0.3397  1.0331 -0.4430
 4624SOL    HW225335   1.352   4.174   9.918  0.8779  0.5908  0.8898
 4625SOL     OW25336   0.978   4.069   5.098  0.1201 -0.5918  0.1069
 4625SOL    HW125337   0.907   4.013   5.129 -1.9124  0.9265 -1.8482
 4625SOL    HW225338   0.967   4.146   5.153  2.2267  2.1114 -3.2412
 4626SOL     OW25339   0.692   4.425   5.949  0.0571  0.1614 -0.2912
 4626SOL    HW125340   0.770   4.478   5.936 -1.0696  1.5562 -1.3827
 4626SOL    HW225341   0.655   4.431   5.861 -0.8946  1.5307  0.2056
 4627SOL     OW25342   4.710   3.285   7.764 -0.6197  0.0169  0.3579
 4627SOL    HW125343   4.665   3.299   7.847 -2.1520  2.7106 -0.9249
 4627SOL    HW225344   0.078   3.278   7.802 -0.4433 -1.2374 -0.3152
 4628SOL     OW25345   0.865   4.481   2.886  0.2788 -0.5421  0.2601
 4628SOL    HW125346   0.849   4.483   2.792  0.6451 -0.7231  0.1936
 4628SOL    HW225347   0.950   4.526   2.887 -0.6271  1.1748 -0.0407
 4629SOL     OW25348   2.753   0.472  13.497 -0.2441  1.0527 -0.5295
 4629SOL    HW125349   2.751   0.377  13.508  0.4847  1.2865  1.6183
 4629SOL    HW225350   2.846   0.493  13.507 -0.5258  1.2682  1.6098
 4630SOL     OW25351   4.280   1.672   0.771  0.3899 -0.6036 -0.4408
 4630SOL    HW125352   4.360   1.673   0.823 -0.1724  1.9883  0.3768
 4630SOL    HW225353   4.231   1.745   0.808  0.1612  1.1113 -4.1206
 4631SOL     OW25354   0.859   2.335   6.950  0.8141  0.5854  0.2670
 4631SOL    HW125355   0.850   2.392   7.027 -0.0818 -0.3494  0.8528
 4631SOL    HW225356   0.948   2.308   6.973  0.7209  0.3516  0.3548
 4632SOL     OW25357   3.467   4.087  17.678  0.4410  0.3694  0.4239
 4632SOL    HW125358   3.462   4.022   0.067 -1.1563 -0.9347 -0.8933
 4632SOL    HW225359   3.499   4.162   0.048  1.1039  1.0557 -1.0000
 4633SOL     OW25360   3.288   4.145  16.986  0.6127  0.1646  0.1269
 4633SOL    HW125361   3.279   4.063  16.938 -1.4535 -0.2705  1.3117
 4633SOL    HW225362   3.377   4.139  17.022  0.7540  2.8544  0.2491
 4634SOL     OW25363   3.068   0.155  15.525  0.1222  0.0503 -0.0135
 4634SOL    HW125364   3.096   0.241  15.492  0.3862 -0.1516 -0.3192
 4634SOL    HW225365   3.014   0.124  15.451  0.2665 -0.9284  0.2903
 4635SOL     OW25366   0.495   0.839   6.402 -0.3059 -0.3289  0.0262
 4635SOL    HW125367   0.536   0.769   6.351  1.1137  1.2953 -1.0981
 4635SOL    HW225368   0.508   0.915   6.344  4.3474 -1.5187 -0.5152
 4636SOL     OW25369   0.309   3.902   6.645  0.0831  0.1866 -0.3975
 4636SOL    HW125370   0.378   3.918   6.710  0.2491  0.8339 -0.7315
 4636SOL    HW225371   0.320   3.810   6.621 -2.9764 -1.1235  3.2714
 4637SOL     OW25372   0.785   0.576   3.597 -0.0647  0.3896  0.4463
 4637SOL    HW125373   0.806   0.537   3.512  1.2651  0.9445  0.5232
 4637SOL    HW225374   0.694   0.603   3.584  0.0447  1.1363  1.2531
 4638SOL     OW25375   1.779   1.803   4.201 -0.3913  0.1819 -0.4335
 4638SOL    HW125376   1.828   1.729   4.164 -2.0346 -0.0457 -2.1636
 4638SOL    HW225377   1.789   1.875   4.138 -1.5318 -0.2154 -1.0770
 4639SOL     OW25378   4.348   1.937   1.324 -0.3510 -0.2416  0.1601
 4639SOL    HW125379   4.394   1.870   1.274  0.8208 -0.5364  1.6174
 4639SOL    HW225380   4.316   1.985   1.248  1.0872  0.3637 -0.0534
 4640SOL     OW25381   1.816   4.599  14.105  0.3094 -0.5476 -0.0533
 4640SOL    HW125382   1.910   4.615  14.099 -0.1332  1.9087 -0.3622
 4640SOL    HW225383   1.786   4.617  14.016  0.5409  1.1681  0.2145
 4641SOL     OW25384   0.997   2.244   5.402  0.1612  0.7693  0.4473
 4641SOL    HW125385   1.042   2.178   5.455  0.0783  1.3799  1.2771
 4641SOL    HW225386   0.957   2.190   5.334  1.1998  1.2716 -0.5598
 4642SOL     OW25387   0.723   3.496   5.130  0.1150  0.5717  0.1535
 4642SOL    HW125388   0.818   3.505   5.144 -0.0593  2.0098  0.5086
 4642SOL    HW225389   0.688   3.541   5.207 -0.7620 -0.2663  0.2312
 4643SOL     OW25390   3.135   3.973  13.140  0.1776 -0.3030  0.3156
 4643SOL    HW125391   3.051   3.954  13.099  0.0341 -0.9074  0.8703
 4643SOL    HW225392   3.127   4.067  13.128 -0.0959 -0.4036 -0.2602
 4644SOL     OW25393   1.197   0.537   6.006  0.3154 -0.6098 -0.5450
 4644SOL    HW125394   1.262   0.474   6.036 -0.0112 -0.4707  0.4577
 4644SOL    HW225395   1.204   0.538   5.911 -0.0816  1.3220 -0.5587
 4645SOL     OW25396   4.138   2.476   4.884  0.4330 -0.2885  0.2665
 4645SOL    HW125397   4.080   2.539   4.841  1.7339  2.1648  2.1191
 4645SOL    HW225398   4.077   2.404   4.901 -1.0428  1.1937  1.3119
 4646SOL     OW25399   1.685   0.615   7.698  0.5199  0.2647 -0.3424
 4646SOL    HW125400   1.598   0.584   7.722  1.2390 -1.1872  0.3722
 4646SOL    HW225401   1.705   0.689   7.754  1.1558  1.3133 -1.9375
 4647SOL     OW25402   0.087   0.607   8.750  0.1976 -1.0012 -0.3447
 4647SOL    HW125403   0.073   0.619   8.656 -0.0944 -0.1064 -0.1886
 4647SOL    HW225404   0.066   0.695   8.782  0.5804 -1.5378  1.3667
 4648SOL     OW25405   3.321   4.670   0.675 -0.2680  0.0867  0.0267
 4648SOL    HW125406   3.342   4.595   0.619  0.0688 -0.1220  0.4284
 4648SOL    HW225407   3.317   4.633   0.763  0.6794 -0.2542 -0.0726
 4649SOL     OW25408   1.393   4.174   3.036 -0.3267 -0.4066 -0.3375
 4649SOL    HW125409   1.327   4.110   3.063 -1.5293  0.3126 -1.5304
 4649SOL    HW225410   1.369   4.175   2.943 -3.4428  1.2499  0.4876
 4650SOL     OW25411   1.168   0.647  12.498  0.9937  0.6892  0.2207
 4650SOL    HW125412   1.095   0.665  12.557  0.4394 -1.2657  0.1502
 4650SOL    HW225413   1.230   0.718  12.515 -0.0114  0.6608  3.9530
 4651SOL     OW25414   4.525   1.721  12.087  0.2811  0.9961  0.4527
 4651SOL    HW125415   4.453   1.762  12.136  0.1301  0.8498  0.3553
 4651SOL    HW225416   4.495   1.737  11.998  2.8313  1.8145 -0.2516
 4652SOL     OW25417   4.685   3.551   5.478  0.4598 -0.2124 -0.3673
 4652SOL    HW125418   4.606   3.545   5.425  1.0778  0.8971 -1.4139
 4652SOL    HW225419   0.034   3.571   5.414 -0.5716  0.9599 -1.1059
 4653SOL     OW25420   1.906   1.605   5.363  0.6018 -0.4016  0.1966
 4653SOL    HW125421   1.898   1.694   5.328  1.5476  0.4498  2.1586
 4653SOL    HW225422   1.912   1.561   5.278  3.2418  3.7313 -1.7687
 4654SOL     OW25423   4.021   2.739   6.562  0.5700  0.1175  0.5766
 4654SOL    HW125424   3.994   2.707   6.476 -0.7473  0.3380  0.9044
 4654SOL    HW225425   4.069   2.658   6.579 -1.6830 -1.3097  0.1301
 4655SOL     OW25426   2.090   2.798   2.515 -0.5874  0.2367  0.4965
 4655SOL    HW125427   2.021   2.731   2.522 -0.2984 -0.2736 -1.6287
 4655SOL    HW225428   2.091   2.835   2.603  1.1594 -2.1133  1.4594
 4656SOL     OW25429   0.052   1.192   4.071  0.5775 -0.7260  0.0532
 4656SOL    HW125430   4.695   1.216   4.020 -0.1316 -0.3321  1.2943
 4656SOL    HW225431   0.014   1.160   4.153  1.0548 -3.2177 -0.6875
 4657SOL     OW25432   2.376   2.953   5.092  0.2751  0.1403 -0.3519
 4657SOL    HW125433   2.280   2.956   5.085 -0.0560 -0.3453  3.7364
 4657SOL    HW225434   2.400   3.005   5.016 -3.8496  3.0374  0.3077
 4658SOL     OW25435   1.860   3.222   4.571  0.1884  0.7220  0.1963
 4658SOL    HW125436   1.870   3.204   4.477  0.4005 -0.6035  0.4642
 4658SOL    HW225437   1.908   3.305   4.573 -2.1205  2.0489  0.4286
 4659SOL     OW25438   1.938   2.560  14.633  0.1061  0.1373  0.5574
 4659SOL    HW125439   1.988   2.641  14.646 -0.7634  0.2539  3.1613
 4659SOL    HW225440   1.876   2.585  14.565  0.0648 -0.3833  0.4026
 4660SOL     OW25441   2.170   3.132   7.972 -0.2386  0.9202  0.4771
 4660SOL    HW125442   2.230   3.184   8.026  1.2745 -1.1174  0.7792
 4660SOL    HW225443   2.133   3.079   8.042  1.0609  0.2826  0.6770
 4661SOL     OW25444   4.225   0.694   1.743  0.5068  0.3573  0.1813
 4661SOL    HW125445   4.195   0.636   1.813 -1.0061 -0.0580 -0.8215
 4661SOL    HW225446   4.145   0.745   1.729 -0.3015 -1.2450 -0.9901
 4662SOL     OW25447   1.462   3.713   0.660  0.0395 -0.9554 -0.1020
 4662SOL    HW125448   1.488   3.626   0.627 -0.3880 -0.8837 -0.6331
 4662SOL    HW225449   1.367   3.703   0.653  0.0443 -0.2097 -1.1262
 4663SOL     OW25450   1.355   2.765   0.928  0.6165  0.2705  0.3723
 4663SOL    HW125451   1.441   2.741   0.895  0.0064 -0.0265 -0.9861
 4663SOL    HW225452   1.360   2.732   1.018 -0.7899 -1.3415 -0.1394
 4664SOL     OW25453   1.159   0.147  16.692  0.2102 -0.2909  0.1939
 4664SOL    HW125454   1.254   0.156  16.695  0.2461 -0.0787 -1.5259
 4664SOL    HW225455   1.148   0.052  16.704 -1.8980 -0.0039  0.4322
 4665SOL     OW25456   3.455   0.167   7.478  0.1730  0.1940  0.5777
 4665SOL    HW125457   3.409   0.251   7.476  0.0603  0.1069 -0.3689
 4665SOL    HW225458   3.505   0.171   7.560  1.0006 -3.7674  0.2688
 4666SOL     OW25459   4.509   0.753   8.668  0.3236  0.2366  0.2757
 4666SOL    HW125460   4.463   0.669   8.677  0.7617  0.1974  2.2113
 4666SOL    HW225461   4.582   0.732   8.610 -1.1460  2.8491 -2.4760
 4667SOL     OW25462   4.060   4.449   4.830  0.0531 -0.5547 -0.2993
 4667SOL    HW125463   3.973   4.454   4.870  0.0385  2.8931 -0.8245
 4667SOL    HW225464   4.023   4.408   4.752  0.3221  0.2036 -0.8170
 4668SOL     OW25465   2.751   1.083  11.358  0.4316 -0.1496 -0.1607
 4668SOL    HW125466   2.670   1.061  11.403  0.3061 -1.3382 -0.9720
 4668SOL    HW225467   2.715   1.131  11.283 -0.8655 -0.9133 -0.0210
 4669SOL     OW25468   2.016   4.279  15.803  0.6880  0.1896 -0.0287
 4669SOL    HW125469   1.965   4.246  15.728  0.4409  2.4992 -0.9045
 4669SOL    HW225470   1.949   4.290  15.871  0.0023 -2.0503 -0.3464
 4670SOL     OW25471   1.341   0.830  13.848  0.3301  0.2157 -0.3872
 4670SOL    HW125472   1.408   0.814  13.915  2.3058  3.4411 -1.5379
 4670SOL    HW225473   1.272   0.866  13.903 -0.2124 -1.2132 -0.1596
 4671SOL     OW25474   2.270   2.397   6.129  0.2408  0.0907 -0.2343
 4671SOL    HW125475   2.230   2.311   6.136  0.3132  0.1142  0.5134
 4671SOL    HW225476   2.209   2.438   6.068  0.9016  2.4238  0.6424
 4672SOL     OW25477   1.172   1.972  12.693 -0.4366  0.3042 -0.0800
 4672SOL    HW125478   1.168   1.999  12.602  1.3789 -0.9071 -0.5311
 4672SOL    HW225479   1.090   2.005  12.729  1.1284  2.2387  1.6717
 4673SOL     OW25480   2.303   2.031   4.746  0.5406  0.0706 -0.3690
 4673SOL    HW125481   2.378   2.039   4.804 -0.7063  0.2119  1.2060
 4673SOL    HW225482   2.247   2.105   4.767  1.2479  0.1150  1.3310
 4674SOL     OW25483   2.720   1.807   4.782 -0.0139  0.1404 -0.2356
 4674SOL    HW125484   2.777   1.760   4.843 -2.0031 -1.0268  0.7195
 4674SOL    HW225485   2.670   1.860   4.844 -0.9816 -1.2555  0.1816
 4675SOL     OW25486   2.743   0.712   5.548  0.0761 -0.1859  0.5004
 4675SOL    HW125487   2.792   0.765   5.484  0.6439  0.0657  1.1432
 4675SOL    HW225488   2.792   0.710   5.630  3.0860 -0.9620 -1.3168
 4676SOL     OW25489   2.148   3.584  15.007  0.2830 -0.0517 -0.3413
 4676SOL    HW125490   2.119   3.575  15.098  3.4077  0.0993  0.6751
 4676SOL    HW225491   2.130   3.676  14.990  0.0698  0.2369  1.4713
 4677SOL     OW25492   0.116   1.782  15.889 -0.0921 -0.4509  0.0350
 4677SOL    HW125493   0.039   1.783  15.945 -0.3731 -0.1451 -0.3554
 4677SOL    HW225494   0.079   1.750  15.807  2.0965 -0.9706 -0.7443
 4678SOL     OW25495   0.573   3.726  10.377 -0.1835 -0.3380  0.3870
 4678SOL    HW125496   0.622   3.718  10.295  0.9077 -0.0964  1.0223
 4678SOL    HW225497   0.520   3.801  10.348 -1.1857 -1.8411 -1.6649
 4679SOL     OW25498   0.576   2.815   3.771  0.5664 -0.2385 -0.2201
 4679SOL    HW125499   0.554   2.801   3.679 -0.9117  1.9597 -0.1912
 4679SOL    HW225500   0.610   2.728   3.794  0.7644  0.5373  2.3470
 4680SOL     OW25501   2.111   2.652   0.344 -0.1260 -0.1853 -0.6482
 4680SOL    HW125502   2.124   2.599   0.265 -1.2086 -0.3515 -0.7173
 4680SOL    HW225503   2.061   2.723   0.304 -2.0744  0.0393  2.1915
 4681SOL     OW25504   0.943   1.843   8.665  0.3126  0.6451 -0.0231
 4681SOL    HW125505   0.917   1.884   8.747 -2.3435  0.5349 -0.7938
 4681SOL    HW225506   1.001   1.774   8.697 -0.9059  0.6769  2.2594
 4682SOL     OW25507   1.200   3.064  11.288 -0.0845  0.3678 -0.2513
 4682SOL    HW125508   1.214   3.157  11.269 -0.6948  0.5818  0.3186
 4682SOL    HW225509   1.277   3.049  11.344 -0.1324 -0.1318 -0.3200
 4683SOL     OW25510   2.784   0.390   7.993 -0.6349 -0.0422 -0.1784
 4683SOL    HW125511   2.784   0.301   7.958  2.3948 -0.7399  1.5858
 4683SOL    HW225512   2.878   0.401   8.006 -0.8079  0.0619  1.0096
 4684SOL     OW25513   1.162   3.119  17.295 -0.1665 -0.0288 -0.2992
 4684SOL    HW125514   1.069   3.135  17.313 -0.0799  1.9084 -1.5789
 4684SOL    HW225515   1.149   3.065  17.217  1.9211 -1.7331  0.5348
 4685SOL     OW25516   4.644   1.091   5.489  0.0871 -0.0982  0.3686
 4685SOL    HW125517   4.717   1.052   5.441 -1.5951 -1.5957 -0.9557
 4685SOL    HW225518   4.687   1.109   5.573  0.8584  1.6157 -0.3904
 4686SOL     OW25519   3.045   3.407   8.707 -0.5660 -0.3486  0.0159
 4686SOL    HW125520   3.071   3.440   8.621 -2.4582 -1.1884 -0.8849
 4686SOL    HW225521   2.966   3.461   8.711  1.0032  1.9457  0.1529
 4687SOL     OW25522   3.929   3.685   1.497  0.5272 -0.3979  0.2520
 4687SOL    HW125523   3.876   3.689   1.417  0.9361  0.5408  0.0360
 4687SOL    HW225524   4.012   3.644   1.472  0.5233  0.9907 -2.0621
 4688SOL     OW25525   0.961   3.884   7.657  0.5728  0.3129  0.3151
 4688SOL    HW125526   0.992   3.892   7.747  1.3585 -1.2937  0.1905
 4688SOL    HW225527   0.869   3.898   7.678  0.7271  0.2965  0.9890
 4689SOL     OW25528   0.940   2.474   5.297 -0.1754  0.0150 -1.2922
 4689SOL    HW125529   0.845   2.475   5.287 -0.1214  0.1456 -1.7804
 4689SOL    HW225530   0.959   2.392   5.344  1.4419  0.6490 -0.8265
 4690SOL     OW25531   4.210   3.294   5.981 -0.0574 -0.5210 -0.4407
 4690SOL    HW125532   4.289   3.331   6.020 -1.9562  0.5782  2.3584
 4690SOL    HW225533   4.255   3.219   5.942 -1.0441 -0.1881 -2.2229
 4691SOL     OW25534   4.381   4.570   2.657 -0.4148 -0.4905 -0.0830
 4691SOL    HW125535   4.434   4.573   2.737  0.0382 -0.1829 -0.3959
 4691SOL    HW225536   4.446   4.553   2.589  0.5974 -1.8776  1.2306
 4692SOL     OW25537   3.701   3.753   8.090  0.2168  0.0535 -0.2311
 4692SOL    HW125538   3.758   3.680   8.115 -0.8906 -0.4203  0.9962
 4692SOL    HW225539   3.738   3.826   8.139 -1.2623 -0.2462  1.3583
 4693SOL     OW25540   4.363   3.467   8.481 -0.1792 -0.3975 -0.2168
 4693SOL    HW125541   4.298   3.397   8.481  0.7236 -1.2389 -1.8210
 4693SOL    HW225542   4.381   3.453   8.574  2.5804 -2.3533 -1.0395
 4694SOL     OW25543   2.475   0.604   7.104  0.3104  0.0456 -0.0985
 4694SOL    HW125544   2.555   0.628   7.151  0.6067  1.1598 -1.1682
 4694SOL    HW225545   2.420   0.558   7.168 -0.0433  0.7183  0.0757
 4695SOL     OW25546   1.562   3.706  16.026 -0.5710 -0.0549 -0.4620
 4695SOL    HW125547   1.644   3.748  16.051 -0.2721 -0.8136 -0.1784
 4695SOL    HW225548   1.569   3.712  15.930 -2.5413  2.1519 -0.4905
 4696SOL     OW25549   0.526   0.295  12.433  0.2192  0.6441  0.0576
 4696SOL    HW125550   0.520   0.241  12.512  0.5290  0.8487  0.2221
 4696SOL    HW225551   0.589   0.235  12.395 -0.5179 -0.6371  0.8529
 4697SOL     OW25552   4.175   4.461  15.463  0.4272  0.2804 -0.3069
 4697SOL    HW125553   4.115   4.398  15.504  1.1638 -1.3500 -1.7047
 4697SOL    HW225554   4.116   4.536  15.459  1.6309  1.2953  0.8852
 4698SOL     OW25555   2.237   1.802   2.829 -0.0563 -0.0903  0.1792
 4698SOL    HW125556   2.331   1.789   2.819 -0.1196  0.8338 -1.7376
 4698SOL    HW225557   2.229   1.896   2.817 -0.0257 -0.3505 -1.9129
 4699SOL     OW25558   2.036   4.104   8.713  0.0065  0.1660  0.1086
 4699SOL    HW125559   2.083   4.055   8.646  0.5220  0.3389  0.3467
 4699SOL    HW225560   1.972   4.036   8.738 -2.1014  1.5631 -1.4936
 4700SOL     OW25561   2.579   3.082   7.124  0.3374  0.5058  0.2488
 4700SOL    HW125562   2.606   3.057   7.036  1.2039  2.2778 -0.0007
 4700SOL    HW225563   2.653   3.049   7.176 -0.7516 -1.3899  0.5643
 4701SOL     OW25564   2.688   2.703   3.261 -0.2066  0.0820  0.4147
 4701SOL    HW125565   2.628   2.695   3.335  1.1857  0.9055  1.6393
 4701SOL    HW225566   2.646   2.779   3.223 -0.5009  0.0688  0.7156
 4702SOL     OW25567   4.590   4.097   4.965  0.0321 -0.7427 -0.1495
 4702SOL    HW125568   4.539   4.105   5.046  2.6355 -0.9900  1.4974
 4702SOL    HW225569   4.567   4.180   4.923 -1.2724 -0.6150  0.8051
 4703SOL     OW25570   2.143   1.558   8.986  0.3390  0.4764 -0.4869
 4703SOL    HW125571   2.062   1.511   9.008 -0.4700  0.8803 -2.5976
 4703SOL    HW225572   2.196   1.479   8.976 -0.4139 -0.3824  2.2812
 4704SOL     OW25573   4.334   0.579  13.324  0.3484  0.1678 -0.4808
 4704SOL    HW125574   4.312   0.549  13.412  0.7658  0.7424 -0.1773
 4704SOL    HW225575   4.413   0.527  13.306  1.7816  0.7971  3.8001
 4705SOL     OW25576   4.356   0.123   0.542  0.1278 -0.3235  0.2513
 4705SOL    HW125577   4.366   0.218   0.553  2.2330 -0.6513  1.2316
 4705SOL    HW225578   4.350   0.096   0.634  1.0102 -1.7549 -0.1151
 4706SOL     OW25579   4.577   3.481   3.792 -0.2920  0.4189  0.4789
 4706SOL    HW125580   4.600   3.422   3.864  0.5102  0.5940  0.3694
 4706SOL    HW225581   4.558   3.417   3.723 -1.0028  2.3524 -1.1244
 4707SOL     OW25582   4.447   3.534  11.870  0.2200 -0.3950  0.3229
 4707SOL    HW125583   4.472   3.619  11.906 -0.1346  0.0017 -0.3765
 4707SOL    HW225584   4.392   3.505  11.943  0.4814  0.4458  0.8547
 4708SOL     OW25585   0.799   3.554  15.050  0.8250 -0.1836  0.0240
 4708SOL    HW125586   0.727   3.610  15.020 -1.7044 -1.5453  3.6094
 4708SOL    HW225587   0.860   3.608  15.099  1.2477 -0.3406 -0.3315
 4709SOL     OW25588   3.378   2.184   8.551 -0.3584 -0.0626 -0.1720
 4709SOL    HW125589   3.344   2.208   8.638 -0.8680  0.4042 -0.5048
 4709SOL    HW225590   3.470   2.173   8.576  0.3752  1.3849 -2.2616
 4710SOL     OW25591   1.197   0.574  16.678 -0.2918  0.6360  0.6873
 4710SOL    HW125592   1.115   0.535  16.646 -1.0791  0.7307  2.5605
 4710SOL    HW225593   1.187   0.668  16.689 -1.8275  0.7171 -1.3606
 4711SOL     OW25594   2.399   3.772  17.124  0.5143  0.4687  0.3958
 4711SOL    HW125595   2.407   3.845  17.186 -2.5326  0.2741  1.0077
 4711SOL    HW225596   2.489   3.738  17.118  0.3979 -0.0215  1.4814
 4712SOL     OW25597   4.203   0.691   4.795 -0.0640  0.2291 -0.0952
 4712SOL    HW125598   4.162   0.614   4.835  1.2879 -0.9251 -0.9146
 4712SOL    HW225599   4.200   0.661   4.704  1.9233 -1.7120  0.4597
 4713SOL     OW25600   1.746   3.599   5.677  0.0542  0.1407 -0.6925
 4713SOL    HW125601   1.741   3.649   5.759 -2.1723  1.6881 -1.7800
 4713SOL    HW225602   1.749   3.668   5.611 -3.5043  1.5707  0.6329
 4714SOL     OW25603   3.323   2.175   5.315  0.4728  0.3181 -0.4231
 4714SOL    HW125604   3.386   2.104   5.324 -1.4933 -1.3326  0.2005
 4714SOL    HW225605   3.269   2.178   5.394 -1.2020  1.1662 -1.5949
 4715SOL     OW25606   1.953   4.327  16.107 -0.2703 -0.2063  0.2895
 4715SOL    HW125607   2.017   4.280  16.159 -0.5166  0.9330  1.6303
 4715SOL    HW225608   1.982   4.417  16.121  0.5214 -0.1060 -1.9735
 4716SOL     OW25609   0.539   3.749   3.124 -0.1796  0.1516  0.2104
 4716SOL    HW125610   0.631   3.736   3.100 -0.5309 -0.5729 -0.7184
 4716SOL    HW225611   0.497   3.710   3.047 -0.9833  1.8187 -0.2015
 4717SOL     OW25612   1.956   0.122   1.857  0.3570 -0.0484 -0.4767
 4717SOL    HW125613   1.928   0.115   1.766 -0.1027  1.7498 -0.4685
 4717SOL    HW225614   2.021   0.052   1.863 -1.6164 -1.6814  1.5645
 4718SOL     OW25615   3.565   0.001   4.558 -0.4486  0.3881 -0.0990
 4718SOL    HW125616   3.644   4.685   4.516 -1.1508  1.0529 -1.9666
 4718SOL    HW225617   3.569   0.090   4.524  0.2528  0.9657  1.4910
 4719SOL     OW25618   4.366   4.502  16.620  0.8225 -0.0036  0.7111
 4719SOL    HW125619   4.364   4.407  16.625  0.8119 -0.0576 -0.4257
 4719SOL    HW225620   4.324   4.514  16.535  0.3449 -0.5794  0.8672
 4720SOL     OW25621   3.726   4.118   6.284 -0.2900  0.2075 -0.0538
 4720SOL    HW125622   3.660   4.116   6.353 -2.8673  0.7526 -2.4945
 4720SOL    HW225623   3.716   4.030   6.249  0.8120 -0.7972  2.1495
 4721SOL     OW25624   2.975   1.432  14.411  0.4086 -0.2475  0.3129
 4721SOL    HW125625   2.924   1.438  14.491  0.5988 -1.4677  0.5113
 4721SOL    HW225626   2.918   1.379  14.354  0.5884  0.1069 -0.2033
 4722SOL     OW25627   4.069   3.716   0.935  0.8261 -0.3131 -0.0916
 4722SOL    HW125628   3.992   3.774   0.939  0.4436 -0.5744 -3.9085
 4722SOL    HW225629   4.097   3.737   0.847  0.1827 -0.0760 -0.2432
 4723SOL     OW25630   4.272   2.788   7.649  0.8690 -0.3268  0.3669
 4723SOL    HW125631   4.309   2.802   7.736 -1.2115 -0.8629  1.3641
 4723SOL    HW225632   4.356   2.769   7.609  0.4501  1.4376 -1.3308
 4724SOL     OW25633   3.564   0.141   2.491 -0.0209 -0.2496 -0.0838
 4724SOL    HW125634   3.473   0.144   2.461  0.2468 -2.0001 -1.0335
 4724SOL    HW225635   3.584   0.231   2.463 -2.4948 -0.2269 -1.7209
 4725SOL     OW25636   0.170   1.366   3.520 -0.3026  0.1445 -0.2393
 4725SOL    HW125637   0.237   1.414   3.569 -0.8196 -0.2371  0.8572
 4725SOL    HW225638   0.210   1.279   3.515 -0.7285  0.0634 -2.0048
 4726SOL     OW25639   4.527   0.817  14.782  0.2135  0.0526 -0.5056
 4726SOL    HW125640   4.478   0.757  14.726 -0.5055  0.7875 -0.6531
 4726SOL    HW225641   4.525   0.762  14.861  1.6750  0.3422 -0.2672
 4727SOL     OW25642   1.103   2.030  11.120  0.3942  0.2653 -0.1462
 4727SOL    HW125643   1.168   1.967  11.086  0.3444 -0.1672  0.5640
 4727SOL    HW225644   1.057   1.981  11.188 -0.6813  1.9565  0.3391
 4728SOL     OW25645   0.958   1.177  12.112 -0.3647  0.0377  0.1660
 4728SOL    HW125646   1.044   1.194  12.149 -0.4768  0.5211  0.1968
 4728SOL    HW225647   0.908   1.123  12.173 -0.0346 -0.9676 -0.4459
 4729SOL     OW25648   4.120   3.272   5.298  0.6361 -0.4111 -0.7538
 4729SOL    HW125649   4.184   3.220   5.248  0.7788 -1.3588  0.3984
 4729SOL    HW225650   4.043   3.215   5.299  0.1956  0.2162  0.2682
 4730SOL     OW25651   0.901   0.904  16.092 -0.0837 -0.0869 -0.3278
 4730SOL    HW125652   0.938   0.920  16.005  4.5379 -0.4467  1.5920
 4730SOL    HW225653   0.951   0.959  16.153  0.3715  0.6839 -1.4045
 4731SOL     OW25654   1.421   4.414   2.351 -0.3274  0.1903 -0.4846
 4731SOL    HW125655   1.505   4.457   2.330 -0.9500  1.0024 -1.3340
 4731SOL    HW225656   1.429   4.419   2.446 -0.5200 -0.0838 -0.4560
 4732SOL     OW25657   3.729   1.789   8.188  0.4516  0.5215  0.1440
 4732SOL    HW125658   3.638   1.759   8.182 -0.1880  2.1258  1.8962
 4732SOL    HW225659   3.783   1.710   8.194 -0.8880 -0.1426  3.1018
 4733SOL     OW25660   2.500   1.339   8.673 -0.1057 -0.7607  0.3109
 4733SOL    HW125661   2.526   1.294   8.593 -1.0590 -0.7930  0.0269
 4733SOL    HW225662   2.581   1.330   8.724 -1.1314 -1.1940  1.8913
 4734SOL     OW25663   0.732   0.513   4.207 -0.6274  0.3044  0.0669
 4734SOL    HW125664   0.750   0.602   4.236 -1.9083  0.9562 -1.1438
 4734SOL    HW225665   0.653   0.490   4.254  0.3468  0.7589  1.9216
 4735SOL     OW25666   1.712   2.223   2.112 -0.3261 -0.0370 -0.3854
 4735SOL    HW125667   1.728   2.180   2.196  0.5913  1.9515  0.4425
 4735SOL    HW225668   1.771   2.172   2.057  0.1527 -0.3245  0.4014
 4736SOL     OW25669   2.877   4.118  12.414 -0.3546  0.0517 -0.2924
 4736SOL    HW125670   2.787   4.116  12.382 -0.7954  1.5178  0.8398
 4736SOL    HW225671   2.873   4.189  12.478  2.0380 -0.6393  0.6485
 4737SOL     OW25672   1.641   0.441   2.821  0.3583 -0.7129 -0.6284
 4737SOL    HW125673   1.564   0.432   2.876  0.0231  0.3233 -0.9165
 4737SOL    HW225674   1.650   0.535   2.839 -0.7448 -0.8345  0.5013
 4738SOL     OW25675   3.619   3.387   8.104  0.4744  0.1212 -0.0058
 4738SOL    HW125676   3.632   3.297   8.133  0.8815  0.4008  0.7086
 4738SOL    HW225677   3.591   3.369   8.015 -0.7925  1.8554  0.0494
 4739SOL     OW25678   0.583   2.660   2.528 -0.3313 -0.0948 -0.5446
 4739SOL    HW125679   0.639   2.724   2.572 -1.7260  0.8459 -0.1414
 4739SOL    HW225680   0.555   2.701   2.446  1.0523 -1.2771 -1.5867
 4740SOL     OW25681   1.915   2.941  14.993  0.3674 -0.6624 -0.4352
 4740SOL    HW125682   1.902   2.996  14.916  0.0635  0.3248  0.3187
 4740SOL    HW225683   1.892   2.853  14.963  1.0428 -1.5563  1.6408
 4741SOL     OW25684   1.420   3.419   1.602 -0.4770 -0.0953  0.8541
 4741SOL    HW125685   1.346   3.479   1.612 -0.0015  0.5314  0.6043
 4741SOL    HW225686   1.391   3.359   1.533  0.0665 -0.8041  1.2434
 4742SOL     OW25687   0.417   1.758  11.222  0.4537  0.1732  0.2384
 4742SOL    HW125688   0.427   1.726  11.132  1.3546  2.2247 -0.3794
 4742SOL    HW225689   0.324   1.738  11.229  0.1390  1.0853 -1.3563
 4743SOL     OW25690   2.149   4.637  17.280  0.7452 -0.2551  0.6307
 4743SOL    HW125691   2.238   4.671  17.292  1.0156 -0.4384 -0.9301
 4743SOL    HW225692   2.137   4.617  17.373 -0.7409  0.2879  0.5426
 4744SOL     OW25693   1.507   0.986   1.757 -0.3723 -0.2991  0.0938
 4744SOL    HW125694   1.589   1.034   1.768 -0.7895  0.5282 -0.3764
 4744SOL    HW225695   1.449   1.060   1.739 -0.2683 -0.4471 -0.8802
 4745SOL     OW25696   4.578   3.374   8.936  1.0613  0.0839  0.1433
 4745SOL    HW125697   4.562   3.315   9.010 -1.0647  0.2312 -0.2121
 4745SOL    HW225698   4.568   3.458   8.981 -2.6367 -0.3205  0.0615
 4746SOL     OW25699   4.420   3.361   2.605  0.8887 -0.2443 -0.0465
 4746SOL    HW125700   4.435   3.275   2.643  1.2543  0.1988  0.8140
 4746SOL    HW225701   4.458   3.343   2.519 -0.8683 -2.4177 -0.3756
 4747SOL     OW25702   0.571   0.185  16.638  0.5675  0.0217 -0.7286
 4747SOL    HW125703   0.612   0.108  16.678  1.1259  0.1755 -0.9924
 4747SOL    HW225704   0.525   0.142  16.566  0.5543  2.0129 -1.8949
 4748SOL     OW25705   4.584   3.092  15.138  0.5000 -0.1439 -0.6077
 4748SOL    HW125706   4.537   3.153  15.196  2.2010 -0.8827  1.5180
 4748SOL    HW225707   4.507   3.051  15.099  0.0842 -0.9721  1.0741
 4749SOL     OW25708   1.472   2.085  15.121 -0.2718 -0.5828 -0.2925
 4749SOL    HW125709   1.468   2.115  15.212 -0.7889 -2.1210  0.1889
 4749SOL    HW225710   1.418   2.155  15.084  4.0795  2.1474 -1.5668
 4750SOL     OW25711   1.605   1.598   9.876 -0.0459  0.2073 -0.1786
 4750SOL    HW125712   1.650   1.522   9.840  0.3475  0.2968  0.1215
 4750SOL    HW225713   1.536   1.604   9.810  1.1948  1.5397 -1.3518
 4751SOL     OW25714   4.115   1.599   1.888 -0.3711  0.2947 -0.3568
 4751SOL    HW125715   4.087   1.668   1.827  0.9435 -0.1049 -1.4268
 4751SOL    HW225716   4.184   1.549   1.844 -1.0432 -1.6501  0.8137
 4752SOL     OW25717   2.985   2.844   6.924 -0.0811  0.2637  0.2163
 4752SOL    HW125718   3.044   2.770   6.944 -2.2383 -1.8767 -1.3391
 4752SOL    HW225719   3.016   2.894   7.000  0.6833 -0.6429  0.5009
 4753SOL     OW25720   1.776   2.453   4.214 -0.1323 -0.4494 -0.0200
 4753SOL    HW125721   1.801   2.458   4.307  0.8854  0.2590 -0.3353
 4753SOL    HW225722   1.694   2.502   4.216  1.0666  1.4633  1.4027
 4754SOL     OW25723   0.321   3.874  17.265  0.4983 -0.3123 -0.4646
 4754SOL    HW125724   0.284   3.953  17.225  1.8749  0.4135 -0.2845
 4754SOL    HW225725   0.266   3.811  17.218 -1.3727  0.0929  1.1943
 4755SOL     OW25726   3.837   0.028  17.406  0.1789  0.1125 -0.6196
 4755SOL    HW125727   3.918   4.710  17.441  0.1976  0.4766 -0.2732
 4755SOL    HW225728   3.832   0.100  17.469 -2.2653  0.2668 -0.9814
 4756SOL     OW25729   3.183   3.229  14.858  0.0723 -0.3367 -0.0815
 4756SOL    HW125730   3.144   3.287  14.923 -1.5265 -1.0793 -0.3772
 4756SOL    HW225731   3.276   3.247  14.871 -0.1995  0.1593  1.1649
 4757SOL     OW25732   2.462   3.804   1.926 -0.1362 -0.4551  0.1637
 4757SOL    HW125733   2.499   3.834   1.843  1.2668 -1.3226  0.4767
 4757SOL    HW225734   2.536   3.746   1.942 -0.1692 -0.4626  0.2873
 4758SOL     OW25735   3.734   4.272   1.794  0.1805  0.2726  0.1677
 4758SOL    HW125736   3.683   4.279   1.713  1.0837 -0.9380 -0.5024
 4758SOL    HW225737   3.673   4.218   1.845 -0.0698 -1.3072 -1.8408
 4759SOL     OW25738   0.462   2.396   9.683  0.1663 -0.4247  0.4435
 4759SOL    HW125739   0.424   2.478   9.651  0.9504 -1.0773 -2.1781
 4759SOL    HW225740   0.384   2.344   9.701 -0.0706 -0.6798 -1.2906
 4760SOL     OW25741   1.098   1.079  10.718  0.2509 -0.3436  0.3961
 4760SOL    HW125742   1.104   1.111  10.807  0.4444 -0.3246  0.3762
 4760SOL    HW225743   1.158   1.004  10.714  0.9094  0.3040 -2.1394
 4761SOL     OW25744   0.037   4.332   8.768  0.1845 -0.1883  0.2220
 4761SOL    HW125745   0.126   4.363   8.753  0.4943 -1.2722 -0.1265
 4761SOL    HW225746   4.718   4.416   8.793 -1.1973 -1.0046  0.8778
 4762SOL     OW25747   3.884   3.413  13.659 -0.0763 -0.1710  0.2319
 4762SOL    HW125748   3.916   3.501  13.681  2.5372 -0.8425 -0.8138
 4762SOL    HW225749   3.813   3.424  13.597 -1.8561 -2.2226  1.9123
 4763SOL     OW25750   1.122   2.798   6.767  0.8907 -0.1966 -0.3985
 4763SOL    HW125751   1.154   2.838   6.848  0.2728 -1.1936  0.3321
 4763SOL    HW225752   1.185   2.842   6.709  0.7616  0.4023 -0.0872
 4764SOL     OW25753   2.234   3.012   3.816  0.3433  0.4515  0.1099
 4764SOL    HW125754   2.193   3.094   3.790  0.0610  0.2410 -0.1088
 4764SOL    HW225755   2.316   3.040   3.857 -0.0006  1.6249  0.0048
 4765SOL     OW25756   0.520   1.534   9.778  0.0138  0.5001 -0.2326
 4765SOL    HW125757   0.427   1.528   9.804  0.2126  3.3255  1.1448
 4765SOL    HW225758   0.525   1.542   9.683  0.4672  0.8632 -0.1773
 4766SOL     OW25759   1.265   1.662  10.383 -0.5472  0.0478 -0.2655
 4766SOL    HW125760   1.276   1.756  10.370 -0.9043 -0.1978 -2.3020
 4766SOL    HW225761   1.350   1.631  10.355  0.0662 -2.0985  3.9572
 4767SOL     OW25762   3.362   4.059   1.305 -0.6886 -0.2954  0.0529
 4767SOL    HW125763   3.412   4.004   1.245 -1.4396  0.1869 -1.0059
 4767SOL    HW225764   3.302   3.997   1.346 -0.0883 -0.4830  0.6513
 4768SOL     OW25765   1.858   3.791   4.191  0.7659  0.5241 -0.1006
 4768SOL    HW125766   1.776   3.831   4.219  0.3889 -0.9012  0.8441
 4768SOL    HW225767   1.841   3.697   4.198  0.7539  0.5934  0.8604
 4769SOL     OW25768   1.066   3.875   7.901 -0.3715  0.6696  0.1492
 4769SOL    HW125769   1.074   3.948   7.964 -0.5406 -0.7969  1.8664
 4769SOL    HW225770   1.062   3.805   7.966 -0.2290  3.0622  2.7269
 4770SOL     OW25771   0.519   0.665  15.449 -0.0238  0.4276  0.4523
 4770SOL    HW125772   0.542   0.739  15.392  0.4123 -0.3235 -0.3660
 4770SOL    HW225773   0.574   0.681  15.526  0.9343 -3.3048  0.5954
 4771SOL     OW25774   1.654   1.550   9.177  0.1256  0.3543  0.8017
 4771SOL    HW125775   1.575   1.506   9.209  1.0207 -1.5686  0.3592
 4771SOL    HW225776   1.649   1.628   9.232  0.4801  1.3507 -0.5845
 4772SOL     OW25777   3.180   3.951   6.806  0.2980  0.2003 -0.4406
 4772SOL    HW125778   3.200   3.886   6.739  1.5847  2.2669 -2.0661
 4772SOL    HW225779   3.104   3.909   6.846  2.7830 -4.1523 -0.3374
 4773SOL     OW25780   3.250   3.197   5.795  0.1507 -0.2663  0.4632
 4773SOL    HW125781   3.308   3.151   5.735  1.5152  1.5969  0.3635
 4773SOL    HW225782   3.305   3.250   5.852  0.8353 -1.0501  0.5407
 4774SOL     OW25783   3.265   4.266  13.455  0.8502  0.1356  0.3036
 4774SOL    HW125784   3.253   4.187  13.508 -1.6921 -0.3410 -0.9760
 4774SOL    HW225785   3.268   4.227  13.368 -2.6420  0.5921 -0.0355
 4775SOL     OW25786   1.026   0.550  10.366 -0.3000  0.1932  0.1016
 4775SOL    HW125787   1.121   0.545  10.367 -0.2817  0.6056  0.9819
 4775SOL    HW225788   1.007   0.644  10.365 -3.9655 -0.5317 -0.5070
 4776SOL     OW25789   3.347   2.658   2.951  0.5949  0.2874  0.0316
 4776SOL    HW125790   3.259   2.672   2.918  0.0359 -1.5172  0.7831
 4776SOL    HW225791   3.398   2.716   2.894  1.2121  0.2475  0.5398
 4777SOL     OW25792   0.095   2.134  17.394  0.0423 -0.1306 -0.2113
 4777SOL    HW125793   0.041   2.198  17.348  1.2904 -0.7970 -2.6253
 4777SOL    HW225794   0.182   2.174  17.385  0.6409 -1.6391 -1.2611
 4778SOL     OW25795   2.026   3.184   3.823  0.2396  0.0007  0.3682
 4778SOL    HW125796   1.957   3.225   3.772  0.4118 -0.6474 -0.3835
 4778SOL    HW225797   1.966   3.154   3.891 -1.1032  0.5110 -0.6121
 4779SOL     OW25798   4.141   3.140  11.047  0.0390  0.0247 -0.0788
 4779SOL    HW125799   4.186   3.079  11.106 -1.4292 -2.1437 -1.2184
 4779SOL    HW225800   4.133   3.084  10.971 -0.1009 -0.0102 -0.0380
 4780SOL     OW25801   2.748   1.971   7.253 -0.4322 -0.0109 -0.5097
 4780SOL    HW125802   2.755   2.000   7.162 -0.4892 -1.2312 -0.9005
 4780SOL    HW225803   2.722   1.879   7.244 -1.8468  0.3444 -0.1123
 4781SOL     OW25804   4.119   3.878   4.245 -0.2895  0.1288 -0.4674
 4781SOL    HW125805   4.169   3.797   4.233 -1.2456 -0.9780  2.9683
 4781SOL    HW225806   4.184   3.915   4.305  0.7844 -1.3737 -0.6889
 4782SOL     OW25807   0.685   4.310   8.317  0.7060 -0.1144  0.0691
 4782SOL    HW125808   0.768   4.279   8.281  1.8591  0.1505  2.4919
 4782SOL    HW225809   0.718   4.392   8.356  4.6689 -2.5703  1.8757
 4783SOL     OW25810   1.940   2.200   3.378 -0.6829  0.2389  1.1794
 4783SOL    HW125811   1.988   2.175   3.456  0.4831 -0.2980  0.2820
 4783SOL    HW225812   1.941   2.295   3.395  0.1114  0.5666 -0.7302
 4784SOL     OW25813   0.733   1.637   0.440 -0.1988 -0.0138 -0.6250
 4784SOL    HW125814   0.777   1.623   0.524 -1.0364 -0.1901 -0.2228
 4784SOL    HW225815   0.703   1.548   0.420 -0.8572  0.9692 -4.1594
 4785SOL     OW25816   0.741   3.191   6.896 -0.0201 -0.7620  0.2306
 4785SOL    HW125817   0.708   3.173   6.984 -1.4953  0.8366  0.0259
 4785SOL    HW225818   0.773   3.106   6.866  0.1684  0.1237 -2.0840
 4786SOL     OW25819   3.400   0.988  11.263 -0.6144 -0.5873 -0.0878
 4786SOL    HW125820   3.432   1.029  11.183 -0.4420  1.5677  1.0942
 4786SOL    HW225821   3.424   0.898  11.242  0.1647 -0.0941 -1.2871
 4787SOL     OW25822   2.462   2.209   2.937  0.0802  0.2156 -0.1259
 4787SOL    HW125823   2.388   2.241   2.989 -2.5187 -4.5320 -0.9342
 4787SOL    HW225824   2.524   2.283   2.939  1.2977 -0.7831 -0.9878
 4788SOL     OW25825   2.544   0.278  14.068  0.0135 -0.2948  0.2425
 4788SOL    HW125826   2.508   0.293  14.155 -0.6471 -1.3780  0.1608
 4788SOL    HW225827   2.515   0.189  14.050 -1.3948  0.1178  0.5024
 4789SOL     OW25828   4.008   4.493  11.122  0.8794  0.1184  0.0700
 4789SOL    HW125829   4.090   4.444  11.122  1.1146  0.5126 -0.0786
 4789SOL    HW225830   3.954   4.446  11.059  0.5570 -1.8676  1.8266
 4790SOL     OW25831   2.546   1.578  13.110 -0.1678  0.0389  0.0897
 4790SOL    HW125832   2.564   1.510  13.045 -0.1699 -0.5058  0.6631
 4790SOL    HW225833   2.636   1.604  13.132  0.3816 -1.6937 -0.1052
 4791SOL     OW25834   4.604   3.204  14.201  0.3975  0.0180 -0.6680
 4791SOL    HW125835   4.553   3.257  14.263 -0.3302 -0.4921 -0.8426
 4791SOL    HW225836   4.531   3.168  14.152 -0.3223 -0.7720  0.9815
 4792SOL     OW25837   2.030   2.994   7.786 -0.0011 -0.2609  0.4846
 4792SOL    HW125838   2.083   3.050   7.842  1.4388  0.6155 -1.7808
 4792SOL    HW225839   1.943   3.033   7.789 -1.6787 -3.8637 -0.3000
 4793SOL     OW25840   0.434   4.231   5.884 -0.4839 -0.3627  0.6145
 4793SOL    HW125841   0.485   4.153   5.907 -0.3955 -1.0266 -1.8890
 4793SOL    HW225842   0.444   4.274   5.970 -0.1512 -2.6296  1.7200
 4794SOL     OW25843   2.724   2.796  13.443  0.5028  0.2099  0.5769
 4794SOL    HW125844   2.712   2.853  13.367  1.6787  0.4113  0.5553
 4794SOL    HW225845   2.634   2.789  13.476  1.0713 -1.3212  1.7567
 4795SOL     OW25846   0.479   4.357  14.154  0.0020 -0.3051  0.2132
 4795SOL    HW125847   0.465   4.297  14.227  0.1957 -1.1040 -0.4098
 4795SOL    HW225848   0.529   4.424  14.201  0.0780 -0.0529 -0.2351
 4796SOL     OW25849   1.217   2.116   9.694  0.0673  0.5296  0.5235
 4796SOL    HW125850   1.138   2.130   9.643  0.5182  2.6219  0.4120
 4796SOL    HW225851   1.270   2.192   9.669  0.5887 -0.0733 -0.2115
 4797SOL     OW25852   0.902   0.970   9.464 -0.3258  0.3304  0.0692
 4797SOL    HW125853   0.902   1.031   9.537 -0.1556 -1.3809  1.4932
 4797SOL    HW225854   0.812   0.942   9.479 -0.3447  1.9559  3.0173
 4798SOL     OW25855   3.419   1.655   1.930 -0.5063  0.0136 -0.4014
 4798SOL    HW125856   3.431   1.745   1.900 -0.5940 -0.1981 -1.0678
 4798SOL    HW225857   3.485   1.645   1.999 -0.1786  1.0181 -0.5693
 4799SOL     OW25858   1.027   4.623  11.819  0.1140 -0.3586  0.3471
 4799SOL    HW125859   1.058   4.592  11.904  0.7714  3.5091  1.5036
 4799SOL    HW225860   1.106   4.673  11.796  2.4404 -3.4579  1.5429
 4800SOL     OW25861   0.029   1.185   6.161 -0.2593 -0.5002 -0.3859
 4800SOL    HW125862   0.116   1.148   6.179 -0.4983 -0.3545  1.0593
 4800SOL    HW225863   0.051   1.275   6.182  4.2755 -1.2936 -1.7043
 4801SOL     OW25864   1.918   4.060  14.298 -0.0673 -0.0681  0.0313
 4801SOL    HW125865   1.916   4.087  14.207 -1.7696  0.6203  0.2590
 4801SOL    HW225866   1.915   4.145  14.341  0.3660 -0.2419  0.4101
 4802SOL     OW25867   0.778   3.887   5.956 -0.2736  0.0987  0.1356
 4802SOL    HW125868   0.702   3.941   5.974 -0.5298 -0.3042  0.2761
 4802SOL    HW225869   0.747   3.797   5.969 -0.1168 -0.3691 -2.6290
 4803SOL     OW25870   1.907   3.098  15.759 -0.3105 -0.0873  0.2702
 4803SOL    HW125871   1.963   3.064  15.689 -0.7251 -0.3914  0.0869
 4803SOL    HW225872   1.931   3.028  15.819 -0.5297  0.3716  0.8952
 4804SOL     OW25873   2.255   3.928   5.681  0.0056  0.7841 -0.3893
 4804SOL    HW125874   2.343   3.898   5.703 -0.2101  1.6751  1.7284
 4804SOL    HW225875   2.222   3.848   5.641  1.2186  0.5697 -0.9588
 4805SOL     OW25876   2.405   1.731   2.421  0.1832  0.2244 -0.2635
 4805SOL    HW125877   2.373   1.765   2.337 -0.1731  1.7783  0.4994
 4805SOL    HW225878   2.427   1.812   2.468  1.4427 -0.8957  1.0839
 4806SOL     OW25879   4.484   3.735   3.791  0.5678 -0.0803 -0.2530
 4806SOL    HW125880   4.426   3.746   3.717  0.1179  2.3639  0.4599
 4806SOL    HW225881   4.530   3.652   3.781 -0.1983 -0.5381 -0.0022
 4807SOL     OW25882   2.377   2.891   5.754  0.0160 -0.0063  0.3568
 4807SOL    HW125883   2.407   2.839   5.829  0.3644  0.4662  0.5464
 4807SOL    HW225884   2.413   2.976   5.777  0.4471  0.1639 -0.9707
 4808SOL     OW25885   3.465   4.103   3.765 -0.0377  0.0127 -0.2692
 4808SOL    HW125886   3.506   4.165   3.705 -0.2489  0.6347  0.2244
 4808SOL    HW225887   3.428   4.040   3.703 -0.5054  1.6840 -1.6799
 4809SOL     OW25888   1.862   4.634  11.167  0.1693 -0.0390  0.2144
 4809SOL    HW125889   1.895   4.632  11.077 -0.9606 -2.9578 -0.1470
 4809SOL    HW225890   1.795   4.568  11.152 -0.5200  0.3393  1.6674
 4810SOL     OW25891   4.186   4.203   4.853  0.6612  0.3138  0.0774
 4810SOL    HW125892   4.277   4.213   4.824  0.3914  2.2120 -0.1592
 4810SOL    HW225893   4.153   4.292   4.837  1.7955  0.6787 -0.2396
 4811SOL     OW25894   0.589   3.386   4.373  0.4775  0.5554 -0.2905
 4811SOL    HW125895   0.648   3.396   4.299  0.5188 -1.6734 -0.5630
 4811SOL    HW225896   0.531   3.462   4.370 -0.0907  0.1500  0.2771
 4812SOL     OW25897   3.387   2.598   8.498 -0.1613 -0.3065 -0.0270
 4812SOL    HW125898   3.456   2.532   8.507 -0.4846 -0.5784  0.4111
 4812SOL    HW225899   3.442   2.671   8.467  0.6041  0.3721  2.9268
 4813SOL     OW25900   1.322   2.649  13.932 -0.2650 -0.1089 -0.0302
 4813SOL    HW125901   1.391   2.659  13.866 -0.1930  0.4856  0.1369
 4813SOL    HW225902   1.250   2.603  13.889 -0.9926  1.2254 -0.2217
 4814SOL     OW25903   0.615   4.399   4.726  0.1292 -0.5952 -0.7938
 4814SOL    HW125904   0.635   4.382   4.818 -3.8544  0.9171  0.3254
 4814SOL    HW225905   0.649   4.319   4.685 -2.6573 -0.9704 -2.3178
 4815SOL     OW25906   3.472   3.218   2.593 -0.5696  0.3743 -0.1032
 4815SOL    HW125907   3.484   3.158   2.519 -1.5774  0.2615 -0.1741
 4815SOL    HW225908   3.550   3.211   2.649 -1.9212 -1.9788  1.5189
 4816SOL     OW25909   1.078   1.427  15.811 -0.2319  0.1523  0.0238
 4816SOL    HW125910   1.115   1.510  15.783  2.2160 -0.5984  1.0053
 4816SOL    HW225911   0.988   1.458  15.818 -0.1837  0.2562  0.1814
 4817SOL     OW25912   3.242   2.787   4.588  0.4032 -0.1528  0.0450
 4817SOL    HW125913   3.176   2.722   4.613  1.5775 -0.6977  1.6918
 4817SOL    HW225914   3.293   2.741   4.522  1.3326  0.3359  0.4336
 4818SOL     OW25915   2.463   1.064   3.244  0.0183  0.4598  0.0140
 4818SOL    HW125916   2.558   1.058   3.244  0.0120  0.3532  0.8492
 4818SOL    HW225917   2.438   1.122   3.172  0.9533  0.4915 -0.2846
 4819SOL     OW25918   3.627   3.129   3.790 -0.4092  0.1757  0.6227
 4819SOL    HW125919   3.583   3.202   3.833  0.7060  1.4989 -0.4689
 4819SOL    HW225920   3.720   3.140   3.812  0.0412 -0.4810 -0.9333
 4820SOL     OW25921   1.839   1.723   4.840 -0.2839  0.1476 -0.1968
 4820SOL    HW125922   1.908   1.788   4.824 -0.9809  0.9339 -0.0319
 4820SOL    HW225923   1.869   1.665   4.910  0.4368  1.4659  0.6003
 4821SOL     OW25924   0.957   3.897   1.074  0.8063 -0.3974 -0.0197
 4821SOL    HW125925   0.910   3.948   1.008  0.9403  0.9523  0.9169
 4821SOL    HW225926   0.990   3.956   1.142  2.4744 -3.3775  1.7678
 4822SOL     OW25927   2.478   4.665   2.349  0.2632 -0.6154  0.2248
 4822SOL    HW125928   2.441   4.580   2.375 -0.3318 -0.7287 -0.9834
 4822SOL    HW225929   2.405   4.683   2.289 -1.0015 -0.3524  1.8381
 4823SOL     OW25930   2.694   1.741  15.079 -0.0642  0.1134 -0.1212
 4823SOL    HW125931   2.631   1.811  15.069  0.3122  0.5033  0.2443
 4823SOL    HW225932   2.643   1.674  15.124  0.8953 -0.4194  0.1897
 4824SOL     OW25933   0.133   2.942   1.420 -0.0691  0.2786  0.3744
 4824SOL    HW125934   0.046   2.982   1.414  0.4643  0.7379 -3.8556
 4824SOL    HW225935   0.120   2.856   1.381  0.6442 -0.2632  1.3305
 4825SOL     OW25936   0.073   4.090   4.172 -0.3040  0.0748 -0.4478
 4825SOL    HW125937   0.001   4.089   4.108  0.4317 -5.6936 -1.2272
 4825SOL    HW225938   0.083   4.182   4.197  4.1758 -0.3811 -0.6918
 4826SOL     OW25939   3.259   1.876   9.398  0.4365 -0.4733 -0.2732
 4826SOL    HW125940   3.273   1.963   9.437  3.2504 -2.0216  2.1299
 4826SOL    HW225941   3.195   1.904   9.332  2.3527  2.8393 -0.7400
 4827SOL     OW25942   2.280   2.948  15.230 -0.2194  0.1698 -0.2795
 4827SOL    HW125943   2.190   2.979  15.217  0.0110  1.0348  0.1614
 4827SOL    HW225944   2.319   3.019  15.282 -1.8215 -0.4197  1.7169
 4828SOL     OW25945   4.352   1.034   6.172  0.8964  0.1797 -0.3900
 4828SOL    HW125946   4.329   1.071   6.087 -1.1662  0.9238  0.4751
 4828SOL    HW225947   4.294   0.957   6.168  1.2120 -0.0839  0.0736
 4829SOL     OW25948   0.622   3.645   0.124  0.0267  0.2976 -0.0279
 4829SOL    HW125949   0.633   3.564   0.073  4.8305  0.5297  0.5910
 4829SOL    HW225950   0.594   3.613   0.209  3.0376  1.5489  1.4339
 4830SOL     OW25951   2.108   4.027   4.709 -0.4776 -0.5908 -0.2730
 4830SOL    HW125952   2.015   4.007   4.718 -0.5239  0.0188  0.6390
 4830SOL    HW225953   2.130   4.079   4.787 -1.5689  0.0348 -0.3739
 4831SOL     OW25954   0.131   0.797  17.280  0.2786 -0.2949  0.1577
 4831SOL    HW125955   0.175   0.753  17.207 -3.2141 -2.1002 -0.8938
 4831SOL    HW225956   0.180   0.879  17.279  1.3767 -0.9427  1.4841
 4832SOL     OW25957   3.355   3.971  12.134 -0.2493  0.3436  0.6088
 4832SOL    HW125958   3.400   3.914  12.072 -1.4263 -1.5636  1.5190
 4832SOL    HW225959   3.336   3.910  12.205 -1.6184  0.5463  0.4182
 4833SOL     OW25960   4.612   0.639   9.827  0.0180 -0.3462  0.4456
 4833SOL    HW125961   4.599   0.642   9.922  1.6764 -1.4882  0.6995
 4833SOL    HW225962   4.655   0.557   9.805 -0.7499  0.1141 -2.6687
 4834SOL     OW25963   1.693   0.047   6.397 -0.0383  0.2364  0.6710
 4834SOL    HW125964   1.611   4.717   6.405 -0.6577  0.8485 -1.8197
 4834SOL    HW225965   1.727   0.043   6.486  1.2598 -0.4232  0.1407
 4835SOL     OW25966   3.853   1.482   2.583  0.0503  0.3097 -0.3904
 4835SOL    HW125967   3.891   1.432   2.655 -0.5500 -0.3717 -0.5480
 4835SOL    HW225968   3.771   1.435   2.565 -0.1913  0.8225 -0.6303
 4836SOL     OW25969   3.620   3.354   8.903 -0.6283  0.2092 -0.1687
 4836SOL    HW125970   3.526   3.365   8.917 -0.5237  0.5109  0.2930
 4836SOL    HW225971   3.633   3.318   8.991 -1.1403  1.4983  0.4295
 4837SOL     OW25972   3.738   2.366   6.210 -0.0153 -0.7881  0.3170
 4837SOL    HW125973   3.788   2.366   6.129  1.6176  1.9801  1.3350
 4837SOL    HW225974   3.663   2.417   6.180  0.5756 -1.1326 -1.7419
 4838SOL     OW25975   1.170   1.130  10.284  0.6384 -0.6966  0.0073
 4838SOL    HW125976   1.127   1.175  10.357  1.9504  2.2196 -1.0414
 4838SOL    HW225977   1.242   1.080  10.323  1.3406  0.2175 -0.1117
 4839SOL     OW25978   1.991   3.215   7.508  0.4016 -0.4533  0.6434
 4839SOL    HW125979   2.017   3.215   7.600  2.3236 -0.9550  0.0991
 4839SOL    HW225980   2.069   3.254   7.468 -1.0064 -0.4748 -2.1817
 4840SOL     OW25981   3.963   4.255   2.280 -0.2863  0.0590  0.2848
 4840SOL    HW125982   3.950   4.253   2.185 -2.9901 -1.2062  0.6649
 4840SOL    HW225983   3.880   4.223   2.316 -0.6938 -0.1752 -0.8467
 4841SOL     OW25984   4.599   1.905   4.383 -0.3955 -0.6153 -0.4411
 4841SOL    HW125985   4.520   1.853   4.372 -0.4726 -0.6125  0.1371
 4841SOL    HW225986   4.606   1.963   4.307 -3.9265  0.0829 -0.2281
 4842SOL     OW25987   0.461   4.349   3.232 -0.2943  0.2626  0.1920
 4842SOL    HW125988   0.412   4.278   3.274 -1.6996  1.6011  0.8388
 4842SOL    HW225989   0.547   4.314   3.209 -1.5713 -1.9656 -1.2386
 4843SOL     OW25990   2.348   1.490   4.297  0.7347  0.0824 -0.1892
 4843SOL    HW125991   2.294   1.413   4.276  1.9174 -0.5413 -0.9019
 4843SOL    HW225992   2.336   1.487   4.392 -0.7832  1.7951 -0.3279
 4844SOL     OW25993   2.800   0.723   9.042 -0.7666  0.0474  0.3817
 4844SOL    HW125994   2.853   0.758   8.971 -1.5029  0.5828  0.1005
 4844SOL    HW225995   2.721   0.774   9.028 -0.1353  0.6546 -0.8939
 4845SOL     OW25996   1.756   1.886   6.366 -0.5610 -0.4143  0.3415
 4845SOL    HW125997   1.662   1.897   6.372 -0.3317  0.2676  2.7148
 4845SOL    HW225998   1.760   1.795   6.336 -0.9146 -0.0282 -0.8691
 4846SOL     OW25999   2.301   3.780   7.576 -0.1494  0.5859  0.2129
 4846SOL    HW126000   2.210   3.751   7.579  0.8023 -2.1603  2.1880
 4846SOL    HW226001   2.341   3.734   7.650 -1.1626  1.0136  1.0334
 4847SOL     OW26002   1.092   2.986   5.723  0.0442 -0.6228  0.2861
 4847SOL    HW126003   1.168   2.987   5.666 -0.4278 -0.8179 -0.3506
 4847SOL    HW226004   1.017   2.954   5.671  0.0577  0.5322 -0.4376
 4848SOL     OW26005   1.684   1.997   6.865 -0.2180  0.1429 -0.2370
 4848SOL    HW126006   1.750   1.979   6.932  0.7808  0.5269 -1.1289
 4848SOL    HW226007   1.605   1.979   6.917  0.7180 -1.3307  0.6678
 4849SOL     OW26008   1.878   0.142  17.418 -0.1003 -0.0127  0.2158
 4849SOL    HW126009   1.851   0.103  17.335 -0.9882  0.6159  0.2090
 4849SOL    HW226010   1.966   0.170  17.393 -0.2326 -1.0066 -1.3706
 4850SOL     OW26011   2.465   1.015  14.595  0.2197  0.0164 -0.0900
 4850SOL    HW126012   2.516   1.081  14.549  1.4017 -0.9552 -0.1556
 4850SOL    HW226013   2.418   1.073  14.655  0.2389 -0.9408  0.8540
 4851SOL     OW26014   1.070   0.813  16.733  0.1791  0.5427  0.2110
 4851SOL    HW126015   0.990   0.790  16.686  1.3078 -0.2042 -1.3350
 4851SOL    HW226016   1.039   0.893  16.775  0.0354  0.3863  0.3971
 4852SOL     OW26017   1.412   2.674   6.419 -0.1755 -0.0644  0.2052
 4852SOL    HW126018   1.435   2.587   6.388 -0.0388 -1.2314  3.5440
 4852SOL    HW226019   1.428   2.735   6.347 -0.4303 -1.8573 -1.3569
 4853SOL     OW26020   3.751   1.983  12.168 -0.5079 -0.2221 -0.6407
 4853SOL    HW126021   3.829   1.982  12.113  0.0779  0.5164  0.1632
 4853SOL    HW226022   3.779   1.913  12.228 -1.0514  1.5458  1.6886
 4854SOL     OW26023   0.259   3.275   3.465  0.4760  0.2316  0.2016
 4854SOL    HW126024   0.206   3.196   3.458 -0.9651  1.2674 -0.6769
 4854SOL    HW226025   0.200   3.333   3.513 -1.7018 -0.6704 -1.3560
 4855SOL     OW26026   1.514   0.011   0.137 -0.1878  0.2575  0.1142
 4855SOL    HW126027   1.552   0.056   0.213  0.4339  1.4510 -0.8902
 4855SOL    HW226028   1.472   0.077   0.081 -2.0761  0.0332  1.2838
 4856SOL     OW26029   2.259   3.033   2.769  0.3892  0.6780 -0.4852
 4856SOL    HW126030   2.182   3.082   2.740 -0.9047 -1.5479 -0.7880
 4856SOL    HW226031   2.231   3.017   2.859  0.2447 -2.9046 -1.1952
 4857SOL     OW26032   1.078   2.837   4.062  0.0105  0.2802 -0.7141
 4857SOL    HW126033   1.139   2.799   3.998  0.4072 -1.0049  0.4252
 4857SOL    HW226034   1.103   2.929   4.051 -0.8418  0.7013  0.9727
 4858SOL     OW26035   0.476   2.298   2.745  0.1664 -0.0188  0.1425
 4858SOL    HW126036   0.496   2.211   2.779  0.6533  0.3059  0.6762
 4858SOL    HW226037   0.549   2.344   2.787  0.0630  0.5783 -0.3337
 4859SOL     OW26038   1.429   4.451  16.699 -0.5867 -0.5898 -1.3156
 4859SOL    HW126039   1.459   4.383  16.640  0.8643  0.1935 -1.4718
 4859SOL    HW226040   1.355   4.405  16.741  0.5697 -1.0379  0.2608
 4860SOL     OW26041   3.237   4.336  11.620  0.4882  0.4612  0.2836
 4860SOL    HW126042   3.161   4.287  11.653  0.4477  0.6502  0.4762
 4860SOL    HW226043   3.223   4.358  11.528 -3.0322 -0.2797  0.6465
 4861SOL     OW26044   2.165   1.821   7.812  0.2364  0.3164 -0.1168
 4861SOL    HW126045   2.208   1.737   7.830  0.4831  0.2951 -0.8143
 4861SOL    HW226046   2.107   1.812   7.736 -0.7256 -0.4295  0.7066
 4862SOL     OW26047   0.433   2.844   8.519  0.5587 -0.2031 -0.1997
 4862SOL    HW126048   0.525   2.825   8.501  1.3885  0.8298  2.9065
 4862SOL    HW226049   0.379   2.771   8.487 -0.1973  1.0235 -1.7561
 4863SOL     OW26050   3.011   1.263   6.744  0.2345 -0.2922  0.1107
 4863SOL    HW126051   3.089   1.314   6.767  0.9299 -1.2171 -0.2193
 4863SOL    HW226052   2.954   1.340   6.742 -0.1643 -0.5685  0.8912
 4864SOL     OW26053   1.507   3.833   4.890 -0.4693 -0.0443 -0.0105
 4864SOL    HW126054   1.589   3.814   4.937 -1.1945 -2.5802  0.2405
 4864SOL    HW226055   1.530   3.883   4.812  1.5890 -1.5508 -0.3846
 4865SOL     OW26056   2.191   3.479   2.673 -0.2623 -0.1393 -0.6190
 4865SOL    HW126057   2.271   3.513   2.631  0.3185  1.8164  2.0630
 4865SOL    HW226058   2.196   3.388   2.644 -1.3555 -0.3102 -0.2500
 4866SOL     OW26059   1.928   0.029   1.611 -0.2945  0.2987 -0.6925
 4866SOL    HW126060   1.965   4.667   1.645  0.8858  0.4234 -1.6801
 4866SOL    HW226061   1.875   0.005   1.535 -0.4829 -1.1303 -0.1211
 4867SOL     OW26062   0.702   0.047   0.824  0.2711 -0.4216  0.2330
 4867SOL    HW126063   0.657   0.113   0.876  2.3054 -0.4100  1.9882
 4867SOL    HW226064   0.659   0.062   0.740 -0.9387 -0.1334  0.9050
 4868SOL     OW26065   0.855   0.431   0.343 -0.0498  0.4764  0.5325
 4868SOL    HW126066   0.823   0.350   0.381 -0.9431  1.4589  1.8842
 4868SOL    HW226067   0.935   0.399   0.303 -0.0372  2.1276 -0.7781
 4869SOL     OW26068   2.384   2.223   2.387  0.4112 -0.1045 -0.2849
 4869SOL    HW126069   2.449   2.252   2.324  0.8785  1.1263  0.7523
 4869SOL    HW226070   2.443   2.192   2.456 -3.5018 -1.3377  2.4971
 4870SOL     OW26071   3.955   3.088   4.442  0.3295  0.1147 -0.3054
 4870SOL    HW126072   3.863   3.073   4.420 -0.2374 -0.6663  2.5778
 4870SOL    HW226073   3.992   3.123   4.360 -1.2255 -0.2613 -1.1677
 4871SOL     OW26074   3.170   1.257   5.971 -0.2098  0.0375  0.3806
 4871SOL    HW126075   3.152   1.308   5.892 -0.2719 -1.4181 -0.5426
 4871SOL    HW226076   3.244   1.310   6.001  0.1038  1.0186 -2.0916
 4872SOL     OW26077   4.476   3.951   4.617  0.2054  0.7877 -0.4511
 4872SOL    HW126078   4.556   3.962   4.668  1.2972 -1.0887 -1.7532
 4872SOL    HW226079   4.456   3.857   4.621  0.8300  0.6908  0.2623
 4873SOL     OW26080   2.707   1.613   6.180  0.1832  0.2914 -0.5424
 4873SOL    HW126081   2.731   1.703   6.159 -0.8692  0.5749 -0.5579
 4873SOL    HW226082   2.767   1.555   6.133 -0.9871 -1.6594  0.3305
 4874SOL     OW26083   0.018   1.314   9.316  0.7567 -0.6198  0.1154
 4874SOL    HW126084   0.009   1.235   9.369 -2.3407 -0.1442  0.3002
 4874SOL    HW226085   4.645   1.339   9.311  1.5731  2.5633  1.4591
 4875SOL     OW26086   2.661   3.944  15.686  0.2277  0.7286 -0.0887
 4875SOL    HW126087   2.752   3.938  15.658 -0.1834 -0.0720 -1.2457
 4875SOL    HW226088   2.645   4.038  15.687 -0.5618  0.5921 -0.3360
 4876SOL     OW26089   3.960   0.710   3.264 -0.5490 -0.1982  0.2323
 4876SOL    HW126090   3.957   0.777   3.332  2.0053 -1.4199  1.5237
 4876SOL    HW226091   3.998   0.756   3.190 -0.4679  0.5195  0.7197
 4877SOL     OW26092   4.660   3.961   2.990  0.1350  0.4187 -0.0027
 4877SOL    HW126093   4.585   3.965   2.931  0.8413  0.9580 -0.8629
 4877SOL    HW226094   4.668   3.866   2.998 -0.7305  0.3544  0.1590
 4878SOL     OW26095   0.951   1.834   4.610 -0.4855 -0.0162  0.2155
 4878SOL    HW126096   0.938   1.755   4.663 -1.1238  0.4246  0.7220
 4878SOL    HW226097   0.863   1.872   4.603 -0.5970  0.1457  2.4239
 4879SOL     OW26098   0.605   0.734   8.881  0.1089  1.0611  0.1072
 4879SOL    HW126099   0.653   0.797   8.935  2.4384 -0.2516 -0.4044
 4879SOL    HW226100   0.519   0.753   8.918  0.2128  1.1473  0.3102
 4880SOL     OW26101   2.112   4.479   8.590 -0.0402 -0.2817 -0.0410
 4880SOL    HW126102   2.172   4.518   8.526  0.2087 -2.3378 -1.0539
 4880SOL    HW226103   2.025   4.505   8.560 -0.4284 -0.7961  0.6457
 4881SOL     OW26104   2.143   2.367   2.418 -0.0001 -0.7217  0.1220
 4881SOL    HW126105   2.162   2.458   2.441  1.1094 -1.0508  0.4726
 4881SOL    HW226106   2.230   2.328   2.415  0.4286  0.2004  0.6497
 4882SOL     OW26107   3.806   1.253   1.023 -0.1366  0.3856  0.2721
 4882SOL    HW126108   3.753   1.260   1.102 -0.1711  0.0746  0.2802
 4882SOL    HW226109   3.857   1.175   1.044 -0.4267 -0.0605 -0.6507
 4883SOL     OW26110   1.306   4.403   2.095  0.1237  0.1447 -0.0706
 4883SOL    HW126111   1.372   4.356   2.044  1.2945  1.3349  0.3381
 4883SOL    HW226112   1.359   4.406   2.175  1.0944  2.5041 -0.7943
 4884SOL     OW26113   2.374   0.242   8.373 -0.1735 -0.2437  0.7658
 4884SOL    HW126114   2.305   0.190   8.332 -0.4529  0.7160 -0.0019
 4884SOL    HW226115   2.450   0.209   8.324 -0.3272 -0.3248  0.5830
 4885SOL     OW26116   3.365   0.987   5.513 -0.2600 -0.9564 -0.0144
 4885SOL    HW126117   3.452   1.024   5.525 -0.6047  0.4697 -1.7425
 4885SOL    HW226118   3.364   0.900   5.552  0.6113 -0.0156  2.1085
 4886SOL     OW26119   2.925   1.050   8.425  0.1278 -0.3556 -0.0621
 4886SOL    HW126120   2.948   1.058   8.332 -3.1882 -1.3215 -0.9960
 4886SOL    HW226121   2.844   1.000   8.433 -0.2188 -0.4066 -3.7440
 4887SOL     OW26122   1.010   1.814  10.465  0.2430  0.1945 -0.2876
 4887SOL    HW126123   1.037   1.749  10.400  1.6131 -0.8023  1.2502
 4887SOL    HW226124   0.988   1.754  10.537 -0.1543 -1.7742 -2.0555
 4888SOL     OW26125   1.077   1.246  10.991  0.2230  0.0806 -0.2540
 4888SOL    HW126126   1.017   1.294  11.048 -0.3053  2.3017 -2.6683
 4888SOL    HW226127   1.107   1.182  11.055  3.1274  0.0757 -1.5970
 4889SOL     OW26128   1.409   4.098   1.426  0.4058  0.6066 -0.2310
 4889SOL    HW126129   1.408   4.114   1.332 -0.2556  0.2682 -0.2768
 4889SOL    HW226130   1.356   4.173   1.453  1.0619  0.6255  1.0567
 4890SOL     OW26131   4.691   4.596   3.124 -0.0281  0.5602 -0.3090
 4890SOL    HW126132   4.611   4.558   3.161  0.6296  0.5814  1.1230
 4890SOL    HW226133   0.038   4.532   3.151  0.9439  1.0685 -1.4993
 4891SOL     OW26134   2.354   2.113   3.729 -0.1358  0.0252 -0.5214
 4891SOL    HW126135   2.428   2.158   3.689  1.3039 -0.9923  1.0310
 4891SOL    HW226136   2.326   2.190   3.778  1.0356 -0.6338  1.1926
 4892SOL     OW26137   4.169   3.515   4.718 -0.4291  0.1777 -0.1016
 4892SOL    HW126138   4.210   3.449   4.773 -0.2264  0.7597  0.4357
 4892SOL    HW226139   4.087   3.534   4.764 -1.0916 -0.5982 -0.9549
 4893SOL     OW26140   2.027   0.029  15.172  0.3492 -0.2019  0.0324
 4893SOL    HW126141   2.022   0.092  15.243  2.0587  0.8009 -0.7408
 4893SOL    HW226142   1.937   0.026  15.140  0.2117 -0.3853  0.4328
 4894SOL     OW26143   3.130   1.598   7.251 -0.7186 -0.3910 -0.5725
 4894SOL    HW126144   3.198   1.534   7.269  0.2746  0.8432  0.1028
 4894SOL    HW226145   3.174   1.664   7.196 -1.5814 -0.3876 -1.2537
 4895SOL     OW26146   4.654   0.268   1.829 -0.0727  0.4653 -0.2008
 4895SOL    HW126147   4.632   0.201   1.893 -0.6148 -0.3244 -1.2062
 4895SOL    HW226148   4.650   0.337   1.895  1.1404 -1.1741  1.5924
 4896SOL     OW26149   0.880   4.150   3.992  0.0732  0.4638  0.1210
 4896SOL    HW126150   0.964   4.140   3.947 -0.4838  3.3795 -1.5733
 4896SOL    HW226151   0.823   4.094   3.939 -0.9377  1.8250 -0.2353
 4897SOL     OW26152   3.880   4.664   9.190  0.5657  0.1856  0.3205
 4897SOL    HW126153   3.975   4.660   9.177  0.8644  0.8192  2.1774
 4897SOL    HW226154   3.855   4.666   9.098 -4.0076  2.5850  1.6397
 4898SOL     OW26155   2.642   3.057  11.324 -0.2180 -0.2076  0.1100
 4898SOL    HW126156   2.635   3.153  11.319  0.4455 -0.1589  0.1261
 4898SOL    HW226157   2.647   3.040  11.417 -1.2512 -1.9871 -0.1646
 4899SOL     OW26158   2.419   3.754   6.795 -0.1576  0.4197  0.4428
 4899SOL    HW126159   2.390   3.846   6.799  1.9100  1.1284 -1.0352
 4899SOL    HW226160   2.428   3.739   6.889 -1.3033  0.4461  0.5527
 4900SOL     OW26161   4.382   2.598  15.618  0.3558 -0.1458 -0.1714
 4900SOL    HW126162   4.358   2.561  15.532 -0.8068  1.1107 -0.3901
 4900SOL    HW226163   4.447   2.662  15.590  1.9460 -0.6003  2.5381
 4901SOL     OW26164   0.161   0.309   7.317 -0.5635 -1.2094 -0.3587
 4901SOL    HW126165   0.188   0.298   7.226  0.4239 -0.8937 -0.1127
 4901SOL    HW226166   0.207   0.241   7.366 -0.8299 -0.1849  1.3236
 4902SOL     OW26167   4.427   0.137   0.136 -0.5438  0.7725  0.9771
 4902SOL    HW126168   4.457   0.079   0.206 -0.7879 -1.3694 -0.6979
 4902SOL    HW226169   4.499   0.199   0.137  1.5946 -1.7197  0.2052
 4903SOL     OW26170   1.678   2.586   6.530  0.2136 -0.6204 -0.2368
 4903SOL    HW126171   1.676   2.529   6.453  0.2807  0.4300 -1.0235
 4903SOL    HW226172   1.584   2.590   6.549  0.2967  0.1160  0.0098
 4904SOL     OW26173   3.943   1.089  10.937  0.0307  0.1348 -0.1953
 4904SOL    HW126174   4.024   1.137  10.956  0.3074 -0.7307  0.7962
 4904SOL    HW226175   3.899   1.101  11.021  0.4073 -2.0218  0.3083
 4905SOL     OW26176   1.577   1.476   5.545  0.5050 -0.0597  0.1818
 4905SOL    HW126177   1.628   1.555   5.564 -1.2709  1.3933 -1.1518
 4905SOL    HW226178   1.514   1.508   5.481 -1.4017 -2.1674  1.0130
 4906SOL     OW26179   0.797   0.686   4.565 -0.8622  0.4215 -0.3502
 4906SOL    HW126180   0.776   0.701   4.472  0.4213  0.2621 -0.6723
 4906SOL    HW226181   0.719   0.717   4.611 -0.0266  1.1380  0.5776
 4907SOL     OW26182   1.198   3.817   0.212  0.5313 -0.4847 -0.2197
 4907SOL    HW126183   1.110   3.781   0.224 -0.0119  0.8005 -0.3904
 4907SOL    HW226184   1.242   3.746   0.164 -0.4643 -1.7529  0.7315
 4908SOL     OW26185   2.497   0.721   3.974  0.6066 -0.5016 -0.2071
 4908SOL    HW126186   2.491   0.816   3.980  3.1287 -0.4555  1.4350
 4908SOL    HW226187   2.591   0.711   3.984  0.5384 -0.9426 -0.0020
 4909SOL     OW26188   0.534   2.411   3.122  0.1358  0.5818 -0.2094
 4909SOL    HW126189   0.524   2.502   3.148  0.8277 -0.1120  2.4997
 4909SOL    HW226190   0.575   2.420   3.036 -3.4012  1.7614 -1.7664
 4910SOL     OW26191   0.237   2.450   6.719 -0.1055  0.1607  0.1384
 4910SOL    HW126192   0.209   2.467   6.629 -0.9991  2.7733  0.9344
 4910SOL    HW226193   0.332   2.445   6.707 -0.2115 -0.3811 -0.4592
 4911SOL     OW26194   1.025   4.563   3.449  0.5668  0.2243  0.0309
 4911SOL    HW126195   0.962   4.523   3.509  1.1708  0.8065  1.0653
 4911SOL    HW226196   1.006   4.515   3.369  1.2313 -1.8885  1.1364
 4912SOL     OW26197   3.211   1.444   7.533 -0.0124 -0.5301  0.2221
 4912SOL    HW126198   3.196   1.379   7.602 -1.3885 -1.2537 -0.7504
 4912SOL    HW226199   3.231   1.527   7.574  0.9566 -1.1580  0.9991
 4913SOL     OW26200   2.675   3.560   5.898  0.3369 -0.6734 -0.0267
 4913SOL    HW126201   2.701   3.643   5.859 -2.6017 -1.1263 -2.9310
 4913SOL    HW226202   2.704   3.579   5.987  0.5892 -1.0254 -0.0331
 4914SOL     OW26203   3.193   1.041  13.597  0.5150 -0.8965  0.1423
 4914SOL    HW126204   3.118   1.016  13.651 -0.2260 -0.8110 -0.8473
 4914SOL    HW226205   3.150   1.072  13.517  0.2676 -1.8460 -0.0958
 4915SOL     OW26206   3.365   0.198   5.379  0.0693  0.3495  0.2569
 4915SOL    HW126207   3.302   0.264   5.349 -0.4179 -0.8657 -1.4306
 4915SOL    HW226208   3.386   0.221   5.469 -2.0745  0.5596  0.7045
 4916SOL     OW26209   3.194   2.927   0.262  0.3111  0.5430 -0.0193
 4916SOL    HW126210   3.114   2.978   0.248  1.1120  2.0788  1.0447
 4916SOL    HW226211   3.220   2.906   0.172 -0.4897 -0.1343 -0.0928
 4917SOL     OW26212   0.357   2.037   5.447 -0.0496  0.5803  0.0638
 4917SOL    HW126213   0.270   2.031   5.488  0.7272  3.6021  2.1192
 4917SOL    HW226214   0.337   2.004   5.359  0.4588  0.2249  0.0829
 4918SOL     OW26215   4.307   0.787   4.368  0.2107  0.0901  0.3557
 4918SOL    HW126216   4.248   0.772   4.295  3.0045 -0.6417 -1.7269
 4918SOL    HW226217   4.391   0.746   4.346 -0.1587 -1.1387  1.1928
 4919SOL     OW26218   1.633   4.171  13.630 -0.0991  0.0520 -0.1233
 4919SOL    HW126219   1.662   4.260  13.612  0.0879 -0.1511 -0.8065
 4919SOL    HW226220   1.541   4.168  13.602  0.2022 -0.8857 -1.0013
 4920SOL     OW26221   2.661   2.591  15.282 -0.4567  0.1268 -0.5646
 4920SOL    HW126222   2.610   2.669  15.301 -1.1893 -0.7867  1.2921
 4920SOL    HW226223   2.599   2.534  15.237 -0.5161  0.0209 -0.3490
 4921SOL     OW26224   1.525   0.129   2.827 -0.3935 -0.0238  0.1206
 4921SOL    HW126225   1.598   0.079   2.790  1.4720  1.7719  1.2765
 4921SOL    HW226226   1.572   0.167   2.901  0.1642  1.7477 -1.1355
 4922SOL     OW26227   3.176   1.903   1.567  0.3697 -0.0694  0.2018
 4922SOL    HW126228   3.258   1.891   1.519  0.4556  1.2865  0.0235
 4922SOL    HW226229   3.155   1.810   1.576 -0.7201 -0.0530 -2.1913
 4923SOL     OW26230   4.548   0.447  17.392 -0.0489  0.5719 -0.2620
 4923SOL    HW126231   4.478   0.475  17.333 -0.1122  1.7735  0.3833
 4923SOL    HW226232   4.614   0.511  17.366  1.7270 -0.6612  1.2608
 4924SOL     OW26233   3.822   1.757   9.860  0.3276  0.3923  0.5135
 4924SOL    HW126234   3.757   1.761   9.930 -0.5154 -0.8405 -0.2019
 4924SOL    HW226235   3.903   1.732   9.902  0.7059 -1.6047 -1.3964
 4925SOL     OW26236   2.426   2.408   3.354  0.2172  0.0717 -0.1108
 4925SOL    HW126237   2.433   2.384   3.261  0.8342  1.9053 -0.5536
 4925SOL    HW226238   2.382   2.493   3.354  0.9838  0.4679  1.0004
 4926SOL     OW26239   1.954   3.543  13.733 -0.1714  0.5572  0.1901
 4926SOL    HW126240   1.953   3.638  13.720 -1.8682  0.6502  0.9483
 4926SOL    HW226241   2.014   3.513  13.665 -2.2663 -2.1999 -0.4436
 4927SOL     OW26242   1.503   1.652   4.343  0.4880  0.0257  0.2421
 4927SOL    HW126243   1.456   1.618   4.419  1.5808  0.6413  1.2085
 4927SOL    HW226244   1.541   1.728   4.386  0.4527  0.5996 -0.7429
 4928SOL     OW26245   0.446   1.344  16.546  0.0520 -0.7743  0.3772
 4928SOL    HW126246   0.355   1.342  16.578 -0.7849 -0.0546 -1.9095
 4928SOL    HW226247   0.438   1.279  16.476 -2.4089 -0.1172  0.0288
 4929SOL     OW26248   4.154   0.526   2.209 -0.5569 -0.6462 -0.4935
 4929SOL    HW126249   4.093   0.596   2.186 -1.2035 -1.7216 -2.0606
 4929SOL    HW226250   4.237   0.558   2.175  0.0262 -2.1456 -0.4983
 4930SOL     OW26251   1.433   0.219   4.824 -0.0075  0.3927 -0.1642
 4930SOL    HW126252   1.473   0.277   4.888 -0.3929  0.8434 -0.3317
 4930SOL    HW226253   1.395   0.285   4.766  0.5017  0.2213 -0.6878
 4931SOL     OW26254   2.015   2.209   6.615  0.5553 -0.0673 -0.2748
 4931SOL    HW126255   2.107   2.205   6.641  0.4351  0.7670  0.2607
 4931SOL    HW226256   2.023   2.219   6.520 -1.0406 -0.6078 -0.4653
 4932SOL     OW26257   3.260   2.737  11.427 -0.6416 -0.2249  0.2828
 4932SOL    HW126258   3.312   2.815  11.406 -1.9990  1.1801  2.1847
 4932SOL    HW226259   3.324   2.666  11.421 -0.9127 -0.4211 -0.3215
 4933SOL     OW26260   3.890   2.689  12.995 -0.1455 -0.0488  0.1224
 4933SOL    HW126261   3.977   2.662  13.025 -0.1792 -0.7813 -0.4525
 4933SOL    HW226262   3.837   2.610  13.010 -2.1387  1.3376  0.3497
 4934SOL     OW26263   1.148   4.263   4.066  0.0518 -0.0788  0.5226
 4934SOL    HW126264   1.230   4.275   4.115  0.8301 -0.7373 -0.6034
 4934SOL    HW226265   1.083   4.298   4.127  0.1206 -2.7443  2.1571
 4935SOL     OW26266   2.368   3.820   3.516  0.5323 -0.0876  0.6990
 4935SOL    HW126267   2.419   3.815   3.597  0.4585 -0.9057  0.6919
 4935SOL    HW226268   2.310   3.748   3.540  0.6408 -0.1215  0.8598
 4936SOL     OW26269   2.599   0.419  10.404 -0.2520 -0.0553 -1.2315
 4936SOL    HW126270   2.579   0.376  10.321  0.5401 -1.2282 -0.8147
 4936SOL    HW226271   2.673   0.472  10.372  0.3000 -0.0488  0.0469
 4937SOL     OW26272   3.591   3.660   4.299 -0.0356 -0.3799 -0.6728
 4937SOL    HW126273   3.632   3.588   4.346  0.1880  0.2469  0.0918
 4937SOL    HW226274   3.503   3.626   4.281 -0.1673 -0.3679 -0.0478
 4938SOL     OW26275   0.056   1.143   1.483  0.3173  0.3848  0.7700
 4938SOL    HW126276   0.088   1.158   1.572  3.7829 -1.4740 -0.1735
 4938SOL    HW226277   0.134   1.133   1.428 -1.9447  0.4358 -2.4573
 4939SOL     OW26278   2.674   1.062   6.465  0.5360  1.2156 -0.2948
 4939SOL    HW126279   2.643   1.152   6.475 -0.4804  0.7389  0.8030
 4939SOL    HW226280   2.759   1.063   6.510 -0.3774 -1.0150  1.4238
 4940SOL     OW26281   1.050   2.819  17.308  0.2769  0.2978 -0.5525
 4940SOL    HW126282   1.096   2.754  17.362 -0.1894  0.5316  0.1360
 4940SOL    HW226283   1.077   2.786  17.223 -1.2451 -0.5692 -0.7130
 4941SOL     OW26284   1.573   0.024  16.373  0.0281 -0.3270 -0.3048
 4941SOL    HW126285   1.513   4.687  16.422 -1.9642  1.1044 -1.0892
 4941SOL    HW226286   1.609   0.079  16.442 -1.1025 -2.2926  1.8432
 4942SOL     OW26287   0.808   2.615   2.243 -0.2436 -0.1559  0.2608
 4942SOL    HW126288   0.822   2.576   2.157 -0.2343  0.1942  0.1055
 4942SOL    HW226289   0.726   2.658   2.224  0.7943  1.8133  0.2445
 4943SOL     OW26290   0.876   2.191  10.867 -0.2925  0.2524  0.2838
 4943SOL    HW126291   0.847   2.118  10.922 -0.3376 -0.7193 -1.0322
 4943SOL    HW226292   0.845   2.272  10.908 -0.0951 -0.6626  2.2755
 4944SOL     OW26293   2.634   1.903   8.370  0.6046  0.1274 -0.3534
 4944SOL    HW126294   2.636   1.909   8.465  1.1748 -2.6164 -0.1816
 4944SOL    HW226295   2.670   1.985   8.336 -1.1307  1.5523  1.3124
 4945SOL     OW26296   2.733   0.673   7.174 -0.5663  0.2389  0.5060
 4945SOL    HW126297   2.803   0.729   7.207  0.6684 -0.8696 -0.2272
 4945SOL    HW226298   2.732   0.689   7.079 -0.6545 -0.2848  0.4178
 4946SOL     OW26299   2.435   3.013  14.809  0.1271  0.2657 -0.1286
 4946SOL    HW126300   2.412   2.943  14.748 -1.1825  1.0166 -0.5032
 4946SOL    HW226301   2.484   3.073  14.754 -0.1777  1.0144  0.4207
 4947SOL     OW26302   0.511   4.165   0.683  0.4288  0.1055 -0.1920
 4947SOL    HW126303   0.434   4.133   0.634  1.2975  1.2149 -2.2931
 4947SOL    HW226304   0.493   4.173   0.776  0.1790 -1.8519 -0.0802
 4948SOL     OW26305   4.553   2.740   2.391 -0.3102 -0.0339  0.1013
 4948SOL    HW126306   4.488   2.686   2.437  0.3192  0.5346  1.6554
 4948SOL    HW226307   4.543   2.703   2.303  0.3235 -0.7091  0.3089
 4949SOL     OW26308   4.034   0.590   8.682  0.1675  0.3378 -0.2654
 4949SOL    HW126309   3.949   0.568   8.719 -0.5001 -0.1183 -2.0379
 4949SOL    HW226310   4.022   0.676   8.643 -1.9427 -0.4639 -1.3783
 4950SOL     OW26311   1.926   3.570   9.834  0.3051  0.0711  0.6694
 4950SOL    HW126312   2.014   3.537   9.848  0.2319  0.4157  1.9507
 4950SOL    HW226313   1.873   3.506   9.883 -1.7618  1.6736  0.5482
 4951SOL     OW26314   2.919   1.786  17.569 -0.0779 -0.0232 -0.1802
 4951SOL    HW126315   2.957   1.874  17.574  2.4784 -1.1892  1.0856
 4951SOL    HW226316   2.828   1.805  17.545 -0.3333 -0.1204  0.6861
 4952SOL     OW26317   3.410   2.072   7.005  0.2414 -0.4464  0.2819
 4952SOL    HW126318   3.345   2.123   6.956 -1.0727 -0.3511  2.1131
 4952SOL    HW226319   3.467   2.038   6.936 -3.0861  0.3754 -2.9208
 4953SOL     OW26320   3.229   1.970   2.032 -0.0441  0.0898  0.3779
 4953SOL    HW126321   3.148   2.019   2.017  0.1465  1.0029  2.3636
 4953SOL    HW226322   3.285   2.018   1.971  0.8650  1.9641  2.7124
 4954SOL     OW26323   2.709   4.693  15.442  0.3519 -0.7136  0.5926
 4954SOL    HW126324   2.638   4.666  15.384 -0.4850 -2.3434  2.3974
 4954SOL    HW226325   2.770   0.028  15.391 -1.0878  0.0598 -0.3039
 4955SOL     OW26326   3.498   1.976   9.944  0.0579 -0.6816 -0.0734
 4955SOL    HW126327   3.526   1.896   9.987  1.4968 -0.1728 -0.0767
 4955SOL    HW226328   3.510   2.043  10.011 -2.3964 -0.1605 -0.1493
 4956SOL     OW26329   0.846   1.975   8.899 -0.3468  0.0695  0.1334
 4956SOL    HW126330   0.777   2.041   8.890  0.0775  0.4434 -0.4181
 4956SOL    HW226331   0.928   2.022   8.885 -1.3648  1.0758 -2.4805
 4957SOL     OW26332   3.345   1.622   2.472  0.6779  0.4215  0.3649
 4957SOL    HW126333   3.295   1.703   2.463 -1.2417 -0.7716  0.3514
 4957SOL    HW226334   3.432   1.652   2.499 -0.2956  1.5261  2.3132
 4958SOL     OW26335   3.090   3.112   4.721 -0.5564 -0.0460  0.0787
 4958SOL    HW126336   3.041   3.194   4.726 -2.1133 -1.0552  1.5237
 4958SOL    HW226337   3.045   3.058   4.787  0.7690 -4.0407 -2.2861
 4959SOL     OW26338   2.265   2.884  15.634  0.3496  0.1530  0.0504
 4959SOL    HW126339   2.360   2.877  15.638  0.4590  1.6919  0.1409
 4959SOL    HW226340   2.245   2.832  15.557  0.5928  0.7460 -0.4086
 4960SOL     OW26341   3.279   0.184   6.308  0.2959 -0.2402 -0.3747
 4960SOL    HW126342   3.222   0.112   6.334 -0.6915  0.7920  0.2803
 4960SOL    HW226343   3.261   0.247   6.378 -0.0964 -0.4764 -0.2635
 4961SOL     OW26344   0.804   1.461   1.943 -0.2307 -0.2156  0.5727
 4961SOL    HW126345   0.712   1.488   1.941 -1.1811 -3.6185 -0.9800
 4961SOL    HW226346   0.840   1.545   1.972 -3.3986  1.8075 -1.2788
 4962SOL     OW26347   2.880   1.167   9.366 -0.4956  0.0950  0.4235
 4962SOL    HW126348   2.881   1.185   9.460 -0.6058 -1.6460  0.7528
 4962SOL    HW226349   2.786   1.171   9.350 -0.0752  0.5323 -1.9168
 4963SOL     OW26350   3.434   0.075   1.129  0.0932 -1.2551 -0.4722
 4963SOL    HW126351   3.355   0.123   1.103  1.1935  0.6201 -0.3448
 4963SOL    HW226352   3.413   0.043   1.217 -0.0327  1.1005  0.3447
 4964SOL     OW26353   1.015   0.092   2.213 -0.0372 -0.4121  0.1607
 4964SOL    HW126354   1.085   0.027   2.214  0.5737  0.2598  0.9523
 4964SOL    HW226355   1.054   0.161   2.266 -1.1361  1.0312 -0.8906
 4965SOL     OW26356   0.237   0.080   7.765  0.5841 -0.0195 -0.3442
 4965SOL    HW126357   0.328   0.110   7.764  0.2208  1.0898 -0.1851
 4965SOL    HW226358   0.186   0.154   7.730  2.1114  2.0181  1.7835
 4966SOL     OW26359   3.770   0.690  12.315 -0.2091 -0.0353  0.1696
 4966SOL    HW126360   3.679   0.691  12.288 -0.4449 -0.7443  0.9299
 4966SOL    HW226361   3.782   0.779  12.348 -0.0026 -0.5104  1.3806
 4967SOL     OW26362   2.977   2.488   8.779 -0.4031  0.9364  0.2617
 4967SOL    HW126363   2.907   2.439   8.735  1.4512 -0.1774 -1.4438
 4967SOL    HW226364   3.045   2.493   8.712  0.2717  0.4052  0.9152
 4968SOL     OW26365   1.149   2.989   2.693  0.0016 -0.1694 -0.2363
 4968SOL    HW126366   1.065   2.998   2.647 -0.6551 -2.0809  0.5784
 4968SOL    HW226367   1.213   3.039   2.642  1.7054 -1.5205  0.6014
 4969SOL     OW26368   3.905   1.542  13.037 -0.4168 -0.1801 -0.1461
 4969SOL    HW126369   3.828   1.560  12.983 -0.1218  0.2092 -0.4325
 4969SOL    HW226370   3.904   1.447  13.029 -1.6401 -0.4840  3.6751
 4970SOL     OW26371   4.239   3.802   3.627 -0.2200  0.2859 -0.6020
 4970SOL    HW126372   4.233   3.722   3.575  0.0836  0.0784 -0.3148
 4970SOL    HW226373   4.146   3.826   3.631 -0.1297  0.5762 -0.1802
 4971SOL     OW26374   4.437   3.693   9.867  0.0477 -0.2146  0.3056
 4971SOL    HW126375   4.344   3.714   9.862  0.2203  0.5480  0.2204
 4971SOL    HW226376   4.449   3.753   9.941 -2.6768 -1.0494  1.4167
 4972SOL     OW26377   4.457   0.741  10.941  0.2311  0.1548 -0.2451
 4972SOL    HW126378   4.426   0.826  10.911 -0.6142  1.0214  3.0484
 4972SOL    HW226379   4.411   0.731  11.024  1.4679  0.2889  0.4669
 4973SOL     OW26380   1.367   0.332  15.377  0.6061 -0.0308 -0.7592
 4973SOL    HW126381   1.321   0.265  15.327 -0.6605  0.9005 -0.8262
 4973SOL    HW226382   1.434   0.267  15.400 -0.1723 -0.7950 -0.6511
 4974SOL     OW26383   0.909   2.406  15.131  0.6789  0.2771 -0.2385
 4974SOL    HW126384   0.894   2.500  15.144 -2.4665  0.2505 -3.4483
 4974SOL    HW226385   1.002   2.396  15.149  0.4360  0.5356  1.1941
 4975SOL     OW26386   2.486   3.902   3.266 -1.0417  0.1298  0.4746
 4975SOL    HW126387   2.564   3.956   3.277 -0.2167 -0.9105 -0.3128
 4975SOL    HW226388   2.456   3.888   3.356 -1.5272 -1.2510  0.0922
 4976SOL     OW26389   2.996   0.481  13.594  0.6897  0.9724 -0.4910
 4976SOL    HW126390   3.067   0.502  13.655  0.7798  1.5857 -0.8105
 4976SOL    HW226391   3.048   0.440  13.525  0.9468  0.5213 -0.0314
 4977SOL     OW26392   0.309   1.207  14.875 -0.5012  0.1714 -0.2123
 4977SOL    HW126393   0.304   1.113  14.896  1.7979  0.5833  2.1948
 4977SOL    HW226394   0.368   1.216  14.801  1.1327  0.0474  1.0717
 4978SOL     OW26395   3.425   1.521   1.460 -0.4631  0.1271  0.1879
 4978SOL    HW126396   3.382   1.435   1.456  1.7493 -0.9260 -1.5793
 4978SOL    HW226397   3.418   1.552   1.370  0.6436  2.4532  0.9224
 4979SOL     OW26398   2.138   0.571  13.419  0.3752 -0.0396  0.0846
 4979SOL    HW126399   2.103   0.592  13.333  2.5825  1.9133 -0.3295
 4979SOL    HW226400   2.138   0.662  13.448 -0.4164 -0.1245  0.3640
 4980SOL     OW26401   1.789   2.106   9.458 -0.4593  0.1952 -0.3246
 4980SOL    HW126402   1.740   2.106   9.376  1.0462  1.3661 -1.2263
 4980SOL    HW226403   1.872   2.134   9.421  0.0978 -0.2472  0.5857
 4981SOL     OW26404   4.232   1.422  14.638 -0.1682  0.1873  0.3778
 4981SOL    HW126405   4.316   1.380  14.656 -0.9546 -1.2516  0.7375
 4981SOL    HW226406   4.185   1.343  14.609  3.3399 -1.0359 -1.8780
 4982SOL     OW26407   3.346   4.554   4.034 -0.0156 -0.0962  0.3431
 4982SOL    HW126408   3.308   4.637   4.062 -0.9394  0.1415 -1.6147
 4982SOL    HW226409   3.282   4.499   3.988  3.1599 -2.4110 -1.3850
 4983SOL     OW26410   4.304   1.530   8.537 -0.2378  0.1943 -0.1984
 4983SOL    HW126411   4.248   1.469   8.489  0.1616  0.0969 -0.5403
 4983SOL    HW226412   4.374   1.535   8.472 -1.2880 -3.1110 -1.5948
 4984SOL     OW26413   2.674   4.668   6.489 -0.2980  0.0664 -0.2515
 4984SOL    HW126414   2.648   0.009   6.420  1.8140  1.6951  0.4027
 4984SOL    HW226415   2.719   4.607   6.430  0.4077  1.8115 -1.5140
 4985SOL     OW26416   0.481   2.557   3.491  0.0002  0.0278  0.7059
 4985SOL    HW126417   0.527   2.640   3.480  0.1216 -0.4648 -2.4929
 4985SOL    HW226418   0.399   2.593   3.526 -1.2107 -1.1703 -0.8973
 4986SOL     OW26419   4.128   1.775   9.359 -0.4418 -1.3630  0.2247
 4986SOL    HW126420   4.068   1.751   9.430  0.3511 -0.0561  1.3400
 4986SOL    HW226421   4.132   1.870   9.367  0.1439 -1.2355 -1.7764
 4987SOL     OW26422   0.404   4.115   3.542 -0.3426 -0.0169 -1.0377
 4987SOL    HW126423   0.345   4.133   3.469  1.3369 -0.8519 -2.6043
 4987SOL    HW226424   0.343   4.102   3.615  2.5278 -4.1065  0.6545
 4988SOL     OW26425   3.453   1.804  15.399 -0.5045 -0.1228  0.3483
 4988SOL    HW126426   3.491   1.752  15.328 -2.8413  1.4509 -2.0384
 4988SOL    HW226427   3.370   1.829  15.359  1.0164  1.7410 -1.5746
 4989SOL     OW26428   4.185   4.187   6.186  0.1230 -0.2281  0.3596
 4989SOL    HW126429   4.203   4.240   6.264 -1.2938 -1.8321  1.7903
 4989SOL    HW226430   4.207   4.241   6.110 -1.0928  2.2271  1.7214
 4990SOL     OW26431   2.942   2.166  12.910 -0.0874 -0.6376  0.6859
 4990SOL    HW126432   2.886   2.235  12.944 -1.4891 -1.6118  0.3419
 4990SOL    HW226433   3.004   2.148  12.981 -1.1524 -1.0163  1.5116
 4991SOL     OW26434   4.311   4.422   9.202  0.3017  0.0311  0.3319
 4991SOL    HW126435   4.357   4.472   9.269 -0.3327  2.4629 -1.0393
 4991SOL    HW226436   4.256   4.485   9.155 -0.2215 -0.4247  0.3334
 4992SOL     OW26437   2.592   2.348  12.280  0.1220 -0.1549 -0.9771
 4992SOL    HW126438   2.627   2.282  12.339  1.2063  0.4041 -1.0074
 4992SOL    HW226439   2.557   2.409  12.345  1.4993 -0.5837  0.1486
 4993SOL     OW26440   2.069   2.615  13.461 -0.2756 -0.4446 -0.1090
 4993SOL    HW126441   2.105   2.624  13.372 -0.8351  2.4427 -0.0483
 4993SOL    HW226442   2.009   2.688  13.447  0.6153  0.1451 -0.8581
 4994SOL     OW26443   4.507   1.373   8.935 -0.0387 -0.1008 -0.6568
 4994SOL    HW126444   4.595   1.364   8.971 -0.3802 -0.2338  0.1337
 4994SOL    HW226445   4.497   1.466   8.915 -0.0343 -0.5034 -2.5548
 4995SOL     OW26446   3.089   0.905   3.726 -0.2498 -0.7923  0.2903
 4995SOL    HW126447   3.068   0.903   3.820 -0.5942  0.8023  0.2467
 4995SOL    HW226448   3.045   0.828   3.691 -0.0590 -0.0402 -1.5967
 4996SOL     OW26449   2.174   3.018  14.400  0.1232 -0.0701  0.1450
 4996SOL    HW126450   2.243   3.056  14.454  2.0041  1.6707 -3.4994
 4996SOL    HW226451   2.230   2.975  14.335  0.0074 -0.2781  0.1813
 4997SOL     OW26452   0.554   4.025   6.029 -0.1725 -0.8925 -0.1559
 4997SOL    HW126453   0.487   3.960   6.010 -1.2855 -0.2495  1.5904
 4997SOL    HW226454   0.551   4.024   6.124 -0.4987  1.2235 -0.1388
 4998SOL     OW26455   1.507   1.345  13.876  0.1627  0.2993 -0.1970
 4998SOL    HW126456   1.553   1.407  13.819  1.2953 -0.4617 -0.1066
 4998SOL    HW226457   1.438   1.323  13.814  1.0529  1.3586 -1.5553
 4999SOL     OW26458   0.524   3.747  11.212 -0.2348  0.1349 -0.2576
 4999SOL    HW126459   0.595   3.802  11.248 -2.8769  2.0379  2.0419
 4999SOL    HW226460   0.540   3.756  11.118  2.1122 -0.0690  0.1064
 5000SOL     OW26461   4.137   1.703   5.397  1.0206  0.1764 -0.2213
 5000SOL    HW126462   4.196   1.745   5.334  2.6395 -0.7315  0.6723
 5000SOL    HW226463   4.203   1.638   5.422  2.3967  2.2492  1.6752
 5001SOL     OW26464   4.611   4.304   8.157  0.3253 -0.1295  0.1219
 5001SOL    HW126465   4.539   4.244   8.135 -1.2331  1.7014  0.2312
 5001SOL    HW226466   4.568   4.390   8.162  1.9980  0.6522  0.9987
 5002SOL     OW26467   2.748   0.092   5.043  0.1457 -0.0645 -0.1336
 5002SOL    HW126468   2.739   0.007   5.085 -0.0693 -1.0954 -2.2367
 5002SOL    HW226469   2.751   0.072   4.949 -1.4956 -2.3508  0.3011
 5003SOL     OW26470   1.826   3.617  10.621  0.3871 -0.5021 -0.3341
 5003SOL    HW126471   1.917   3.647  10.633 -0.0159  0.4375  0.3880
 5003SOL    HW226472   1.838   3.553  10.551 -0.8950  0.2140 -1.1862
 5004SOL     OW26473   3.133   2.170  13.406  0.3305 -0.4938  0.1119
 5004SOL    HW126474   3.211   2.114  13.412 -1.2281 -2.5735  1.1569
 5004SOL    HW226475   3.069   2.130  13.465  0.7977 -0.5943  0.5501
 5005SOL     OW26476   3.116   2.044   2.646  0.2848 -0.4386  0.1305
 5005SOL    HW126477   3.033   2.091   2.655  0.6799  0.2403  0.2147
 5005SOL    HW226478   3.168   2.121   2.623 -0.0743 -0.3522 -0.3984
 5006SOL     OW26479   1.118   3.598   6.118 -0.4603  0.3510 -0.2366
 5006SOL    HW126480   1.140   3.517   6.163  1.9081  1.8036  1.2278
 5006SOL    HW226481   1.159   3.662   6.176 -0.0308 -0.2118  0.0722
 5007SOL     OW26482   4.076   4.526   8.838  0.0914 -0.3367 -0.1001
 5007SOL    HW126483   4.059   4.545   8.746 -1.5926 -0.3448  0.2243
 5007SOL    HW226484   4.111   4.610   8.869 -0.3347  0.1078 -0.8261
 5008SOL     OW26485   3.326   2.118   8.141  0.4932  0.2292 -0.1362
 5008SOL    HW126486   3.321   2.023   8.151  0.5123 -0.0291 -2.4663
 5008SOL    HW226487   3.232   2.132   8.136  0.9091  2.5438 -1.7138
 5009SOL     OW26488   1.885   0.701  14.527 -0.0510  0.0171 -0.6923
 5009SOL    HW126489   1.944   0.739  14.463  2.5178 -1.5516  0.7519
 5009SOL    HW226490   1.934   0.732  14.604 -1.5445  1.5787 -0.3653
 5010SOL     OW26491   2.793   1.281  14.269  0.3638  0.3802 -0.1243
 5010SOL    HW126492   2.850   1.231  14.210  1.1842 -0.6579  1.5384
 5010SOL    HW226493   2.733   1.327  14.210 -1.0042  0.7134  1.5281
 5011SOL     OW26494   3.032   1.792   7.516  0.4758 -0.5450 -0.6069
 5011SOL    HW126495   2.946   1.768   7.482 -1.3706  2.1364  2.1206
 5011SOL    HW226496   3.003   1.796   7.607 -0.2521  0.7684 -0.8842
 5012SOL     OW26497   3.013   1.592   5.907  0.1083 -0.7906 -0.4851
 5012SOL    HW126498   3.000   1.524   5.973  0.0604  0.3262  0.6290
 5012SOL    HW226499   3.065   1.547   5.840  2.9790  1.8947 -0.0560
 5013SOL     OW26500   1.110   4.515  10.689  0.6548  0.4061 -0.3819
 5013SOL    HW126501   1.063   4.599  10.691  1.4084  0.8602 -1.8021
 5013SOL    HW226502   1.182   4.526  10.627  0.5382  1.4934 -0.3336
 5014SOL     OW26503   3.490   1.706   7.750  0.1831 -0.2717 -0.3477
 5014SOL    HW126504   3.451   1.682   7.666  0.9893  2.6127 -1.5585
 5014SOL    HW226505   3.411   1.712   7.803 -0.5828  3.8771 -1.9932
 5015SOL     OW26506   2.352   1.005   7.355 -0.0141 -0.6229 -0.4337
 5015SOL    HW126507   2.289   0.941   7.321  0.2552 -0.3377 -1.4637
 5015SOL    HW226508   2.439   0.964   7.354  0.8726  1.2521  1.5377
 5016SOL     OW26509   4.330   2.303   6.253  0.1636  0.5297  0.0683
 5016SOL    HW126510   4.263   2.328   6.189  0.7758 -0.0123 -0.7856
 5016SOL    HW226511   4.373   2.229   6.210 -0.8752  0.7963 -1.4324
 5017SOL     OW26512   4.551   0.684   5.702  0.2912 -0.6972 -0.5476
 5017SOL    HW126513   4.640   0.673   5.669  0.0507  0.5906 -1.6164
 5017SOL    HW226514   4.564   0.711   5.793 -0.5975 -1.9778 -0.0385
 5018SOL     OW26515   1.981   0.717   7.784  0.2852  0.5000 -0.0406
 5018SOL    HW126516   2.037   0.655   7.830 -1.0191 -1.4523 -1.0653
 5018SOL    HW226517   1.928   0.761   7.850  1.6880  1.9630  0.1122
 5019SOL     OW26518   2.366   0.872  16.836  0.2416  0.5239 -0.2327
 5019SOL    HW126519   2.459   0.859  16.855 -0.0643 -0.0949  0.8249
 5019SOL    HW226520   2.352   0.951  16.887 -1.3922 -1.0384  1.7358
 5020SOL     OW26521   3.661   2.837   7.773  0.2686 -0.0803  0.0667
 5020SOL    HW126522   3.675   2.928   7.746 -0.3384  0.2305  0.7709
 5020SOL    HW226523   3.714   2.826   7.851  2.2257  0.4038 -1.1951
 5021SOL     OW26524   3.623   1.653   8.856  0.2581  0.6165  0.2943
 5021SOL    HW126525   3.714   1.667   8.883  0.5882 -1.7434  0.3372
 5021SOL    HW226526   3.584   1.611   8.932  0.1958  0.9389  0.4443
 5022SOL     OW26527   4.436   3.116   3.803  0.3571  0.8401 -0.0069
 5022SOL    HW126528   4.396   3.098   3.888 -1.2148 -0.8583 -1.1144
 5022SOL    HW226529   4.529   3.134   3.818  0.7472 -2.3759  1.4280
 5023SOL     OW26530   0.624   2.237   7.189 -0.4971 -0.1516 -0.9103
 5023SOL    HW126531   0.609   2.233   7.094 -3.0264  1.3016 -0.5651
 5023SOL    HW226532   0.548   2.190   7.221 -0.2475 -0.2169 -0.4113
 5024SOL     OW26533   4.064   0.503   2.911 -0.3547 -0.2425  0.3085
 5024SOL    HW126534   4.150   0.460   2.918  0.5457  1.1109 -2.4521
 5024SOL    HW226535   4.013   0.448   2.852 -1.1511  2.0974 -1.2053
 5025SOL     OW26536   3.738   3.438   5.813 -0.1554  0.1618 -0.4405
 5025SOL    HW126537   3.812   3.493   5.786 -2.1639  2.8314 -0.5482
 5025SOL    HW226538   3.778   3.363   5.857 -0.7052  0.8321  1.1842
 5026SOL     OW26539   2.913   3.486   6.838  0.0859  0.0863  0.4112
 5026SOL    HW126540   2.939   3.395   6.845  1.1938  0.3576 -0.1511
 5026SOL    HW226541   2.996   3.521   6.869 -0.1113  0.5138  0.4654
 5027SOL     OW26542   2.164   3.744   8.237 -0.5592  0.3455  0.2725
 5027SOL    HW126543   2.128   3.778   8.319 -0.8246  0.1878  0.2247
 5027SOL    HW226544   2.122   3.657   8.237  1.4128 -0.6051  1.0657
 5028SOL     OW26545   2.527   1.885   5.632 -0.4950 -0.2452  0.0234
 5028SOL    HW126546   2.441   1.881   5.675 -1.3243  2.1161 -1.4019
 5028SOL    HW226547   2.531   1.800   5.589  2.0159 -1.0966  1.9066
 5029SOL     OW26548   2.433   0.571  16.808  0.6193  0.3011  0.3803
 5029SOL    HW126549   2.435   0.663  16.833  0.1968  0.6130 -0.7384
 5029SOL    HW226550   2.481   0.575  16.726 -0.5212  2.0624 -0.1973
 5030SOL     OW26551   4.442   4.617  16.844  0.1043  0.8660 -0.0258
 5030SOL    HW126552   4.425   4.559  16.769 -1.3270  0.3537  0.6945
 5030SOL    HW226553   4.369   4.678  16.847 -1.3796 -0.9556  0.5901
 5031SOL     OW26554   0.712   3.616   4.898  0.3460 -0.4587  0.1649
 5031SOL    HW126555   0.705   3.556   4.973 -2.3403  2.1987  2.0669
 5031SOL    HW226556   0.692   3.556   4.827 -0.7381 -0.8823  0.8169
 5032SOL     OW26557   1.846   2.209  14.872 -0.7878  0.1091  0.9034
 5032SOL    HW126558   1.770   2.262  14.848 -1.3570 -1.9689 -1.8589
 5032SOL    HW226559   1.802   2.148  14.931  0.0624 -0.5338  0.8620
 5033SOL     OW26560   2.574   2.472   2.962  0.0227 -0.2970 -0.0392
 5033SOL    HW126561   2.617   2.509   2.885 -0.9488 -1.2652 -1.0490
 5033SOL    HW226562   2.509   2.538   2.985  1.1735  0.8763 -0.1495
 5034SOL     OW26563   3.294   3.254   7.008 -0.0109 -0.0887  0.2486
 5034SOL    HW126564   3.371   3.306   6.984 -0.7677 -0.1503 -2.2752
 5034SOL    HW226565   3.347   3.189   7.054 -0.2250 -2.8471 -3.3764
 5035SOL     OW26566   0.952   1.374   9.260 -0.2069 -0.0136  0.0472
 5035SOL    HW126567   0.919   1.339   9.178 -2.2385  1.4807  0.2290
 5035SOL    HW226568   0.925   1.465   9.270 -1.4797 -0.3610 -0.2265
 5036SOL     OW26569   4.222   0.215   1.039  0.1370 -0.2232 -0.7706
 5036SOL    HW126570   4.132   0.192   1.018 -0.1485 -0.6280  0.9054
 5036SOL    HW226571   4.208   0.247   1.128  0.1692  0.9063 -1.1763
 5037SOL     OW26572   2.836   0.357   7.600 -0.4794 -0.0192 -0.3442
 5037SOL    HW126573   2.843   0.381   7.692  1.3545  0.1079 -0.5288
 5037SOL    HW226574   2.777   0.282   7.612 -1.2542  0.4725 -1.0803
 5038SOL     OW26575   1.359   0.135   3.333  0.2949  0.0385 -0.1287
 5038SOL    HW126576   1.353   0.048   3.371 -0.7951 -0.0750 -0.5623
 5038SOL    HW226577   1.405   0.124   3.250 -1.8837 -1.5220 -1.1181
 5039SOL     OW26578   3.890   1.219   3.730 -0.2340  0.3697 -0.6869
 5039SOL    HW126579   3.807   1.172   3.732  1.1515 -2.0984 -0.5241
 5039SOL    HW226580   3.896   1.244   3.637 -2.4962  0.2517 -0.8622
 5040SOL     OW26581   4.368   4.456   7.216 -0.0882 -0.2899  0.3245
 5040SOL    HW126582   4.320   4.394   7.271 -1.0466  1.7415  1.8093
 5040SOL    HW226583   4.424   4.402   7.161  0.6739  2.8426 -1.9474
 5041SOL     OW26584   3.244   3.615   0.389 -0.0556 -0.1480  0.5755
 5041SOL    HW126585   3.211   3.549   0.450  1.6871 -0.9897  0.5887
 5041SOL    HW226586   3.333   3.635   0.416 -0.1181  1.2958 -0.2964
 5042SOL     OW26587   0.606   3.652   5.726 -0.5151 -0.0270  0.2153
 5042SOL    HW126588   0.605   3.747   5.735 -0.1491  0.1099 -1.2672
 5042SOL    HW226589   0.597   3.618   5.816  1.8097 -0.5322  0.2532
 5043SOL     OW26590   2.442   0.953  12.546  0.0797  0.2867  0.4492
 5043SOL    HW126591   2.475   0.870  12.581 -0.0420 -0.2269 -0.6483
 5043SOL    HW226592   2.503   0.962  12.473 -0.2641  1.5701  0.3177
 5044SOL     OW26593   4.055   3.286   1.564  0.0393 -0.3369 -0.5078
 5044SOL    HW126594   4.108   3.210   1.542  0.0161 -0.0651 -1.5236
 5044SOL    HW226595   4.024   3.307   1.476 -1.0738  0.5111  0.0921
 5045SOL     OW26596   1.747   4.199  13.068  0.5908 -0.5777 -0.1054
 5045SOL    HW126597   1.769   4.149  13.147 -1.4758 -0.1844  0.7234
 5045SOL    HW226598   1.820   4.179  13.010  1.4178 -2.6877  1.6448
 5046SOL     OW26599   1.493   3.173   9.009 -0.3398  0.8906  0.5616
 5046SOL    HW126600   1.457   3.111   9.072  0.5529  0.6022  0.7936
 5046SOL    HW226601   1.549   3.118   8.954 -2.2917  1.1201 -1.6907
 5047SOL     OW26602   0.896   3.563   4.520  0.0136 -0.4423  0.7106
 5047SOL    HW126603   0.849   3.598   4.445 -0.4428 -1.4603  0.5198
 5047SOL    HW226604   0.928   3.639   4.569 -0.7577  2.0387 -2.6317
 5048SOL     OW26605   4.044   3.769  10.492 -0.2834  0.3087  0.0998
 5048SOL    HW126606   4.075   3.835  10.553 -0.8306 -0.6189  1.3698
 5048SOL    HW226607   4.051   3.698  10.556  0.9814  0.9545  0.6787
 5049SOL     OW26608   4.319   0.983  10.913 -0.1819 -0.3099 -0.4568
 5049SOL    HW126609   4.300   0.959  10.822 -0.8378 -0.7668 -0.1969
 5049SOL    HW226610   4.246   1.044  10.926 -1.2623 -1.7997  0.5164
 5050SOL     OW26611   3.842   1.748  11.504  0.8749 -0.2568  0.5297
 5050SOL    HW126612   3.836   1.766  11.410 -0.3405  0.7586  0.7955
 5050SOL    HW226613   3.778   1.677  11.509  0.6719 -0.1107  0.0747
 5051SOL     OW26614   0.236   1.548  17.337  0.0054 -0.0183 -0.2073
 5051SOL    HW126615   0.198   1.509  17.415 -1.5060 -0.6950 -1.2940
 5051SOL    HW226616   0.311   1.594  17.375  1.3975 -2.8444  0.4363
 5052SOL     OW26617   4.075   2.829   5.640  0.0876  0.1861 -0.0829
 5052SOL    HW126618   4.095   2.813   5.548 -2.5501 -0.6430 -0.5148
 5052SOL    HW226619   4.153   2.785   5.674 -1.3415 -0.3303  2.5092
 5053SOL     OW26620   1.554   1.320   3.681 -0.0612  0.3290  0.0095
 5053SOL    HW126621   1.472   1.274   3.700  0.9539 -1.8399 -1.0044
 5053SOL    HW226622   1.537   1.412   3.705  1.8427  0.9095 -0.8872
 5054SOL     OW26623   2.655   2.747  11.837 -0.6168 -0.0193 -0.3602
 5054SOL    HW126624   2.601   2.737  11.758 -0.4838  0.3419 -0.4961
 5054SOL    HW226625   2.653   2.659  11.876 -2.1945  0.3189  0.3054
 5055SOL     OW26626   2.206   2.417   9.954 -0.2390 -0.0474 -0.4332
 5055SOL    HW126627   2.282   2.409  10.012 -0.1046 -0.9803 -0.7331
 5055SOL    HW226628   2.132   2.377   9.999 -0.4327  0.9549  0.1308
 5056SOL     OW26629   3.416   3.322   2.227  0.1283  0.0426  0.1673
 5056SOL    HW126630   3.353   3.353   2.162 -0.7122 -0.2289  0.8585
 5056SOL    HW226631   3.497   3.365   2.199  1.6447 -2.1294  1.2062
 5057SOL     OW26632   0.810   0.902  17.301  0.4445  0.8183  0.0763
 5057SOL    HW126633   0.740   0.881  17.238  0.9459  2.5665 -1.0397
 5057SOL    HW226634   0.874   0.834  17.280  0.8677  1.1731  0.2355
 5058SOL     OW26635   4.411   3.103   3.327 -0.1965 -0.0163 -0.5188
 5058SOL    HW126636   4.376   3.055   3.401 -0.7446 -0.2195 -0.9050
 5058SOL    HW226637   4.464   3.157   3.385  0.6610 -0.7093 -0.6696
 5059SOL     OW26638   0.122   0.846   6.899 -0.7154  0.0759  0.6262
 5059SOL    HW126639   0.205   0.812   6.935 -0.1397  2.1520  1.2737
 5059SOL    HW226640   0.069   0.767   6.891  0.7987 -0.9806  1.0644
 5060SOL     OW26641   3.554   1.201  12.497 -0.1906  0.1156  0.2122
 5060SOL    HW126642   3.569   1.291  12.471 -1.9073  0.3572  0.0580
 5060SOL    HW226643   3.624   1.175  12.556 -0.8661 -0.1040  0.9161
 5061SOL     OW26644   3.192   1.838   2.445 -0.2447  0.1304 -0.2599
 5061SOL    HW126645   3.189   1.894   2.368  1.3504  1.3511  0.5492
 5061SOL    HW226646   3.140   1.897   2.499 -1.1140 -0.0452 -0.9026
 5062SOL     OW26647   1.272   3.626   0.945 -0.1654 -0.0693 -0.2246
 5062SOL    HW126648   1.243   3.582   0.865  1.0420  0.0999 -0.7627
 5062SOL    HW226649   1.273   3.719   0.925  0.5872 -0.3017 -1.2817
 5063SOL     OW26650   3.537   3.927   1.080 -0.1055  0.0057  0.1945
 5063SOL    HW126651   3.535   3.850   1.023  0.4875 -0.4742  0.8203
 5063SOL    HW226652   3.574   3.996   1.024  1.8578 -1.3273 -0.1511
 5064SOL     OW26653   1.792   0.439   8.161  0.2654 -0.3434 -0.3756
 5064SOL    HW126654   1.812   0.432   8.068  0.8549 -2.2815 -0.1040
 5064SOL    HW226655   1.757   0.351   8.178  0.6080 -0.8089 -2.1146
 5065SOL     OW26656   3.064   2.074   3.391 -0.3556 -0.1928 -0.2809
 5065SOL    HW126657   3.135   2.098   3.331 -1.3731 -0.1696 -1.4595
 5065SOL    HW226658   3.034   2.160   3.420  2.4765  0.6880  0.0718
 5066SOL     OW26659   2.144   2.823   3.084 -0.1069 -0.1606 -0.1332
 5066SOL    HW126660   2.133   2.798   2.992 -2.9093  0.9890 -0.1138
 5066SOL    HW226661   2.149   2.918   3.078  0.5081 -0.2544 -1.0958
 5067SOL     OW26662   3.687   0.726   7.111  0.1480  0.0315  0.1204
 5067SOL    HW126663   3.780   0.730   7.132 -0.3873  2.7034  1.9152
 5067SOL    HW226664   3.670   0.799   7.169 -3.5017  0.1647 -1.0860
 5068SOL     OW26665   0.723   3.105   3.122  0.2464  0.2232  0.4503
 5068SOL    HW126666   0.708   3.102   3.216  0.2446 -0.5416  0.4215
 5068SOL    HW226667   0.778   3.181   3.103 -0.7155  1.1985  1.4969
 5069SOL     OW26668   1.353   0.740   0.440  0.4392  0.2586 -0.5319
 5069SOL    HW126669   1.272   0.690   0.451  0.4537  0.5169  0.6916
 5069SOL    HW226670   1.324   0.824   0.474 -1.7545 -0.2230 -1.1777
 5070SOL     OW26671   0.834   1.596   8.312 -0.2365 -0.1835 -0.3038
 5070SOL    HW126672   0.768   1.624   8.250 -1.3553  1.5247  1.6670
 5070SOL    HW226673   0.841   1.506   8.281 -1.1630 -0.5376  0.5043
 5071SOL     OW26674   3.642   2.569   2.246  0.3238 -0.0123  0.3913
 5071SOL    HW126675   3.730   2.604   2.255  0.9257 -1.5683  0.5254
 5071SOL    HW226676   3.604   2.620   2.174  2.8554  0.2420 -0.7460
 5072SOL     OW26677   2.964   2.931   5.170 -0.2887  0.1358  0.0648
 5072SOL    HW126678   2.884   2.921   5.221 -0.6171  2.4259  0.0116
 5072SOL    HW226679   3.021   2.953   5.244 -0.5346 -2.7403  1.0967
 5073SOL     OW26680   2.728   0.495   0.773 -0.3438 -0.1361  0.3203
 5073SOL    HW126681   2.636   0.490   0.799 -0.9298  0.2007 -1.6916
 5073SOL    HW226682   2.747   0.576   0.820 -0.1979 -0.1705  0.3211
 5074SOL     OW26683   0.713   3.179  10.566  0.2977  0.0739  0.0279
 5074SOL    HW126684   0.636   3.146  10.520 -0.5316  3.1876 -0.8236
 5074SOL    HW226685   0.684   3.167  10.657  0.0231  0.7414  0.0226
 5075SOL     OW26686   1.801   2.485   4.516 -0.1773 -0.1284 -0.0139
 5075SOL    HW126687   1.811   2.579   4.534  0.0020 -0.7905  3.2272
 5075SOL    HW226688   1.711   2.470   4.544 -0.0197 -0.1877  0.4603
 5076SOL     OW26689   0.292   4.293   6.610 -0.3716 -0.2890  0.5876
 5076SOL    HW126690   0.215   4.239   6.594 -0.5931  0.2045 -0.0354
 5076SOL    HW226691   0.253   4.380   6.617 -0.2364 -0.0047 -2.1527
 5077SOL     OW26692   2.233   2.243   7.588 -0.4104 -0.1159 -0.0808
 5077SOL    HW126693   2.297   2.307   7.619 -0.0403 -1.4959  1.9761
 5077SOL    HW226694   2.188   2.237   7.672  1.1399 -0.8966  0.6978
 5078SOL     OW26695   3.076   1.653   8.350 -0.0207 -0.2897  0.1610
 5078SOL    HW126696   2.981   1.668   8.356  0.3581  0.8350  2.9407
 5078SOL    HW226697   3.077   1.557   8.344  0.4469 -0.3070  0.5810
 5079SOL     OW26698   1.417   3.562   5.594  0.2538  0.1158  0.3088
 5079SOL    HW126699   1.336   3.608   5.614  0.4975  1.7647 -2.5766
 5079SOL    HW226700   1.468   3.586   5.671 -2.8581 -0.0950  2.4393
 5080SOL     OW26701   3.445   3.790  15.819 -0.6265 -0.1256  0.0598
 5080SOL    HW126702   3.485   3.769  15.734  0.9118 -0.5060  0.8861
 5080SOL    HW226703   3.519   3.782  15.879  0.7496  2.1936 -1.3482
 5081SOL     OW26704   3.996   0.560   2.577 -0.5726 -0.0410 -0.1459
 5081SOL    HW126705   4.037   0.485   2.535  1.1206  0.2098  1.0762
 5081SOL    HW226706   3.943   0.522   2.647  0.8687 -0.3164  0.8005
 5082SOL     OW26707   3.561   0.962   4.180 -0.1342 -0.0624  0.6610
 5082SOL    HW126708   3.642   0.911   4.175 -0.1569 -0.3367  3.2657
 5082SOL    HW226709   3.586   1.027   4.245  1.3659  1.5575 -1.5253
 5083SOL     OW26710   2.877   1.673   4.960 -0.0325 -0.3187 -0.0984
 5083SOL    HW126711   2.964   1.638   4.978  0.5550  0.8113 -0.7146
 5083SOL    HW226712   2.832   1.625   5.030 -0.0602 -0.8342 -0.4652
 5084SOL     OW26713   0.732   2.347   8.187 -0.0799 -0.3682  0.1985
 5084SOL    HW126714   0.736   2.388   8.274 -1.6969  0.3889 -0.0994
 5084SOL    HW226715   0.828   2.347   8.178 -0.2827 -1.4749 -1.9952
 5085SOL     OW26716   3.301   2.971  16.135  0.2526  0.2023 -0.7266
 5085SOL    HW126717   3.296   3.065  16.153  1.1463  0.0246  0.4388
 5085SOL    HW226718   3.309   2.966  16.040 -0.0015  0.0557 -0.7388
 5086SOL     OW26719   4.208   4.063  12.178 -0.4314 -0.0703 -0.5556
 5086SOL    HW126720   4.133   4.009  12.204  0.2276 -0.8611 -0.3132
 5086SOL    HW226721   4.250   4.062  12.264  1.5352  1.2880 -1.5001
 5087SOL     OW26722   3.692   4.090   7.998  0.6019 -0.0991 -0.3460
 5087SOL    HW126723   3.649   4.175   8.011 -2.4670 -1.2261 -3.1221
 5087SOL    HW226724   3.715   4.059   8.086  1.8948 -0.0198 -0.6610
 5088SOL     OW26725   2.950   3.276   8.330  0.4517 -0.3461 -0.1282
 5088SOL    HW126726   2.898   3.354   8.313 -0.4888 -0.5320  1.8693
 5088SOL    HW226727   2.884   3.230   8.381 -1.8337  1.4980 -1.4282
 5089SOL     OW26728   2.725   1.969  13.511  0.5647 -0.0265  0.2602
 5089SOL    HW126729   2.775   2.044  13.543 -3.1241  1.6058  2.1845
 5089SOL    HW226730   2.709   1.993  13.419 -0.1386  0.0602  0.4055
 5090SOL     OW26731   3.568   0.395   9.345  0.4361 -0.2041 -0.1587
 5090SOL    HW126732   3.498   0.331   9.334 -0.6687  0.5171  2.5309
 5090SOL    HW226733   3.571   0.398   9.441  1.0196 -0.5021 -0.1721
 5091SOL     OW26734   4.289   3.614  12.487  0.0830 -0.2366  0.0337
 5091SOL    HW126735   4.360   3.550  12.500 -0.8543 -1.3101 -0.1748
 5091SOL    HW226736   4.236   3.551  12.437 -0.0690  0.7891 -1.1038
 5092SOL     OW26737   1.705   2.866  14.804 -0.2375  0.1166  0.6102
 5092SOL    HW126738   1.693   2.960  14.792  1.5320 -0.0462 -2.4897
 5092SOL    HW226739   1.712   2.830  14.715 -0.9080 -0.0177  0.6071
 5093SOL     OW26740   1.939   0.933  17.028  0.3801  0.0948  0.5343
 5093SOL    HW126741   1.865   0.875  17.010  2.1610 -2.2327  0.6631
 5093SOL    HW226742   2.013   0.889  16.988  1.4124  0.4582  2.0314
 5094SOL     OW26743   3.471   3.342   5.930 -0.4532 -0.1651  0.5495
 5094SOL    HW126744   3.558   3.375   5.907 -0.0355 -2.6244 -1.3483
 5094SOL    HW226745   3.493   3.269   5.987 -2.9955 -2.1430 -1.0220
 5095SOL     OW26746   3.123   2.278   4.659  0.6581  0.5055  0.3049
 5095SOL    HW126747   3.203   2.287   4.711  1.9424 -0.7638 -1.4526
 5095SOL    HW226748   3.160   2.275   4.571 -1.8442  0.3202 -0.7430
 5096SOL     OW26749   2.552   4.011  15.088  0.7128 -0.3229  0.4059
 5096SOL    HW126750   2.523   4.071  15.019  1.1777  0.8064  1.2006
 5096SOL    HW226751   2.619   4.063  15.132  1.7243 -0.0983 -1.3817
 5097SOL     OW26752   2.287   0.021   5.652 -0.1984 -0.1418 -0.4548
 5097SOL    HW126753   2.239   4.659   5.662 -0.2911 -0.2761 -2.1190
 5097SOL    HW226754   2.313   0.024   5.560 -1.0509  0.5521 -0.6783
 5098SOL     OW26755   1.896   4.419   7.937  0.5246 -0.2133 -0.6225
 5098SOL    HW126756   1.927   4.417   8.027  1.3516 -1.7936 -0.9373
 5098SOL    HW226757   1.833   4.346   7.936  0.8354 -0.5056  2.4420
 5099SOL     OW26758   1.122   2.588   5.105  0.1069 -0.1548 -0.1104
 5099SOL    HW126759   1.050   2.534   5.139  0.1401  0.5155  1.0403
 5099SOL    HW226760   1.151   2.526   5.038 -0.4915  0.2179 -0.7183
 5100SOL     OW26761   0.732   0.205  12.789 -0.2586 -0.4385  0.1060
 5100SOL    HW126762   0.773   0.120  12.806  2.0792  0.4228 -1.2226
 5100SOL    HW226763   0.747   0.250  12.872 -0.2787 -0.5351  0.1620
 5101SOL     OW26764   2.402   2.424   2.619 -0.5089 -0.2724  0.2056
 5101SOL    HW126765   2.422   2.511   2.584  0.5869 -0.7022 -0.2458
 5101SOL    HW226766   2.315   2.446   2.651 -0.0683 -0.5091  1.5716
 5102SOL     OW26767   1.453   0.482   7.720  0.0025  0.2631  0.3622
 5102SOL    HW126768   1.410   0.437   7.793  0.0401  0.2705  0.3887
 5102SOL    HW226769   1.377   0.510   7.669  0.0081 -0.0179  0.2006
 5103SOL     OW26770   1.439   4.324   7.048  0.5119  0.3190  0.2288
 5103SOL    HW126771   1.366   4.339   7.108  1.9817  2.9616  1.3790
 5103SOL    HW226772   1.400   4.262   6.987 -0.1570  1.5028 -0.5388
 5104SOL     OW26773   0.959   1.584   4.736 -0.1250  0.2879 -0.2287
 5104SOL    HW126774   0.910   1.511   4.698  0.7824 -0.0525 -0.7483
 5104SOL    HW226775   0.900   1.601   4.809  1.2298 -0.3409  1.0233
 5105SOL     OW26776   1.015   0.164   2.634 -0.0970  0.1820  0.2827
 5105SOL    HW126777   0.935   0.168   2.581 -1.6188 -0.5833  2.5022
 5105SOL    HW226778   1.083   0.177   2.568 -1.1582 -1.0329 -1.0582
 5106SOL     OW26779   0.936   3.578   2.424 -0.4253 -0.0466  0.2997
 5106SOL    HW126780   0.906   3.496   2.385 -1.0866  0.8501 -1.0673
 5106SOL    HW226781   0.940   3.626   2.341 -0.7793  1.2407  1.0311
 5107SOL     OW26782   2.957   0.345   0.851  0.6964  0.3284 -0.3038
 5107SOL    HW126783   2.910   0.262   0.843 -1.6818  1.6339  0.2052
 5107SOL    HW226784   2.886   0.400   0.819  0.6542 -0.4181 -1.4873
 5108SOL     OW26785   1.222   2.290   6.168  0.2492 -0.0558  0.1345
 5108SOL    HW126786   1.203   2.258   6.080 -1.4588  1.7898 -0.1743
 5108SOL    HW226787   1.136   2.320   6.197 -0.7568 -0.9278 -1.9736
 5109SOL     OW26788   0.201   2.436  12.624 -0.0064  0.1750  0.1967
 5109SOL    HW126789   0.110   2.411  12.637  0.2389 -0.1475  1.2856
 5109SOL    HW226790   0.210   2.440  12.528  0.3101  0.1283  0.2244
 5110SOL     OW26791   3.342   1.774  16.842  0.0309 -0.5352  0.3121
 5110SOL    HW126792   3.335   1.739  16.753 -2.9802  1.0670 -0.0641
 5110SOL    HW226793   3.258   1.816  16.855  0.7534  1.6030 -1.9794
 5111SOL     OW26794   2.998   4.329  16.745  0.0188  0.5127  0.0536
 5111SOL    HW126795   3.032   4.244  16.716  0.3962  0.5124  0.5008
 5111SOL    HW226796   3.048   4.351  16.824 -0.3912  0.6798  0.2657
 5112SOL     OW26797   0.157   0.378  15.948 -0.1539  0.2962 -0.0318
 5112SOL    HW126798   0.061   0.377  15.941 -0.2651  0.5837  1.3854
 5112SOL    HW226799   0.169   0.283  15.937 -0.0060 -0.0285  2.8872
 5113SOL     OW26800   1.025   0.032   0.917 -0.3267  0.0919 -0.5731
 5113SOL    HW126801   1.009   0.019   0.823 -1.0163 -0.9916 -0.3057
 5113SOL    HW226802   1.043   0.125   0.927 -0.2481 -0.1556  1.6069
 5114SOL     OW26803   3.134   0.337  16.623 -0.1492  0.1902 -0.8921
 5114SOL    HW126804   3.222   0.301  16.640 -0.3018 -0.4722 -1.5162
 5114SOL    HW226805   3.141   0.429  16.649  1.9920 -0.4034  0.6637
 5115SOL     OW26806   2.083   4.285   3.166  0.1926 -0.0232  0.0790
 5115SOL    HW126807   2.104   4.378   3.171 -1.1588  0.2426  0.9479
 5115SOL    HW226808   1.991   4.291   3.191  0.0102 -1.8689 -0.1013
 5116SOL     OW26809   2.731   2.304   4.825 -0.1850 -0.1342  0.4597
 5116SOL    HW126810   2.781   2.227   4.853 -0.5075 -0.7946 -0.7278
 5116SOL    HW226811   2.709   2.293   4.732 -0.1999  0.3392  0.4076
 5117SOL     OW26812   4.067   0.262   2.158 -0.0470  0.2753  0.0314
 5117SOL    HW126813   4.120   0.336   2.189  0.1602  0.0938  0.1102
 5117SOL    HW226814   4.088   0.188   2.215 -0.5979  1.2440  1.4951
 5118SOL     OW26815   1.021   0.129   5.193 -0.0297 -0.0193 -0.0421
 5118SOL    HW126816   1.048   0.150   5.104  4.0678  0.0739  1.2077
 5118SOL    HW226817   1.102   0.127   5.244 -0.9303  0.5527  1.4128
 5119SOL     OW26818   1.726   0.296  16.063  0.0606  0.0558  0.0619
 5119SOL    HW126819   1.800   0.239  16.085  0.3190 -0.0561 -1.1173
 5119SOL    HW226820   1.703   0.269  15.974  0.3207  1.1589 -0.3391
 5120SOL     OW26821   2.711   0.768   4.314 -0.1983 -0.2608 -0.3555
 5120SOL    HW126822   2.721   0.825   4.390 -2.0090 -0.1277 -0.2195
 5120SOL    HW226823   2.805   0.752   4.304 -0.3570 -1.1310 -0.4772
 5121SOL     OW26824   1.879   3.588   5.313 -0.2855 -0.0256  0.6181
 5121SOL    HW126825   1.935   3.529   5.363  1.6199  1.9661  0.8512
 5121SOL    HW226826   1.940   3.631   5.252 -1.9655 -0.9462 -1.7328
 5122SOL     OW26827   0.302   1.061   7.687  0.0728  0.7361 -0.0449
 5122SOL    HW126828   0.369   1.023   7.743  1.1809  1.6373 -0.7719
 5122SOL    HW226829   0.315   1.156   7.691  0.7963  0.6410 -0.1181
 5123SOL     OW26830   0.933   0.672   6.819 -0.0892 -0.5616  0.7480
 5123SOL    HW126831   0.909   0.763   6.834  1.1308  0.0980 -1.2120
 5123SOL    HW226832   1.016   0.677   6.772 -0.1359 -0.5486  0.6662
 5124SOL     OW26833   2.693   2.313   3.220 -0.0106  0.4564  0.2326
 5124SOL    HW126834   2.695   2.341   3.128 -1.7374  0.6969  0.2624
 5124SOL    HW226835   2.700   2.400   3.260 -1.0436  0.5455  0.2184
 5125SOL     OW26836   0.024   4.019   5.576 -0.4830  0.1166  0.0079
 5125SOL    HW126837   0.105   4.008   5.526  0.6128  0.1952  1.7725
 5125SOL    HW226838   0.013   4.114   5.573  2.1068  0.4303  0.9032
 5126SOL     OW26839   1.819   2.625   5.205  0.0088 -0.2662 -0.2802
 5126SOL    HW126840   1.802   2.639   5.298 -0.8641  0.3295 -0.5236
 5126SOL    HW226841   1.908   2.590   5.201  1.0010  2.3273 -1.5237
 5127SOL     OW26842   3.340   2.294   2.312 -0.2362 -0.4790 -0.4133
 5127SOL    HW126843   3.369   2.375   2.353 -0.5234 -2.3657  3.4943
 5127SOL    HW226844   3.373   2.317   2.225 -1.4009 -1.6689 -1.1615
 5128SOL     OW26845   2.417   3.360   4.464  0.0599  0.6775  0.2758
 5128SOL    HW126846   2.372   3.309   4.532 -3.0281  0.8747 -1.6428
 5128SOL    HW226847   2.484   3.294   4.447 -1.1855 -0.5920  0.2563
 5129SOL     OW26848   2.163   2.984   4.363  0.1274  0.4683  0.5141
 5129SOL    HW126849   2.142   3.056   4.303 -1.3158  0.1582  0.6343
 5129SOL    HW226850   2.236   3.022   4.411 -0.6116  2.3546  0.1665
 5130SOL     OW26851   1.249   1.217   7.984  0.2194 -0.0162 -0.0318
 5130SOL    HW126852   1.193   1.291   7.961  1.5396  0.5342 -1.4230
 5130SOL    HW226853   1.291   1.231   8.069  1.8637 -1.1220 -0.6660
 5131SOL     OW26854   4.657   4.534  10.738  0.3156 -0.1642  0.4739
 5131SOL    HW126855   0.007   4.486  10.693  0.8389  1.4040 -0.3990
 5131SOL    HW226856   4.708   4.614  10.748 -0.6903  0.3627  1.3865
 5132SOL     OW26857   2.633   2.513  11.998 -0.1130 -0.1091  0.0340
 5132SOL    HW126858   2.586   2.508  12.082  0.3261  0.9403  0.3400
 5132SOL    HW226859   2.591   2.447  11.943 -1.9552  1.8817 -0.9622
 5133SOL     OW26860   2.839   2.182   7.878  0.1203  0.0500 -0.1212
 5133SOL    HW126861   2.776   2.253   7.875  0.2364  0.0290 -2.8869
 5133SOL    HW226862   2.790   2.103   7.855 -0.3138  0.6769 -1.3747
 5134SOL     OW26863   1.778   0.597   7.067  0.0883 -0.9638 -0.0349
 5134SOL    HW126864   1.808   0.667   7.010  1.3147 -0.4396  1.2613
 5134SOL    HW226865   1.718   0.641   7.127 -1.0593  1.9170 -3.3030
 5135SOL     OW26866   3.491   2.259   2.952 -0.1272 -0.1414 -0.0667
 5135SOL    HW126867   3.405   2.221   2.934  0.2266 -1.6018  1.4086
 5135SOL    HW226868   3.539   2.181   2.977 -1.5556 -0.9686  0.0830
 5136SOL     OW26869   4.091   0.241   7.139 -0.5033 -0.3047 -0.2175
 5136SOL    HW126870   4.076   0.153   7.172  1.8353 -0.7427 -0.3273
 5136SOL    HW226871   4.131   0.213   7.057 -2.6021 -5.0206  0.3672
 5137SOL     OW26872   3.961   3.715   9.427  0.2988  0.1360  0.0688
 5137SOL    HW126873   3.922   3.629   9.417  0.6583  0.0909 -0.9497
 5137SOL    HW226874   4.055   3.695   9.426  0.2610 -0.0430  0.3240
 5138SOL     OW26875   3.450   0.758   9.330  0.2264 -0.4835 -0.6612
 5138SOL    HW126876   3.369   0.729   9.288 -0.1306 -0.1096 -0.2376
 5138SOL    HW226877   3.432   0.824   9.397 -1.2174 -1.0782 -0.4579
 5139SOL     OW26878   2.801   3.080   8.448 -0.7488  0.4073 -0.2151
 5139SOL    HW126879   2.826   2.988   8.438 -1.1893  0.3588 -0.8860
 5139SOL    HW226880   2.736   3.074   8.518 -0.2183 -1.8731  0.0704
 5140SOL     OW26881   4.527   0.639   4.865 -0.9031 -0.0284 -0.1188
 5140SOL    HW126882   4.446   0.667   4.907 -0.0585  1.4344  0.5392
 5140SOL    HW226883   4.495   0.651   4.776 -2.1657 -1.0958  0.1853
 5141SOL     OW26884   2.390   0.829   8.425 -0.7132 -0.1630  0.3786
 5141SOL    HW126885   2.335   0.778   8.366 -0.1564 -1.5252  1.0283
 5141SOL    HW226886   2.376   0.774   8.502  1.0456 -0.2379  0.6508
 5142SOL     OW26887   3.904   2.732   2.793 -0.3219  0.5089  0.0223
 5142SOL    HW126888   3.970   2.662   2.785 -0.3737  0.3095  1.2282
 5142SOL    HW226889   3.845   2.683   2.851  0.9741  0.7831  1.5854
 5143SOL     OW26890   3.515   0.602  10.791  0.3438  0.2820  0.0998
 5143SOL    HW126891   3.515   0.604  10.887  2.0469  0.3374  0.1052
 5143SOL    HW226892   3.535   0.695  10.775 -0.0410  0.4015  0.3058
 5144SOL     OW26893   1.680   1.733   5.529  0.6871 -0.7978 -0.4004
 5144SOL    HW126894   1.739   1.803   5.555 -0.7012  0.3127 -0.2481
 5144SOL    HW226895   1.665   1.765   5.440  1.0363  0.0045 -0.1659
 5145SOL     OW26896   3.327   3.099   1.779 -0.4768  0.4567 -0.2834
 5145SOL    HW126897   3.361   3.010   1.775  1.1292  1.0045  1.2807
 5145SOL    HW226898   3.410   3.144   1.792 -0.1212 -0.4390  0.5304
 5146SOL     OW26899   1.994   2.254   5.863 -0.3261 -0.7148  0.7446
 5146SOL    HW126900   2.038   2.229   5.782 -1.5083 -0.0245 -0.1123
 5146SOL    HW226901   2.034   2.341   5.872  1.9672 -1.7341  0.3342
 5147SOL     OW26902   1.467   3.087   7.883  0.2340  0.2454 -0.2444
 5147SOL    HW126903   1.456   3.181   7.870  1.9698  0.9252  3.3336
 5147SOL    HW226904   1.377   3.059   7.898 -0.1434  1.3058 -0.5047
 5148SOL     OW26905   0.857   4.693  13.937  0.0405  0.2919 -0.2340
 5148SOL    HW126906   0.952   4.688  13.939 -0.0899 -1.5220  1.6119
 5148SOL    HW226907   0.830   4.692  14.029 -2.1383  1.6631 -0.8525
 5149SOL     OW26908   1.083   2.561   4.747 -0.0652 -0.0920 -0.4137
 5149SOL    HW126909   1.079   2.561   4.652 -2.8378 -1.6995 -0.3011
 5149SOL    HW226910   1.077   2.654   4.770  0.0975 -0.1407 -0.1716
 5150SOL     OW26911   2.777   2.482   7.634  0.2391  0.3518 -0.2499
 5150SOL    HW126912   2.835   2.545   7.676  0.0508 -0.3537  1.0746
 5150SOL    HW226913   2.730   2.445   7.709 -0.1805 -1.1527 -1.2502
 5151SOL     OW26914   1.457   0.369  17.488 -0.3998 -0.1906  0.4319
 5151SOL    HW126915   1.531   0.312  17.509 -0.8022 -1.5478 -1.8356
 5151SOL    HW226916   1.451   0.351  17.394  0.4980  0.8149  0.1765
 5152SOL     OW26917   2.938   3.365   4.847 -0.0813  0.0387 -0.2167
 5152SOL    HW126918   2.893   3.375   4.931  0.2137 -0.9709  0.0687
 5152SOL    HW226919   2.930   3.453   4.811  0.8167 -0.8214 -2.4993
 5153SOL     OW26920   2.513   4.402   1.820 -0.0777 -0.3052 -0.4289
 5153SOL    HW126921   2.580   4.397   1.888  0.1197 -0.3287 -0.6242
 5153SOL    HW226922   2.472   4.488   1.827  0.1025 -0.3110  0.7498
 5154SOL     OW26923   3.272   3.750   7.871  0.3212  0.1701  0.1272
 5154SOL    HW126924   3.198   3.737   7.931 -0.9279 -0.2051 -1.4768
 5154SOL    HW226925   3.298   3.658   7.865  0.3741  0.0385  2.3108
 5155SOL     OW26926   1.899   1.897  13.625  0.0890  0.0790  0.6322
 5155SOL    HW126927   1.897   1.982  13.668  0.8483  1.1467 -1.4772
 5155SOL    HW226928   1.829   1.899  13.560 -2.0165 -0.0918  2.8612
 5156SOL     OW26929   1.120   1.575   2.516 -0.3983  0.0226  0.3281
 5156SOL    HW126930   1.047   1.622   2.557 -0.1707 -0.8963  1.7951
 5156SOL    HW226931   1.070   1.494   2.506  0.9579 -0.4807 -2.3521
 5157SOL     OW26932   2.055   3.370   2.420 -0.0284 -0.0340  0.4540
 5157SOL    HW126933   1.962   3.383   2.405  0.0623  0.6044  0.4607
 5157SOL    HW226934   2.090   3.413   2.342 -1.2481 -3.0804 -1.7805
 5158SOL     OW26935   4.688   1.887   4.008 -0.0887 -0.3464  0.1369
 5158SOL    HW126936   4.670   1.968   4.055  0.1059  1.1345 -2.3506
 5158SOL    HW226937   0.021   1.912   3.932 -0.3060  1.4221  0.5825
 5159SOL     OW26938   4.123   0.340   5.372  0.0053  0.2154  0.0842
 5159SOL    HW126939   4.190   0.273   5.354  0.5149  0.4915  0.9802
 5159SOL    HW226940   4.070   0.300   5.441 -0.3547 -3.4909 -2.2862
 5160SOL     OW26941   1.804   1.536   8.472 -0.0675 -0.0272 -0.6820
 5160SOL    HW126942   1.813   1.476   8.546 -0.6435  0.3522 -0.2978
 5160SOL    HW226943   1.723   1.511   8.427 -0.7905  1.6744 -0.3390
 5161SOL     OW26944   2.928   1.710   2.667 -0.1349 -1.1142 -0.2228
 5161SOL    HW126945   2.866   1.671   2.728 -0.3777 -0.4214 -0.0261
 5161SOL    HW226946   2.925   1.635   2.608 -1.9550 -0.7902 -0.5419
 5162SOL     OW26947   4.616   2.275  12.919 -0.8096  0.3699 -0.0522
 5162SOL    HW126948   4.527   2.297  12.948 -0.0032  2.7185  0.7256
 5162SOL    HW226949   4.666   2.357  12.922  0.5732 -0.3607 -3.7089
 5163SOL     OW26950   0.819   2.096   2.894  0.0498 -0.0824 -0.6140
 5163SOL    HW126951   0.844   2.153   2.822 -1.6969 -0.7503 -1.7460
 5163SOL    HW226952   0.865   2.147   2.960  1.2655 -0.2471 -1.3379
 5164SOL     OW26953   0.571   1.765  14.285 -0.0735  0.3116  0.5192
 5164SOL    HW126954   0.651   1.779  14.335  0.1153 -0.8314  0.5523
 5164SOL    HW226955   0.554   1.855  14.257  0.6927  1.2258  3.0213
 5165SOL     OW26956   2.676   3.898   2.418 -0.0726 -0.4071  0.3122
 5165SOL    HW126957   2.701   3.812   2.385 -0.0247 -0.1789 -0.2383
 5165SOL    HW226958   2.631   3.935   2.342  1.3706 -0.6281 -0.6460
 5166SOL     OW26959   1.234   2.152  12.903 -0.2069  0.0497  0.1757
 5166SOL    HW126960   1.299   2.096  12.946 -0.8873 -0.0127  1.1319
 5166SOL    HW226961   1.190   2.077  12.862 -1.5663  1.4876 -0.9859
 5167SOL     OW26962   4.635   2.941  17.144 -0.4603 -0.5585  0.2082
 5167SOL    HW126963   4.565   2.907  17.200 -2.6116 -0.6437 -2.5425
 5167SOL    HW226964   4.592   3.009  17.092 -0.0992 -1.4418 -1.2553
 5168SOL     OW26965   2.212   4.507   4.063 -0.1305  0.5474 -0.7870
 5168SOL    HW126966   2.258   4.589   4.084  0.8121  0.2073 -1.5357
 5168SOL    HW226967   2.217   4.463   4.148  0.6003 -0.3975 -1.3268
 5169SOL     OW26968   3.167   4.683   6.419  0.1078 -0.2318 -0.3309
 5169SOL    HW126969   3.135   4.600   6.385 -2.4217  0.3948  0.4854
 5169SOL    HW226970   3.144   4.673   6.512  2.1500  0.2083  0.2422
 5170SOL     OW26971   1.805   0.320  17.035 -0.4316  0.1915 -0.4092
 5170SOL    HW126972   1.862   0.390  17.068 -0.5506 -0.5238  1.3216
 5170SOL    HW226973   1.761   0.376  16.971  1.2549  0.4459 -1.3610
 5171SOL     OW26974   3.285   1.031   0.137  0.4498 -0.2412 -0.3815
 5171SOL    HW126975   3.230   1.057   0.063  0.6113  1.1425 -0.0165
 5171SOL    HW226976   3.295   1.115   0.181 -0.7010  0.0551 -0.6845
 5172SOL     OW26977   4.005   2.190   3.148 -0.1178  0.1702  0.0494
 5172SOL    HW126978   4.035   2.101   3.163  1.6272  0.5971 -0.9374
 5172SOL    HW226979   4.000   2.193   3.053  1.5436  0.4596 -0.0269
 5173SOL     OW26980   0.592   0.601   2.764 -0.2791 -0.0017  0.0986
 5173SOL    HW126981   0.594   0.689   2.728 -0.6068 -0.5696 -1.3103
 5173SOL    HW226982   0.510   0.578   2.721 -0.6915 -3.1827  2.5534
 5174SOL     OW26983   4.604   1.231  15.582 -0.4711 -0.2719 -0.0138
 5174SOL    HW126984   4.639   1.175  15.651 -0.5563  1.6084  1.5448
 5174SOL    HW226985   4.617   1.315  15.625  1.6148 -0.2571 -0.6483
 5175SOL     OW26986   1.199   3.081   4.017  0.2283 -0.1235 -0.2810
 5175SOL    HW126987   1.269   3.117   4.071  0.1019  0.3544 -0.4297
 5175SOL    HW226988   1.231   3.094   3.928  1.3773  2.2098  0.4692
 5176SOL     OW26989   3.033   3.341   1.859 -0.2556  0.2003 -0.3173
 5176SOL    HW126990   2.999   3.252   1.848 -1.4630  0.4171  1.6068
 5176SOL    HW226991   2.954   3.395   1.861 -1.3321 -1.4366  1.1782
 5177SOL     OW26992   1.613   1.233   7.591 -0.1259  0.7184  0.1478
 5177SOL    HW126993   1.552   1.163   7.567  2.0733 -1.0585 -0.1556
 5177SOL    HW226994   1.702   1.201   7.583 -1.5626 -2.8083 -1.6361
 5178SOL     OW26995   4.555   0.131   2.051 -0.3267  0.2691 -0.9375
 5178SOL    HW126996   4.544   0.193   2.124 -0.9767  0.7138 -1.4174
 5178SOL    HW226997   4.472   0.083   2.050 -1.7028  2.6556 -0.4003
 5179SOL     OW26998   0.670   1.699  12.397 -0.3587 -0.5791 -0.9152
 5179SOL    HW126999   0.641   1.761  12.329  1.0424 -0.0173 -1.0035
 5179SOL    HW227000   0.715   1.639  12.338  1.6301  0.0731 -0.0586
 5180SOL     OW27001   3.921   0.849   8.556 -0.0847 -0.2053  0.4407
 5180SOL    HW127002   3.852   0.899   8.599  1.5529  1.7741  0.8007
 5180SOL    HW227003   3.859   0.780   8.533 -1.8816  0.8733  1.9819
 5181SOL     OW27004   2.748   1.139  12.969 -0.3279 -0.6111 -0.0908
 5181SOL    HW127005   2.796   1.067  13.009 -1.4226 -0.5824  1.2970
 5181SOL    HW227006   2.817   1.174  12.912 -0.4478 -0.1031  0.0710
 5182SOL     OW27007   3.434   0.614   8.491 -0.4621  0.2721  0.0461
 5182SOL    HW127008   3.428   0.556   8.567  1.3321  1.8641  1.3941
 5182SOL    HW227009   3.365   0.579   8.435 -2.0549 -0.8138  2.7208
 5183SOL     OW27010   2.788   2.535   9.537 -0.2668  0.3400  0.6070
 5183SOL    HW127011   2.757   2.447   9.517  0.4419  0.3766 -0.6734
 5183SOL    HW227012   2.853   2.550   9.468  0.0709  0.3862  0.9379
 5184SOL     OW27013   2.883   0.039   1.139 -0.0822 -0.0660 -0.5276
 5184SOL    HW127014   2.917   4.693   1.199 -0.0464 -1.1374 -1.7160
 5184SOL    HW227015   2.796   4.719   1.142 -0.6479  1.3442  1.7571
 5185SOL     OW27016   3.909   2.926   6.299 -0.2254  0.0799  0.2075
 5185SOL    HW127017   3.852   2.849   6.305  0.7108 -0.6064  0.3078
 5185SOL    HW227018   3.926   2.945   6.207 -0.5204  1.5254  0.4582
 5186SOL     OW27019   4.056   1.818  11.658  0.3570 -0.1105  0.1617
 5186SOL    HW127020   4.000   1.771  11.596  0.5165  1.5796 -1.2711
 5186SOL    HW227021   4.047   1.905  11.617 -1.0039 -1.0400 -1.5259
 5187SOL     OW27022   2.596   1.603   4.219  0.1790  0.3206 -0.4427
 5187SOL    HW127023   2.527   1.541   4.243 -0.9291  1.6185 -0.2745
 5187SOL    HW227024   2.605   1.635   4.309 -1.6150  0.8306 -0.4344
 5188SOL     OW27025   4.062   1.637   9.126  0.0221 -0.3286 -0.3369
 5188SOL    HW127026   4.148   1.650   9.085 -0.0216 -0.5567 -0.5006
 5188SOL    HW227027   4.080   1.673   9.213  3.0520 -1.5981 -0.4392
 5189SOL     OW27028   1.114   0.046   0.480  0.3296  0.0776 -0.1633
 5189SOL    HW127029   1.137   0.127   0.526 -0.5507  0.4358 -0.3422
 5189SOL    HW227030   1.069   0.002   0.553 -1.7269  2.5496  0.0689
 5190SOL     OW27031   3.411   3.488   6.470 -0.1486 -0.0895 -0.4306
 5190SOL    HW127032   3.432   3.512   6.379 -1.3800 -0.3142 -0.7800
 5190SOL    HW227033   3.499   3.493   6.506  0.5709  0.1639 -2.1920
 5191SOL     OW27034   1.927   2.895  15.927  0.5884 -0.2969  0.3924
 5191SOL    HW127035   1.876   2.856  15.997 -0.1389 -1.3912 -0.7505
 5191SOL    HW227036   1.998   2.833  15.917  0.6742  0.1101 -1.5402
 5192SOL     OW27037   4.214   0.734   5.529 -0.2865  0.2209 -0.5163
 5192SOL    HW127038   4.170   0.765   5.609  1.2529 -0.6362  0.6510
 5192SOL    HW227039   4.145   0.744   5.464  0.0733  0.6041 -0.8403
 5193SOL     OW27040   4.243   1.297   0.784  0.3402 -0.4695 -0.5822
 5193SOL    HW127041   4.233   1.213   0.829 -2.7693 -0.6987 -1.7206
 5193SOL    HW227042   4.288   1.353   0.847  0.1518 -1.5264  0.4829
 5194SOL     OW27043   0.734   3.588  12.100 -0.4676  0.2924 -0.5393
 5194SOL    HW127044   0.769   3.590  12.010  1.5774  1.5046  0.2814
 5194SOL    HW227045   0.760   3.499  12.123 -1.5274  0.4308  1.1745
 5195SOL     OW27046   4.036   0.497   4.887  0.5703  0.1605  0.1934
 5195SOL    HW127047   4.066   0.530   4.971  0.4102 -0.8267  0.6340
 5195SOL    HW227048   3.948   0.536   4.889  1.4899  2.2339  0.0501
 5196SOL     OW27049   3.909   1.589  10.692 -0.5384 -0.5035 -0.1956
 5196SOL    HW127050   3.829   1.629  10.659 -0.2565 -0.6857 -1.1144
 5196SOL    HW227051   3.881   1.498  10.681  0.5947 -0.7093 -1.3514
 5197SOL     OW27052   0.876   2.406   8.983 -0.3697 -0.4231  0.1790
 5197SOL    HW127053   0.898   2.408   8.890  1.1543 -0.5276  0.5387
 5197SOL    HW227054   0.894   2.314   9.004  1.5624  0.6066  3.0507
 5198SOL     OW27055   1.465   0.565   7.367  0.2479 -0.2333 -0.4868
 5198SOL    HW127056   1.458   0.566   7.272 -1.7627  2.3914 -0.3254
 5198SOL    HW227057   1.557   0.579   7.390 -0.5619  1.2092  1.9049
 5199SOL     OW27058   1.875   1.807  17.014  0.2626  0.2801  0.3893
 5199SOL    HW127059   1.869   1.901  17.033 -2.0189  0.1223  0.5444
 5199SOL    HW227060   1.816   1.771  17.080 -0.1363  2.0125  0.9852
 5200SOL     OW27061   0.055   4.687   7.219 -0.8613 -0.8054 -0.4400
 5200SOL    HW127062   0.112   4.673   7.295  1.1521 -1.6017 -2.1092
 5200SOL    HW227063   4.695   4.708   7.268 -0.4905 -0.6594  0.1023
 5201SOL     OW27064   3.230   0.223   2.896 -0.0573 -0.6563 -0.1173
 5201SOL    HW127065   3.280   0.178   2.828 -0.3988  0.1337 -0.9049
 5201SOL    HW227066   3.296   0.237   2.964  2.2349  1.1737 -2.6762
 5202SOL     OW27067   1.944   2.671   8.577 -0.9876  0.0982  0.4677
 5202SOL    HW127068   1.877   2.617   8.535  0.0510 -1.5318  0.9418
 5202SOL    HW227069   1.932   2.650   8.669  1.1227  0.5893  0.8668
 5203SOL     OW27070   4.356   2.246  13.387  0.1659  0.4309 -0.9437
 5203SOL    HW127071   4.339   2.239  13.293  0.8906  0.8254 -1.1028
 5203SOL    HW227072   4.361   2.341  13.401  2.8368  0.5569 -2.8120
 5204SOL     OW27073   1.553   2.054   4.059 -0.3730 -0.6747  0.3646
 5204SOL    HW127074   1.633   2.016   4.023 -0.1696  0.0417  0.0652
 5204SOL    HW227075   1.584   2.084   4.145 -1.7883  0.4903  0.4592
 5205SOL     OW27076   2.117   3.994   8.141 -0.1521 -0.0052 -0.1314
 5205SOL    HW127077   2.141   3.903   8.158 -0.9660  0.2183  2.3487
 5205SOL    HW227078   2.037   4.001   8.195 -0.7488 -2.5361 -0.7144
 5206SOL     OW27079   0.865   0.442   4.762  0.2908  0.4307 -0.0619
 5206SOL    HW127080   0.774   0.460   4.783 -0.0015  0.1797 -1.1089
 5206SOL    HW227081   0.876   0.512   4.698 -0.0668 -1.4814 -2.2366
 5207SOL     OW27082   1.065   0.313  15.058  0.5653  0.1711 -0.1522
 5207SOL    HW127083   1.117   0.390  15.035  0.8053  0.2154  0.5586
 5207SOL    HW227084   1.116   0.243  15.017  1.6382  1.6527 -1.3798
 5208SOL     OW27085   3.532   1.768   9.513 -0.0148  0.6211 -0.0750
 5208SOL    HW127086   3.443   1.797   9.492  0.0201  0.9633  0.2502
 5208SOL    HW227087   3.515   1.756   9.606  1.6084 -1.9750 -0.1120
 5209SOL     OW27088   0.599   2.498  13.814  0.4927  0.1279  0.1970
 5209SOL    HW127089   0.682   2.538  13.838 -0.5775  2.3846  0.1234
 5209SOL    HW227090   0.604   2.511  13.719  1.2161 -0.7801  0.1042
 5210SOL     OW27091   3.777   4.520   2.541  0.5309  0.6707  0.4674
 5210SOL    HW127092   3.689   4.537   2.509  0.8702 -2.2969 -1.9478
 5210SOL    HW227093   3.774   4.428   2.566  2.9375  0.6327  0.6706
 5211SOL     OW27094   1.232   2.324   6.471  0.1961  0.0837 -0.2414
 5211SOL    HW127095   1.269   2.365   6.393 -0.5076 -1.0427 -1.1707
 5211SOL    HW227096   1.246   2.233   6.446  2.9301  0.9684 -2.0287
 5212SOL     OW27097   0.850   0.924   2.105  0.3431 -0.7886  0.3347
 5212SOL    HW127098   0.761   0.940   2.138 -0.0643 -0.0107 -1.1307
 5212SOL    HW227099   0.836   0.829   2.098 -0.1792 -0.7584  0.9124
 5213SOL     OW27100   3.678   1.380   6.381 -0.0850  0.1012  0.1863
 5213SOL    HW127101   3.669   1.439   6.306 -0.7393 -0.1102  0.0963
 5213SOL    HW227102   3.629   1.434   6.443  1.5717  0.6909  0.9968
 5214SOL     OW27103   4.548   3.220   6.083 -0.6342 -0.6935 -0.2105
 5214SOL    HW127104   4.540   3.233   6.178  0.7838 -3.3184  0.2677
 5214SOL    HW227105   4.639   3.246   6.068 -0.3918 -0.8182  1.0753
 5215SOL     OW27106   2.034   2.964  11.151  0.3906 -0.3001  0.1720
 5215SOL    HW127107   2.039   2.869  11.161  0.8458 -0.1496  1.3024
 5215SOL    HW227108   1.941   2.988  11.161  0.2577 -1.1685  0.9988
 5216SOL     OW27109   2.328   0.000   4.225  0.1885 -0.4921  0.0944
 5216SOL    HW127110   2.397   0.052   4.183  0.7090 -0.0921  1.4230
 5216SOL    HW227111   2.256   0.058   4.199 -1.5897 -2.0315  1.5511
 5217SOL     OW27112   3.911   0.666   1.865 -0.1839  0.3557 -0.1413
 5217SOL    HW127113   3.857   0.654   1.786  0.0339 -2.1060  0.0868
 5217SOL    HW227114   3.941   0.575   1.870  0.2458  0.6343  2.0873
 5218SOL     OW27115   1.440   4.521   8.375 -0.0271  0.3832  0.4486
 5218SOL    HW127116   1.468   4.456   8.439 -0.8311 -1.4511 -1.0551
 5218SOL    HW227117   1.489   4.482   8.303 -0.2114 -0.8542  0.9915
 5219SOL     OW27118   0.823   3.301   5.410  0.1423 -0.2589 -0.5584
 5219SOL    HW127119   0.764   3.330   5.479  1.6381  1.2144  0.1259
 5219SOL    HW227120   0.864   3.386   5.396  0.2354  0.1173  1.9753
 5220SOL     OW27121   4.463   2.970   6.209 -0.0528 -0.1584  0.6716
 5220SOL    HW127122   4.485   2.932   6.124 -1.1646  1.6750 -0.4433
 5220SOL    HW227123   4.553   2.969   6.244  0.2666  1.1707 -0.1123
 5221SOL     OW27124   2.570   3.657  15.678  0.0039  0.7136 -0.0850
 5221SOL    HW127125   2.506   3.608  15.627  0.8994  0.9421 -1.4238
 5221SOL    HW227126   2.653   3.641  15.632 -0.7977 -1.3310 -0.8078
 5222SOL     OW27127   0.754   0.266  14.234 -0.2145 -0.7915  0.0202
 5222SOL    HW127128   0.683   0.298  14.290 -0.4644 -3.1448  1.0756
 5222SOL    HW227129   0.763   0.172  14.250  1.3336 -0.3413  1.8614
 5223SOL     OW27130   3.054   0.600   0.905 -0.0673  0.3384  0.0216
 5223SOL    HW127131   3.047   0.511   0.873  1.0255 -0.6280  2.4263
 5223SOL    HW227132   3.137   0.604   0.954 -0.3074  4.3948  0.0959
 5224SOL     OW27133   2.887   1.855   6.065 -0.1373  0.1410 -0.0461
 5224SOL    HW127134   2.816   1.859   6.001  0.5988  1.0521 -0.8044
 5224SOL    HW227135   2.882   1.941   6.107 -0.6660  0.4190 -0.6844
 5225SOL     OW27136   1.903   1.198   3.590 -0.1041 -0.4768 -0.2510
 5225SOL    HW127137   1.832   1.141   3.559 -1.4788  0.1950  1.6836
 5225SOL    HW227138   1.985   1.149   3.583  0.8589  1.1294 -0.2891
 5226SOL     OW27139   3.737   4.698   5.108 -0.3473 -0.2983  0.2144
 5226SOL    HW127140   3.686   0.019   5.037 -2.9989  0.2062  2.4004
 5226SOL    HW227141   3.699   0.019   5.187  0.1820 -0.0965  0.3668
 5227SOL     OW27142   1.068   4.044   4.356 -0.1504 -0.6007  0.2339
 5227SOL    HW127143   1.077   4.116   4.419  0.2030  0.4696 -1.0569
 5227SOL    HW227144   0.987   4.077   4.318  0.4232  1.3041  0.6849
 5228SOL     OW27145   1.825   4.360   6.694 -0.0678 -0.1208  0.4214
 5228SOL    HW127146   1.815   4.289   6.757 -2.7193 -2.6663 -2.8905
 5228SOL    HW227147   1.762   4.423   6.728 -0.8242 -0.4291 -0.4258
 5229SOL     OW27148   0.211   1.990  16.833 -0.5090 -0.1254  0.3703
 5229SOL    HW127149   0.283   2.042  16.799 -0.8363 -1.2013 -1.9554
 5229SOL    HW227150   0.163   1.974  16.752  1.1096 -2.0996 -0.1970
 5230SOL     OW27151   2.209   3.228   4.188  0.1786 -0.3519  0.1049
 5230SOL    HW127152   2.140   3.294   4.192  0.3199 -0.0394 -2.5927
 5230SOL    HW227153   2.276   3.264   4.131 -1.3854  0.6074 -1.1303
 5231SOL     OW27154   2.625   1.128   2.812  0.2866  0.4833  0.1405
 5231SOL    HW127155   2.621   1.128   2.908  0.0434 -0.7751  0.1402
 5231SOL    HW227156   2.589   1.214   2.794 -0.2243  0.9478  3.3317
 5232SOL     OW27157   1.166   2.551  11.291  0.3563 -0.4417 -0.7688
 5232SOL    HW127158   1.259   2.573  11.300 -0.6284  2.5113  1.8698
 5232SOL    HW227159   1.142   2.559  11.383  1.2749 -1.4718 -0.4319
 5233SOL     OW27160   1.804   3.738   2.476 -0.5088 -0.5053 -0.2651
 5233SOL    HW127161   1.763   3.672   2.420 -1.5877 -0.7990  0.8672
 5233SOL    HW227162   1.880   3.762   2.423 -0.7433  1.2114  0.1724
 5234SOL     OW27163   3.571   1.844  14.472  0.6225  0.0630 -0.0061
 5234SOL    HW127164   3.634   1.814  14.538  1.9101  2.8937  0.0679
 5234SOL    HW227165   3.557   1.935  14.496 -1.0582  0.0400 -0.9518
 5235SOL     OW27166   1.644   1.626   6.278 -0.2155  0.0025  0.0899
 5235SOL    HW127167   1.610   1.625   6.367  2.8627 -0.7081  1.2850
 5235SOL    HW227168   1.566   1.588   6.239  1.2033 -2.5317 -0.3041
 5236SOL     OW27169   0.379   4.524   8.113 -0.0274  0.1148 -0.0965
 5236SOL    HW127170   0.328   4.603   8.131  0.2253  0.0932  0.7145
 5236SOL    HW227171   0.312   4.463   8.083 -0.6139  1.3934 -1.3682
 5237SOL     OW27172   2.163   1.709   6.797 -0.4625 -1.0374 -0.2628
 5237SOL    HW127173   2.214   1.628   6.805 -0.1985 -0.8884 -0.4574
 5237SOL    HW227174   2.225   1.761   6.848 -1.4517 -0.9741  0.8727
 5238SOL     OW27175   1.345   0.199  16.984  0.4215 -0.3128 -0.1066
 5238SOL    HW127176   1.353   0.206  16.889 -1.2307  0.4489 -0.1808
 5238SOL    HW227177   1.261   0.242  16.999  1.4633  0.5184  3.4760
 5239SOL     OW27178   0.228   1.912  12.843 -0.5999  0.7564 -0.4348
 5239SOL    HW127179   0.180   1.872  12.770 -2.7006  1.4648  0.5795
 5239SOL    HW227180   0.152   1.944  12.891 -1.4474 -0.2321 -1.1231
 5240SOL     OW27181   1.124   1.919   8.443  0.3618 -0.4303  0.2364
 5240SOL    HW127182   1.062   1.930   8.515  1.0828  0.8030  0.6705
 5240SOL    HW227183   1.205   1.947   8.486  0.3086 -1.3622  0.9427
 5241SOL     OW27184   3.047   3.812   2.137  0.2713 -0.5294 -0.2259
 5241SOL    HW127185   3.013   3.843   2.053  1.3879 -2.4678 -1.3588
 5241SOL    HW227186   3.117   3.874   2.158 -0.0077  0.4695 -2.2192
 5242SOL     OW27187   2.739   2.623   2.796 -0.4641 -0.5105 -0.0013
 5242SOL    HW127188   2.821   2.584   2.765 -0.5926 -0.6851 -0.1173
 5242SOL    HW227189   2.757   2.717   2.787 -1.0854 -0.4505 -0.6179
 5243SOL     OW27190   2.963   1.680  15.928 -0.0907 -0.0837  0.4531
 5243SOL    HW127191   2.879   1.682  15.882  0.1742 -1.0692 -0.0636
 5243SOL    HW227192   2.993   1.771  15.928 -2.4747  0.7082  0.2278
 5244SOL     OW27193   3.269   0.048   6.849  0.3453 -0.3394  0.2133
 5244SOL    HW127194   3.338   0.024   6.911  0.0424  0.2515  0.7674
 5244SOL    HW227195   3.308   0.122   6.801 -2.0397  0.2382 -0.8199
 5245SOL     OW27196   3.685   3.550  14.940 -0.0186 -0.3217 -0.4862
 5245SOL    HW127197   3.713   3.562  15.030  1.9168 -2.5571 -0.7922
 5245SOL    HW227198   3.756   3.577  14.882  1.6127 -0.0841  1.6631
 5246SOL     OW27199   3.639   3.818   4.783  0.2527 -0.1576  0.7405
 5246SOL    HW127200   3.593   3.810   4.700  2.2864  1.4047 -0.5182
 5246SOL    HW227201   3.638   3.726   4.809 -0.3691 -0.6099 -0.8821
 5247SOL     OW27202   3.640   0.430  15.824 -0.1156 -0.1682  0.1323
 5247SOL    HW127203   3.555   0.393  15.798  0.2323  0.3167 -1.6853
 5247SOL    HW227204   3.614   0.508  15.873  2.1920  0.9673 -0.4488
 5248SOL     OW27205   2.607   2.165   3.616 -0.4340 -0.1519 -0.1766
 5248SOL    HW127206   2.684   2.123   3.655 -0.7158 -2.0413 -1.6901
 5248SOL    HW227207   2.618   2.132   3.527 -1.1852  0.4102 -0.4749
 5249SOL     OW27208   2.581   0.528   5.296 -0.9755  0.6247 -0.0063
 5249SOL    HW127209   2.551   0.491   5.213  1.3188 -0.8281 -0.1924
 5249SOL    HW227210   2.503   0.575   5.326 -1.1652  0.2316  0.1100
 5250SOL     OW27211   3.976   0.786   6.764 -0.5580 -0.3772 -0.3154
 5250SOL    HW127212   3.896   0.828   6.794  0.8837  2.9834 -1.2619
 5250SOL    HW227213   3.996   0.730   6.839  2.8170  0.2466 -0.7668
 5251SOL     OW27214   1.871   0.238   6.814 -0.3222 -0.2019 -0.1000
 5251SOL    HW127215   1.858   0.262   6.906  0.3904  0.5982 -0.1969
 5251SOL    HW227216   1.945   0.296   6.797 -2.4676  2.1365 -1.3863
 5252SOL     OW27217   3.342   3.469   7.251 -0.0457 -0.2613 -0.4649
 5252SOL    HW127218   3.392   3.450   7.172 -0.6288  1.8619 -1.3678
 5252SOL    HW227219   3.374   3.399   7.308  3.1409  0.9871 -0.7424
 5253SOL     OW27220   1.177   2.296   0.224  0.1144  0.2669 -0.0955
 5253SOL    HW127221   1.233   2.311   0.148  2.7069 -0.0835  1.7318
 5253SOL    HW227222   1.248   2.268   0.282  1.2099  0.2112 -1.4843
 5254SOL     OW27223   1.605   2.334   2.551 -1.0161  0.1099  0.0540
 5254SOL    HW127224   1.581   2.412   2.500  0.6016 -0.8688 -2.1837
 5254SOL    HW227225   1.699   2.340   2.564 -0.4598 -1.2003 -3.5042
 5255SOL     OW27226   1.101   2.006   5.500 -0.2525 -0.6908 -0.3265
 5255SOL    HW127227   1.141   1.937   5.446 -0.9480 -0.5492 -1.0242
 5255SOL    HW227228   1.160   1.994   5.574  0.8839 -0.2275 -1.1650
 5256SOL     OW27229   1.549   3.319   6.771  0.0474  0.3043  0.0118
 5256SOL    HW127230   1.608   3.394   6.783 -0.6015  0.7641  0.3262
 5256SOL    HW227231   1.479   3.342   6.832 -0.8396 -0.3029 -0.7715
 5257SOL     OW27232   1.948   0.151  16.141 -0.1582  0.4542 -0.1172
 5257SOL    HW127233   1.988   0.236  16.124  0.2455  0.1797 -0.5406
 5257SOL    HW227234   2.020   0.114  16.193 -1.2476 -2.1792 -0.4674
 5258SOL     OW27235   4.643   1.241   3.189 -0.2584  0.1346 -0.1125
 5258SOL    HW127236   4.713   1.199   3.138  0.4633  1.7247 -0.4312
 5258SOL    HW227237   4.569   1.217   3.134  1.0759  0.5940 -2.1380
 5259SOL     OW27238   2.316   2.699  10.926  0.7817  0.0017  0.0648
 5259SOL    HW127239   2.296   2.737  10.840 -0.5894 -1.1023 -0.1133
 5259SOL    HW227240   2.390   2.752  10.953  1.4834  0.2878 -2.3702
 5260SOL     OW27241   0.310   3.295   3.800 -0.0790 -0.1958 -0.0865
 5260SOL    HW127242   0.307   3.354   3.876 -1.0095  0.3777 -0.5706
 5260SOL    HW227243   0.293   3.357   3.729  0.3509 -0.4970 -0.4523
 5261SOL     OW27244   2.312   0.874   6.242 -0.3788 -0.3271  0.8376
 5261SOL    HW127245   2.380   0.938   6.221 -0.2103 -1.7093 -2.8629
 5261SOL    HW227246   2.245   0.935   6.274  0.1899  0.3893  0.6807
 5262SOL     OW27247   2.199   4.266  10.709  0.0785  0.2370  0.5297
 5262SOL    HW127248   2.285   4.297  10.740 -2.0115  2.6409  3.9144
 5262SOL    HW227249   2.166   4.236  10.793 -1.5794  0.1306 -0.1746
 5263SOL     OW27250   3.563   4.395   4.883  0.0758  0.0451  0.1960
 5263SOL    HW127251   3.485   4.358   4.924 -0.3645  1.3600  0.5643
 5263SOL    HW227252   3.511   4.449   4.824  0.5537 -0.1665 -0.4172
 5264SOL     OW27253   1.430   4.182  12.388 -1.1404 -0.0671  0.0946
 5264SOL    HW127254   1.368   4.208  12.320 -1.2489 -1.3834 -0.3086
 5264SOL    HW227255   1.513   4.178  12.340 -0.1104  0.6589  1.8056
 5265SOL     OW27256   1.896   3.285  14.529 -0.4048 -0.1626 -0.0480
 5265SOL    HW127257   1.917   3.271  14.437 -1.8222 -0.3259 -0.3424
 5265SOL    HW227258   1.810   3.326  14.530  0.0918  0.9026 -2.0774
 5266SOL     OW27259   2.003   2.097   4.469  0.1050 -0.5211  0.4117
 5266SOL    HW127260   1.928   2.108   4.527  0.5700  1.4350  0.6491
 5266SOL    HW227261   2.016   2.002   4.464 -1.6272 -0.7513  0.5522
 5267SOL     OW27262   2.974   2.053  12.359 -0.0729 -0.3331 -0.5522
 5267SOL    HW127263   3.045   2.004  12.317 -0.7456 -2.3315  0.6449
 5267SOL    HW227264   3.032   2.074  12.432  0.5554  0.7585 -1.3593
 5268SOL     OW27265   0.356   2.572   8.121 -0.2491 -0.0980 -0.1398
 5268SOL    HW127266   0.350   2.600   8.029  1.3047  0.5686 -0.0332
 5268SOL    HW227267   0.268   2.536   8.135 -0.7289  1.4310  0.7687
 5269SOL     OW27268   2.030   1.029  15.329  0.0433 -0.2129  0.4058
 5269SOL    HW127269   2.038   0.936  15.308  0.2268 -0.3956  1.2687
 5269SOL    HW227270   1.945   1.028  15.374  0.0246  1.0098  0.3774
 5270SOL     OW27271   3.184   0.754   8.966  0.7294  0.0854 -0.0425
 5270SOL    HW127272   3.173   0.694   8.892 -0.2252 -1.2290  1.1867
 5270SOL    HW227273   3.108   0.812   8.963  2.2269  2.0725  0.3123
 5271SOL     OW27274   0.306   3.848   4.462  0.3396  0.5914  0.1502
 5271SOL    HW127275   0.315   3.863   4.369  0.2896  2.4057  0.4464
 5271SOL    HW227276   0.281   3.935   4.494  1.7444  1.1652 -0.3055
 5272SOL     OW27277   3.617   0.393  14.235  0.5766  0.0600  0.1596
 5272SOL    HW127278   3.589   0.414  14.325  1.1994 -1.4224  0.6980
 5272SOL    HW227279   3.678   0.321  14.252  0.1365 -0.2176  0.5730
 5273SOL     OW27280   2.171   2.313   7.310 -0.1986  0.1069  0.0649
 5273SOL    HW127281   2.175   2.256   7.387 -1.7604  0.5719  0.4753
 5273SOL    HW227282   2.102   2.275   7.256  1.2483 -1.7922 -0.4540
 5274SOL     OW27283   3.869   2.943   8.821  0.0312  0.1939  0.0030
 5274SOL    HW127284   3.864   2.867   8.879  1.9430 -0.2943 -0.5055
 5274SOL    HW227285   3.830   2.907   8.742 -0.6659 -2.8785  1.7720
 5275SOL     OW27286   2.550   2.244   4.262  0.2416 -0.0455  0.0993
 5275SOL    HW127287   2.489   2.173   4.279 -0.9526  1.1609  0.8284
 5275SOL    HW227288   2.632   2.214   4.223  0.4040 -3.8878  3.4112
 5276SOL     OW27289   3.516   4.284   8.742 -0.6928 -0.0641  0.1169
 5276SOL    HW127290   3.497   4.289   8.836  1.5606 -1.0282  0.6129
 5276SOL    HW227291   3.442   4.228   8.718  1.2440 -1.1599 -3.2985
 5277SOL     OW27292   4.109   0.584   9.356 -0.1214  0.3912 -0.3562
 5277SOL    HW127293   4.020   0.550   9.362  0.4976 -1.1715 -0.2380
 5277SOL    HW227294   4.095   0.663   9.302 -0.5999 -0.8415 -2.0248
 5278SOL     OW27295   4.001   3.994   9.390 -0.1889  0.3637  0.4317
 5278SOL    HW127296   3.988   3.998   9.484  0.5927 -0.8085  0.5786
 5278SOL    HW227297   4.096   4.002   9.377  0.0927 -0.2803  2.1951
 5279SOL     OW27298   0.998   3.684   3.313  0.6063 -0.0590 -0.1010
 5279SOL    HW127299   1.088   3.704   3.287  1.3823 -2.4283  0.7483
 5279SOL    HW227300   0.955   3.666   3.229 -3.5567  1.4796  1.7138
 5280SOL     OW27301   2.552   4.085   3.910  0.4127  0.0454  0.6146
 5280SOL    HW127302   2.477   4.061   3.855 -0.8129  1.4327  1.6869
 5280SOL    HW227303   2.517   4.157   3.962  0.4622  0.1633  0.4843
 5281SOL     OW27304   1.718   1.651   1.822 -0.0826  0.1903 -0.2968
 5281SOL    HW127305   1.793   1.615   1.870 -1.1178  1.1688  2.0521
 5281SOL    HW227306   1.664   1.572   1.833  1.3263 -0.8976 -1.1464
 5282SOL     OW27307   2.626   1.411   4.780  0.8870  0.3433  0.1720
 5282SOL    HW127308   2.659   1.474   4.845  0.7010 -0.1606  0.7565
 5282SOL    HW227309   2.703   1.381   4.733  0.4767  1.1426 -1.0072
 5283SOL     OW27310   4.504   1.775   2.665 -0.1861 -0.4016  0.7952
 5283SOL    HW127311   4.568   1.728   2.718  0.8326  1.3822  1.1433
 5283SOL    HW227312   4.426   1.752   2.716 -0.1534  0.7016  1.3563
 5284SOL     OW27313   3.376   4.559   5.619  0.3626 -0.5648 -0.7712
 5284SOL    HW127314   3.337   4.560   5.531 -0.0540 -0.3560 -0.5864
 5284SOL    HW227315   3.469   4.548   5.601  0.9051  0.7323  1.2782
 5285SOL     OW27316   0.010   3.680   7.476 -0.1255  0.0558  0.1421
 5285SOL    HW127317   4.688   3.667   7.562  0.5912  2.2527  0.8071
 5285SOL    HW227318   4.679   3.752   7.439  0.0072  0.8078  1.4304
 5286SOL     OW27319   0.062   1.415   5.634 -0.0879 -0.1482  0.5151
 5286SOL    HW127320   0.069   1.346   5.701 -0.7466 -2.1923 -1.5290
 5286SOL    HW227321   0.141   1.461   5.661 -2.5493  3.7182  1.0717
 5287SOL     OW27322   2.671   2.093   3.369 -0.7590 -0.1271 -0.0585
 5287SOL    HW127323   2.683   2.167   3.310  0.1946 -2.0851 -2.3692
 5287SOL    HW227324   2.731   2.028   3.331  0.0270  2.3936 -3.0690
 5288SOL     OW27325   1.907   1.571   2.314  0.0178 -0.3348 -0.1402
 5288SOL    HW127326   1.885   1.490   2.362  2.3874 -1.4205 -0.8893
 5288SOL    HW227327   1.829   1.570   2.259 -0.3297 -0.0895  0.3478
 5289SOL     OW27328   3.406   3.861   3.117  1.1403 -0.8092  0.0469
 5289SOL    HW127329   3.485   3.875   3.064  1.3199 -0.5338  0.3832
 5289SOL    HW227330   3.418   3.772   3.149  1.6884 -0.1517  1.7067
 5290SOL     OW27331   2.016   4.327   5.857 -0.2527  0.7799 -0.2837
 5290SOL    HW127332   1.997   4.363   5.944 -3.3336  4.1923 -2.3618
 5290SOL    HW227333   2.045   4.395   5.796 -1.3238  0.0765 -1.5819
 5291SOL     OW27334   2.499   3.398   7.985  0.2057  0.3906  0.0049
 5291SOL    HW127335   2.467   3.381   7.897  2.3374  0.2509 -0.7458
 5291SOL    HW227336   2.563   3.328   8.001  1.1751  1.1076 -0.7328
 5292SOL     OW27337   4.531   0.820  10.533  0.2394  0.0334 -0.1292
 5292SOL    HW127338   4.460   0.767  10.568 -0.0543  0.0340 -0.7226
 5292SOL    HW227339   4.491   0.840  10.448  0.2253  2.2854  0.4120
 5293SOL     OW27340   1.405   0.194  12.685  0.1983 -0.1558 -0.1673
 5293SOL    HW127341   1.469   0.227  12.622 -1.3914  0.7592 -1.3135
 5293SOL    HW227342   1.464   0.137  12.734 -0.5107  1.6800  2.8214
 5294SOL     OW27343   3.099   1.219   3.636 -0.0074 -0.2046 -0.1400
 5294SOL    HW127344   3.072   1.228   3.728  0.1412  1.7553 -0.3018
 5294SOL    HW227345   3.082   1.125   3.630  0.7714 -0.2989 -0.7645
 5295SOL     OW27346   3.300   0.693  15.173 -0.3234  0.1846 -0.2131
 5295SOL    HW127347   3.236   0.756  15.207 -0.6411 -1.3975  2.0278
 5295SOL    HW227348   3.261   0.609  15.151 -0.0508  0.1907 -0.7144
 5296SOL     OW27349   2.171   4.417   5.115  1.2026  0.1809  0.0070
 5296SOL    HW127350   2.132   4.334   5.089  2.2391 -0.2293 -0.2611
 5296SOL    HW227351   2.264   4.396   5.101  0.2261 -1.9640 -3.1377
 5297SOL     OW27352   2.523   1.144  14.256 -0.3079  0.3959  0.1234
 5297SOL    HW127353   2.586   1.072  14.252 -1.7796 -1.0029  1.8131
 5297SOL    HW227354   2.482   1.129  14.171 -0.7943 -1.9306  0.7513
 5298SOL     OW27355   3.830   0.449   5.688 -0.2164  0.2008 -0.2475
 5298SOL    HW127356   3.762   0.472   5.750 -2.3211 -2.2477 -1.6327
 5298SOL    HW227357   3.900   0.487   5.742 -0.2731 -1.9632  1.3325
 5299SOL     OW27358   1.712   0.890   7.494 -0.4634  0.5607 -0.2514
 5299SOL    HW127359   1.776   0.930   7.435  0.9735  0.0989  0.9710
 5299SOL    HW227360   1.704   0.807   7.447  0.4097  1.4097 -1.9100
 5300SOL     OW27361   1.274   2.937   6.597 -0.0456 -0.1576  0.4460
 5300SOL    HW127362   1.266   2.918   6.504 -0.6826  1.8749  0.0800
 5300SOL    HW227363   1.280   3.033   6.598  0.3962 -0.1761 -0.0450
 5301SOL     OW27364   0.010   3.718   8.423  0.5044 -0.1103  0.0619
 5301SOL    HW127365   0.007   3.654   8.495  1.1497  1.5453  1.5655
 5301SOL    HW227366   4.713   3.801   8.467  1.9756  0.0582  0.2749
 5302SOL     OW27367   4.227   0.312   4.353  0.3696 -0.0123 -0.3872
 5302SOL    HW127368   4.264   0.277   4.272 -1.2008 -0.1736 -1.0303
 5302SOL    HW227369   4.138   0.336   4.327  0.6060 -0.7342 -1.8357
 5303SOL     OW27370   1.319   0.481   9.735 -0.0422  0.1732 -0.1116
 5303SOL    HW127371   1.405   0.496   9.774 -0.2574 -0.1032  0.4703
 5303SOL    HW227372   1.349   0.480   9.645 -2.2560  1.7342 -0.8536
 5304SOL     OW27373   0.884   3.909   6.356 -0.1879 -0.2130 -0.0814
 5304SOL    HW127374   0.799   3.882   6.389  0.0090 -0.0157  0.5810
 5304SOL    HW227375   0.876   3.997   6.394 -1.7143  1.0844 -3.3922
 5305SOL     OW27376   2.377   4.148   1.841  0.0993  0.4270 -0.3261
 5305SOL    HW127377   2.391   4.243   1.846 -1.3631  0.4315  3.6753
 5305SOL    HW227378   2.460   4.122   1.883 -0.0369  0.1121 -0.2532
 5306SOL     OW27379   2.759   3.883   5.323 -0.1051 -0.4035 -0.0273
 5306SOL    HW127380   2.853   3.877   5.340 -0.1047 -1.2925 -0.3383
 5306SOL    HW227381   2.760   3.954   5.258 -0.1841 -1.0969 -0.7891
 5307SOL     OW27382   1.685   2.147   4.319 -0.6418  0.4522  0.4036
 5307SOL    HW127383   1.758   2.112   4.369  1.5772  2.3908 -1.4260
 5307SOL    HW227384   1.719   2.212   4.257  0.3368 -0.9487 -0.5335
 5308SOL     OW27385   1.106   2.673  13.382 -0.5821 -0.9273 -1.0271
 5308SOL    HW127386   1.086   2.614  13.309 -4.0485 -1.6612  0.5063
 5308SOL    HW227387   1.162   2.625  13.443  1.7125  0.2095 -2.2726
 5309SOL     OW27388   1.194   1.306   2.779 -0.1230  0.3947 -0.1816
 5309SOL    HW127389   1.266   1.243   2.791  0.4240  1.0206 -0.2113
 5309SOL    HW227390   1.128   1.259   2.729 -0.5643  0.4567  0.3460
 5310SOL     OW27391   3.669   2.706   3.720  0.5961  0.4091 -0.3173
 5310SOL    HW127392   3.607   2.745   3.659 -1.4313 -0.8271  0.9637
 5310SOL    HW227393   3.754   2.744   3.696 -0.1763  1.4955 -1.3468
 5311SOL     OW27394   1.616   2.472   5.289  0.1251 -0.2522 -0.3953
 5311SOL    HW127395   1.560   2.441   5.218  0.3473  0.7870 -1.0270
 5311SOL    HW227396   1.684   2.521   5.243  2.4034 -2.4758  0.6072
 5312SOL     OW27397   3.722   3.697   3.174  0.1567  0.4194 -0.0077
 5312SOL    HW127398   3.798   3.688   3.117  2.1046 -0.2331  2.6811
 5312SOL    HW227399   3.725   3.792   3.179 -0.0562  0.4604 -0.6893
 5313SOL     OW27400   0.258   4.183   3.311  0.4103  0.2923 -0.4232
 5313SOL    HW127401   0.214   4.191   3.226 -1.0253 -0.8765  0.2126
 5313SOL    HW227402   0.185   4.164   3.370 -0.9038  1.6585 -1.5824
 5314SOL     OW27403   1.551   4.680   7.211 -0.2057  0.2835  0.1245
 5314SOL    HW127404   1.491   4.607   7.194  0.4008 -0.6924  2.1268
 5314SOL    HW227405   1.546   0.002   7.125  3.1204 -0.8510 -0.6346
 5315SOL     OW27406   1.446   0.009   8.558  0.1644  0.2415 -0.5477
 5315SOL    HW127407   1.398   4.700   8.636  0.2811 -0.1862 -0.6355
 5315SOL    HW227408   1.427   4.665   8.490 -1.3637 -0.6603  0.7158
 5316SOL     OW27409   2.913   1.015  15.362 -0.3021  0.4792  0.0588
 5316SOL    HW127410   2.922   0.920  15.369  1.6901  0.6895  0.1146
 5316SOL    HW227411   2.916   1.038  15.455 -0.7754  1.0013 -0.0535
 5317SOL     OW27412   0.626   3.379   3.267  0.0507 -0.1383  0.2362
 5317SOL    HW127413   0.658   3.405   3.353 -0.8488  1.1337  0.1904
 5317SOL    HW227414   0.541   3.422   3.260  0.5837  0.4989 -2.2223
 5318SOL     OW27415   3.576   1.989   2.504  0.3553 -0.1954 -0.7341
 5318SOL    HW127416   3.535   2.011   2.587  1.5670  2.2696 -0.8014
 5318SOL    HW227417   3.505   2.018   2.446  0.2306 -0.9487 -0.9681
 5319SOL     OW27418   1.154   4.650  16.318  0.0795  0.3614 -0.5552
 5319SOL    HW127419   1.104   4.669  16.238  1.0340  1.3463 -0.9222
 5319SOL    HW227420   1.147   4.555  16.323  0.1889  0.3055 -1.3775
 5320SOL     OW27421   0.081   2.274  14.800 -0.0141  0.3694  0.6349
 5320SOL    HW127422   0.020   2.346  14.783 -1.5102 -0.6348  1.7939
 5320SOL    HW227423   0.048   2.196  14.756 -0.5439  0.5965  0.6391
 5321SOL     OW27424   3.685   3.702  12.812  0.6342 -0.2006  0.4700
 5321SOL    HW127425   3.761   3.759  12.801 -0.6152  1.2130 -0.8462
 5321SOL    HW227426   3.720   3.621  12.776  1.8004 -0.2479  1.7274
 5322SOL     OW27427   1.651   2.845   3.475 -0.3034 -0.4543 -0.3715
 5322SOL    HW127428   1.674   2.839   3.382  1.4309 -1.6731  0.1488
 5322SOL    HW227429   1.656   2.755   3.507  3.7811 -0.0907 -0.0140
 5323SOL     OW27430   3.152   4.678  17.305 -0.1114  0.1295 -0.5128
 5323SOL    HW127431   3.245   4.658  17.293 -0.2412  1.1700 -3.1783
 5323SOL    HW227432   3.141   0.053  17.307 -0.2520  0.1158 -0.6035
 5324SOL     OW27433   0.588   2.840   3.386  0.3443 -0.2755  0.1901
 5324SOL    HW127434   0.631   2.921   3.414 -0.2349  0.6876 -1.6424
 5324SOL    HW227435   0.497   2.868   3.381 -0.1208 -1.6453  1.0233
 5325SOL     OW27436   1.209   1.693   9.015 -0.2952 -0.4359  0.1268
 5325SOL    HW127437   1.301   1.710   9.037  0.3737 -0.1938 -2.9099
 5325SOL    HW227438   1.166   1.746   9.083 -3.0788 -0.9471 -1.2311
 5326SOL     OW27439   2.501   1.859   3.744  0.3157  0.0752  0.2215
 5326SOL    HW127440   2.590   1.895   3.748  0.4281  0.0069 -1.7352
 5326SOL    HW227441   2.440   1.932   3.761 -0.2698 -0.8293  2.0135
 5327SOL     OW27442   3.305   1.752   8.894  0.3119 -0.5178 -0.2127
 5327SOL    HW127443   3.338   1.772   8.806  2.7848  0.6518  0.9538
 5327SOL    HW227444   3.372   1.790   8.951  0.6614 -0.3586 -0.7255
 5328SOL     OW27445   1.466   1.652  12.562  0.3599 -0.0747  0.0018
 5328SOL    HW127446   1.559   1.630  12.561  0.1675 -0.8158 -0.7720
 5328SOL    HW227447   1.476   1.747  12.574  0.0481 -0.0243 -0.1366
 5329SOL     OW27448   2.788   4.607   5.477  0.0680 -0.3834  0.3498
 5329SOL    HW127449   2.867   4.627   5.426  0.3984  0.6493  1.2534
 5329SOL    HW227450   2.764   4.687   5.523 -1.2997 -0.6362  0.0777
 5330SOL     OW27451   2.753   0.695   2.902  0.2871 -0.0242  0.1834
 5330SOL    HW127452   2.760   0.618   2.959 -2.8900 -0.0834  0.5008
 5330SOL    HW227453   2.698   0.736   2.969  1.0665  2.0351 -0.4159
 5331SOL     OW27454   2.629   4.179  11.698 -0.2290  0.4938  0.6316
 5331SOL    HW127455   2.706   4.142  11.740  1.4057  1.1697 -1.7516
 5331SOL    HW227456   2.663   4.265  11.672  0.6721  0.2938  1.1820
 5332SOL     OW27457   3.647   4.358   8.070 -0.5038  0.2230  0.7037
 5332SOL    HW127458   3.681   4.350   8.159 -0.1039  2.0397  0.6996
 5332SOL    HW227459   3.690   4.440   8.046 -1.1856  0.5982  0.7590
 5333SOL     OW27460   2.030   4.610   3.523  0.9098 -0.1049 -0.7006
 5333SOL    HW127461   2.039   4.669   3.449 -0.6968 -0.6063 -1.2997
 5333SOL    HW227462   2.089   4.537   3.506  2.2633  0.2214  2.4431
 5334SOL     OW27463   4.107   0.312   3.645 -0.1739 -0.1942 -0.8261
 5334SOL    HW127464   4.119   0.217   3.646 -2.8019 -0.5478 -1.5063
 5334SOL    HW227465   4.012   0.317   3.636 -0.4125 -0.5561  1.4611
 5335SOL     OW27466   0.182   2.521   4.432  0.3937 -0.3135 -0.2186
 5335SOL    HW127467   0.255   2.572   4.467  1.7294 -0.6264 -2.5552
 5335SOL    HW227468   0.105   2.578   4.438 -0.0305 -1.0719  1.5700
 5336SOL     OW27469   3.932   3.109  11.938 -0.4655 -0.1345  0.0530
 5336SOL    HW127470   4.024   3.085  11.929 -0.0743  1.5567 -0.3109
 5336SOL    HW227471   3.887   3.067  11.865 -1.2996 -1.4210  1.3000
 5337SOL     OW27472   0.388   4.556   5.151 -0.5584 -0.7068  0.0671
 5337SOL    HW127473   0.337   4.501   5.091  0.0580  0.2479 -1.3316
 5337SOL    HW227474   0.465   4.587   5.103  1.6618 -0.9304  3.5008
 5338SOL     OW27475   3.063   2.895   9.266  0.2541  0.1431 -0.1282
 5338SOL    HW127476   3.070   2.973   9.320  0.5429  0.3793 -0.5112
 5338SOL    HW227477   3.151   2.871   9.236  0.8049  1.3941  0.5216
 5339SOL     OW27478   2.759   0.014   8.278 -0.2266  0.0069 -0.1068
 5339SOL    HW127479   2.792   0.018   8.368 -2.6342  0.5618  0.7472
 5339SOL    HW227480   2.818   0.075   8.233  1.3198 -0.0875  1.8044
 5340SOL     OW27481   1.878   2.997   1.660  0.3433 -0.2607 -0.0103
 5340SOL    HW127482   1.802   2.978   1.605 -1.0140 -0.3302  1.8820
 5340SOL    HW227483   1.923   3.045   1.591  1.7457  0.6673  1.5507
 5341SOL     OW27484   0.022   2.801  11.571  0.0857 -0.4949  1.0266
 5341SOL    HW127485   4.718   2.803  11.479  2.0814  0.4304  0.5307
 5341SOL    HW227486   4.696   2.878  11.606  0.9503  0.9376 -0.9673
 5342SOL     OW27487   0.480   2.550   4.992 -0.0640  0.3265 -0.0187
 5342SOL    HW127488   0.437   2.625   4.953 -0.4280 -0.0927 -0.4236
 5342SOL    HW227489   0.401   2.520   5.038 -0.5938  3.9337  1.3721
 5343SOL     OW27490   0.562   0.880  15.292  0.4822  0.1671  0.3449
 5343SOL    HW127491   0.630   0.889  15.359 -0.0728  0.7913  0.8218
 5343SOL    HW227492   0.608   0.835  15.222  1.8360  0.5336  0.9927
 5344SOL     OW27493   3.272   4.360   6.965  0.9430  0.0936 -0.7086
 5344SOL    HW127494   3.335   4.395   6.902  0.5581  1.6469 -0.2455
 5344SOL    HW227495   3.336   4.295   6.991  0.0530 -0.5085 -0.0165
 5345SOL     OW27496   3.930   1.038   7.963 -0.4286 -0.2796 -0.3744
 5345SOL    HW127497   3.847   1.023   7.917 -0.4157 -1.7276  0.0907
 5345SOL    HW227498   3.907   0.996   8.046  0.5057  0.0613  0.0585
 5346SOL     OW27499   4.163   1.798   2.937  0.0548  0.1623  0.6912
 5346SOL    HW127500   4.163   1.865   2.869  0.6643  2.1836  2.6480
 5346SOL    HW227501   4.189   1.719   2.890  0.8326 -0.4803  2.1954
 5347SOL     OW27502   1.830   3.703  14.283 -0.2032 -0.3933 -0.3679
 5347SOL    HW127503   1.840   3.612  14.312 -2.6044 -0.5339 -0.0311
 5347SOL    HW227504   1.915   3.712  14.239  0.9980  0.3795  2.1624
 5348SOL     OW27505   4.039   4.634   8.577  0.0699 -0.3283  0.2620
 5348SOL    HW127506   3.994   4.718   8.563 -2.1851 -1.3478  1.4991
 5348SOL    HW227507   4.129   4.662   8.562  0.3651 -0.3282  2.1234
 5349SOL     OW27508   2.821   4.507   3.882  0.0457 -0.0179 -0.6303
 5349SOL    HW127509   2.831   4.576   3.816  0.5644  0.1492 -0.3757
 5349SOL    HW227510   2.768   4.445   3.832 -1.1261  1.2300 -0.9150
 5350SOL     OW27511   2.354   3.390   1.491 -0.0065 -0.0908  0.0294
 5350SOL    HW127512   2.403   3.382   1.409 -0.0931  0.5323 -0.0839
 5350SOL    HW227513   2.307   3.306   1.487 -2.4604  1.3645 -1.5442
 5351SOL     OW27514   1.099   3.129   7.662 -0.2799 -0.2594 -0.2493
 5351SOL    HW127515   1.062   3.216   7.676 -0.4487 -0.1719 -1.2200
 5351SOL    HW227516   1.168   3.161   7.604  0.7276 -1.8755  0.0506
 5352SOL     OW27517   4.056   0.486   5.847  0.3130 -0.4160 -0.4826
 5352SOL    HW127518   4.149   0.509   5.852  0.3455  0.0305 -3.2620
 5352SOL    HW227519   4.038   0.430   5.922  0.1016  0.7615  0.3510
 5353SOL     OW27520   3.052   3.061   1.945  0.3459 -0.8649 -0.0953
 5353SOL    HW127521   3.082   3.086   2.032  0.7888 -0.9193 -0.2337
 5353SOL    HW227522   3.132   3.032   1.901 -0.0071 -0.8587 -0.7409
 5354SOL     OW27523   4.535   0.220   7.942 -0.1863  0.0845 -0.0852
 5354SOL    HW127524   4.621   0.255   7.963  0.2652 -1.4734  0.7042
 5354SOL    HW227525   4.545   0.231   7.847 -1.8848  1.9226 -0.0435
 5355SOL     OW27526   4.154   4.359  12.940  0.2012  0.3176 -0.8175
 5355SOL    HW127527   4.063   4.381  12.961  0.1221 -0.8308  0.0752
 5355SOL    HW227528   4.164   4.438  12.887 -0.8140  0.0910 -1.3369
 5356SOL     OW27529   2.327   1.837   2.174 -0.0331  0.3418  0.3759
 5356SOL    HW127530   2.310   1.930   2.183 -0.1519  0.3626 -0.0661
 5356SOL    HW227531   2.247   1.800   2.136 -1.3169  0.8248  2.6712
 5357SOL     OW27532   3.670   0.204   0.493 -0.3628 -0.0161  0.1790
 5357SOL    HW127533   3.742   0.267   0.495 -0.7572  0.4818 -1.1846
 5357SOL    HW227534   3.699   0.141   0.558 -2.0866 -0.8516  0.1132
 5358SOL     OW27535   2.955   3.786   0.876 -0.0661 -0.4403  0.1211
 5358SOL    HW127536   2.876   3.761   0.829 -1.6930  1.8969  1.6053
 5358SOL    HW227537   3.011   3.711   0.856  0.9208  0.2027  0.4431
 5359SOL     OW27538   2.924   3.801   8.283  0.1039 -0.8691 -0.0161
 5359SOL    HW127539   2.983   3.869   8.250  2.2661 -2.2917  0.9198
 5359SOL    HW227540   2.972   3.722   8.255 -1.2909 -1.5396 -0.4907
 5360SOL     OW27541   0.959   0.453   3.752  0.2142  0.0891  0.9460
 5360SOL    HW127542   0.891   0.498   3.702  0.6656 -1.5013 -1.0818
 5360SOL    HW227543   0.938   0.468   3.845 -0.0175 -0.5537  0.9994
 5361SOL     OW27544   3.671   0.739   2.454  0.2476  0.0311 -0.4399
 5361SOL    HW127545   3.722   0.678   2.400  1.5666  0.9714 -0.2470
 5361SOL    HW227546   3.585   0.701   2.438  0.9213 -1.4981 -0.5083
 5362SOL     OW27547   0.098   3.387  17.376  0.5388 -0.7384  0.6624
 5362SOL    HW127548   0.105   3.295  17.400 -1.0433 -0.9296  0.4343
 5362SOL    HW227549   0.177   3.425  17.414 -0.8543  2.7713  0.0738
 5363SOL     OW27550   1.808   4.284   6.422  0.5069 -0.0344  0.5909
 5363SOL    HW127551   1.835   4.276   6.513 -1.9141 -1.6853  1.1704
 5363SOL    HW227552   1.890   4.290   6.374 -0.0780  1.8530 -0.2127
 5364SOL     OW27553   0.628   4.402   7.983  0.3632  0.4670 -0.4883
 5364SOL    HW127554   0.570   4.436   8.052 -0.7912  0.3521 -1.4047
 5364SOL    HW227555   0.610   4.308   7.979  2.6461 -0.0337  1.0689
 5365SOL     OW27556   0.107   3.922   0.060 -0.1787 -0.2363  0.0410
 5365SOL    HW127557   0.054   3.951  17.667 -0.2836 -1.3617 -0.3284
 5365SOL    HW227558   0.187   3.970   0.041 -0.0673 -1.0046 -1.3858
 5366SOL     OW27559   1.506   0.161   4.068 -0.2675 -0.1129  0.0782
 5366SOL    HW127560   1.489   0.168   3.974  0.1470 -1.2603 -0.0851
 5366SOL    HW227561   1.415   0.150   4.094 -0.5622  0.4812 -0.7247
 5367SOL     OW27562   3.168   2.614  12.049 -0.3104 -0.2901 -0.5161
 5367SOL    HW127563   3.107   2.683  12.076 -1.0953 -1.6233  1.1304
 5367SOL    HW227564   3.111   2.572  11.985  1.5504 -0.6811 -1.9059
 5368SOL     OW27565   3.015   0.064   5.579  0.5104  0.7852  0.1727
 5368SOL    HW127566   2.990   0.146   5.622  0.7044  1.5287 -1.1514
 5368SOL    HW227567   3.019   0.087   5.486 -1.1694 -1.7764 -0.5263
 5369SOL     OW27568   3.997   0.117  10.486  0.3520 -0.5949 -0.3037
 5369SOL    HW127569   3.984   0.172  10.563  3.4221 -0.8077  0.3926
 5369SOL    HW227570   3.931   0.049  10.502  0.2276 -0.2846  0.4768
 5370SOL     OW27571   3.307   2.412   9.511 -0.0002 -0.1118 -0.2619
 5370SOL    HW127572   3.295   2.464   9.591 -0.0007 -1.5980  0.6949
 5370SOL    HW227573   3.221   2.413   9.468 -0.1648  0.5120  0.0801
 5371SOL     OW27574   1.890   0.823   6.867  0.0800 -0.2549  0.0570
 5371SOL    HW127575   1.974   0.826   6.914 -0.4671  0.1993  1.0148
 5371SOL    HW227576   1.905   0.904   6.818  2.2304 -1.0028 -0.5011
 5372SOL     OW27577   4.079   3.166   4.231 -0.2377  0.3985  0.4367
 5372SOL    HW127578   4.061   3.260   4.229 -0.3888  0.3689  0.3860
 5372SOL    HW227579   4.173   3.170   4.248 -0.1931 -2.0790  0.7769
 5373SOL     OW27580   3.090   1.611  15.574 -0.2667  0.1017 -0.1033
 5373SOL    HW127581   3.118   1.649  15.491 -1.7263 -3.7754 -2.3592
 5373SOL    HW227582   3.176   1.591  15.612  0.1293  0.7749 -0.6382
 5374SOL     OW27583   1.505   2.683   8.624  0.1376 -0.3458  0.5838
 5374SOL    HW127584   1.441   2.750   8.604 -0.9176 -1.5278  0.0204
 5374SOL    HW227585   1.482   2.627   8.550 -1.2015  0.3859  0.4492
 5375SOL     OW27586   3.755   3.566  15.534 -0.0763 -0.3279  0.3187
 5375SOL    HW127587   3.792   3.506  15.469 -2.3540 -2.5781  1.0899
 5375SOL    HW227588   3.817   3.553  15.606  0.7260  2.6008  0.1187
 5376SOL     OW27589   1.417   1.120   2.743  0.1000 -0.0913 -0.1374
 5376SOL    HW127590   1.499   1.071   2.741  0.1661  0.0141 -0.0100
 5376SOL    HW227591   1.407   1.135   2.649  0.0631 -1.6198 -0.3754
 5377SOL     OW27592   0.434   3.214  11.280 -0.0797  0.3112  0.5003
 5377SOL    HW127593   0.407   3.214  11.372 -0.7353  1.1217  0.3062
 5377SOL    HW227594   0.515   3.163  11.271 -0.1826  0.3162 -0.3994
 5378SOL     OW27595   1.313   1.996   4.806 -0.5334 -0.2526  0.8067
 5378SOL    HW127596   1.227   2.027   4.775  0.6557  1.9670 -0.3178
 5378SOL    HW227597   1.361   1.974   4.726 -2.4664  1.5545 -0.8964
 5379SOL     OW27598   4.220   4.380   5.984 -0.5156 -0.3630 -0.0819
 5379SOL    HW127599   4.195   4.347   5.897 -2.4312 -3.5140  1.6887
 5379SOL    HW227600   4.298   4.327   6.000 -0.2735 -0.9215 -3.0839
 5380SOL     OW27601   4.281   3.833  14.223 -0.0780 -0.3538  0.4243
 5380SOL    HW127602   4.336   3.763  14.258 -1.5824 -1.7870 -0.0151
 5380SOL    HW227603   4.315   3.911  14.266  1.3611 -0.2050 -0.9617
 5381SOL     OW27604   2.792   4.461   4.418  0.2322 -0.2824  0.5989
 5381SOL    HW127605   2.817   4.550   4.444  0.8057 -0.1796 -0.3178
 5381SOL    HW227606   2.852   4.406   4.468 -0.3175 -2.0986 -0.7483
 5382SOL     OW27607   3.787   1.363  16.305 -0.2947 -0.1190  0.4710
 5382SOL    HW127608   3.879   1.373  16.327  0.5551  0.5422 -3.3020
 5382SOL    HW227609   3.795   1.377  16.210  0.3402  3.3665  1.0516
 5383SOL     OW27610   3.101   3.111   6.768  0.2084 -0.0744  0.1347
 5383SOL    HW127611   3.012   3.125   6.801  0.5112 -2.9330  2.1572
 5383SOL    HW227612   3.137   3.079   6.851  1.5663  1.4613  0.1244
 5384SOL     OW27613   0.062   3.907  10.907 -0.0634 -0.0232  0.4526
 5384SOL    HW127614   0.008   3.890  10.829 -1.5173 -0.0113  1.4477
 5384SOL    HW227615   0.148   3.919  10.867 -0.5141  2.2829  0.1390
 5385SOL     OW27616   4.324   3.881   5.957 -0.8020  0.5459 -0.4881
 5385SOL    HW127617   4.304   3.929   5.876 -1.6337  1.2376  0.1199
 5385SOL    HW227618   4.281   3.797   5.939 -0.3922  0.3633 -0.6191
 5386SOL     OW27619   1.928   0.339  11.478 -0.1095 -0.0123  0.9642
 5386SOL    HW127620   1.849   0.347  11.532 -0.9364  1.8992 -0.5384
 5386SOL    HW227621   1.890   0.291  11.404  0.8094  2.0352 -0.8205
 5387SOL     OW27622   1.045   4.054   3.759 -0.5040 -0.1145 -0.6526
 5387SOL    HW127623   1.053   3.972   3.710 -2.2620 -1.5635  1.4804
 5387SOL    HW227624   0.991   4.103   3.697 -0.1175  0.0039 -0.8936
 5388SOL     OW27625   0.830   2.615  14.039 -0.3640  0.0197  0.7834
 5388SOL    HW127626   0.823   2.550  14.108 -0.0617 -0.7556  0.0810
 5388SOL    HW227627   0.840   2.563  13.960 -0.6006  0.6652  0.3273
 5389SOL     OW27628   4.060   0.705   4.176 -0.5907  0.0306 -0.0677
 5389SOL    HW127629   4.060   0.631   4.115  0.2876 -0.6429  0.7376
 5389SOL    HW227630   4.049   0.776   4.114  3.9075 -1.7098 -2.8298
 5390SOL     OW27631   0.483   3.397   6.816 -0.0689  0.2377 -0.0335
 5390SOL    HW127632   0.473   3.419   6.909  2.5785  2.3798 -0.2444
 5390SOL    HW227633   0.578   3.411   6.818 -0.0924  0.3990 -0.0339
 5391SOL     OW27634   2.463   2.107   6.957 -0.5040 -0.2983 -0.3652
 5391SOL    HW127635   2.498   2.191   6.989  0.0086 -1.1630  1.3246
 5391SOL    HW227636   2.387   2.100   7.015  2.6075  2.8037  4.0687
 5392SOL     OW27637   3.238   1.369   3.199  0.5499 -0.3827 -0.2915
 5392SOL    HW127638   3.270   1.351   3.287 -1.5447  0.2828  0.6142
 5392SOL    HW227639   3.264   1.461   3.192  0.6974 -0.4019 -0.0080
 5393SOL     OW27640   2.126   1.228   0.182 -0.2541 -0.2927 -0.3909
 5393SOL    HW127641   2.216   1.197   0.172 -0.4546 -1.1808  0.6221
 5393SOL    HW227642   2.134   1.276   0.265  1.1925 -1.2716  0.0333
 5394SOL     OW27643   4.365   1.431   3.744 -0.1159  0.3876 -0.3353
 5394SOL    HW127644   4.280   1.435   3.700 -0.9792 -2.0156  1.1022
 5394SOL    HW227645   4.428   1.387   3.687  1.0927  0.5651  0.8827
 5395SOL     OW27646   2.126   3.508   7.997 -0.1346  0.4368  0.2470
 5395SOL    HW127647   2.043   3.540   7.962 -0.9275 -0.7665  1.0085
 5395SOL    HW227648   2.100   3.489   8.087  0.5480 -0.3287  0.2789
 5396SOL     OW27649   1.554   4.371   1.880  0.4867  0.4319  0.4162
 5396SOL    HW127650   1.536   4.287   1.923 -0.8149 -0.0633 -1.0951
 5396SOL    HW227651   1.542   4.340   1.790  1.2265  1.3699 -0.0022
 5397SOL     OW27652   3.268   4.530   1.710  0.0507 -0.0434  0.2391
 5397SOL    HW127653   3.346   4.539   1.656 -0.6926  0.4904 -0.7481
 5397SOL    HW227654   3.249   4.437   1.700 -1.9493  0.5643 -1.5518
 5398SOL     OW27655   3.418   1.808   1.470  1.1467 -0.1213  0.4447
 5398SOL    HW127656   3.395   1.727   1.515 -1.9673  0.3258 -0.3645
 5398SOL    HW227657   3.510   1.805   1.444  1.0140 -0.3383  0.0114
 5399SOL     OW27658   3.923   2.949   4.774  0.1226 -0.2212 -0.2816
 5399SOL    HW127659   3.906   2.856   4.786 -0.5934  0.1155  1.3218
 5399SOL    HW227660   3.852   2.972   4.714 -1.1059  2.9120  2.3819
 5400SOL     OW27661   0.044   3.598  13.435  0.1512  0.1140 -0.7798
 5400SOL    HW127662   0.006   3.550  13.361 -0.5993 -0.5215  0.0293
 5400SOL    HW227663   4.719   3.683  13.441 -1.3046 -0.5946 -1.5591
 5401SOL     OW27664   3.794   1.650   9.089  0.2501 -0.1107 -0.3075
 5401SOL    HW127665   3.890   1.652   9.095  0.3344 -0.9895 -1.2615
 5401SOL    HW227666   3.787   1.733   9.135 -1.0580  1.2095 -2.8850
 5402SOL     OW27667   1.347   3.453  10.400 -0.0534 -0.2473 -0.1460
 5402SOL    HW127668   1.369   3.362  10.379  1.1825  0.4421 -1.8668
 5402SOL    HW227669   1.256   3.441  10.424  0.4203 -2.2382  0.6343
 5403SOL     OW27670   4.275   4.541   8.027 -0.0563  0.0775  0.5229
 5403SOL    HW127671   4.368   4.530   8.044 -0.5939 -1.9742  2.1455
 5403SOL    HW227672   4.253   4.594   8.103 -1.3285  2.5521 -1.5614
 5404SOL     OW27673   4.500   0.696   4.610 -0.0658 -0.4386  0.4999
 5404SOL    HW127674   4.486   0.647   4.529 -0.7137  1.4138 -0.5173
 5404SOL    HW227675   4.552   0.772   4.582 -0.9277 -0.0800 -0.1380
 5405SOL     OW27676   1.293   3.948   7.024 -0.4900  0.4412  0.2753
 5405SOL    HW127677   1.324   3.886   7.090  1.4086  0.4166 -0.6482
 5405SOL    HW227678   1.221   3.993   7.069  1.0756 -0.1776  3.3702
 5406SOL     OW27679   3.634   4.307   9.168 -0.5116  0.1319 -0.1634
 5406SOL    HW127680   3.702   4.368   9.140 -0.0799 -0.3966 -0.2663
 5406SOL    HW227681   3.685   4.228   9.189 -1.1349 -0.4493 -0.8652
 5407SOL     OW27682   3.562   1.366   3.204  0.4545 -0.0450 -0.3180
 5407SOL    HW127683   3.545   1.456   3.234  1.8830 -0.6254  2.2198
 5407SOL    HW227684   3.638   1.375   3.147 -0.4957  1.3946 -1.3792
 5408SOL     OW27685   0.613   0.054   7.327 -0.0251  0.1400 -0.1765
 5408SOL    HW127686   0.669   4.701   7.356  0.6178  0.8961  0.4759
 5408SOL    HW227687   0.650   0.079   7.243 -0.4390  1.8116  0.1404
 5409SOL     OW27688   3.471   4.177   7.082  0.3943  0.0930  0.2658
 5409SOL    HW127689   3.559   4.199   7.112 -0.1016  0.1103  1.7051
 5409SOL    HW227690   3.481   4.087   7.051 -4.0959 -0.7217  1.2314
 5410SOL     OW27691   2.062   3.102   3.508  0.2466  0.4164 -0.2825
 5410SOL    HW127692   2.025   3.159   3.574  0.6562 -0.9407  1.1137
 5410SOL    HW227693   2.026   3.015   3.524  2.0687 -0.1619  0.6740
 5411SOL     OW27694   2.885   3.622   8.745  0.7567 -0.0371  0.7216
 5411SOL    HW127695   2.871   3.694   8.684  0.8608 -0.6277  0.0079
 5411SOL    HW227696   2.810   3.629   8.804  0.5650 -0.8438  0.5656
 5412SOL     OW27697   2.277   3.847   5.947  0.3880  0.4991 -1.0861
 5412SOL    HW127698   2.258   3.891   5.864  2.3565 -0.7893 -2.2233
 5412SOL    HW227699   2.192   3.807   5.966  1.1363  0.1077  1.4319
 5413SOL     OW27700   4.573   1.969   8.701 -0.2975 -0.2926 -0.4614
 5413SOL    HW127701   4.547   1.902   8.637 -1.2807  0.5416 -0.9341
 5413SOL    HW227702   4.654   1.997   8.660 -0.7511 -1.3366 -2.0871
 5414SOL     OW27703   2.765   0.552   1.187 -0.6287  0.3796 -0.2232
 5414SOL    HW127704   2.680   0.542   1.144  0.3246 -0.3598 -1.9587
 5414SOL    HW227705   2.774   0.647   1.183 -0.5815  0.4097  0.6930
 5415SOL     OW27706   0.736   4.090  14.669 -0.0940  0.0233 -0.0182
 5415SOL    HW127707   0.681   4.066  14.743 -1.5002 -1.0973 -1.4258
 5415SOL    HW227708   0.808   4.118  14.726 -1.4417 -2.1438  2.7774
 5416SOL     OW27709   0.104   1.662   5.291  0.0614  0.1535 -0.0687
 5416SOL    HW127710   0.021   1.697   5.323  0.0726  1.6640 -1.7070
 5416SOL    HW227711   0.159   1.740   5.299  0.6233 -0.0314 -1.9678
 5417SOL     OW27712   1.020   0.884   4.896  0.0041  0.4529 -0.1333
 5417SOL    HW127713   1.029   0.922   4.808  2.2015  0.1125 -0.0426
 5417SOL    HW227714   0.936   0.923   4.919  0.1689  0.8184 -0.1462
 5418SOL     OW27715   3.051   1.213   3.906  0.0064  0.4907 -0.7082
 5418SOL    HW127716   3.065   1.200   4.000  1.4797 -0.8353 -1.1210
 5418SOL    HW227717   2.957   1.196   3.903  0.7456 -2.8925 -4.3380
 5419SOL     OW27718   3.318   0.351   9.138  0.1466 -0.6234  0.3591
 5419SOL    HW127719   3.339   0.267   9.096  1.6035  0.6922 -1.5252
 5419SOL    HW227720   3.403   0.392   9.154  1.0767 -1.9396 -1.2389
 5420SOL     OW27721   2.865   1.496   7.691  0.4536 -0.0651  0.2645
 5420SOL    HW127722   2.770   1.497   7.682  0.5435  2.2610 -0.5374
 5420SOL    HW227723   2.909   1.474   7.609 -0.3901 -0.1684 -0.1514
 5421SOL     OW27724   2.817   0.050   3.566 -0.1103  0.5490 -0.5005
 5421SOL    HW127725   2.825   0.134   3.611  0.0282  0.9721 -1.3166
 5421SOL    HW227726   2.903   0.041   3.526  0.0869 -0.6048  0.1818
 5422SOL     OW27727   4.147   0.214  16.080  0.0937 -0.4377 -0.4370
 5422SOL    HW127728   4.185   0.126  16.078 -0.6614 -0.7840  0.5860
 5422SOL    HW227729   4.106   0.215  16.166  0.9492 -2.5506  0.0039
 5423SOL     OW27730   0.668   1.134  12.096 -0.0118 -0.6874  0.2316
 5423SOL    HW127731   0.693   1.174  12.013  0.5423  0.2844  0.8731
 5423SOL    HW227732   0.690   1.196  12.165 -1.7662  0.9062 -0.6366
 5424SOL     OW27733   2.519   1.157  11.841  0.6110 -0.2166  0.2214
 5424SOL    HW127734   2.486   1.077  11.801  1.5597 -0.6093  0.2470
 5424SOL    HW227735   2.461   1.215  11.791  2.5537  1.5793  0.0640
 5425SOL     OW27736   0.603   1.318  11.895  0.1620 -0.0424  0.4400
 5425SOL    HW127737   0.692   1.296  11.866 -0.0677  0.9048 -1.0339
 5425SOL    HW227738   0.546   1.259  11.846 -2.4148  2.3002  0.6200
 5426SOL     OW27739   4.665   0.029  16.171 -0.2512 -0.0311 -0.7475
 5426SOL    HW127740   0.031   0.058  16.137 -0.5083  2.1538  0.4594
 5426SOL    HW227741   4.608   0.058  16.100 -1.0339  2.0410  0.7228
 5427SOL     OW27742   1.538   1.132  10.490 -0.3308 -0.0605 -0.2366
 5427SOL    HW127743   1.601   1.102  10.556 -0.0975  1.2698  0.1585
 5427SOL    HW227744   1.482   1.058  10.468  0.8541  0.3482 -4.7890
 5428SOL     OW27745   2.198   3.189   1.809 -0.0107 -0.7935  0.0455
 5428SOL    HW127746   2.294   3.182   1.803  0.0926 -1.9987  2.8736
 5428SOL    HW227747   2.172   3.114   1.757 -1.6848 -0.6445  0.6589
 5429SOL     OW27748   4.591   2.389  10.837  0.1167  0.0125 -0.0953
 5429SOL    HW127749   4.607   2.379  10.931  0.6969 -2.0630 -0.4102
 5429SOL    HW227750   4.579   2.301  10.801 -2.6079 -0.0235  0.9366
 5430SOL     OW27751   4.179   4.205  10.771 -0.2087  0.1397 -0.3138
 5430SOL    HW127752   4.105   4.264  10.785  0.2941  0.7000  0.0009
 5430SOL    HW227753   4.140   4.134  10.720 -0.8480  0.9896 -1.0020
 5431SOL     OW27754   2.985   2.712  10.497  0.1430  0.0705 -0.0843
 5431SOL    HW127755   2.901   2.753  10.476 -0.0375 -0.2255  0.0600
 5431SOL    HW227756   2.969   2.715  10.591 -1.5931 -1.0218 -0.3328
 5432SOL     OW27757   0.784   4.327  14.415 -0.0243 -0.3711  0.6913
 5432SOL    HW127758   0.877   4.321  14.436  0.1791  1.5576  0.3836
 5432SOL    HW227759   0.747   4.243  14.442  0.1018 -0.4841  0.5116
 5433SOL     OW27760   3.850   0.186   9.910 -0.1528 -0.2671 -0.0057
 5433SOL    HW127761   3.897   0.222   9.835  2.5456 -1.7906  0.9597
 5433SOL    HW227762   3.889   0.245   9.975  3.0830 -2.1050 -0.2442
 5434SOL     OW27763   0.901   2.125   8.358  0.0045  0.3595  0.6762
 5434SOL    HW127764   0.940   2.180   8.291 -1.5530  0.4089 -0.1697
 5434SOL    HW227765   0.964   2.143   8.428 -0.2459  0.2185  0.9415
 5435SOL     OW27766   3.609   4.491  10.935 -0.3689 -0.3446  0.0246
 5435SOL    HW127767   3.560   4.470  10.855  1.2721 -0.1033 -1.0462
 5435SOL    HW227768   3.691   4.445  10.918  0.4369  1.3714 -0.8074
 5436SOL     OW27769   0.631   3.171   6.627 -0.1308 -0.1065  0.1971
 5436SOL    HW127770   0.562   3.237   6.622 -0.4314 -0.4627 -0.4243
 5436SOL    HW227771   0.658   3.173   6.718  0.5765  0.2413 -0.0159
 5437SOL     OW27772   3.837   2.187  11.747  0.0287 -0.0516 -0.1035
 5437SOL    HW127773   3.916   2.171  11.695 -0.1391 -1.1093 -0.0266
 5437SOL    HW227774   3.842   2.281  11.763  3.7163 -0.4093  0.8077
 5438SOL     OW27775   2.458   2.732   5.961  0.2225  0.3141  0.0066
 5438SOL    HW127776   2.390   2.709   6.025 -2.7025 -3.8607 -4.5775
 5438SOL    HW227777   2.531   2.724   6.023 -0.2092 -1.6362  0.2675
 5439SOL     OW27778   0.909   2.765   1.945  0.6832  0.0304  0.1038
 5439SOL    HW127779   0.938   2.673   1.944 -1.1839 -0.5536 -1.0285
 5439SOL    HW227780   0.973   2.794   1.880 -1.5326  1.7939 -1.2784
 5440SOL     OW27781   2.779   3.653  14.844 -0.1212 -0.2664 -0.1168
 5440SOL    HW127782   2.731   3.679  14.922 -0.7327  1.6692 -1.1472
 5440SOL    HW227783   2.864   3.618  14.872 -0.3829 -0.1490  0.8156
 5441SOL     OW27784   0.092   3.878  15.697 -0.8429 -0.1101 -0.4192
 5441SOL    HW127785   0.094   3.942  15.768  1.4829  0.4320 -0.9599
 5441SOL    HW227786   0.155   3.920  15.638  1.4909 -2.8315  0.1099
 5442SOL     OW27787   1.817   4.190   1.672  0.5327 -0.1912 -0.2652
 5442SOL    HW127788   1.760   4.166   1.599  3.7083 -0.5452 -2.6172
 5442SOL    HW227789   1.862   4.107   1.689  1.5380  0.4349  0.1346
 5443SOL     OW27790   3.633   3.807   3.789 -0.3383  0.6584  0.2217
 5443SOL    HW127791   3.630   3.786   3.882  0.4016  0.6485  0.2414
 5443SOL    HW227792   3.705   3.756   3.751 -0.3551 -0.9942  2.4116
 5444SOL     OW27793   1.077   3.774   8.672  0.2482 -0.1736 -0.7628
 5444SOL    HW127794   1.075   3.856   8.624  2.0400  0.5534  0.3731
 5444SOL    HW227795   1.157   3.800   8.719 -0.2413 -3.0957  1.7491
 5445SOL     OW27796   0.492   1.075   1.014  0.5381 -0.1474 -0.2856
 5445SOL    HW127797   0.415   1.104   0.964  0.1716 -2.9955 -1.3321
 5445SOL    HW227798   0.535   1.023   0.946 -1.4994 -1.0472 -0.8733
 5446SOL     OW27799   1.881   4.580   2.844  0.6099  0.0775  0.0767
 5446SOL    HW127800   1.831   4.541   2.772 -2.7922  1.3795  1.7162
 5446SOL    HW227801   1.943   4.509   2.859  0.7970  0.7696  2.5624
 5447SOL     OW27802   0.808   1.710  13.490 -0.0927  0.2587 -0.5727
 5447SOL    HW127803   0.797   1.702  13.395  3.0650  1.0395 -0.9927
 5447SOL    HW227804   0.811   1.616  13.510 -0.6716  0.6467  1.3963
 5448SOL     OW27805   3.101   0.184   0.278 -0.0712  0.1188 -0.5775
 5448SOL    HW127806   3.104   0.100   0.323 -0.0497  0.4153 -0.0239
 5448SOL    HW227807   3.194   0.206   0.278  0.0333 -0.3015  0.7977
 5449SOL     OW27808   0.336   2.947  12.128  0.2019  0.5064  0.0662
 5449SOL    HW127809   0.274   2.910  12.190 -1.0098 -0.9500 -2.0212
 5449SOL    HW227810   0.312   3.040  12.125 -0.4134  0.4332  2.7967
 5450SOL     OW27811   2.212   2.533   4.870  0.1969 -0.7361 -0.0185
 5450SOL    HW127812   2.196   2.606   4.811  0.4955 -0.6375  0.0239
 5450SOL    HW227813   2.203   2.573   4.957 -0.0731  0.1023 -0.4343
 5451SOL     OW27814   1.302   3.774  13.679 -0.7875  0.3599  0.1666
 5451SOL    HW127815   1.236   3.831  13.718 -0.1123 -0.1616  2.0382
 5451SOL    HW227816   1.276   3.693  13.724  2.5763  0.4862  2.2535
 5452SOL     OW27817   4.538   0.293   2.291  0.0409  0.1624 -0.1618
 5452SOL    HW127818   4.511   0.377   2.254 -2.7354 -0.4569  0.4208
 5452SOL    HW227819   4.461   0.278   2.347  1.3557  1.9601  2.1046
 5453SOL     OW27820   3.271   1.379   6.802  0.1370  0.0294 -0.2496
 5453SOL    HW127821   3.275   1.439   6.876 -0.7813  0.0496 -0.2218
 5453SOL    HW227822   3.310   1.303   6.846  1.2149 -0.0674 -1.3626
 5454SOL     OW27823   3.826   4.313  13.555  0.2190 -0.5617 -0.2588
 5454SOL    HW127824   3.844   4.312  13.649 -3.1813  3.0184  0.4470
 5454SOL    HW227825   3.768   4.237  13.561 -3.3187  1.9803 -1.9257
 5455SOL     OW27826   1.106   3.963   8.456 -0.6736  0.4376  0.5616
 5455SOL    HW127827   1.022   3.988   8.418 -0.1687  0.1539 -0.7443
 5455SOL    HW227828   1.138   3.894   8.396 -1.3681 -0.1428  0.8566
 5456SOL     OW27829   0.248   1.403   2.724  0.2523 -0.7860 -0.1784
 5456SOL    HW127830   0.164   1.438   2.693 -0.8475 -1.2938  2.2097
 5456SOL    HW227831   0.232   1.319   2.681 -0.4523  0.0630 -1.5699
 5457SOL     OW27832   2.118   1.652   2.168 -0.0575 -0.4061  0.2039
 5457SOL    HW127833   2.052   1.598   2.212 -1.1480  0.2621 -0.5862
 5457SOL    HW227834   2.195   1.597   2.181  1.8696  1.7424 -2.1473
 5458SOL     OW27835   0.095   3.223   4.779 -0.1443 -0.1395 -0.4948
 5458SOL    HW127836   0.108   3.193   4.689  1.8516  1.8372 -0.8653
 5458SOL    HW227837   0.094   3.142   4.830  0.5569  1.3695  1.8890
 5459SOL     OW27838   3.477   1.759   3.072  0.7302 -0.5643  0.1530
 5459SOL    HW127839   3.501   1.795   2.987 -0.9314 -0.6557 -0.3653
 5459SOL    HW227840   3.551   1.796   3.121 -0.0956  3.3849 -1.5396
 5460SOL     OW27841   0.589   3.420   2.921 -0.4609 -0.0562 -0.1336
 5460SOL    HW127842   0.574   3.343   2.975  2.1898  0.9172  1.9548
 5460SOL    HW227843   0.611   3.383   2.835  1.9082 -0.9752  0.8710
 5461SOL     OW27844   4.146   4.600   2.959  0.1215 -0.7210  0.7826
 5461SOL    HW127845   4.131   4.579   2.867 -1.3130 -0.1376  0.8780
 5461SOL    HW227846   4.110   4.522   3.001 -1.4099 -0.4626 -0.0296
 5462SOL     OW27847   0.443   2.790   1.087  0.1537 -0.9111 -0.1214
 5462SOL    HW127848   0.436   2.725   1.017  0.4378 -1.5980  0.4861
 5462SOL    HW227849   0.532   2.820   1.068  0.4917 -0.1675  2.5910
 5463SOL     OW27850   3.355   3.062  11.834  0.3120 -0.0580 -0.0897
 5463SOL    HW127851   3.394   3.007  11.901  2.0253 -0.1295 -1.1362
 5463SOL    HW227852   3.267   3.027  11.828 -0.7266  2.3169  1.3226
 5464SOL     OW27853   3.015   3.894   1.851 -0.2042 -0.3158 -1.0302
 5464SOL    HW127854   3.081   3.946   1.805 -1.3148  0.8430 -1.2825
 5464SOL    HW227855   2.987   3.830   1.785 -1.3634 -2.4364  1.5303
 5465SOL     OW27856   1.709   1.596   5.108  0.2249  0.0502 -0.1535
 5465SOL    HW127857   1.634   1.613   5.051  1.2855  2.6050 -0.7676
 5465SOL    HW227858   1.674   1.605   5.196  0.8081 -1.4070  0.2385
 5466SOL     OW27859   2.889   1.394   2.627  0.3602 -0.0411 -0.9895
 5466SOL    HW127860   2.816   1.345   2.590 -1.5407  1.2682  1.0360
 5466SOL    HW227861   2.961   1.385   2.564  1.5559  1.7461  0.0922
 5467SOL     OW27862   1.159   3.756   5.633 -0.0045 -0.0993  0.5638
 5467SOL    HW127863   1.116   3.683   5.679 -1.0061 -0.8925 -1.6364
 5467SOL    HW227864   1.089   3.820   5.642 -0.7619 -0.8031 -0.2815
 5468SOL     OW27865   2.104   2.990  17.221  0.5136 -0.2465  0.2284
 5468SOL    HW127866   2.065   3.070  17.255  0.8029  0.5224 -1.2305
 5468SOL    HW227867   2.162   2.960  17.291 -1.6218 -0.7087  1.7648
 5469SOL     OW27868   4.529   4.585   7.389  0.3755 -0.5358  0.5406
 5469SOL    HW127869   4.458   4.558   7.331  0.9088  0.4338 -0.5465
 5469SOL    HW227870   4.559   4.502   7.427 -0.0249  0.3657  2.8268
 5470SOL     OW27871   2.092   2.488   3.183 -0.2582 -0.0521 -0.4958
 5470SOL    HW127872   2.033   2.561   3.203 -3.1405 -1.4315 -3.9184
 5470SOL    HW227873   2.035   2.411   3.183 -1.1101  0.5857  0.1850
 5471SOL     OW27874   3.367   4.431   3.769 -0.0184 -0.6015 -0.6324
 5471SOL    HW127875   3.337   4.360   3.825  0.1310  0.2216  0.4938
 5471SOL    HW227876   3.282   4.461   3.737  0.8277  0.4392 -1.8950
 5472SOL     OW27877   3.190   0.926   4.791 -0.5750 -0.4142 -0.3537
 5472SOL    HW127878   3.206   0.951   4.882 -0.2012  0.6301 -0.7019
 5472SOL    HW227879   3.243   0.991   4.745  0.0074 -0.0104  0.9116
 5473SOL     OW27880   4.343   1.716   9.024  1.0088 -0.0678  0.0456
 5473SOL    HW127881   4.399   1.701   8.948  0.2172 -0.2597 -0.5027
 5473SOL    HW227882   4.407   1.708   9.094 -0.4965  0.5692  1.5053
 5474SOL     OW27883   2.859   3.296  16.496  0.1778  0.3658  0.1040
 5474SOL    HW127884   2.779   3.305  16.443  1.3486 -0.7272 -1.8652
 5474SOL    HW227885   2.870   3.201  16.496 -0.3495  0.3134  3.6932
 5475SOL     OW27886   4.703   1.386   1.165  0.2903  0.1896  0.6508
 5475SOL    HW127887   0.037   1.466   1.163  0.2948  0.1699 -0.0045
 5475SOL    HW227888   0.039   1.319   1.205  1.0424 -0.6444 -1.7972
 5476SOL     OW27889   0.539   3.167   5.682 -0.1704 -0.0291  0.2835
 5476SOL    HW127890   0.500   3.197   5.764  2.6234 -1.2173  2.0584
 5476SOL    HW227891   0.488   3.090   5.658  1.3617 -1.3295  1.1670
 5477SOL     OW27892   4.452   0.536   3.220 -0.3699  0.5621 -0.5289
 5477SOL    HW127893   4.444   0.595   3.145  0.7538  2.3464  0.7652
 5477SOL    HW227894   4.364   0.502   3.236 -0.1481 -0.1432 -0.7941
 5478SOL     OW27895   4.268   1.675   4.856 -0.7433 -0.3336 -0.3761
 5478SOL    HW127896   4.176   1.697   4.839 -0.4864 -0.3933 -1.8389
 5478SOL    HW227897   4.281   1.594   4.806  1.7630 -0.0690 -0.1390
 5479SOL     OW27898   3.291   1.783   3.896  0.0490  0.6411 -0.3655
 5479SOL    HW127899   3.351   1.824   3.834  1.7714 -1.6563 -0.1895
 5479SOL    HW227900   3.231   1.855   3.917 -0.4292 -0.5227  2.2900
 5480SOL     OW27901   4.353   2.891   5.324 -0.6641 -0.3578 -0.5995
 5480SOL    HW127902   4.403   2.909   5.404  1.3584 -2.6747 -1.3640
 5480SOL    HW227903   4.393   2.811   5.291 -0.1681 -0.2895 -0.1724
 5481SOL     OW27904   4.304   0.608  10.381 -0.4727  0.3009  0.2951
 5481SOL    HW127905   4.339   0.521  10.400 -0.1242  0.7301  1.5976
 5481SOL    HW227906   4.220   0.589  10.423 -0.5021 -0.9303 -0.3170
 5482SOL     OW27907   0.832   4.498   3.662 -0.3124  0.1331 -0.1049
 5482SOL    HW127908   0.763   4.515   3.598 -1.1293 -1.2446  0.4076
 5482SOL    HW227909   0.827   4.402   3.662 -1.6383  0.1990 -1.1025
 5483SOL     OW27910   3.900   2.623   6.310  0.2559 -0.0455  0.1985
 5483SOL    HW127911   3.861   2.609   6.224  1.5146  1.6316 -0.6390
 5483SOL    HW227912   3.819   2.626   6.361  0.7994 -1.0783  1.1193
 5484SOL     OW27913   2.288   1.931   1.248 -0.6545  0.1552 -0.5320
 5484SOL    HW127914   2.381   1.937   1.228 -0.9695  3.1792 -1.2091
 5484SOL    HW227915   2.242   2.004   1.205 -1.5971 -0.0521  0.1160
 5485SOL     OW27916   4.349   0.061   9.221  0.1210 -0.3031  0.1989
 5485SOL    HW127917   4.376   4.715   9.286  1.1756 -1.3945 -1.3318
 5485SOL    HW227918   4.393   0.139   9.255  0.0102 -0.1780  0.0573
 5486SOL     OW27919   2.996   1.081   5.477  0.1324 -0.5169  0.4146
 5486SOL    HW127920   3.007   0.991   5.446 -0.0168 -1.5746  3.4589
 5486SOL    HW227921   3.088   1.107   5.489  0.1228  0.0106 -0.6543
 5487SOL     OW27922   1.455   4.717   6.736  0.2942  0.1945 -0.1710
 5487SOL    HW127923   1.443   0.007   6.641  1.8364 -3.0913 -0.6719
 5487SOL    HW227924   1.387   4.653   6.751  1.6929 -0.6257  2.6553
 5488SOL     OW27925   3.308   3.555  10.539  0.2640  0.8405  0.5539
 5488SOL    HW127926   3.294   3.613  10.615 -0.6069  0.7094  0.5010
 5488SOL    HW227927   3.250   3.481  10.556  2.7310 -0.9391  1.0381
 5489SOL     OW27928   0.435   2.876   6.611 -0.9522  0.2924  0.1503
 5489SOL    HW127929   0.419   2.923   6.692  0.4260  0.7504  0.1534
 5489SOL    HW227930   0.375   2.802   6.620  0.3332 -0.4871  2.2100
 5490SOL     OW27931   2.586   3.199  17.656  0.2013  0.1584  0.2562
 5490SOL    HW127932   2.643   3.264   0.016  0.3116 -0.2743  0.7897
 5490SOL    HW227933   2.508   3.254  17.647 -0.6977 -1.5150 -2.2004
 5491SOL     OW27934   3.173   0.460  14.801 -0.2222  0.3624 -0.0082
 5491SOL    HW127935   3.113   0.443  14.728 -0.0134 -0.6157  0.0569
 5491SOL    HW227936   3.240   0.518  14.764  0.2514 -1.8286 -2.6072
 5492SOL     OW27937   3.395   4.362  13.687 -0.1577 -0.0717  0.2674
 5492SOL    HW127938   3.343   4.348  13.608  2.3016 -2.1102 -1.0177
 5492SOL    HW227939   3.401   4.457  13.683  1.6533 -0.2133 -0.4766
 5493SOL     OW27940   3.462   4.447   6.463  0.6797 -0.1601  0.2151
 5493SOL    HW127941   3.485   4.438   6.371  2.4306 -0.7103  0.7136
 5493SOL    HW227942   3.437   4.539   6.467 -2.2738 -0.8433 -2.1088
 5494SOL     OW27943   3.750   0.799  10.976  0.0221 -0.3207 -0.1719
 5494SOL    HW127944   3.698   0.873  11.007  1.6372  0.2172  1.2465
 5494SOL    HW227945   3.748   0.819  10.882 -0.9424  2.2041  0.3736
 5495SOL     OW27946   1.757   4.571   0.239 -0.6204  0.2205  0.0225
 5495SOL    HW127947   1.827   4.506   0.239 -0.1825  0.6857  0.3085
 5495SOL    HW227948   1.811   4.640   0.278 -2.9682  0.2349  3.2419
 5496SOL     OW27949   0.222   1.403   7.595 -0.0556  0.4833 -0.4104
 5496SOL    HW127950   0.286   1.412   7.523 -2.3146 -1.8661 -2.7109
 5496SOL    HW227951   0.142   1.436   7.553 -0.4844  1.7891  1.4402
 5497SOL     OW27952   3.155   1.095  17.601  0.5176  0.0250  0.3007
 5497SOL    HW127953   3.096   1.166  17.577  0.1058  0.3353  2.2115
 5497SOL    HW227954   3.186   1.074  17.513  0.9764 -1.2492  0.7621
 5498SOL     OW27955   2.988   0.980   4.390 -0.4871 -0.3556 -0.1295
 5498SOL    HW127956   3.045   0.904   4.382 -1.2369 -0.8372 -0.9382
 5498SOL    HW227957   2.988   0.984   4.485  0.0986  0.2723 -0.1530
 5499SOL     OW27958   2.684   0.157   0.673 -0.0949  0.2449 -0.0288
 5499SOL    HW127959   2.715   0.068   0.658  1.0202  0.7220 -0.5336
 5499SOL    HW227960   2.732   0.172   0.754 -0.8124  0.4146  0.3660
 5500SOL     OW27961   4.042   2.600   7.733 -0.1299 -0.3238 -0.5643
 5500SOL    HW127962   4.066   2.592   7.825  1.2822 -0.2639 -0.9258
 5500SOL    HW227963   4.104   2.662   7.695 -0.5346  0.2819 -0.2263
 5501SOL     OW27964   2.981   4.367   7.635 -0.9213 -0.4618  0.2069
 5501SOL    HW127965   3.067   4.335   7.661 -1.4307 -0.6181  1.6592
 5501SOL    HW227966   2.938   4.286   7.606 -0.1661 -0.6042 -0.5181
 5502SOL     OW27967   1.922   3.548   3.621 -0.0634 -0.6218  0.4900
 5502SOL    HW127968   1.909   3.590   3.707  1.5446  1.4817 -0.3075
 5502SOL    HW227969   1.919   3.623   3.563  1.2202  0.3535  1.6981
 5503SOL     OW27970   4.194   1.593   6.901 -0.0430 -0.1772  0.4850
 5503SOL    HW127971   4.165   1.560   6.817 -0.1611 -0.4092  0.6167
 5503SOL    HW227972   4.196   1.685   6.873 -1.5575 -0.1571  0.4401
 5504SOL     OW27973   2.309   3.691   3.803  0.0822 -0.0980 -0.0989
 5504SOL    HW127974   2.266   3.606   3.815 -0.4438  0.0597 -0.8878
 5504SOL    HW227975   2.239   3.752   3.825  1.4528  1.3525  0.2681
 5505SOL     OW27976   2.783   3.314   5.824 -0.2364  0.2576  0.5774
 5505SOL    HW127977   2.756   3.403   5.848 -2.2447 -0.3154  0.4001
 5505SOL    HW227978   2.801   3.280   5.911 -0.0196  1.4968  1.0108
 5506SOL     OW27979   0.564   0.121   4.753 -0.2935  0.4271  0.4596
 5506SOL    HW127980   0.507   0.107   4.678  0.8790  0.0650 -0.3633
 5506SOL    HW227981   0.519   0.197   4.789 -0.8434  0.5825 -0.5619
 5507SOL     OW27982   1.475   3.902   1.043  0.3405 -0.4857  0.1414
 5507SOL    HW127983   1.419   3.976   1.066  0.0127 -0.9293  0.7671
 5507SOL    HW227984   1.408   3.870   0.983 -0.2896  0.4746  0.3269
 5508SOL     OW27985   0.770   0.642   7.560  0.4226  0.2345 -0.0057
 5508SOL    HW127986   0.830   0.683   7.499  0.7111  0.1874  0.2435
 5508SOL    HW227987   0.808   0.670   7.643  0.1624  0.3942  0.0590
 5509SOL     OW27988   0.622   2.573   5.762  0.2450 -0.2384  0.3732
 5509SOL    HW127989   0.556   2.575   5.832 -0.9884  1.4850 -0.8402
 5509SOL    HW227990   0.602   2.483   5.735 -0.5954  0.1577 -0.3232
 5510SOL     OW27991   3.931   0.375  11.009 -0.7143  0.0852  0.4146
 5510SOL    HW127992   3.880   0.421  10.943  0.3676 -1.1825 -1.3112
 5510SOL    HW227993   3.962   0.293  10.972  0.6592  0.6963  0.2383
 5511SOL     OW27994   3.631   1.526  13.956 -0.1000 -0.1240 -0.0389
 5511SOL    HW127995   3.595   1.448  13.998  1.7158 -0.8550  0.1580
 5511SOL    HW227996   3.726   1.520  13.964 -0.2180  0.5424  1.7608
 5512SOL     OW27997   3.712   2.364   8.066 -0.5762  0.3628 -0.1704
 5512SOL    HW127998   3.710   2.308   7.989  0.8211 -0.2474  0.2327
 5512SOL    HW227999   3.635   2.335   8.115 -0.3586 -2.0025 -1.2358
 5513SOL     OW28000   1.097   3.704   8.358  0.8614 -0.1109  0.4222
 5513SOL    HW128001   1.039   3.629   8.371  1.3513 -0.9026 -2.0959
 5513SOL    HW228002   1.152   3.681   8.434 -0.1730 -3.0392  0.2957
 5514SOL     OW28003   2.755   3.605  16.682  0.1195  0.6062  0.0407
 5514SOL    HW128004   2.792   3.532  16.732 -0.2727  1.3645  1.4405
 5514SOL    HW228005   2.684   3.571  16.628  0.8597  0.9976 -1.1717
 5515SOL     OW28006   3.147   2.918   7.719  0.2404 -0.0822 -0.1920
 5515SOL    HW128007   3.229   2.891   7.678  0.9446 -0.7930  1.7163
 5515SOL    HW228008   3.106   2.833   7.732  0.6775 -0.3984 -0.8853
 5516SOL     OW28009   0.999   1.506  10.411 -0.2622 -0.1092  0.2414
 5516SOL    HW128010   0.945   1.538  10.483 -0.0143  1.6239 -0.3434
 5516SOL    HW228011   1.084   1.523  10.453  0.2145 -0.1808 -0.7008
 5517SOL     OW28012   0.821   3.538  10.811 -0.0375  0.1658  0.0293
 5517SOL    HW128013   0.811   3.464  10.870  0.2910 -0.8126 -1.1452
 5517SOL    HW228014   0.916   3.535  10.798 -0.1098 -1.2697 -0.1151
 5518SOL     OW28015   0.938   3.610   7.739 -0.2708  0.1514  0.1265
 5518SOL    HW128016   0.883   3.624   7.817  0.1156 -0.5653  0.5313
 5518SOL    HW228017   0.993   3.686   7.723 -1.7876  0.6646 -2.6973
 5519SOL     OW28018   1.120   3.580   1.166 -0.1153  0.0003 -0.1830
 5519SOL    HW128019   1.194   3.596   1.107  1.0365  0.9246  1.5176
 5519SOL    HW228020   1.163   3.577   1.251 -1.1596 -1.1536  0.2852
 5520SOL     OW28021   2.165   2.891   8.168  0.0834 -0.2528 -0.1174
 5520SOL    HW128022   2.070   2.885   8.156 -0.4944  3.2198  2.7226
 5520SOL    HW228023   2.158   2.905   8.262 -1.5485 -2.1181  0.0543
 5521SOL     OW28024   4.637   0.997   7.024 -0.5551 -0.0333 -0.3012
 5521SOL    HW128025   4.685   0.935   6.969  0.5265 -0.5778  1.2570
 5521SOL    HW228026   4.679   1.077   6.993 -1.9107  0.7353 -0.1369
 5522SOL     OW28027   2.805   0.396   5.389 -0.2119  0.2140  0.3706
 5522SOL    HW128028   2.854   0.377   5.310  0.6681  0.0737  0.9525
 5522SOL    HW228029   2.724   0.438   5.359 -1.8001 -1.9465  1.6069
 5523SOL     OW28030   2.244   2.830   5.514 -0.2406 -0.2166  0.2849
 5523SOL    HW128031   2.324   2.846   5.464  0.6158 -2.0822  1.0479
 5523SOL    HW228032   2.276   2.831   5.604  1.8843 -0.4227 -0.4783
 5524SOL     OW28033   1.522   1.629   6.952 -0.0437  0.3967  0.1626
 5524SOL    HW128034   1.523   1.688   6.877  0.4615  0.8981  0.5645
 5524SOL    HW228035   1.460   1.677   7.007  0.5539  2.6323 -1.1340
 5525SOL     OW28036   4.065   1.111   5.561 -0.2430  0.3089  0.3182
 5525SOL    HW128037   4.062   1.065   5.477  0.6701 -1.5908  1.3171
 5525SOL    HW228038   4.158   1.122   5.583  0.0411 -0.4287 -0.4892
 5526SOL     OW28039   3.756   2.448   7.700 -0.2154  0.9461 -0.1016
 5526SOL    HW128040   3.844   2.482   7.717  0.8907 -0.3679 -3.0865
 5526SOL    HW228041   3.762   2.366   7.749  2.0961  1.4016  0.3598
 5527SOL     OW28042   4.109   3.276  13.378  0.6942 -0.1176  0.3331
 5527SOL    HW128043   4.157   3.305  13.456 -0.4516  1.4017  0.4678
 5527SOL    HW228044   4.027   3.323  13.386  0.1860 -0.7352 -1.2750
 5528SOL     OW28045   3.691   3.858   7.577 -0.0015 -0.0527 -0.2526
 5528SOL    HW128046   3.641   3.788   7.620  1.5256 -1.0313 -0.0839
 5528SOL    HW228047   3.688   3.923   7.647 -3.7085 -0.5605  0.0619
 5529SOL     OW28048   1.433   0.468   3.011 -0.2187  0.3136 -0.0208
 5529SOL    HW128049   1.380   0.391   2.989  0.0646  0.5966 -1.6920
 5529SOL    HW228050   1.370   0.538   2.992 -1.1982 -1.1384 -2.1881
 5530SOL     OW28051   0.840   1.268  10.816 -0.5928  0.2927  0.0591
 5530SOL    HW128052   0.853   1.361  10.837  3.5847 -0.1748 -0.4930
 5530SOL    HW228053   0.910   1.230  10.869 -1.1125 -1.7093 -0.7107
 5531SOL     OW28054   3.279   2.628   8.822 -0.0081  0.0564 -0.1695
 5531SOL    HW128055   3.367   2.647   8.856 -1.2656  1.9567  2.0439
 5531SOL    HW228056   3.277   2.682   8.743  3.7280 -1.1922 -1.1363
 5532SOL     OW28057   2.884   4.403   4.147 -0.8640 -0.4038 -0.0255
 5532SOL    HW128058   2.848   4.440   4.066  1.8688 -2.6072 -2.2689
 5532SOL    HW228059   2.834   4.446   4.216  0.1576 -1.0917  1.1318
 5533SOL     OW28060   1.508   1.259  13.264 -0.2494 -0.2675  0.2395
 5533SOL    HW128061   1.587   1.225  13.222 -0.3037  2.1291 -1.7419
 5533SOL    HW228062   1.522   1.209  13.345  1.9245  0.8428  0.5641
 5534SOL     OW28063   3.495   2.349   5.172  0.0509 -0.2944 -0.3285
 5534SOL    HW128064   3.436   2.304   5.233  1.5416  0.3740  1.6235
 5534SOL    HW228065   3.437   2.401   5.117 -0.4999  0.1538  0.6599
 5535SOL     OW28066   2.360   3.692  13.718  0.1398 -0.2631  0.6395
 5535SOL    HW128067   2.290   3.729  13.664  0.7585  0.9808  0.6723
 5535SOL    HW228068   2.334   3.601  13.730 -0.4919 -0.0694  0.7138
 5536SOL     OW28069   2.451   2.670  15.962  0.5286 -0.4051 -0.5481
 5536SOL    HW128070   2.513   2.708  16.024 -1.2885 -1.1989  1.7715
 5536SOL    HW228071   2.464   2.576  15.960  0.8183 -0.3395 -1.5301
 5537SOL     OW28072   2.899   2.442  10.411 -0.0265  0.0189  0.0403
 5537SOL    HW128073   2.835   2.512  10.395 -1.1263 -1.0940 -0.4143
 5537SOL    HW228074   2.972   2.494  10.444 -0.2541 -0.3407  1.0977
 5538SOL     OW28075   0.562   3.594   7.059  0.1030 -0.0800  0.0434
 5538SOL    HW128076   0.604   3.573   7.143 -1.2343 -2.5785  0.0579
 5538SOL    HW228077   0.630   3.639   7.009 -1.9550  0.4487 -2.2719
 5539SOL     OW28078   1.409   2.516   5.994 -0.2862 -0.2244  0.6153
 5539SOL    HW128079   1.486   2.524   6.051  0.2545 -0.5020 -0.0798
 5539SOL    HW228080   1.367   2.602   6.003  1.1334  0.5354 -0.0831
 5540SOL     OW28081   1.214   3.490   0.697 -0.0041 -0.0090  0.0625
 5540SOL    HW128082   1.144   3.485   0.762 -1.5751 -0.8972 -1.7257
 5540SOL    HW228083   1.171   3.490   0.612  0.6812 -0.1023 -0.2801
 5541SOL     OW28084   2.467   3.410   5.907 -0.0011 -0.4642 -0.5193
 5541SOL    HW128085   2.545   3.465   5.905  0.9662 -1.8854 -0.9338
 5541SOL    HW228086   2.462   3.380   5.997  2.9044 -0.2551 -0.3074
 5542SOL     OW28087   2.015   3.359   3.331 -0.5325  0.7805  0.0696
 5542SOL    HW128088   1.959   3.282   3.335  0.4876  0.0388 -0.1471
 5542SOL    HW228089   1.947   3.426   3.342 -1.4084 -0.0583 -0.2613
 5543SOL     OW28090   3.595   2.451   3.696 -0.0843 -0.1919 -0.3522
 5543SOL    HW128091   3.633   2.537   3.715 -0.7293  0.4814 -2.1127
 5543SOL    HW228092   3.676   2.400   3.688  1.0404  1.5142  0.2112
 5544SOL     OW28093   0.987   4.236  16.872  0.4480 -0.4129 -0.6802
 5544SOL    HW128094   0.923   4.288  16.822 -0.5471  0.4023  1.4657
 5544SOL    HW228095   0.926   4.210  16.941  1.0701  0.3862  0.1625
 5545SOL     OW28096   1.170   2.391   2.488 -0.1297 -0.6885 -0.4919
 5545SOL    HW128097   1.244   2.422   2.540 -3.1456  1.7868  2.3930
 5545SOL    HW228098   1.093   2.417   2.539 -0.6630  1.7911 -2.5510
 5546SOL     OW28099   3.049   4.581   9.591  0.5727  0.0945 -0.2466
 5546SOL    HW128100   3.102   4.526   9.648  0.7383  1.6692  1.1266
 5546SOL    HW228101   3.028   4.653   9.651 -0.0059  0.4668 -0.8831
 5547SOL     OW28102   1.860   0.950   2.516  0.3532  0.4970 -0.2854
 5547SOL    HW128103   1.941   0.908   2.486  0.3969 -0.2417  0.8463
 5547SOL    HW228104   1.886   1.028   2.564  1.3802 -1.1532  1.8785
 5548SOL     OW28105   3.769   0.936  10.510 -0.1397 -0.0220  0.5388
 5548SOL    HW128106   3.802   0.898  10.429 -0.2779  2.3814 -0.6727
 5548SOL    HW228107   3.713   1.010  10.485  0.5767  0.6782  0.9927
 5549SOL     OW28108   2.221   2.636   8.203 -0.1354  0.1458 -0.6834
 5549SOL    HW128109   2.179   2.719   8.184 -0.9074 -0.3611 -1.2081
 5549SOL    HW228110   2.172   2.606   8.279  1.6630  1.2738  0.9080
 5550SOL     OW28111   2.053   3.671   7.591 -0.3223  0.2610  0.1424
 5550SOL    HW128112   1.992   3.744   7.582 -1.0435 -0.3867 -0.2378
 5550SOL    HW228113   2.022   3.629   7.511 -0.4108  0.1242  0.2487
 5551SOL     OW28114   2.798   3.713   6.673  0.1731 -0.1082  0.0228
 5551SOL    HW128115   2.817   3.620   6.689 -2.1805 -0.5631  0.1654
 5551SOL    HW228116   2.885   3.753   6.682 -0.6805  2.0500 -1.5800
 5552SOL     OW28117   4.373   4.423   8.826  0.0642  0.3480 -0.9011
 5552SOL    HW128118   4.330   4.354   8.876 -0.2698  2.1561  1.3220
 5552SOL    HW228119   4.335   4.495   8.877 -3.1317 -3.5762  2.1656
 5553SOL     OW28120   4.649   3.181   5.751  0.5800  0.2289  0.2442
 5553SOL    HW128121   4.630   3.272   5.774 -0.8294  0.2032 -0.7559
 5553SOL    HW228122   4.607   3.135   5.824  1.3839 -1.3462 -0.2776
 5554SOL     OW28123   1.621   3.812   5.832 -0.2723  0.0319 -0.5656
 5554SOL    HW128124   1.661   3.882   5.884 -2.4040  0.4540  0.5375
 5554SOL    HW228125   1.563   3.862   5.775 -1.0935  0.5961  0.7537
 5555SOL     OW28126   2.270   3.143   5.326 -0.0710 -0.3965  0.5876
 5555SOL    HW128127   2.293   3.079   5.259  0.1024  0.4835 -0.1782
 5555SOL    HW228128   2.356   3.161   5.364  0.3936 -0.9118 -0.2091
 5556SOL     OW28129   2.456   2.495   4.801 -0.1602 -0.3858  0.0434
 5556SOL    HW128130   2.466   2.409   4.760 -1.6410 -0.5035 -0.0854
 5556SOL    HW228131   2.364   2.498   4.829  0.6856  0.3985  2.6774
 5557SOL     OW28132   0.812   4.099   1.351  0.6021 -0.0656  0.1681
 5557SOL    HW128133   0.742   4.105   1.286  2.2798  0.0440 -1.5990
 5557SOL    HW228134   0.757   4.099   1.430  0.7799 -0.1758  0.2926
 5558SOL     OW28135   3.126   1.662   5.095 -0.4711 -0.1585  0.2790
 5558SOL    HW128136   3.165   1.585   5.137 -0.0629 -1.7441 -3.0205
 5558SOL    HW228137   3.087   1.711   5.168  0.3437 -1.1329  1.3717
 5559SOL     OW28138   3.210   0.428   4.368  0.0118  0.0023  0.1669
 5559SOL    HW128139   3.166   0.457   4.288 -1.9336 -1.1840  0.8113
 5559SOL    HW228140   3.149   0.357   4.385  1.4424 -1.8450 -2.4031
 5560SOL     OW28141   2.744   0.139   5.825  0.0234 -0.3510 -0.4264
 5560SOL    HW128142   2.763   0.106   5.913  1.1054  2.7082  0.4845
 5560SOL    HW228143   2.666   0.189   5.852  1.2504  1.4844 -0.2853
 5561SOL     OW28144   3.323   1.706   7.060 -0.5534  0.0155  0.1018
 5561SOL    HW128145   3.360   1.618   7.061  0.3358  0.3919  0.3344
 5561SOL    HW228146   3.382   1.744   6.996 -0.6583  2.5978  1.5241
 5562SOL     OW28147   1.250   2.418   7.308 -0.1856  0.8430  0.3134
 5562SOL    HW128148   1.238   2.501   7.260  1.7742 -0.4597 -2.4370
 5562SOL    HW228149   1.323   2.444   7.364 -0.5135  1.0216  0.6511
 5563SOL     OW28150   2.070   4.265   6.325 -0.2594 -0.3951 -0.2827
 5563SOL    HW128151   2.083   4.316   6.404  1.7719 -2.1415  0.5289
 5563SOL    HW228152   2.090   4.343   6.274  0.6258  0.3897  1.2747
 5564SOL     OW28153   3.726   0.711   3.880  0.1173  0.4941 -0.1015
 5564SOL    HW128154   3.769   0.626   3.876  1.7582  1.3401 -0.4357
 5564SOL    HW228155   3.634   0.692   3.859 -0.7948  4.3863  0.2842
 5565SOL     OW28156   1.120   3.107   0.731  0.1225 -0.3911 -0.1973
 5565SOL    HW128157   1.107   3.168   0.804  1.1055 -0.1243 -0.2511
 5565SOL    HW228158   1.037   3.060   0.736 -0.6112  0.8841 -0.3844
 5566SOL     OW28159   3.837   2.956  14.813  0.1942  0.4585 -0.1462
 5566SOL    HW128160   3.893   2.904  14.871 -1.2533  1.4536  2.1613
 5566SOL    HW228161   3.781   2.890  14.772  0.2414  0.9841 -1.0484
 5567SOL     OW28162   1.055   0.629   5.036  0.4287 -0.4082 -0.0040
 5567SOL    HW128163   1.107   0.706   5.056  0.8030 -1.0840  1.6684
 5567SOL    HW228164   0.986   0.672   4.986  0.2211  1.3705  1.7936
 5568SOL     OW28165   1.809   4.360  10.955  0.2670  0.7317 -0.7059
 5568SOL    HW128166   1.758   4.422  11.008 -0.0459  0.4625 -0.6923
 5568SOL    HW228167   1.839   4.414  10.881 -1.4689  2.8466  0.1345
 5569SOL     OW28168   1.068   0.322   0.208 -0.4644  0.2573 -0.5462
 5569SOL    HW128169   1.081   0.249   0.148  0.1115 -1.5250  1.7870
 5569SOL    HW228170   1.155   0.343   0.242 -0.8089  2.9163 -1.2524
 5570SOL     OW28171   2.042   2.902   6.224 -0.2962  0.2590  0.6344
 5570SOL    HW128172   2.020   2.889   6.316 -3.0559  4.4537  0.5753
 5570SOL    HW228173   1.972   2.957   6.187 -0.6678  0.2758  1.3568
 5571SOL     OW28174   3.116   4.178  17.421  0.1093  0.0411  0.2814
 5571SOL    HW128175   3.109   4.086  17.448  0.7589  0.0121  0.3593
 5571SOL    HW228176   3.090   4.178  17.329  1.9276  0.4837 -0.2464
 5572SOL     OW28177   3.139   0.600   8.740  0.5446 -0.1903 -0.0106
 5572SOL    HW128178   3.214   0.543   8.725  1.2657  0.8721 -0.4756
 5572SOL    HW228179   3.098   0.557   8.815  1.7646 -1.9719 -0.3521
 5573SOL     OW28180   2.179   3.796   2.730 -0.1353 -0.0508 -0.6206
 5573SOL    HW128181   2.270   3.821   2.743 -0.5679  1.4080 -0.2901
 5573SOL    HW228182   2.174   3.819   2.637  0.2461 -0.6091 -0.7784
 5574SOL     OW28183   0.695   0.478  14.769  0.3322 -0.1574  0.0321
 5574SOL    HW128184   0.617   0.528  14.792 -1.2060 -2.3905 -0.3554
 5574SOL    HW228185   0.738   0.479  14.854 -0.4398  0.9033  0.4070
 5575SOL     OW28186   2.458   4.070   4.952 -0.4693 -0.2387 -0.4633
 5575SOL    HW128187   2.402   3.997   4.979  0.2060 -0.7531 -0.4470
 5575SOL    HW228188   2.517   4.068   5.028 -0.1485 -0.9131 -0.7291
 5576SOL     OW28189   1.410   1.560   3.113 -1.1046 -0.2387  0.4479
 5576SOL    HW128190   1.454   1.510   3.182 -0.9572 -1.1440 -0.3095
 5576SOL    HW228191   1.386   1.639   3.164  0.3768  0.2996  0.3037
 5577SOL     OW28192   1.060   3.570  10.066  0.3711  0.4655  0.3557
 5577SOL    HW128193   1.139   3.623  10.068  0.8343 -0.2285  0.7482
 5577SOL    HW228194   1.018   3.612   9.991  0.4777  0.1976  0.1471
 5578SOL     OW28195   1.463   0.517   9.480 -0.2083  0.1353  0.3464
 5578SOL    HW128196   1.533   0.522   9.415 -0.4050 -2.9374 -0.0923
 5578SOL    HW228197   1.393   0.559   9.430  1.0896  1.6250 -0.2200
 5579SOL     OW28198   1.063   0.211  16.463  0.7983  0.2664  0.0932
 5579SOL    HW128199   1.084   0.176  16.549 -1.2198 -0.5376  0.2627
 5579SOL    HW228200   1.092   0.142  16.403  0.9573 -0.2208  0.7353
 5580SOL     OW28201   1.455   4.502   4.901  0.7450 -0.7544 -0.2144
 5580SOL    HW128202   1.405   4.527   4.824 -0.3033  1.7411  1.2618
 5580SOL    HW228203   1.485   4.588   4.931 -0.7425 -0.2282 -0.2288
 5581SOL     OW28204   1.473   2.973   4.748  0.0464  0.0855  0.1586
 5581SOL    HW128205   1.505   2.980   4.838  2.5180  2.4871 -0.8947
 5581SOL    HW228206   1.521   3.041   4.700 -2.5987  1.4920 -0.4912
 5582SOL     OW28207   3.224   2.900   7.308  0.1012  0.7560  0.1089
 5582SOL    HW128208   3.210   2.811   7.342 -0.6393  0.8434  0.0292
 5582SOL    HW228209   3.153   2.950   7.349 -2.1734 -1.4060 -1.1287
 5583SOL     OW28210   2.227   3.375   4.980  0.5427 -0.2076  0.9920
 5583SOL    HW128211   2.146   3.330   4.953  1.0690  0.2743 -1.3691
 5583SOL    HW228212   2.218   3.375   5.076 -1.1426  1.7186  0.8391
 5584SOL     OW28213   1.745   4.332  11.417  0.5438  0.3828  0.3762
 5584SOL    HW128214   1.668   4.358  11.468 -0.5206 -1.0157 -0.5272
 5584SOL    HW228215   1.816   4.370  11.470  0.4088  0.8229  0.2364
 5585SOL     OW28216   3.894   0.331   0.138  0.3106  0.1309  0.2563
 5585SOL    HW128217   3.881   0.422   0.165 -0.7609  0.0064  0.1807
 5585SOL    HW228218   3.960   0.299   0.200 -0.6097 -2.0142  0.1390
 5586SOL     OW28219   4.148   0.229   8.289  0.2578  0.7562 -0.6950
 5586SOL    HW128220   4.182   0.246   8.377 -0.7173 -0.9195 -0.0073
 5586SOL    HW228221   4.065   0.275   8.281 -0.7748 -0.8386  0.8762
 5587SOL     OW28222   0.727   0.996   4.178 -0.3901 -0.5334 -0.4202
 5587SOL    HW128223   0.752   1.089   4.175 -0.2169 -0.4416  3.2075
 5587SOL    HW228224   0.673   1.001   4.099  0.1703 -1.4133 -0.8576
 5588SOL     OW28225   2.831   3.190   6.807  0.2503 -0.0582  0.4344
 5588SOL    HW128226   2.849   3.225   6.720 -1.2526 -0.4938 -0.0585
 5588SOL    HW228227   2.752   3.241   6.827 -0.6595 -1.0802 -0.5691
 5589SOL     OW28228   3.538   1.256   0.077 -0.1549  0.3735 -0.2312
 5589SOL    HW128229   3.446   1.262   0.105 -0.4239 -1.6235 -0.6352
 5589SOL    HW228230   3.516   1.227  17.669 -1.1548 -1.4125  0.5996
 5590SOL     OW28231   2.308   2.028   7.948 -0.6195  0.3988  0.1951
 5590SOL    HW128232   2.270   1.954   7.901 -0.1524  2.5123 -3.5356
 5590SOL    HW228233   2.376   1.982   7.997  0.8173  0.9848 -1.2358
 5591SOL     OW28234   0.433   1.774   5.071  0.2466  0.2641 -0.0119
 5591SOL    HW128235   0.451   1.690   5.113 -2.7885 -0.7015 -0.6483
 5591SOL    HW228236   0.516   1.811   5.039 -0.4503  1.8991  0.0278
 5592SOL     OW28237   0.692   0.883   3.253 -0.5446 -0.2612 -0.1595
 5592SOL    HW128238   0.722   0.964   3.210 -0.8547 -0.7400 -1.2842
 5592SOL    HW228239   0.646   0.924   3.327  1.7008  0.2150  0.9646
 5593SOL     OW28240   0.145   2.252   6.286  0.4761  0.5589 -1.0502
 5593SOL    HW128241   0.081   2.295   6.342  0.3885 -1.2645  0.2370
 5593SOL    HW228242   0.211   2.212   6.342  0.5004 -0.5564 -1.8654
 5594SOL     OW28243   2.804   2.939   1.829  0.1416 -0.1069 -0.2754
 5594SOL    HW128244   2.748   2.997   1.776 -1.3460  0.3782  1.8083
 5594SOL    HW228245   2.890   2.979   1.843 -0.3880  0.5663  1.1208
 5595SOL     OW28246   2.698   1.680  12.646 -0.1332 -0.0973 -0.1757
 5595SOL    HW128247   2.745   1.616  12.699  0.4106 -0.7482 -1.4430
 5595SOL    HW228248   2.769   1.723  12.598 -1.4122  0.1467 -1.8341
 5596SOL     OW28249   3.962   2.187   0.280  0.0610  0.9030 -0.3440
 5596SOL    HW128250   3.920   2.100   0.286 -0.6079  1.3072  0.8009
 5596SOL    HW228251   4.023   2.158   0.213  0.6047  1.4168 -0.0622
 5597SOL     OW28252   1.178   1.397   9.445  0.6002  0.5589  0.1401
 5597SOL    HW128253   1.111   1.416   9.511  0.0636 -1.5986  0.2004
 5597SOL    HW228254   1.120   1.367   9.375  0.5990  2.1342 -0.5505
 5598SOL     OW28255   2.029   1.396  13.149  0.0379  0.1376 -0.4656
 5598SOL    HW128256   2.092   1.456  13.189 -1.8956  1.0888  1.1702
 5598SOL    HW228257   1.970   1.446  13.094 -1.0351  1.2835  1.7001
 5599SOL     OW28258   1.767   4.385   0.947 -0.1080  0.0826  0.0178
 5599SOL    HW128259   1.772   4.353   0.857 -1.1620 -0.2151  0.0753
 5599SOL    HW228260   1.690   4.440   0.935 -0.4507 -0.4290 -0.0954
 5600SOL     OW28261   1.006   2.026   3.331  0.1130 -0.1835  0.1329
 5600SOL    HW128262   1.010   1.948   3.386 -0.0328 -0.2123  0.1018
 5600SOL    HW228263   0.953   2.089   3.380 -1.0116 -1.3774  0.4646
 5601SOL     OW28264   1.291   0.067  10.161  0.2502  0.4745 -0.1309
 5601SOL    HW128265   1.272   0.115  10.241 -0.5475  0.1450 -0.1224
 5601SOL    HW228266   1.239   0.122  10.102  1.5159  0.7973 -0.9516
 5602SOL     OW28267   1.187   1.513   1.714  0.3457  0.2129 -0.1289
 5602SOL    HW128268   1.173   1.487   1.805 -0.1171 -2.3518 -0.9207
 5602SOL    HW228269   1.098   1.530   1.685  0.3655  0.5207 -0.0006
 5603SOL     OW28270   2.306   3.382   6.410  0.7906 -0.2468 -0.2305
 5603SOL    HW128271   2.392   3.384   6.454  0.5470 -0.3221  0.2501
 5603SOL    HW228272   2.243   3.381   6.483 -2.3813 -2.1026 -3.0137
 5604SOL     OW28273   0.145   1.766   4.454 -0.9644 -0.1657  0.3490
 5604SOL    HW128274   0.056   1.800   4.450  0.3817  3.5170  2.1819
 5604SOL    HW228275   0.175   1.776   4.363 -1.0083  1.8993  0.5751
 5605SOL     OW28276   2.094   0.247  17.284  0.5360 -0.6382  0.3602
 5605SOL    HW128277   2.064   0.299  17.209  1.4751 -0.2673  0.2457
 5605SOL    HW228278   2.189   0.244  17.291  0.5167 -3.0202 -0.5845
 5606SOL     OW28279   1.441   0.635   7.086  0.0561  0.4149  0.2314
 5606SOL    HW128280   1.461   0.711   7.030 -1.0123 -0.9633 -2.0109
 5606SOL    HW228281   1.360   0.607   7.044  0.4909 -0.2405 -0.1713
 5607SOL     OW28282   1.514   0.908   7.256  0.7739  0.0824 -0.0766
 5607SOL    HW128283   1.587   0.941   7.204 -0.6394  0.8526 -1.5623
 5607SOL    HW228284   1.448   0.896   7.187  0.0370 -0.6538  0.7451
 5608SOL     OW28285   1.962   2.158   8.120  0.4669 -0.1421  0.3030
 5608SOL    HW128286   2.012   2.234   8.152 -1.9412  1.5309  0.0498
 5608SOL    HW228287   1.944   2.101   8.195 -1.5939  0.5920  0.3608
 5609SOL     OW28288   0.790   1.089   8.537 -0.9322 -0.1735 -0.6008
 5609SOL    HW128289   0.726   1.020   8.523 -1.5938  0.6897 -1.8735
 5609SOL    HW228290   0.812   1.083   8.630 -1.2654  0.4154 -0.4823
 5610SOL     OW28291   4.076   0.811   5.780 -0.8015  0.1404 -0.5146
 5610SOL    HW128292   4.068   0.854   5.866 -1.1697 -0.7678 -0.0947
 5610SOL    HW228293   3.988   0.772   5.775 -1.7858  2.5010 -1.6781
 5611SOL     OW28294   1.678   3.728   7.463 -0.0923 -0.0821 -0.1521
 5611SOL    HW128295   1.770   3.750   7.480 -0.2488 -0.2635  0.9084
 5611SOL    HW228296   1.636   3.766   7.541 -0.0348 -0.4245  0.0456
 5612SOL     OW28297   0.973   0.381  14.350  0.7773 -0.4445 -0.8231
 5612SOL    HW128298   0.891   0.348  14.311  0.8948 -0.3888 -1.1163
 5612SOL    HW228299   0.941   0.405  14.436  1.7103  0.5527 -0.7613
 5613SOL     OW28300   0.582   3.241  10.794  0.1054  0.0729 -0.2154
 5613SOL    HW128301   0.488   3.255  10.804  0.0655  1.3755 -2.5784
 5613SOL    HW228302   0.613   3.331  10.784  2.0433 -0.1893  3.2390
 5614SOL     OW28303   3.968   0.284   9.688  0.3605  0.2028 -0.9255
 5614SOL    HW128304   4.062   0.298   9.687  0.3738 -0.0666 -2.8887
 5614SOL    HW228305   3.950   0.376   9.670  0.5724  0.2011 -1.1359
 5615SOL     OW28306   4.253   4.683  11.855 -0.6897  0.1868 -0.4006
 5615SOL    HW128307   4.309   0.028  11.813  1.1810 -1.3928 -0.3233
 5615SOL    HW228308   4.195   4.663  11.781  0.7004  0.9866 -1.7225
 5616SOL     OW28309   3.987   4.055   3.823  0.6367 -0.1914  0.1789
 5616SOL    HW128310   3.985   4.045   3.728  0.1272 -0.3435  0.2094
 5616SOL    HW228311   4.000   3.963   3.847  0.8316 -0.3156 -0.3923
 5617SOL     OW28312   4.609   3.420  13.291  0.2782  0.2576  0.3001
 5617SOL    HW128313   4.520   3.399  13.262  0.3177  1.7987 -0.8979
 5617SOL    HW228314   4.653   3.336  13.280  1.7327  0.9890  0.5521
 5618SOL     OW28315   3.524   4.598   7.841  0.1757 -0.9683  0.9561
 5618SOL    HW128316   3.457   4.531   7.853  1.5712 -2.1877  1.8511
 5618SOL    HW228317   3.501   4.666   7.905  1.1460 -0.7619  1.0895
 5619SOL     OW28318   2.708   2.318   1.945 -0.2892  0.4462 -0.3309
 5619SOL    HW128319   2.741   2.228   1.935 -2.9445 -0.6730  1.0354
 5619SOL    HW228320   2.623   2.315   1.903 -0.3792  0.0741 -0.1218
 5620SOL     OW28321   3.767   0.495   8.726  0.3660 -0.2029  0.0359
 5620SOL    HW128322   3.720   0.414   8.747 -2.7447  1.4101 -0.7196
 5620SOL    HW228323   3.743   0.549   8.801  0.3186 -1.9146  1.2706
 5621SOL     OW28324   0.649   2.988  17.320 -0.0067  0.2183  0.4621
 5621SOL    HW128325   0.653   2.975  17.225 -1.1197 -1.7162  0.6600
 5621SOL    HW228326   0.558   3.017  17.320 -0.0902 -0.0231 -1.4001
 5622SOL     OW28327   4.169   2.559   3.407 -0.8886 -0.0370  0.5147
 5622SOL    HW128328   4.194   2.482   3.356  0.5848  2.4201 -2.4821
 5622SOL    HW228329   4.208   2.624   3.348 -0.5009 -0.5104  0.2486
 5623SOL     OW28330   1.306   1.846   7.683  0.4886  0.1368 -0.1058
 5623SOL    HW128331   1.357   1.816   7.758  0.8252 -1.4553 -0.9820
 5623SOL    HW228332   1.364   1.911   7.644  1.1478  0.2106  0.9944
 5624SOL     OW28333   0.949   0.101  12.558 -0.3982 -0.0994 -0.0042
 5624SOL    HW128334   1.011   0.130  12.625 -0.9263 -0.1744  0.5150
 5624SOL    HW228335   0.954   0.006  12.568 -1.5514  0.0100  1.5760
 5625SOL     OW28336   0.710   3.170   1.328  0.2978  0.0778 -0.0623
 5625SOL    HW128337   0.761   3.183   1.408 -0.0760 -0.8210  0.3224
 5625SOL    HW228338   0.690   3.076   1.331 -2.1710  0.5024 -3.2904
 5626SOL     OW28339   1.398   0.041   5.997  0.2889 -0.3140  0.4033
 5626SOL    HW128340   1.488   0.023   5.972  0.0417 -0.3807 -0.4200
 5626SOL    HW228341   1.392   4.712   6.079 -1.6765  0.3665  0.6854
 5627SOL     OW28342   2.125   4.421   6.549 -0.4076  0.5207 -0.0536
 5627SOL    HW128343   2.075   4.496   6.580 -0.7184  0.8169 -1.2599
 5627SOL    HW228344   2.204   4.426   6.602  0.0158 -2.9337 -0.3319
 5628SOL     OW28345   1.719   3.805   8.320  0.7626 -0.3206  0.2317
 5628SOL    HW128346   1.755   3.717   8.322 -1.8193 -1.4536 -2.2359
 5628SOL    HW228347   1.636   3.805   8.368  0.5433 -0.9652 -0.1413
 5629SOL     OW28348   1.566   1.181   8.760  0.6975  0.1083  0.4133
 5629SOL    HW128349   1.570   1.273   8.735  0.1815  0.7721  2.7513
 5629SOL    HW228350   1.485   1.176   8.811  0.4734 -0.3736  0.0078
 5630SOL     OW28351   0.650   0.378   2.549 -0.6963 -0.1725  0.4765
 5630SOL    HW128352   0.622   0.307   2.606  0.1052 -1.3145 -0.5548
 5630SOL    HW228353   0.600   0.444   2.597  1.2157  2.0784 -0.6001
 5631SOL     OW28354   3.248   0.647   9.204 -0.0110 -0.2020 -0.6116
 5631SOL    HW128355   3.247   0.552   9.197 -4.6527 -0.0675 -2.0663
 5631SOL    HW228356   3.211   0.681   9.122 -1.7765  0.3351  0.4065
 5632SOL     OW28357   1.937   3.267  13.809 -0.0284  0.1662 -0.1241
 5632SOL    HW128358   1.952   3.355  13.845  0.0353  0.4465 -0.8489
 5632SOL    HW228359   2.008   3.253  13.747 -0.3938  2.0861 -1.0037
 5633SOL     OW28360   2.887   4.583  13.477 -0.0354 -0.2398  0.2704
 5633SOL    HW128361   2.919   4.599  13.388  0.7990  2.1778  1.0232
 5633SOL    HW228362   2.794   4.587  13.455  0.1215  1.0833 -0.1189
 5634SOL     OW28363   2.261   2.608  15.505 -0.0413 -0.1388 -0.2948
 5634SOL    HW128364   2.349   2.644  15.520  0.1167 -0.0824 -1.3677
 5634SOL    HW228365   2.276   2.579  15.415 -0.9869  0.9559 -0.7995
 5635SOL     OW28366   4.292   1.967   7.878  0.7350 -0.1199  0.5992
 5635SOL    HW128367   4.324   1.890   7.926  1.7729 -2.2797 -3.4976
 5635SOL    HW228368   4.321   1.931   7.794 -0.2665 -1.9119  1.0231
 5636SOL     OW28369   4.605   4.333  14.042 -0.2198 -0.6506 -0.6636
 5636SOL    HW128370   4.614   4.244  14.008 -1.6179 -0.4339 -1.6060
 5636SOL    HW228371   4.582   4.312  14.133 -1.5815  2.9394 -0.1735
 5637SOL     OW28372   0.165   4.537   9.457  0.4079  0.2353 -0.4866
 5637SOL    HW128373   0.156   4.598   9.385 -3.1283 -0.2819 -0.4958
 5637SOL    HW228374   0.138   4.454   9.417 -0.0667 -1.2587  2.8979
 5638SOL     OW28375   2.494   2.707   4.095  0.4743  0.3179  0.3572
 5638SOL    HW128376   2.413   2.759   4.095  0.5404  0.4173  0.5185
 5638SOL    HW228377   2.477   2.634   4.154 -1.0324  0.2663 -0.1374
 5639SOL     OW28378   2.278   4.444  11.074 -0.0892  0.4611  0.4024
 5639SOL    HW128379   2.342   4.493  11.023  0.2898  0.1683  0.5930
 5639SOL    HW228380   2.191   4.480  11.060 -1.6597 -3.1172  0.8424
 5640SOL     OW28381   0.652   1.390   0.408  0.9423 -0.6846 -0.7735
 5640SOL    HW128382   0.577   1.337   0.434  1.5069 -1.6194 -1.0451
 5640SOL    HW228383   0.728   1.332   0.418  1.2686 -0.1800 -0.3402
 5641SOL     OW28384   0.793   2.440   3.313 -0.2392  0.0406 -0.2246
 5641SOL    HW128385   0.706   2.410   3.338  0.4167 -1.9615 -0.4184
 5641SOL    HW228386   0.806   2.524   3.359  0.8884  0.5816 -1.5272
 5642SOL     OW28387   0.643   1.656   9.526  0.3100 -0.2039  0.5873
 5642SOL    HW128388   0.669   1.588   9.464 -0.2383  0.2462 -0.1464
 5642SOL    HW228389   0.559   1.680   9.486 -0.5147 -0.7498  2.0063
 5643SOL     OW28390   3.735   1.107   8.918  0.1540  0.3340 -0.5918
 5643SOL    HW128391   3.800   1.150   8.973  0.3170  0.7972 -1.1449
 5643SOL    HW228392   3.697   1.054   8.988 -0.2503 -0.1331 -1.1591
 5644SOL     OW28393   2.409   0.033  14.447 -0.0652 -0.0231  0.4657
 5644SOL    HW128394   2.367   0.052  14.531  1.1997  2.3888  0.5433
 5644SOL    HW228395   2.429   0.120  14.412 -2.0185 -0.4270 -1.5901
 5645SOL     OW28396   1.273   1.916  11.373 -0.2453  0.6489 -0.0444
 5645SOL    HW128397   1.223   1.911  11.455  0.6062  0.8512  0.4878
 5645SOL    HW228398   1.244   2.000  11.339 -2.0118 -0.0408 -0.2545
 5646SOL     OW28399   2.873   3.067   0.932  0.1472 -0.0566  0.4866
 5646SOL    HW128400   2.898   3.028   0.848  0.4619  0.4191  0.3585
 5646SOL    HW228401   2.863   2.987   0.983  3.1094 -0.7169  0.0401
 5647SOL     OW28402   2.974   3.760  16.777  0.2255 -0.0224  0.5362
 5647SOL    HW128403   2.906   3.698  16.751  1.6059 -0.8501 -1.0886
 5647SOL    HW228404   3.049   3.706  16.801  0.4897 -0.0430 -0.3697
 5648SOL     OW28405   0.745   1.965   3.971  0.5567  0.3687 -0.0461
 5648SOL    HW128406   0.775   2.016   3.895  1.8959  1.2691  1.0864
 5648SOL    HW228407   0.824   1.923   4.005  0.8972  0.6807 -0.4537
 5649SOL     OW28408   3.208   2.900   5.030 -0.2327 -0.7285  0.1453
 5649SOL    HW128409   3.200   2.856   4.945 -0.6357 -0.4123  0.0202
 5649SOL    HW228410   3.116   2.894   5.055 -0.4511 -1.7116 -0.8741
 5650SOL     OW28411   0.598   2.628   7.532  0.3494  0.1789  0.0129
 5650SOL    HW128412   0.574   2.575   7.456 -1.8538 -0.1874  0.9579
 5650SOL    HW228413   0.692   2.614   7.546  0.2650  1.2296  1.6741
 5651SOL     OW28414   2.202   0.267   4.484  0.3385  0.0418 -0.3617
 5651SOL    HW128415   2.159   0.243   4.402  0.0715 -0.0423 -0.1968
 5651SOL    HW228416   2.291   0.278   4.451  0.4305  0.3266 -0.0179
 5652SOL     OW28417   0.239   0.478   3.681 -0.9339 -0.0179  0.7684
 5652SOL    HW128418   0.144   0.491   3.676 -0.5416  2.3095 -0.6999
 5652SOL    HW228419   0.235   0.384   3.695 -1.6542 -0.5475 -3.0675
 5653SOL     OW28420   0.716   2.638  15.623 -0.0127  0.2699 -0.3267
 5653SOL    HW128421   0.668   2.659  15.543  2.8016  3.4892 -1.1465
 5653SOL    HW228422   0.643   2.651  15.684  4.0040  4.3174  3.6048
 5654SOL     OW28423   3.305   2.474   8.158 -0.0069  0.8644 -0.1554
 5654SOL    HW128424   3.278   2.428   8.238  0.4303  2.7000  1.0529
 5654SOL    HW228425   3.219   2.476   8.117  0.0628 -1.1407 -0.3884
 5655SOL     OW28426   3.225   2.893   6.305  0.5544 -0.0611  0.2162
 5655SOL    HW128427   3.160   2.928   6.245 -1.8794 -2.1724  1.6032
 5655SOL    HW228428   3.179   2.895   6.389  1.4828 -1.3848  0.7699
 5656SOL     OW28429   0.570   0.492   6.204 -0.3998 -0.1563 -0.0747
 5656SOL    HW128430   0.658   0.477   6.168  0.1901  0.8817  0.9434
 5656SOL    HW228431   0.518   0.437   6.145  0.3421 -1.0882  0.1381
 5657SOL     OW28432   1.835   0.877   7.993  0.4042 -0.4405  0.2417
 5657SOL    HW128433   1.788   0.907   7.916  0.1173 -0.4579  0.4098
 5657SOL    HW228434   1.820   0.947   8.057  1.9476 -0.4365  0.5913
 5658SOL     OW28435   2.939   4.413   8.180 -0.2071 -0.2549 -0.1150
 5658SOL    HW128436   2.895   4.492   8.212 -1.1748 -0.9555  0.2792
 5658SOL    HW228437   2.863   4.355   8.170 -0.8058  0.5359 -0.1877
 5659SOL     OW28438   2.534   3.484   2.132 -0.7153 -0.0432 -0.1492
 5659SOL    HW128439   2.625   3.460   2.150 -0.4745  0.3080 -0.8814
 5659SOL    HW228440   2.513   3.547   2.201  2.0421  1.5660 -0.7872
 5660SOL     OW28441   2.553   0.789  10.455 -0.3771 -0.0479  1.2669
 5660SOL    HW128442   2.588   0.728  10.519 -2.6208 -1.8571  0.7713
 5660SOL    HW228443   2.469   0.810  10.497 -0.0266  2.6998  0.5817
 5661SOL     OW28444   2.476   4.400   6.388 -0.0745  0.3626  0.4460
 5661SOL    HW128445   2.427   4.344   6.449 -1.2578 -0.0240 -0.8753
 5661SOL    HW228446   2.525   4.338   6.334 -1.5565 -2.8701  2.8455
 5662SOL     OW28447   0.917   0.118   2.881 -0.0598 -0.4639 -0.3519
 5662SOL    HW128448   0.955   0.151   2.799  0.8897  0.1943  0.3477
 5662SOL    HW228449   0.833   0.086   2.850  0.1241 -2.3606  1.0811
 5663SOL     OW28450   3.088   3.603   3.666  0.2898  0.3235 -0.1506
 5663SOL    HW128451   3.141   3.637   3.737  1.0610 -1.2968  0.0473
 5663SOL    HW228452   3.042   3.524   3.694 -0.9898  0.8854 -0.6536
 5664SOL     OW28453   3.300   4.174   7.294 -0.7458 -0.7282  0.0767
 5664SOL    HW128454   3.350   4.104   7.336  0.1135 -1.6260 -2.4573
 5664SOL    HW228455   3.351   4.182   7.214 -0.7297 -1.4814  0.0136
 5665SOL     OW28456   2.151   0.502  16.758 -0.4236  0.1705  0.2497
 5665SOL    HW128457   2.245   0.519  16.758 -0.1578 -1.2927  0.4226
 5665SOL    HW228458   2.137   0.407  16.757 -1.6911  0.3176  1.9201
 5666SOL     OW28459   0.307   1.379  14.167 -0.0687 -0.1328 -0.4423
 5666SOL    HW128460   0.401   1.388  14.184 -0.7033  0.4031  2.8040
 5666SOL    HW228461   0.300   1.284  14.164  0.6799 -0.2353  1.0257
 5667SOL     OW28462   1.591   3.365   8.013 -0.2089 -0.2587  0.3022
 5667SOL    HW128463   1.513   3.365   7.957 -0.3872  0.5538  0.5428
 5667SOL    HW228464   1.659   3.367   7.946 -0.2868  0.2581  0.2315
 5668SOL     OW28465   4.549   1.410   5.979  0.2711  0.3674 -0.5767
 5668SOL    HW128466   4.561   1.476   5.911 -0.8409 -0.1392 -1.2579
 5668SOL    HW228467   4.453   1.412   5.987  0.4615  2.2297  1.2613
 5669SOL     OW28468   1.003   2.507   3.898  0.2674 -0.4827 -0.3152
 5669SOL    HW128469   0.990   2.417   3.929 -1.7029  0.4972  1.7080
 5669SOL    HW228470   1.092   2.515   3.931  0.0113 -2.3467  0.8177
 5670SOL     OW28471   2.905   4.215  12.682  0.0799  0.0301  0.3722
 5670SOL    HW128472   2.902   4.155  12.757  2.4596 -1.9858 -1.1547
 5670SOL    HW228473   2.979   4.270  12.710  0.7300 -1.1584  1.0080
 5671SOL     OW28474   4.653   2.222  13.650  0.9674  0.0602 -0.1107
 5671SOL    HW128475   4.600   2.229  13.570  1.4183  0.8868 -0.3416
 5671SOL    HW228476   4.694   2.309  13.649 -1.3355  1.1472  0.5079
 5672SOL     OW28477   2.960   1.418  13.151  0.2418 -0.1228 -0.0569
 5672SOL    HW128478   2.904   1.493  13.175  1.2743  0.7820 -0.4727
 5672SOL    HW228479   2.889   1.355  13.164 -0.5698  1.1439  1.8005
 5673SOL     OW28480   2.838   4.255   1.547 -0.0841 -0.3922 -0.6299
 5673SOL    HW128481   2.743   4.267   1.547 -0.0240  0.0600 -0.3536
 5673SOL    HW228482   2.836   4.168   1.507  2.6748 -1.4448  1.5681
 5674SOL     OW28483   0.991   1.491  13.677 -0.5140 -0.3497 -0.1260
 5674SOL    HW128484   0.969   1.515  13.767 -0.2627 -0.6805  0.0248
 5674SOL    HW228485   0.914   1.444  13.644 -0.1309 -0.7314 -0.4775
 5675SOL     OW28486   3.578   2.747  17.464  0.5465  0.2459  0.5606
 5675SOL    HW128487   3.531   2.830  17.455 -0.0523  0.0814  2.2161
 5675SOL    HW228488   3.561   2.685  17.393  0.7051  0.6616  0.1632
 5676SOL     OW28489   0.701   3.104   7.686 -0.1704  0.7242  0.4103
 5676SOL    HW128490   0.746   3.082   7.767 -0.7656 -1.2719  0.2177
 5676SOL    HW228491   0.633   3.166   7.714 -0.4735  0.5418  0.0800
 5677SOL     OW28492   0.743   3.891  11.270  0.4329 -0.6431  0.5098
 5677SOL    HW128493   0.727   3.943  11.349 -0.8022  1.7519 -1.3019
 5677SOL    HW228494   0.838   3.895  11.255  0.2545  1.4611 -0.0098
 5678SOL     OW28495   0.236   1.581   8.614  0.0588  0.3494 -0.1187
 5678SOL    HW128496   0.313   1.609   8.663 -1.5969  0.1288  2.5902
 5678SOL    HW228497   0.234   1.486   8.629 -1.0995  0.2975 -0.5381
 5679SOL     OW28498   0.986   4.075  16.491 -0.3329  0.2219  0.2592
 5679SOL    HW128499   0.993   3.997  16.545 -1.2729  0.5883  0.9057
 5679SOL    HW228500   0.895   4.074  16.462  0.0894 -0.7713 -1.0559
 5680SOL     OW28501   2.480   0.415   9.147 -0.1235  0.1372 -0.2087
 5680SOL    HW128502   2.415   0.469   9.103 -1.5254 -0.8191  0.6924
 5680SOL    HW228503   2.494   0.475   9.221  3.1994  1.5034 -1.9496
 5681SOL     OW28504   1.614   1.051   6.544  0.0309  0.0502 -0.1290
 5681SOL    HW128505   1.680   1.068   6.476  0.4901 -0.4934  0.1834
 5681SOL    HW228506   1.569   1.135   6.544 -1.2505 -0.6363 -0.7696
 5682SOL     OW28507   0.527   1.725   4.566  0.2753 -0.0738  0.5250
 5682SOL    HW128508   0.451   1.783   4.570  0.1622 -0.3136  1.7016
 5682SOL    HW228509   0.517   1.676   4.484 -0.3521  0.1416  0.4695
 5683SOL     OW28510   0.031   0.046   0.103 -0.6075  0.5950 -0.5010
 5683SOL    HW128511   0.051   0.071   0.193  2.7670 -0.7020 -0.9072
 5683SOL    HW228512   0.112   4.719   0.084 -0.2589  0.7775  0.5508
 5684SOL     OW28513   2.891   1.424   6.128 -0.2572 -0.4577 -1.0771
 5684SOL    HW128514   2.983   1.405   6.148 -1.0766 -2.8085  0.4077
 5684SOL    HW228515   2.851   1.346   6.165  0.4625  0.2580  1.1929
 5685SOL     OW28516   0.106   3.135   2.384 -0.4951  1.0533 -0.2212
 5685SOL    HW128517   0.028   3.187   2.404 -2.0879 -1.5726  0.3397
 5685SOL    HW228518   0.069   3.048   2.373  0.8880  0.5347 -0.8048
 5686SOL     OW28519   0.437   3.165   0.187 -0.0714 -0.3736  0.5239
 5686SOL    HW128520   0.531   3.170   0.171 -0.5073 -1.1935 -2.4309
 5686SOL    HW228521   0.425   3.217   0.266 -0.8261  1.4127 -0.7438
 5687SOL     OW28522   1.643   3.716  14.991 -0.4429  0.4809 -0.0765
 5687SOL    HW128523   1.569   3.694  14.935 -0.9978  1.5459  0.2461
 5687SOL    HW228524   1.620   3.803  15.023  0.8489  1.2529 -1.2126
 5688SOL     OW28525   1.703   4.158   1.096  0.3376  0.2524 -0.1111
 5688SOL    HW128526   1.721   4.250   1.080  4.6100 -0.7902 -1.3583
 5688SOL    HW228527   1.664   4.125   1.015  1.8954 -2.5659  0.2743
 5689SOL     OW28528   2.335   1.515   4.851  0.6823  0.1478 -0.0508
 5689SOL    HW128529   2.304   1.424   4.851  0.3205  0.2797 -1.9646
 5689SOL    HW228530   2.407   1.501   4.789 -0.4144  0.5921 -1.4257
 5690SOL     OW28531   0.055   0.369   5.553  0.0460  0.2693 -0.2439
 5690SOL    HW128532   0.086   0.300   5.494 -0.2219 -1.0240  1.1378
 5690SOL    HW228533   0.037   0.331   5.638 -1.4155  0.7380 -0.3502
 5691SOL     OW28534   2.489   3.553  16.459  0.0419 -0.6120  0.3723
 5691SOL    HW128535   2.458   3.612  16.527 -1.3716 -1.7004  0.6660
 5691SOL    HW228536   2.405   3.509  16.451 -0.3447  0.4333 -1.2284
 5692SOL     OW28537   2.760   2.331   7.380 -0.1702 -0.1734 -0.1648
 5692SOL    HW128538   2.763   2.239   7.406  0.1074  0.6831  2.8310
 5692SOL    HW228539   2.773   2.361   7.470  0.7113  1.7944 -0.9347
 5693SOL     OW28540   4.467   1.426   7.285  0.2381  0.0268 -0.4292
 5693SOL    HW128541   4.433   1.446   7.197 -0.6334  2.9206  0.5658
 5693SOL    HW228542   4.414   1.353   7.315  0.6533 -0.7023 -1.4375
 5694SOL     OW28543   2.083   2.116  13.504 -0.2605 -0.1287 -0.2036
 5694SOL    HW128544   2.005   2.155  13.464 -0.9815  0.1649  1.4483
 5694SOL    HW228545   2.068   2.022  13.504 -0.0930 -0.1518 -2.1450
 5695SOL     OW28546   0.505   2.377  15.847  0.2537  0.4680  0.8739
 5695SOL    HW128547   0.581   2.351  15.794  0.0609  1.3835  0.1600
 5695SOL    HW228548   0.525   2.319  15.921  0.6998  2.2704  2.1595
 5696SOL     OW28549   0.114   3.219   6.371  0.0476  0.3797 -0.2574
 5696SOL    HW128550   0.144   3.287   6.311  0.9501 -0.0422 -0.2943
 5696SOL    HW228551   0.084   3.270   6.446  0.4687 -1.9850  1.5128
 5697SOL     OW28552   3.236   1.770   0.526  0.1219  0.1163  0.4812
 5697SOL    HW128553   3.299   1.836   0.555  0.3125 -0.1615  0.6968
 5697SOL    HW228554   3.163   1.826   0.501  0.6112  0.9996  0.9951
 5698SOL     OW28555   0.992   3.091   6.485 -0.0275  0.0481 -0.4576
 5698SOL    HW128556   0.914   3.115   6.435 -0.3916  1.3442  0.7507
 5698SOL    HW228557   0.965   3.007   6.524  1.8109 -0.6042 -0.5734
 5699SOL     OW28558   2.406   4.449  17.417 -0.0245 -0.4221 -0.2471
 5699SOL    HW128559   2.382   4.535  17.451 -1.6619 -2.0040  2.6030
 5699SOL    HW228560   2.333   4.390  17.436 -1.2200  1.0776 -0.1799
 5700SOL     OW28561   2.943   1.045  13.349  0.1526  0.7752 -0.4271
 5700SOL    HW128562   2.985   1.126  13.380  0.0069 -0.1228  2.1031
 5700SOL    HW228563   2.849   1.059  13.343 -0.1281 -0.7019  0.5989
 5701SOL     OW28564   2.961   4.353   3.405 -0.1869 -0.6425 -0.4623
 5701SOL    HW128565   2.924   4.265   3.410  1.0546 -1.2156 -1.4380
 5701SOL    HW228566   2.879   4.404   3.401 -0.2598 -0.9018 -2.7354
 5702SOL     OW28567   3.350   4.181  12.352  0.4501  0.6627 -0.4385
 5702SOL    HW128568   3.318   4.169  12.263  0.1359 -2.4559  0.0968
 5702SOL    HW228569   3.312   4.105  12.396 -2.0878  1.9816 -0.3659
 5703SOL     OW28570   0.888   3.239   5.143  0.1574 -0.2588 -0.6175
 5703SOL    HW128571   0.815   3.286   5.104 -0.2528  0.1026  0.5777
 5703SOL    HW228572   0.858   3.221   5.232  0.8410  0.0205 -0.3266
 5704SOL     OW28573   0.523   3.806   3.560 -0.1893  0.0777  0.2680
 5704SOL    HW128574   0.468   3.815   3.483 -0.4196 -0.5563  0.3537
 5704SOL    HW228575   0.598   3.859   3.533  0.3034 -0.2893  0.8964
 5705SOL     OW28576   2.527   3.542   1.684  0.3238  0.3680  0.5920
 5705SOL    HW128577   2.482   3.488   1.618  0.9825  0.4589  0.0707
 5705SOL    HW228578   2.477   3.528   1.764  0.0747 -1.1761  0.1641
 5706SOL     OW28579   1.465   0.137   3.734 -0.2735 -0.7792  0.0331
 5706SOL    HW128580   1.523   0.065   3.708  2.8764  2.2997 -1.5469
 5706SOL    HW228581   1.385   0.103   3.695 -0.3462 -1.1449  0.4961
 5707SOL     OW28582   4.275   0.604   0.436  0.0405  0.5488 -0.1537
 5707SOL    HW128583   4.338   0.608   0.365  0.0364 -2.2527 -0.3120
 5707SOL    HW228584   4.310   0.535   0.492 -0.9603  0.0811 -0.0949
 5708SOL     OW28585   0.300   2.434   7.114 -0.0074  0.3598  0.3727
 5708SOL    HW128586   0.281   2.495   7.042 -0.4978 -0.2179  0.0089
 5708SOL    HW228587   0.222   2.446   7.167 -0.7071 -0.3341 -0.4845
 5709SOL     OW28588   3.752   1.872   7.633 -0.3512  0.3609 -0.1412
 5709SOL    HW128589   3.674   1.817   7.638 -0.2000  0.4156  2.4139
 5709SOL    HW228590   3.770   1.893   7.724 -2.4080 -0.7902  0.5371
 5710SOL     OW28591   4.586   0.305  11.203 -0.0322 -0.2897 -0.3979
 5710SOL    HW128592   4.652   0.336  11.141  0.3560  1.9211  1.1297
 5710SOL    HW228593   4.573   0.216  11.169  1.2899 -0.5613 -0.2120
 5711SOL     OW28594   0.258   2.848   2.456  0.0839  0.5832 -0.0401
 5711SOL    HW128595   0.203   2.771   2.441 -0.6101  0.4652  3.0610
 5711SOL    HW228596   0.235   2.886   2.371 -1.9656 -2.7218 -0.9416
 5712SOL     OW28597   4.492   3.907   3.497  0.5628  0.0632 -0.7006
 5712SOL    HW128598   4.532   3.867   3.420 -0.0686 -0.8629 -0.5542
 5712SOL    HW228599   4.400   3.892   3.476  0.9796 -0.1224 -2.3817
 5713SOL     OW28600   3.700   2.391  17.412  0.0655  0.3481  0.3737
 5713SOL    HW128601   3.693   2.449  17.488 -1.1070  0.7391 -0.0171
 5713SOL    HW228602   3.793   2.397  17.390 -0.1506  0.0246 -0.6254
 5714SOL     OW28603   1.914   4.161  13.572 -0.1407 -0.0954  0.0794
 5714SOL    HW128604   1.993   4.172  13.625  0.5739 -1.4137 -0.7329
 5714SOL    HW228605   1.842   4.123  13.622  0.8008  0.0453  1.5383
 5715SOL     OW28606   4.638   2.089  10.279 -0.4603  0.2184 -0.3864
 5715SOL    HW128607   4.564   2.139  10.314  0.4656  3.6793 -3.4180
 5715SOL    HW228608   4.667   2.161  10.223  3.0565  0.6011  1.9012
 5716SOL     OW28609   3.171   4.649   2.325 -0.2063 -0.3238  0.0357
 5716SOL    HW128610   3.216   0.009   2.354  4.1474 -2.9226  0.2556
 5716SOL    HW228611   3.085   4.657   2.367  0.4449 -1.8945  1.6620
 5717SOL     OW28612   4.056   1.059   7.003  0.6719 -0.1193 -0.6951
 5717SOL    HW128613   4.031   1.054   6.911  1.5397 -0.3320 -0.9152
 5717SOL    HW228614   4.142   1.018   6.999  0.2037 -1.2598  0.8207
 5718SOL     OW28615   3.505   2.450   2.462  0.5986  0.4242  0.5292
 5718SOL    HW128616   3.468   2.539   2.459 -0.1228  0.0814 -0.6402
 5718SOL    HW228617   3.548   2.453   2.377 -0.2582  1.1378  0.1164
 5719SOL     OW28618   1.011   0.782  17.172  0.0560  0.4681 -0.1037
 5719SOL    HW128619   1.054   0.728  17.238 -2.0466  0.6407  1.4211
 5719SOL    HW228620   1.056   0.746  17.096 -1.7153  1.0148 -1.4042
 5720SOL     OW28621   3.958   0.778  11.399  0.2260  0.2912  0.1224
 5720SOL    HW128622   3.944   0.702  11.343 -1.7586  1.2446 -0.6777
 5720SOL    HW228623   4.030   0.824  11.358  0.4015  0.4330  0.5888
 5721SOL     OW28624   1.938   1.169   1.195  0.1686 -0.3918 -0.1225
 5721SOL    HW128625   1.961   1.176   1.102 -1.7109  1.3017 -0.4662
 5721SOL    HW228626   2.024   1.149   1.232 -0.2163 -2.4955 -0.3538
 5722SOL     OW28627   1.446   1.682   2.097 -0.4421 -0.4805 -0.0958
 5722SOL    HW128628   1.391   1.727   2.033 -0.5146 -0.4475 -0.0110
 5722SOL    HW228629   1.383   1.617   2.127 -0.6697  0.1370  0.7770
 5723SOL     OW28630   4.453   4.246   8.637  0.2699  0.5714 -0.1968
 5723SOL    HW128631   4.537   4.206   8.663  0.0490  0.6894  0.7047
 5723SOL    HW228632   4.432   4.289   8.720  0.7150 -1.7065  1.1097
 5724SOL     OW28633   3.874   0.515   6.463 -0.3058 -0.1991 -0.5826
 5724SOL    HW128634   3.902   0.566   6.540  0.1671 -0.6855 -0.4378
 5724SOL    HW228635   3.816   0.447   6.497  0.6357  0.3847  2.1726
 5725SOL     OW28636   0.251   2.435  12.355  0.2852 -0.1821 -0.5474
 5725SOL    HW128637   0.230   2.507  12.295 -1.9680 -1.5522 -1.3877
 5725SOL    HW228638   0.346   2.446  12.366  0.3557 -1.6557  0.2829
 5726SOL     OW28639   3.032   2.513   4.334 -0.4380  0.0173  0.1442
 5726SOL    HW128640   3.013   2.600   4.300 -0.1773  0.1350  0.2983
 5726SOL    HW228641   3.098   2.528   4.402  0.0064 -0.4316 -0.1861
 5727SOL     OW28642   2.785   2.554   8.397  0.3903 -0.7165  0.0330
 5727SOL    HW128643   2.767   2.563   8.491  2.3975 -2.1569  0.5607
 5727SOL    HW228644   2.700   2.574   8.357 -0.5531  0.1893  2.4441
 5728SOL     OW28645   3.228   1.955   4.440  0.2812 -0.2819 -0.0780
 5728SOL    HW128646   3.248   1.865   4.465  2.4567  0.1950 -0.1185
 5728SOL    HW228647   3.262   2.006   4.513  1.7299 -0.4255 -0.6575
 5729SOL     OW28648   4.637   1.023   1.188  0.3635  0.6692 -0.1011
 5729SOL    HW128649   4.674   1.072   1.114 -1.5766 -1.4174 -2.4533
 5729SOL    HW228650   4.582   0.957   1.145 -0.7667  1.5746 -0.0299
 5730SOL     OW28651   2.655   2.271   0.066 -0.3746 -0.6427  0.4147
 5730SOL    HW128652   2.733   2.264   0.121  0.6074  1.6281 -0.6854
 5730SOL    HW228653   2.688   2.329  17.678  2.1372 -0.0406  2.1426
 5731SOL     OW28654   0.924   4.621   6.023  0.3781 -0.2092  0.5763
 5731SOL    HW128655   0.982   4.688   6.060 -0.7395  0.4412  1.1610
 5731SOL    HW228656   0.968   4.602   5.941 -0.6106 -1.0303  0.2425
 5732SOL     OW28657   1.944   0.678   2.754 -0.4106  0.3267 -0.0327
 5732SOL    HW128658   1.985   0.755   2.716  0.8425 -1.3439 -2.0743
 5732SOL    HW228659   1.942   0.626   2.673 -0.1030  1.1515 -0.5633
 5733SOL     OW28660   2.461   0.715   2.757  0.2902  0.2252  0.6048
 5733SOL    HW128661   2.412   0.757   2.828 -1.9014 -2.6535  0.7995
 5733SOL    HW228662   2.450   0.621   2.772 -1.2224  0.3780  0.4945
 5734SOL     OW28663   0.754   1.012   5.681  0.2191  0.5680 -0.6128
 5734SOL    HW128664   0.735   1.105   5.691  1.4404  0.5367  1.8603
 5734SOL    HW228665   0.683   0.997   5.618  1.2712 -0.4120 -1.5862
 5735SOL     OW28666   2.188   0.246   8.844 -0.1210 -0.0721 -0.0335
 5735SOL    HW128667   2.263   0.201   8.805  0.3899 -0.4998  1.4530
 5735SOL    HW228668   2.116   0.191   8.812  0.5598 -0.4593 -0.9052
 5736SOL     OW28669   1.976   1.100   6.091 -0.3474 -0.0310 -0.1785
 5736SOL    HW128670   1.980   1.129   6.182  0.7405  0.3560 -0.3458
 5736SOL    HW228671   1.894   1.051   6.095 -1.2676  1.5301 -0.1735
 5737SOL     OW28672   2.192   1.397   7.316 -0.2151  0.6833  0.5009
 5737SOL    HW128673   2.242   1.451   7.254  0.5564  2.1757  2.4108
 5737SOL    HW228674   2.200   1.313   7.271 -0.7822  0.6203  0.5202
 5738SOL     OW28675   0.150   0.197   9.769  0.3954  0.0301 -0.0862
 5738SOL    HW128676   0.232   0.168   9.728  1.3734  0.6875  1.3907
 5738SOL    HW228677   0.115   0.108   9.776 -0.3769  0.2596 -1.0733
 5739SOL     OW28678   1.671   0.978   2.728  0.7787 -0.3036  0.1625
 5739SOL    HW128679   1.739   0.967   2.661 -0.2902 -1.6932 -0.6783
 5739SOL    HW228680   1.702   1.026   2.806  0.2458 -1.0421  0.8244
 5740SOL     OW28681   4.127   2.456  11.346  0.1124  0.6329 -0.1441
 5740SOL    HW128682   4.031   2.457  11.338 -0.0085 -1.2639  0.8733
 5740SOL    HW228683   4.137   2.371  11.303  2.1391  1.3724 -1.1023
 5741SOL     OW28684   1.942   3.261  10.754  0.3795  0.4553  0.3098
 5741SOL    HW128685   1.978   3.350  10.746  0.3346  0.3910 -0.6035
 5741SOL    HW228686   2.016   3.213  10.792  2.2765  1.6130 -1.8466
 5742SOL     OW28687   1.659   3.376  10.429  0.1573 -0.4021  0.0704
 5742SOL    HW128688   1.631   3.465  10.407  3.3029  0.5396 -0.1059
 5742SOL    HW228689   1.608   3.324  10.368  0.1037  0.5911 -0.7416
 5743SOL     OW28690   1.980   0.014   9.299 -0.1717 -0.2284  0.4343
 5743SOL    HW128691   1.993   0.087   9.358 -1.7570  1.5300 -1.3746
 5743SOL    HW228692   1.992   0.055   9.213  1.4906 -1.6499 -0.0315
 5744SOL     OW28693   0.305   1.095   6.155 -0.9330 -0.0234  0.4596
 5744SOL    HW128694   0.293   1.000   6.154  0.2806 -0.1656  0.0948
 5744SOL    HW228695   0.379   1.108   6.096 -0.2651 -0.0820  1.2856
 5745SOL     OW28696   2.303   1.860   8.616 -0.4247 -0.0609  0.1455
 5745SOL    HW128697   2.231   1.813   8.659 -0.8296 -0.6032 -1.1317
 5745SOL    HW228698   2.262   1.893   8.536  0.2676  1.3467  0.3695
 5746SOL     OW28699   1.798   2.605  14.391  0.3776 -0.2652 -0.4181
 5746SOL    HW128700   1.837   2.632  14.308  0.8195 -1.1185 -0.4838
 5746SOL    HW228701   1.733   2.542  14.359 -1.8721  1.3388  0.9644
 5747SOL     OW28702   3.211   3.459   5.356 -0.5397  0.1544  0.1848
 5747SOL    HW128703   3.119   3.452   5.330 -0.1470 -0.7494 -0.9512
 5747SOL    HW228704   3.207   3.471   5.451 -1.4821  0.7114  0.0734
 5748SOL     OW28705   4.400   3.379  14.241  0.0466 -0.1195 -0.0403
 5748SOL    HW128706   4.326   3.358  14.298  0.6134  0.7604  1.0414
 5748SOL    HW228707   4.369   3.348  14.156  1.1598  0.8100 -0.7880
 5749SOL     OW28708   0.984   1.192   3.963 -0.0603  0.2949 -0.1307
 5749SOL    HW128709   0.896   1.211   3.993 -0.0933  1.1845 -0.7888
 5749SOL    HW228710   0.956   1.138   3.889 -2.1269 -0.8289  1.5034
 5750SOL     OW28711   1.027   1.443   5.936  0.0121  0.1367 -0.1889
 5750SOL    HW128712   1.002   1.415   6.024 -2.7300 -1.9713 -1.6420
 5750SOL    HW228713   0.942   1.472   5.903 -0.8324 -2.4974 -0.3031
 5751SOL     OW28714   0.671   0.853  15.975 -0.4263 -0.3600  0.6380
 5751SOL    HW128715   0.756   0.878  16.010 -0.5803 -1.1272  1.5289
 5751SOL    HW228716   0.654   0.788  16.042 -3.8005  1.8904  1.9917
 5752SOL     OW28717   1.668   1.846   4.424  0.3918 -0.0055 -0.4656
 5752SOL    HW128718   1.714   1.821   4.344 -0.2755  1.9215 -1.4601
 5752SOL    HW228719   1.748   1.849   4.478 -0.9527  1.5236  1.4720
 5753SOL     OW28720   0.388   3.103   7.587 -0.0131  0.1164 -0.2400
 5753SOL    HW128721   0.442   3.029   7.560 -1.5072 -1.1736  0.2379
 5753SOL    HW228722   0.299   3.079   7.559 -0.4107 -0.8180  1.8553
 5754SOL     OW28723   0.989   4.568   4.599  0.5492 -0.1106  0.0959
 5754SOL    HW128724   0.959   4.561   4.508 -1.2318  1.5714  0.5650
 5754SOL    HW228725   0.900   4.586   4.628  0.2830 -0.9530 -0.1972
 5755SOL     OW28726   4.643   0.405   6.689 -0.3436  0.0723 -0.2800
 5755SOL    HW128727   4.547   0.411   6.691 -0.3414 -1.3304  5.4173
 5755SOL    HW228728   4.673   0.490   6.659 -1.4161  0.2616 -0.8200
 5756SOL     OW28729   2.925   4.206   8.722 -0.1550 -0.3187  0.2186
 5756SOL    HW128730   2.867   4.207   8.645 -1.3819 -0.8254  1.1473
 5756SOL    HW228731   3.000   4.148   8.707 -1.8825 -2.9660  1.8058
 5757SOL     OW28732   2.124   0.397  15.538  0.1339  0.3313  0.1760
 5757SOL    HW128733   2.124   0.375  15.631  3.5719  1.6025  0.4974
 5757SOL    HW228734   2.143   0.490  15.549  1.6537 -0.0206  0.6104
 5758SOL     OW28735   4.524   2.048   7.442 -1.2155 -0.3810 -0.0452
 5758SOL    HW128736   4.494   2.042   7.351 -1.8246 -0.4712  0.1626
 5758SOL    HW228737   4.480   2.126   7.475 -1.5651 -0.8869  0.6844
 5759SOL     OW28738   3.225   2.129   7.659  0.4692  0.2056 -0.0050
 5759SOL    HW128739   3.214   2.036   7.641 -1.8413  0.6969 -1.1969
 5759SOL    HW228740   3.286   2.158   7.592  1.2213 -0.2121  0.5058
 5760SOL     OW28741   2.133   3.494  13.545  0.5497  0.2710 -0.1119
 5760SOL    HW128742   2.170   3.564  13.490  0.0401 -0.1802 -1.0378
 5760SOL    HW228743   2.201   3.479  13.610  0.4110 -0.9264 -0.2535
 5761SOL     OW28744   2.772   4.228   9.302 -0.4945 -0.1203 -0.6253
 5761SOL    HW128745   2.742   4.234   9.211 -0.0121  0.2304 -0.7631
 5761SOL    HW228746   2.691   4.231   9.353 -0.4415 -0.9076 -0.5012
 5762SOL     OW28747   0.305   4.531  11.575 -0.1733 -0.6937 -0.0678
 5762SOL    HW128748   0.316   4.592  11.648  0.8352 -0.4321 -0.4410
 5762SOL    HW228749   0.245   4.472  11.621  0.8427 -0.3750  1.6818
 5763SOL     OW28750   3.307   0.560   0.458  0.1348  0.0039 -0.7914
 5763SOL    HW128751   3.360   0.492   0.500 -1.4439 -0.2612  0.7621
 5763SOL    HW228752   3.333   0.636   0.509  0.2139  1.6322 -3.2705
 5764SOL     OW28753   4.298   2.502   1.786 -0.7143  0.1057  0.2781
 5764SOL    HW128754   4.323   2.594   1.784 -2.9654  0.6922 -0.8363
 5764SOL    HW228755   4.356   2.474   1.858  0.1236 -0.3167 -0.5541
 5765SOL     OW28756   3.581   2.186   4.500 -0.6824 -0.1502  0.2678
 5765SOL    HW128757   3.665   2.142   4.487 -0.6453 -0.0367  0.1252
 5765SOL    HW228758   3.594   2.272   4.461  1.9601 -0.1297  1.1498
 5766SOL     OW28759   1.914   2.652   8.863 -0.1527  0.7179  0.0855
 5766SOL    HW128760   1.820   2.648   8.880 -0.0461  0.6240  0.6846
 5766SOL    HW228761   1.941   2.594   8.935 -0.1783  2.4367  1.4812
 5767SOL     OW28762   4.355   0.652  14.629 -0.3828  0.6217  0.6312
 5767SOL    HW128763   4.357   0.593  14.554  2.5859  0.1056  1.1441
 5767SOL    HW228764   4.268   0.633  14.665 -0.2501 -2.7266 -0.7709
 5768SOL     OW28765   4.713   4.220   4.515 -0.3318 -0.2931  0.1569
 5768SOL    HW128766   4.709   4.287   4.448  3.0590  0.4099  0.6371
 5768SOL    HW228767   0.089   4.211   4.516 -0.4578 -1.6313 -0.1002
 5769SOL     OW28768   2.905   3.860   8.564 -1.0193  0.0760 -0.6058
 5769SOL    HW128769   2.898   3.853   8.469 -2.0510 -2.5637 -0.3562
 5769SOL    HW228770   2.985   3.911   8.573 -1.3315  0.5720 -0.6523
 5770SOL     OW28771   2.488   4.512   6.055  0.1232 -0.6290 -0.3047
 5770SOL    HW128772   2.401   4.509   6.094 -1.2752  0.4188 -3.3039
 5770SOL    HW228773   2.497   4.417   6.047 -2.4808 -0.9051  0.1364
 5771SOL     OW28774   2.601   3.323  16.744 -0.3918  0.0285  0.1404
 5771SOL    HW128775   2.524   3.299  16.692 -0.5028 -1.7316  1.1203
 5771SOL    HW228776   2.660   3.248  16.736  0.3584  0.8023 -1.6221
 5772SOL     OW28777   2.113   3.894   4.287 -0.1244 -0.2953  0.4396
 5772SOL    HW128778   2.052   3.836   4.242 -0.4931 -0.2094  0.8386
 5772SOL    HW228779   2.118   3.961   4.219 -0.9965  2.7126  3.3310
 5773SOL     OW28780   2.284   4.343   4.303 -0.1045 -0.1618 -0.5093
 5773SOL    HW128781   2.246   4.279   4.363  2.2935  0.5768  1.7679
 5773SOL    HW228782   2.376   4.343   4.329 -0.1965 -1.0787 -0.1852
 5774SOL     OW28783   2.989   1.552  12.731  0.0034 -0.7726  0.0912
 5774SOL    HW128784   3.053   1.506  12.786 -0.9257 -0.3685  1.5364
 5774SOL    HW228785   3.033   1.598  12.660 -0.1735  0.1977  0.5958
 5775SOL     OW28786   2.433   1.701   9.848 -0.5171 -0.1566  0.5390
 5775SOL    HW128787   2.338   1.686   9.849 -0.3786 -1.0357 -0.3601
 5775SOL    HW228788   2.468   1.613   9.856  2.1568  0.9260  0.5941
 5776SOL     OW28789   3.856   3.025   6.012 -0.4391 -0.4399  0.2059
 5776SOL    HW128790   3.799   3.018   5.936 -0.2139 -1.1217  0.1006
 5776SOL    HW228791   3.915   3.093   5.980 -3.0634  1.8102  0.1816
 5777SOL     OW28792   0.673   3.096   2.024 -0.4431  0.5832  0.1705
 5777SOL    HW128793   0.612   3.044   1.971  0.9110  0.6243 -1.4470
 5777SOL    HW228794   0.668   3.189   2.000  0.9545  0.5045 -0.4511
 5778SOL     OW28795   2.697   1.963   7.882  0.0716 -0.0437 -0.1486
 5778SOL    HW128796   2.620   1.972   7.938 -1.2607  0.2965 -2.0235
 5778SOL    HW228797   2.744   1.894   7.928  1.2373  1.2929  0.7071
 5779SOL     OW28798   0.524   0.750   7.612 -0.0631  0.1500 -0.1301
 5779SOL    HW128799   0.568   0.779   7.691  0.5077 -1.0569 -0.0100
 5779SOL    HW228800   0.601   0.718   7.564 -1.3074 -1.4876 -1.0480
 5780SOL     OW28801   3.430   0.051   2.744  0.0747  0.0301 -0.0387
 5780SOL    HW128802   3.456   0.049   2.652  0.7978  0.0484  0.1638
 5780SOL    HW228803   3.512   0.066   2.791 -0.8289  1.2085  1.1457
 5781SOL     OW28804   1.078   0.110  14.370 -0.3867  0.6711 -0.0185
 5781SOL    HW128805   1.054   0.200  14.392  1.1154  0.6847  1.5411
 5781SOL    HW228806   1.142   0.084  14.437  0.3603  2.7297  0.0713
 5782SOL     OW28807   0.370   0.154   3.271 -0.6075 -0.5556  0.3605
 5782SOL    HW128808   0.301   0.088   3.282  1.2704 -2.2917  1.6561
 5782SOL    HW228809   0.326   0.234   3.301 -0.7938  0.3994 -2.4556
 5783SOL     OW28810   3.623   0.668   3.554 -0.0316  0.2843  0.3064
 5783SOL    HW128811   3.563   0.608   3.599  0.0171  0.4737  0.6168
 5783SOL    HW228812   3.681   0.615   3.499  0.4387 -0.0018  1.0825
 5784SOL     OW28813   2.287   0.766  10.945  0.0270  0.1857 -1.0101
 5784SOL    HW128814   2.287   0.792  10.853 -2.4045  3.6741 -0.0205
 5784SOL    HW228815   2.268   0.673  10.939 -1.0151  0.3941 -0.8414
 5785SOL     OW28816   0.763   1.339   5.393  0.0166  0.2671 -0.1642
 5785SOL    HW128817   0.670   1.322   5.407  0.0215 -2.0350 -3.0582
 5785SOL    HW228818   0.778   1.431   5.417 -2.0787  0.4669  0.3277
 5786SOL     OW28819   4.407   4.337  10.700  0.1836  0.4573  0.4754
 5786SOL    HW128820   4.390   4.388  10.779  0.3246  2.8276 -1.0071
 5786SOL    HW228821   4.344   4.270  10.725  1.6368 -0.9615  0.3213
 5787SOL     OW28822   1.396   0.023   8.175  0.7823 -0.2039 -0.1222
 5787SOL    HW128823   1.389   4.668   8.234  0.8871  0.7572  1.1301
 5787SOL    HW228824   1.334   0.001   8.105  0.9285 -1.4748  0.1667
 5788SOL     OW28825   0.983   4.284   5.357 -0.4410  0.4710 -0.1341
 5788SOL    HW128826   0.916   4.216   5.365 -0.3013  0.5249  1.4617
 5788SOL    HW228827   0.962   4.337   5.434 -0.0557 -1.2276  1.1270
 5789SOL     OW28828   0.533   0.550  12.613 -0.3316  0.1686 -0.4117
 5789SOL    HW128829   0.477   0.595  12.676  0.7786 -1.3343  1.6324
 5789SOL    HW228830   0.541   0.460  12.645  1.8310  1.1066  1.6823
 5790SOL     OW28831   4.020   3.173   0.349 -0.6054 -0.4406 -0.7752
 5790SOL    HW128832   4.106   3.170   0.305  0.1720  0.7103  0.6722
 5790SOL    HW228833   4.040   3.231   0.422 -2.8749 -0.5868 -0.0357
 5791SOL     OW28834   2.092   4.489   5.656  0.0879 -0.3785 -0.1137
 5791SOL    HW128835   2.003   4.524   5.657  0.1655 -0.1460 -1.2372
 5791SOL    HW228836   2.123   4.497   5.566  1.4892 -0.9840  0.3179
 5792SOL     OW28837   2.004   4.680   6.610  0.0007 -0.3752 -0.2544
 5792SOL    HW128838   1.929   4.676   6.670 -0.4752 -2.6880 -1.0280
 5792SOL    HW228839   2.002   0.052   6.582  4.8278 -0.4539 -0.8788
 5793SOL     OW28840   3.426   3.654   6.851 -0.9199 -0.0252  0.0746
 5793SOL    HW128841   3.490   3.583   6.859 -1.0425 -0.1551 -0.0856
 5793SOL    HW228842   3.460   3.701   6.776  0.8204 -2.8144 -0.9009
 5794SOL     OW28843   0.456   3.499  11.383 -0.0058 -0.8208 -0.0304
 5794SOL    HW128844   0.466   3.461  11.296 -0.7805 -0.8390 -0.1118
 5794SOL    HW228845   0.466   3.592  11.359 -3.0777 -0.9402 -1.7444
 5795SOL     OW28846   0.572   1.357   4.594  0.2933  0.3010  0.2891
 5795SOL    HW128847   0.605   1.295   4.529  1.3381  1.4813 -0.3133
 5795SOL    HW228848   0.492   1.385   4.548 -1.1752 -2.1706  1.3337
 5796SOL     OW28849   0.851   3.342   3.097  0.1114 -0.3607 -0.6376
 5796SOL    HW128850   0.786   3.394   3.145  0.2275 -1.1309  0.3460
 5796SOL    HW228851   0.924   3.403   3.088  1.6775 -1.9507  1.6089
 5797SOL     OW28852   2.845   2.682   2.175 -0.5385 -0.3794  0.3664
 5797SOL    HW128853   2.896   2.640   2.105 -0.1947 -0.9884  0.9730
 5797SOL    HW228854   2.764   2.633   2.161  0.0133 -1.3530  0.5172
 5798SOL     OW28855   0.472   4.222  17.081 -0.0936 -0.3526 -0.1122
 5798SOL    HW128856   0.415   4.290  17.047 -1.4669 -2.5356 -2.2407
 5798SOL    HW228857   0.440   4.145  17.033 -0.8374 -0.6076  0.8094
 5799SOL     OW28858   0.029   0.630   3.917 -0.2667  0.1244 -0.3358
 5799SOL    HW128859   0.059   0.573   3.988 -1.8940 -0.4453 -0.0943
 5799SOL    HW228860   0.030   0.714   3.962  0.3984  0.5991 -1.2380
 5800SOL     OW28861   4.168   2.403   7.555  0.5779 -0.0217 -0.3987
 5800SOL    HW128862   4.106   2.446   7.614 -0.1929 -0.4470 -0.8925
 5800SOL    HW228863   4.152   2.445   7.470  0.5326 -0.3723 -0.5616
 5801SOL     OW28864   1.736   3.939   2.890 -0.3229 -0.6234  0.3528
 5801SOL    HW128865   1.654   3.917   2.844 -0.5054 -1.5680  1.1236
 5801SOL    HW228866   1.710   3.932   2.982  2.4663  2.2784  1.3382
 5802SOL     OW28867   3.530   0.989  11.019  0.2039 -0.3928  0.2763
 5802SOL    HW128868   3.508   0.913  10.965 -0.7315  0.5354 -0.6432
 5802SOL    HW228869   3.587   1.037  10.960 -1.9725 -0.1415 -1.6003
 5803SOL     OW28870   4.002   1.338   9.101 -0.1570 -0.0829  0.2527
 5803SOL    HW128871   3.969   1.424   9.129 -0.6253  0.1504 -1.0106
 5803SOL    HW228872   4.028   1.366   9.013 -0.1452 -0.4214  0.1507
 5804SOL     OW28873   4.304   0.247   2.433  0.1867  0.0639 -0.5622
 5804SOL    HW128874   4.323   0.194   2.510  2.1172  2.1838  0.4165
 5804SOL    HW228875   4.231   0.199   2.394  0.9667 -0.2531 -1.6381
 5805SOL     OW28876   2.519   3.097   4.472 -0.7683 -0.4635  0.3102
 5805SOL    HW128877   2.601   3.097   4.521  0.0869  1.0743 -1.1273
 5805SOL    HW228878   2.469   3.032   4.522 -0.9506 -0.6595 -0.1350
 5806SOL     OW28879   4.237   1.729   2.119 -0.5625 -0.1993  0.3183
 5806SOL    HW128880   4.224   1.676   2.040  0.1222 -0.3487  0.3044
 5806SOL    HW228881   4.219   1.819   2.091 -2.1529  0.2730  2.9129
 5807SOL     OW28882   0.680   3.425  17.664 -0.5407  0.1188 -0.3428
 5807SOL    HW128883   0.748   3.358  17.654 -2.3227 -1.6990 -0.3231
 5807SOL    HW228884   0.606   3.366  17.681 -1.2589  0.8055 -1.0611
 5808SOL     OW28885   1.632   2.370   0.122  0.5657  0.3169 -0.2839
 5808SOL    HW128886   1.716   2.414   0.136  0.5186  0.8233 -1.5990
 5808SOL    HW228887   1.567   2.437   0.142 -1.1043 -0.9254 -1.5726
 5809SOL     OW28888   3.341   0.982   7.947  0.0518 -0.6106 -0.2354
 5809SOL    HW128889   3.369   0.998   8.038 -0.2134 -0.0673 -0.2490
 5809SOL    HW228890   3.253   0.950   7.964  0.0418 -1.0232 -1.0690
 5810SOL     OW28891   2.704   1.961   2.482 -0.1080  0.3070  0.1240
 5810SOL    HW128892   2.745   1.875   2.472 -2.5049 -0.9536  1.3237
 5810SOL    HW228893   2.741   1.999   2.402  0.0237  0.4456  0.2496
 5811SOL     OW28894   1.781   3.493   4.161 -0.2110 -0.4955 -0.0096
 5811SOL    HW128895   1.722   3.528   4.094  0.9183  1.1348 -0.1624
 5811SOL    HW228896   1.728   3.423   4.199  0.0995 -0.8390 -0.2031
 5812SOL     OW28897   1.530   0.472   3.508 -0.8235 -0.6449  0.5941
 5812SOL    HW128898   1.437   0.488   3.524 -0.8841 -0.2980 -0.1042
 5812SOL    HW228899   1.532   0.503   3.417 -2.2971 -2.4804 -0.0681
 5813SOL     OW28900   0.200   0.561   6.270 -0.1011 -0.0573 -0.2786
 5813SOL    HW128901   0.260   0.500   6.314 -1.1968 -1.4339 -0.7191
 5813SOL    HW228902   0.146   0.588   6.345 -1.5492 -0.4081 -1.2051
 5814SOL     OW28903   2.082   0.757  16.906 -0.2845  0.0216 -0.1856
 5814SOL    HW128904   2.081   0.662  16.902 -0.0731  0.0154 -0.0695
 5814SOL    HW228905   2.159   0.774  16.852  0.4232 -0.1887  0.7507
 5815SOL     OW28906   2.981   0.493   8.963  0.4121 -0.6065 -0.9494
 5815SOL    HW128907   2.906   0.552   8.971 -0.4224 -1.5504 -1.8826
 5815SOL    HW228908   2.988   0.458   9.052  0.0616  0.0728 -0.6456
 5816SOL     OW28909   1.818   1.991   4.019  0.1046  0.5045 -0.3076
 5816SOL    HW128910   1.868   1.947   3.950  1.9046  0.6125  0.9295
 5816SOL    HW228911   1.848   2.081   4.009  0.5089  0.4392  0.2998
 5817SOL     OW28912   0.367   2.264   5.242 -0.5475  0.0661 -0.1355
 5817SOL    HW128913   0.399   2.230   5.325  0.6172 -1.6528 -1.2958
 5817SOL    HW228914   0.323   2.185   5.211 -0.7188  1.1681 -2.6592
 5818SOL     OW28915   3.555   2.571  11.836 -0.6170  0.0701  0.4220
 5818SOL    HW128916   3.505   2.587  11.917  0.2374 -0.5358  1.0779
 5818SOL    HW228917   3.484   2.573  11.773 -0.1241 -0.4667 -0.1422
 5819SOL     OW28918   3.271   3.263   0.561  0.2850 -0.3066 -1.0107
 5819SOL    HW128919   3.313   3.341   0.526  0.8547  0.4822  1.3944
 5819SOL    HW228920   3.183   3.298   0.576 -0.4373 -2.1216 -0.9931
 5820SOL     OW28921   0.875   0.418  12.614  0.0237 -0.0598 -0.7122
 5820SOL    HW128922   0.817   0.388  12.684 -0.3664 -0.2544 -1.1207
 5820SOL    HW228923   0.936   0.345  12.615 -1.4819 -1.2823  2.1806
 5821SOL     OW28924   0.137   2.985   6.829  0.0108  0.5002  0.0659
 5821SOL    HW128925   0.225   3.016   6.808 -0.6185  0.4737 -2.6406
 5821SOL    HW228926   0.111   3.041   6.902 -2.8593 -2.0351  0.9722
 5822SOL     OW28927   2.511   3.428   2.446 -0.0089  0.2346  0.7871
 5822SOL    HW128928   2.452   3.353   2.454 -0.6970  0.5645 -1.0049
 5822SOL    HW228929   2.461   3.492   2.496  2.6573  1.8391  1.3640
 5823SOL     OW28930   2.981   4.394   1.990  0.6363 -0.2850  0.2347
 5823SOL    HW128931   2.964   4.400   1.896 -1.5605 -0.7698  0.5944
 5823SOL    HW228932   3.030   4.473   2.012  1.0834 -0.4206 -0.2739
 5824SOL     OW28933   1.352   0.209  14.858 -0.4079 -0.0225  0.0943
 5824SOL    HW128934   1.261   0.186  14.874  0.2222  0.0282  3.6695
 5824SOL    HW228935   1.337   0.253  14.774  0.7461 -0.2999 -0.2697
 5825SOL     OW28936   3.887   1.271   3.477 -0.1823  0.5053 -0.3958
 5825SOL    HW128937   3.921   1.305   3.395 -1.1883 -1.0883 -1.4757
 5825SOL    HW228938   3.793   1.291   3.474 -0.3138 -0.1783 -0.7996
 5826SOL     OW28939   1.720   3.532   7.224 -0.5404  0.1430  0.5249
 5826SOL    HW128940   1.678   3.579   7.296 -0.3108 -0.6127  1.1506
 5826SOL    HW228941   1.690   3.442   7.233 -2.2487  0.6571 -0.0190
 5827SOL     OW28942   1.736   4.574   5.802  0.0171  0.6744 -0.2782
 5827SOL    HW128943   1.749   4.507   5.735  0.8240 -0.3066  0.8603
 5827SOL    HW228944   1.659   4.541   5.847  0.4643  0.8444  0.6093
 5828SOL     OW28945   0.119   4.555   7.008 -0.6308  0.8403 -0.6715
 5828SOL    HW128946   0.040   4.500   7.006  0.0851 -0.2623  1.7368
 5828SOL    HW228947   0.082   4.615   7.073 -1.8105 -1.6815  1.0086
 5829SOL     OW28948   0.263   3.838   5.012 -0.0859 -0.1845 -0.0117
 5829SOL    HW128949   0.219   3.917   5.042  0.5303  0.5642 -1.0960
 5829SOL    HW228950   0.191   3.804   4.959  0.2221 -0.1135 -0.4671
 5830SOL     OW28951   3.493   1.887   9.050  0.4375  0.2383  0.1270
 5830SOL    HW128952   3.532   1.847   9.128  0.9885 -1.3490 -0.9539
 5830SOL    HW228953   3.561   1.953   9.036 -0.3905  0.9838 -0.3369
 5831SOL     OW28954   3.602   0.268   3.371  0.4926 -0.4688  0.0480
 5831SOL    HW128955   3.687   0.244   3.334 -0.4939 -3.2969 -0.4393
 5831SOL    HW228956   3.577   0.335   3.307 -3.8215 -0.9751  1.1767
 5832SOL     OW28957   3.905   2.922  13.703 -0.8871 -0.6005 -0.1742
 5832SOL    HW128958   3.922   3.007  13.744  0.5790 -0.7651 -0.4522
 5832SOL    HW228959   3.907   2.951  13.612 -0.2444 -0.9227 -0.2603
 5833SOL     OW28960   3.745   1.669  10.350  0.5235  0.0641  0.3178
 5833SOL    HW128961   3.679   1.603  10.373 -0.1382  0.8898  0.7659
 5833SOL    HW228962   3.725   1.735  10.417  0.5863 -0.3744  0.7687
 5834SOL     OW28963   0.268   2.624   8.471 -0.1696  0.2853  0.0694
 5834SOL    HW128964   0.236   2.576   8.548  0.5362 -0.5297 -0.1385
 5834SOL    HW228965   0.197   2.688   8.461 -1.4429 -0.8598  1.8692
 5835SOL     OW28966   4.093   2.445  11.015  0.3558 -0.2298  0.1727
 5835SOL    HW128967   4.119   2.383  11.083 -0.3801  0.3092  0.9393
 5835SOL    HW228968   4.168   2.486  10.971 -1.1786  0.2906 -1.9709
 5836SOL     OW28969   0.107   4.254  11.235 -0.2285 -0.4039 -0.1068
 5836SOL    HW128970   0.155   4.185  11.280  0.7298  0.4180  0.1328
 5836SOL    HW228971   0.048   4.207  11.176 -0.9736  0.5248 -0.1040
 5837SOL     OW28972   3.594   1.405   2.515  0.0642  0.5692  0.3897
 5837SOL    HW128973   3.527   1.370   2.458  1.3901 -0.4756 -0.5234
 5837SOL    HW228974   3.623   1.486   2.472  0.4242 -1.0675 -2.4169
 5838SOL     OW28975   1.926   2.582  16.892 -0.4108  0.6464 -0.3937
 5838SOL    HW128976   1.977   2.650  16.935  1.5441 -1.4547  0.6618
 5838SOL    HW228977   1.901   2.637  16.818 -0.7760  1.9478  0.7269
 5839SOL     OW28978   1.155   1.180  16.738  0.9283  0.4339  0.3234
 5839SOL    HW128979   1.098   1.244  16.780 -1.1241 -1.2117 -0.0015
 5839SOL    HW228980   1.243   1.216  16.749  1.3155 -0.6419  0.7583
 5840SOL     OW28981   1.317   2.732   8.047  0.1491  0.1017 -0.2761
 5840SOL    HW128982   1.406   2.754   8.020  0.1962 -0.8780 -0.9411
 5840SOL    HW228983   1.326   2.637   8.034 -1.5873  0.1257 -1.8288
 5841SOL     OW28984   1.898   1.341   3.105 -0.1453 -0.0223 -0.2905
 5841SOL    HW128985   1.948   1.415   3.139  1.8019 -1.7661  0.6026
 5841SOL    HW228986   1.805   1.363   3.110 -0.0618 -0.1319  1.9968
 5842SOL     OW28987   1.110   3.233   6.697 -1.1352 -0.3174  0.1618
 5842SOL    HW128988   1.166   3.252   6.621 -1.0077 -1.1726  0.0482
 5842SOL    HW228989   1.054   3.166   6.658  0.8518 -2.5132  1.1265
 5843SOL     OW28990   4.555   4.654  17.630  0.5278  0.4039  0.4425
 5843SOL    HW128991   4.598   4.694   0.025 -0.4035 -0.2939  1.3300
 5843SOL    HW228992   4.499   0.004  17.594  1.8770  1.1574 -0.2100
 5844SOL     OW28993   0.171   3.323  10.977  0.7603  0.2137 -0.4931
 5844SOL    HW128994   0.214   3.288  10.900 -1.2459  0.5502 -1.7860
 5844SOL    HW228995   0.181   3.418  10.988  0.8328 -0.1287  2.3515
 5845SOL     OW28996   2.429   2.991   7.384 -0.5835 -0.3866 -0.8397
 5845SOL    HW128997   2.474   3.075   7.390  1.1200 -1.4931  2.0288
 5845SOL    HW228998   2.503   2.930   7.385 -1.2592 -1.1973  0.6416
 5846SOL     OW28999   1.929   1.876  10.095  0.1404  0.0041 -0.2363
 5846SOL    HW129000   1.921   1.871   9.999 -2.5019  0.9667 -0.0543
 5846SOL    HW229001   1.864   1.940  10.121 -2.1643 -2.4692  0.1480
 5847SOL     OW29002   4.583   4.248  14.357  0.1180  0.1311 -0.2222
 5847SOL    HW129003   4.533   4.173  14.389 -1.4172  1.3463  0.2158
 5847SOL    HW229004   4.544   4.311  14.418  0.3876 -1.1991  1.3036
 5848SOL     OW29005   2.707   4.222   2.740 -0.1510  0.1457  0.1832
 5848SOL    HW129006   2.785   4.268   2.707 -0.4128  0.2681 -0.2694
 5848SOL    HW229007   2.644   4.288   2.709  0.1918 -0.2298 -1.3056
 5849SOL     OW29008   0.700   0.039   6.183  0.5968 -0.0457 -0.0627
 5849SOL    HW129009   0.781   4.719   6.151  0.1785 -1.7759  1.0170
 5849SOL    HW229010   0.672   0.094   6.109  2.0999  1.2622  0.3246
 5850SOL     OW29011   3.909   3.888  10.249 -0.7731 -0.0850 -0.5318
 5850SOL    HW129012   3.994   3.932  10.250 -0.1663 -1.2352 -1.8288
 5850SOL    HW229013   3.927   3.821  10.316 -3.3286 -0.0750  0.1478
 5851SOL     OW29014   0.782   3.987  16.732 -0.0415  0.5134  0.7562
 5851SOL    HW129015   0.849   3.989  16.799  0.9296 -0.6171 -0.1777
 5851SOL    HW229016   0.777   4.079  16.708 -1.0064  0.4550  0.7359
 5852SOL     OW29017   2.955   2.244   8.401  0.2566 -0.4539 -0.2119
 5852SOL    HW129018   2.893   2.219   8.470 -0.2346  2.0176  0.2404
 5852SOL    HW229019   2.953   2.339   8.392 -1.7000 -0.4065  0.8192
 5853SOL     OW29020   0.760   0.323   3.113 -0.0835  0.3195  0.6005
 5853SOL    HW129021   0.685   0.361   3.068  0.9089  2.1480  0.4613
 5853SOL    HW229022   0.783   0.248   3.059 -0.8563  0.1854  0.4665
 5854SOL     OW29023   1.388   0.001   6.474  0.1310 -0.3471  0.7826
 5854SOL    HW129024   1.313   0.060   6.472  0.5789  0.2015  0.5532
 5854SOL    HW229025   1.397   4.713   6.379 -3.8741  1.2343  0.2675
 5855SOL     OW29026   3.500   3.374   3.606  0.7947 -0.1524 -0.2695
 5855SOL    HW129027   3.563   3.317   3.562  0.1744  0.9708 -2.6244
 5855SOL    HW229028   3.418   3.336   3.573  0.7899  0.1407 -0.5960
 5856SOL     OW29029   1.570   2.354  12.196 -0.3360  0.0043  0.2116
 5856SOL    HW129030   1.496   2.403  12.233 -0.0207  2.4208 -2.3945
 5856SOL    HW229031   1.521   2.275  12.170  1.1187 -0.8574  0.1286
 5857SOL     OW29032   4.113   2.850   6.838  0.0969 -0.4786 -0.0049
 5857SOL    HW129033   4.146   2.901   6.763 -1.7102  0.0176 -0.4776
 5857SOL    HW229034   4.022   2.839   6.811  0.8570 -1.2786 -2.1988
 5858SOL     OW29035   0.441   3.392  13.576 -0.3277 -0.1144  0.1634
 5858SOL    HW129036   0.357   3.438  13.583 -0.0186  0.2801  1.4300
 5858SOL    HW229037   0.503   3.464  13.568  0.1652 -0.5987 -0.4093
 5859SOL     OW29038   3.816   1.460   2.184  0.1296 -0.6924 -0.7020
 5859SOL    HW129039   3.892   1.409   2.212 -0.3177 -0.0095  1.6887
 5859SOL    HW229040   3.761   1.387   2.156  0.2003 -0.9646 -0.1312
 5860SOL     OW29041   0.190   3.854   7.745  0.3706 -0.2687  0.3862
 5860SOL    HW129042   0.229   3.881   7.828 -1.1628 -0.3421  1.1262
 5860SOL    HW229043   0.181   3.759   7.758  0.2371 -0.3733 -0.4849
 5861SOL     OW29044   4.131   0.996  13.382  0.1574 -1.2000 -0.7212
 5861SOL    HW129045   4.046   0.960  13.407 -0.3216  1.0806  0.8418
 5861SOL    HW229046   4.171   1.022  13.464 -1.0261 -0.4786 -0.3784
 5862SOL     OW29047   3.889   1.712   2.905 -0.3127  0.0234 -0.0891
 5862SOL    HW129048   3.981   1.724   2.884  0.1272 -0.8196  1.3142
 5862SOL    HW229049   3.854   1.799   2.887  0.1381  0.4627  1.1409
 5863SOL     OW29050   2.791   3.059   0.546  0.3446 -0.4386 -0.5807
 5863SOL    HW129051   2.886   3.063   0.538  0.0611  3.5667 -1.6454
 5863SOL    HW229052   2.783   3.012   0.629 -1.4115 -1.0860 -1.1173
 5864SOL     OW29053   3.912   2.114   6.185 -0.2813 -0.3644 -0.3487
 5864SOL    HW129054   3.837   2.173   6.191 -1.2001 -1.5051 -0.3798
 5864SOL    HW229055   3.908   2.071   6.271 -1.4700  0.2890 -0.0788
 5865SOL     OW29056   0.898   1.451   2.751 -0.4951 -0.5159 -0.2923
 5865SOL    HW129057   0.893   1.545   2.767 -1.9512 -0.8895  1.5509
 5865SOL    HW229058   0.810   1.435   2.785 -0.2028  2.7617  2.0605
 5866SOL     OW29059   0.684   3.383   5.605  0.0815 -0.1797  0.2120
 5866SOL    HW129060   0.618   3.320   5.633 -1.0011  1.5310  1.5196
 5866SOL    HW229061   0.655   3.458   5.657 -2.5915 -2.2230  1.6257
 5867SOL     OW29062   3.308   1.874  13.954 -0.0335  0.1404  0.2620
 5867SOL    HW129063   3.342   1.790  13.985 -2.2584  0.2632  3.0711
 5867SOL    HW229064   3.309   1.926  14.034 -1.0961 -1.9292  1.6427
 5868SOL     OW29065   3.945   3.934  12.244 -0.1953  0.8275  0.0267
 5868SOL    HW129066   3.878   3.975  12.300 -0.8645 -2.2606  1.4909
 5868SOL    HW229067   3.889   3.914  12.169  0.9445  0.3046 -0.6902
 5869SOL     OW29068   3.989   3.681   4.828 -0.2912 -0.1035 -0.6610
 5869SOL    HW129069   3.981   3.718   4.917 -0.5754  1.4919 -1.3502
 5869SOL    HW229070   3.956   3.754   4.776 -0.2749  0.8872  0.6892
 5870SOL     OW29071   3.324   0.795   7.022 -0.1479  0.4589 -0.0515
 5870SOL    HW129072   3.348   0.724   7.082 -1.2384  0.1528  0.0037
 5870SOL    HW229073   3.276   0.857   7.077  0.1571 -0.1948  0.9700
 5871SOL     OW29074   1.884   2.552   2.971 -0.2981 -0.1841 -0.3407
 5871SOL    HW129075   1.876   2.574   3.064  2.5009  0.2478 -0.2028
 5871SOL    HW229076   1.900   2.458   2.970  0.3968 -0.1013  2.4755
 5872SOL     OW29077   3.520   3.839   0.623 -0.1132 -0.4070 -0.0769
 5872SOL    HW129078   3.514   3.830   0.718  3.2478 -0.8472  0.0678
 5872SOL    HW229079   3.455   3.910   0.619  0.7606  0.4828  1.6184
 5873SOL     OW29080   0.487   0.926   9.272 -0.5610  0.4499 -0.1953
 5873SOL    HW129081   0.409   0.981   9.275 -0.0899  1.1184 -0.3970
 5873SOL    HW229082   0.513   0.932   9.364 -0.7429  3.1687 -0.3256
 5874SOL     OW29083   1.675   3.254  14.038 -0.4015  0.1385 -0.1825
 5874SOL    HW129084   1.709   3.338  14.008  1.8171 -1.0823 -1.1555
 5874SOL    HW229085   1.604   3.253  13.974  0.5985  0.3000 -1.2854
 5875SOL     OW29086   4.489   0.283   8.670 -0.2165 -0.4849 -0.3195
 5875SOL    HW129087   4.573   0.303   8.711  0.3382 -0.8039 -1.3222
 5875SOL    HW229088   4.492   0.188   8.660 -1.6615 -0.7376  1.4561
 5876SOL     OW29089   1.245   0.383   3.491 -0.4633  0.1048  0.8302
 5876SOL    HW129090   1.186   0.327   3.542 -3.8540  1.3351 -1.7427
 5876SOL    HW229091   1.283   0.322   3.427 -1.3080 -0.4277  0.8319
 5877SOL     OW29092   3.077   1.851  12.031  0.6497 -0.1600 -0.1488
 5877SOL    HW129093   3.123   1.803  11.962  0.8833 -1.3189  0.8045
 5877SOL    HW229094   3.002   1.796  12.054 -0.5195  0.2563 -3.0388
 5878SOL     OW29095   3.917   1.128   6.755 -0.4241  0.3836  0.5655
 5878SOL    HW129096   3.867   1.207   6.737  0.5840  0.9290  0.1956
 5878SOL    HW229097   3.847   1.062   6.752 -0.0305 -0.0806  1.4431
 5879SOL     OW29098   2.598   3.802   3.749  0.2361 -0.0638  0.0454
 5879SOL    HW129099   2.524   3.757   3.789 -0.9013  0.1069 -1.8787
 5879SOL    HW229100   2.672   3.789   3.809 -0.1047  0.0870  0.4941
 5880SOL     OW29101   0.705   3.194   0.500  0.1301 -0.4669  0.4370
 5880SOL    HW129102   0.749   3.270   0.538  2.7956 -0.5233 -2.6008
 5880SOL    HW229103   0.768   3.122   0.500  1.0559  0.3745 -2.6036
 5881SOL     OW29104   1.172   3.426   4.946 -0.2668 -0.6523  0.6392
 5881SOL    HW129105   1.093   3.479   4.951 -0.8700 -1.4621 -0.2611
 5881SOL    HW229106   1.242   3.491   4.954  0.8269 -1.5669 -1.5261
 5882SOL     OW29107   1.509   3.465   3.585 -0.0206 -0.1322 -0.4965
 5882SOL    HW129108   1.462   3.426   3.659 -0.5282  1.3007 -0.0645
 5882SOL    HW229109   1.466   3.550   3.578 -1.4146 -0.8128 -0.2044
 5883SOL     OW29110   3.934   4.083   8.962  0.0405  0.6264  0.0372
 5883SOL    HW129111   3.913   3.990   8.974 -0.8958  0.7791 -0.3744
 5883SOL    HW229112   3.959   4.072   8.870  2.1554  1.9135  0.4703
 5884SOL     OW29113   2.378   1.900  14.153  0.1489  0.6008  0.2288
 5884SOL    HW129114   2.433   1.871  14.080 -0.5961  1.4767 -0.7004
 5884SOL    HW229115   2.293   1.881  14.113 -0.8579  0.7381  2.3312
 5885SOL     OW29116   3.549   4.130  17.041  0.4564  0.2014 -0.1048
 5885SOL    HW129117   3.625   4.188  17.036  0.8428 -0.2101  1.0001
 5885SOL    HW229118   3.536   4.125  17.135 -2.0779 -0.0103 -0.4619
 5886SOL     OW29119   1.781   3.798   5.470 -0.1902 -0.8305  0.5409
 5886SOL    HW129120   1.802   3.715   5.426 -0.7233 -1.4704  1.5138
 5886SOL    HW229121   1.694   3.824   5.440 -1.0948 -1.9469  2.2362
 5887SOL     OW29122   1.821   2.018  11.167  0.1325  0.4407  0.6506
 5887SOL    HW129123   1.771   2.099  11.174  0.2736  0.6891 -1.2122
 5887SOL    HW229124   1.760   1.969  11.111 -1.4114  1.4297  1.4600
 5888SOL     OW29125   2.726   4.243   5.763  0.1013  0.1598  0.6136
 5888SOL    HW129126   2.781   4.171   5.733 -1.3463 -0.6527 -0.0943
 5888SOL    HW229127   2.707   4.287   5.680 -1.7940 -2.2453 -0.1974
 5889SOL     OW29128   4.483   4.046   3.738 -0.3405  0.2287  0.3253
 5889SOL    HW129129   4.513   4.016   3.653  0.3518 -0.7686  0.9217
 5889SOL    HW229130   4.449   3.969   3.783 -1.5989 -0.8624 -2.5030
 5890SOL     OW29131   4.027   0.401   4.643  0.2820  0.0513  0.4217
 5890SOL    HW129132   4.069   0.476   4.601  2.3619  0.8751  4.0031
 5890SOL    HW229133   4.009   0.426   4.734 -1.1835 -0.8442  0.3806
 5891SOL     OW29134   1.788   2.437   6.245  0.4483 -0.0703 -0.0138
 5891SOL    HW129135   1.850   2.507   6.225  0.7752 -0.2291  0.4588
 5891SOL    HW229136   1.752   2.404   6.163 -0.6199  1.4521 -0.1654
 5892SOL     OW29137   4.191   1.063   3.351 -0.1750  0.3555 -0.2375
 5892SOL    HW129138   4.198   1.108   3.434 -1.1416 -2.6772  1.4999
 5892SOL    HW229139   4.176   0.972   3.378  0.9482  0.3499  0.3682
 5893SOL     OW29140   3.418   3.985   8.911 -0.0135  1.1718  0.2837
 5893SOL    HW129141   3.325   3.967   8.924  0.2303 -1.1624 -1.2674
 5893SOL    HW229142   3.451   3.946   8.992  1.5325 -0.9872 -1.3875
 5894SOL     OW29143   4.507   0.690   3.795  0.4411  0.3581 -0.1434
 5894SOL    HW129144   4.583   0.681   3.854 -0.8523  1.8381  1.7578
 5894SOL    HW229145   4.481   0.598   3.799 -0.5585  0.5238 -3.1103
 5895SOL     OW29146   1.476   4.205   5.371  0.0137 -0.0604 -0.8386
 5895SOL    HW129147   1.401   4.219   5.313 -0.1317  1.8618 -0.1645
 5895SOL    HW229148   1.483   4.276   5.434 -4.1285 -0.5999  0.2499
 5896SOL     OW29149   4.503   3.209  14.661 -0.0022 -0.3492  0.5971
 5896SOL    HW129150   4.552   3.266  14.720  1.2005 -0.1901 -0.5464
 5896SOL    HW229151   4.439   3.182  14.727  0.4252 -0.4504  0.9673
 5897SOL     OW29152   0.967   3.294   5.708 -0.1066 -0.2631  0.1644
 5897SOL    HW129153   1.029   3.275   5.637  0.6340 -0.3286  0.8275
 5897SOL    HW229154   0.879   3.259   5.692  0.2796 -0.9092 -0.5724
 5898SOL     OW29155   2.451   4.222   0.375 -0.3622 -0.4579 -0.6142
 5898SOL    HW129156   2.416   4.143   0.417 -1.4403  1.0267  1.2654
 5898SOL    HW229157   2.396   4.240   0.298 -1.9981 -1.8591  0.2138
 5899SOL     OW29158   0.708   3.142   2.750  0.2867 -0.4484 -0.8048
 5899SOL    HW129159   0.649   3.143   2.826  1.1035 -0.6493 -0.1608
 5899SOL    HW229160   0.769   3.211   2.774 -1.8602  1.0122  0.5360
 5900SOL     OW29161   1.317   1.243  15.841 -0.7272 -0.9968  0.3936
 5900SOL    HW129162   1.350   1.188  15.770  0.2952 -0.9541  0.8357
 5900SOL    HW229163   1.260   1.304  15.793 -0.5456  0.6256  2.2276
 5901SOL     OW29164   3.679   0.912  16.597 -0.0435 -0.3756  0.1109
 5901SOL    HW129165   3.742   0.931  16.665  2.0067  0.7097 -2.1075
 5901SOL    HW229166   3.700   0.961  16.518 -2.1579  0.0284 -0.2092
 5902SOL     OW29167   3.818   1.025   3.339  0.3274  0.0450  0.3662
 5902SOL    HW129168   3.829   1.040   3.245  2.1318  0.2170  0.5852
 5902SOL    HW229169   3.847   1.112   3.369 -2.2622  1.0186  0.0604
 5903SOL     OW29170   2.082   0.891   2.978  0.3464 -0.5205  0.2110
 5903SOL    HW129171   2.065   0.960   3.043  0.6429 -0.9321  0.7279
 5903SOL    HW229172   2.114   0.949   2.909  1.9429 -2.4192 -0.6499
 5904SOL     OW29173   3.755   2.656   5.205 -0.6515 -0.5263 -0.7442
 5904SOL    HW129174   3.753   2.638   5.299  0.6221 -0.1249 -0.6471
 5904SOL    HW229175   3.847   2.678   5.197 -0.9323  0.8260 -0.2513
 5905SOL     OW29176   4.209   4.038   4.042 -0.1191  1.3142  0.2693
 5905SOL    HW129177   4.171   3.983   4.111  0.5517 -2.0811 -2.0462
 5905SOL    HW229178   4.144   4.035   3.972 -1.7673 -0.0383  1.8543
 5906SOL     OW29179   4.381   0.286   8.984  0.3107 -0.5897  0.0041
 5906SOL    HW129180   4.379   0.356   9.049 -1.5354 -0.6430  0.0280
 5906SOL    HW229181   4.476   0.283   8.987  0.3225 -1.0442 -0.6025
 5907SOL     OW29182   0.852   0.897  10.079  0.3915  0.3673  0.0918
 5907SOL    HW129183   0.935   0.940  10.102  0.5470  0.5941 -0.9138
 5907SOL    HW229184   0.834   0.835  10.150 -2.3208  0.5505 -0.4371
 5908SOL     OW29185   0.360   1.474   8.877  0.4005 -0.5783  0.2109
 5908SOL    HW129186   0.450   1.476   8.846  0.4781 -3.1727  0.2589
 5908SOL    HW229187   0.350   1.393   8.928 -1.4384 -1.3340 -1.3757
 5909SOL     OW29188   2.675   1.312  13.207  0.1285 -0.2805 -0.5838
 5909SOL    HW129189   2.689   1.248  13.137 -2.3549 -1.0848 -0.3225
 5909SOL    HW229190   2.691   1.256  13.283  2.5403  1.7551  0.3986
 5910SOL     OW29191   1.849   3.297   9.892 -0.0575  0.3267 -0.2978
 5910SOL    HW129192   1.907   3.269   9.821  1.7129 -0.0234  1.2740
 5910SOL    HW229193   1.780   3.332   9.836 -0.6051 -0.8284 -0.3526
 5911SOL     OW29194   4.692   4.487  14.687  0.0937  0.1670 -0.6612
 5911SOL    HW129195   4.603   4.511  14.710  0.9867  1.6427  1.2463
 5911SOL    HW229196   4.688   4.392  14.689 -0.1820  0.1966  0.2643
 5912SOL     OW29197   1.488   1.896   6.337  0.3692 -0.0838  0.2337
 5912SOL    HW129198   1.399   1.927   6.357  1.2572  1.7312  1.4483
 5912SOL    HW229199   1.469   1.838   6.264  0.1586  1.9812 -1.3465
 5913SOL     OW29200   0.314   1.535   3.984 -0.4627  0.1603  0.5319
 5913SOL    HW129201   0.337   1.626   3.998  3.0898 -0.4784 -1.2637
 5913SOL    HW229202   0.220   1.547   4.001 -0.0624 -0.3990  3.1094
 5914SOL     OW29203   1.165   1.656   7.907  0.3774 -0.5010  0.0848
 5914SOL    HW129204   1.110   1.587   7.944 -1.8988  1.0042 -0.4576
 5914SOL    HW229205   1.188   1.626   7.819  3.2142 -2.1701  1.3788
 5915SOL     OW29206   0.232   4.169   6.949  0.2630  0.2727 -0.1389
 5915SOL    HW129207   0.214   4.262   6.937 -1.6190 -0.1146 -0.4724
 5915SOL    HW229208   0.198   4.140   6.865 -2.7322 -1.8120  1.7545
 5916SOL     OW29209   1.973   0.091   8.412  0.7966  0.9985 -0.4426
 5916SOL    HW129210   2.000   0.176   8.446 -0.2125  1.5018 -0.9003
 5916SOL    HW229211   1.983   0.045   8.495 -1.1772  0.0545 -0.7489
 5917SOL     OW29212   2.640   2.995  11.575  0.1834  0.0458 -0.3568
 5917SOL    HW129213   2.665   3.050  11.649  0.9754 -0.3698 -0.3142
 5917SOL    HW229214   2.631   2.911  11.620 -0.3170  0.0315 -0.4878
 5918SOL     OW29215   3.141   0.549  14.510  0.0573  0.0326  0.2906
 5918SOL    HW129216   3.174   0.611  14.445 -2.8123  2.3471  1.0665
 5918SOL    HW229217   3.152   0.468  14.460  0.3420  0.1616  0.1438
 5919SOL     OW29218   3.652   3.123   7.119  0.7451 -0.1572 -0.4416
 5919SOL    HW129219   3.654   3.158   7.030  0.3856  2.5317  0.6041
 5919SOL    HW229220   3.738   3.149   7.151  0.2679  0.4904  0.3429
 5920SOL     OW29221   3.369   2.915   5.925 -0.4802 -0.1010  0.3807
 5920SOL    HW129222   3.288   2.897   5.972 -0.9733 -1.1111 -0.8538
 5920SOL    HW229223   3.378   2.835   5.874  1.2523  1.7071 -2.1332
 5921SOL     OW29224   4.115   0.369   8.786  0.3488 -0.1345  0.0562
 5921SOL    HW129225   4.103   0.454   8.745 -1.2300 -0.7949 -0.8334
 5921SOL    HW229226   4.115   0.395   8.878  1.0204  1.2433 -0.3389
 5922SOL     OW29227   4.181   4.567  13.243 -0.1926  0.7543 -0.2819
 5922SOL    HW129228   4.215   4.594  13.158  0.4595  2.8029  0.6372
 5922SOL    HW229229   4.248   4.613  13.293  2.6627 -2.6107 -0.9412
 5923SOL     OW29230   1.367   0.124   1.751  0.3850 -0.6701 -0.5574
 5923SOL    HW129231   1.340   0.162   1.834  0.4236 -1.8604  0.0069
 5923SOL    HW229232   1.281   0.109   1.711 -1.1492 -1.6070  3.1678
 5924SOL     OW29233   2.868   4.115   7.935 -0.4709  0.4524  0.1449
 5924SOL    HW129234   2.963   4.110   7.931 -0.4166  0.7290  1.2827
 5924SOL    HW229235   2.840   4.139   7.846  1.2300  0.1089 -0.4719
 5925SOL     OW29236   1.098   3.839  10.134  0.1265  1.0474  0.0843
 5925SOL    HW129237   1.163   3.886  10.188  3.2196 -0.1350 -2.6328
 5925SOL    HW229238   1.068   3.916  10.086  1.3817  1.3207 -0.2801
 5926SOL     OW29239   2.453   3.455   3.053  0.1127 -0.0201 -0.3492
 5926SOL    HW129240   2.452   3.548   3.031  0.2224  0.3672  1.2597
 5926SOL    HW229241   2.546   3.432   3.051  0.1747  0.1526  0.3647
 5927SOL     OW29242   3.918   3.502   7.045  0.0827 -0.3959  0.5671
 5927SOL    HW129243   3.867   3.426   7.071 -1.0893  0.3953  0.5903
 5927SOL    HW229244   3.854   3.567   7.017  0.2064 -0.8042 -0.6962
 5928SOL     OW29245   1.503   3.231  11.172  0.0679  0.4372 -0.0650
 5928SOL    HW129246   1.525   3.283  11.095  4.4749 -0.1621  0.7860
 5928SOL    HW229247   1.417   3.269  11.193 -0.1045 -0.2421  0.4676
 5929SOL     OW29248   3.724   0.923   6.832 -0.2576  0.2474  0.2293
 5929SOL    HW129249   3.689   0.926   6.920  0.6665 -1.4229  0.6666
 5929SOL    HW229250   3.651   0.952   6.777  0.9913 -1.3861 -2.2929
 5930SOL     OW29251   0.280   0.209   3.733  0.2941 -0.4707  0.0101
 5930SOL    HW129252   0.354   0.238   3.787  1.3165 -1.5851 -0.8050
 5930SOL    HW229253   0.319   0.143   3.675  0.0324 -0.2051 -0.4681
 5931SOL     OW29254   0.346   1.510   0.974 -0.2773 -0.0876  0.2833
 5931SOL    HW129255   0.422   1.518   1.033  0.4084 -1.6779 -0.3856
 5931SOL    HW229256   0.274   1.551   1.022  0.5369 -0.6272  1.9892
 5932SOL     OW29257   3.955   4.340   7.607 -0.3507 -0.6536 -0.2367
 5932SOL    HW129258   3.865   4.363   7.631 -0.1422 -1.4955  1.3745
 5932SOL    HW229259   4.002   4.378   7.682 -0.9097 -1.3840  0.4912
 5933SOL     OW29260   2.368   2.495   7.220  0.4330  0.1021 -0.1553
 5933SOL    HW129261   2.408   2.496   7.308  2.4213  0.0981 -1.0578
 5933SOL    HW229262   2.288   2.444   7.227  0.4016  0.1169 -0.4265
 5934SOL     OW29263   0.978   3.459   0.813  0.3851  0.2766  0.0235
 5934SOL    HW129264   0.958   3.530   0.874 -0.5202  0.2688 -0.2710
 5934SOL    HW229265   0.901   3.453   0.757 -0.2365  1.0768  0.7903
 5935SOL     OW29266   2.064   2.539   7.459  0.1856  0.7858  0.1343
 5935SOL    HW129267   2.018   2.509   7.537 -0.1895  0.9384 -0.0310
 5935SOL    HW229268   2.100   2.458   7.423 -0.9358  0.2238  0.2736
 5936SOL     OW29269   2.647   3.211   6.334 -0.2475 -0.2344 -0.5715
 5936SOL    HW129270   2.637   3.129   6.286  1.5502 -1.7307  1.5898
 5936SOL    HW229271   2.633   3.171   6.421  1.3135 -1.4192 -0.8735
 5937SOL     OW29272   0.162   2.883   8.828 -0.5812 -0.2063  0.2563
 5937SOL    HW129273   0.181   2.907   8.737 -1.1690  0.5409  0.3316
 5937SOL    HW229274   0.091   2.944   8.847  0.4520  1.4780 -1.2693
 5938SOL     OW29275   1.337   4.064   4.562  0.0850  0.1110 -0.2014
 5938SOL    HW129276   1.279   4.111   4.503  0.3108 -0.4919 -0.9090
 5938SOL    HW229277   1.304   3.974   4.553 -2.7204  1.0960  0.3038
 5939SOL     OW29278   2.719   3.634   2.816  0.5721  0.1261  0.0363
 5939SOL    HW129279   2.770   3.681   2.750 -2.4194  1.8676 -1.0327
 5939SOL    HW229280   2.786   3.615   2.882  0.8865 -0.1958 -0.3741
 5940SOL     OW29281   2.236   3.062   2.044 -0.0404 -0.2849  0.5809
 5940SOL    HW129282   2.211   3.104   1.962  2.3377  1.6820  0.8745
 5940SOL    HW229283   2.197   3.126   2.104 -1.1587  1.2140 -1.7727
 5941SOL     OW29284   0.123   1.188   2.585  0.1097 -0.3571  0.0174
 5941SOL    HW129285   0.139   1.094   2.587 -2.0364 -0.7628 -1.9846
 5941SOL    HW229286   0.031   1.193   2.557 -0.0997  1.2193  0.9485
 5942SOL     OW29287   1.844   0.443   5.774  0.3919 -0.1542  0.1569
 5942SOL    HW129288   1.905   0.370   5.764 -0.6398 -0.5044 -3.4342
 5942SOL    HW229289   1.903   0.518   5.785 -1.4675  1.4920 -1.0486
 5943SOL     OW29290   3.411   2.940   4.340 -0.3652  0.0792  0.2707
 5943SOL    HW129291   3.401   2.990   4.258  0.7795  3.3840  2.1370
 5943SOL    HW229292   3.331   2.957   4.389 -0.5946  0.4423 -0.2301
 5944SOL     OW29293   3.496   0.963   6.127  0.5239  0.2691 -0.0350
 5944SOL    HW129294   3.531   0.985   6.214  2.4417  1.9242 -1.2460
 5944SOL    HW229295   3.522   0.871   6.123  0.4108  0.0742  3.7174
 5945SOL     OW29296   2.515   1.385   2.796 -0.2957  0.2392 -0.6035
 5945SOL    HW129297   2.526   1.432   2.713 -0.8476  2.6339  0.6689
 5945SOL    HW229298   2.422   1.401   2.814 -0.0995 -0.6846  1.2298
 5946SOL     OW29299   3.610   3.494  12.330  0.6488 -0.0789 -0.3037
 5946SOL    HW129300   3.668   3.420  12.349  1.1670  0.7564  1.3027
 5946SOL    HW229301   3.634   3.565  12.390  0.8735  1.0210 -1.7006
 5947SOL     OW29302   3.018   0.575   2.893  0.3273 -0.1351 -0.0394
 5947SOL    HW129303   2.961   0.629   2.948  1.1619  0.3320  0.3555
 5947SOL    HW229304   3.096   0.569   2.948 -0.8033  2.6555  1.8683
 5948SOL     OW29305   2.820   0.150   7.881 -0.1191 -0.0367 -0.6659
 5948SOL    HW129306   2.796   0.072   7.932 -0.3411  0.3598 -0.1556
 5948SOL    HW229307   2.914   0.136   7.871  0.2471  0.0685  2.6085
 5949SOL     OW29308   1.826   1.174  17.493 -0.6270  0.6150  0.6358
 5949SOL    HW129309   1.813   1.263  17.460 -0.5406  0.3976  0.0106
 5949SOL    HW229310   1.856   1.132  17.413 -0.5481 -0.2243  1.1025
 5950SOL     OW29311   1.051   4.120   2.440  0.0135 -0.0552 -0.3444
 5950SOL    HW129312   1.036   4.062   2.514  1.0490 -2.3027 -1.8940
 5950SOL    HW229313   1.062   4.201   2.490 -1.5995  0.9997 -1.7196
 5951SOL     OW29314   4.063   0.620   8.036  0.5723  0.4377  0.2909
 5951SOL    HW129315   4.049   0.646   7.945  1.7431 -0.3962 -0.1189
 5951SOL    HW229316   4.036   0.529   8.030 -0.5660  0.7158  1.0335
 5952SOL     OW29317   4.529   2.396   1.589  0.4938  0.2158  0.1030
 5952SOL    HW129318   4.458   2.458   1.604  0.0685  0.5177 -3.1532
 5952SOL    HW229319   4.608   2.444   1.616  0.8879 -0.1382 -0.4213
 5953SOL     OW29320   2.722   0.934   4.534 -0.0755 -0.0803  0.0898
 5953SOL    HW129321   2.770   0.871   4.588  1.1386 -1.5066 -2.6031
 5953SOL    HW229322   2.769   1.013   4.562 -1.5616  0.4047  1.1806
 5954SOL     OW29323   2.315   4.709   4.717 -0.0052 -0.0540  0.1120
 5954SOL    HW129324   2.272   4.667   4.792 -2.2601 -1.8477 -2.1927
 5954SOL    HW229325   2.240   0.037   4.684  0.6196 -0.0225 -1.2599
 5955SOL     OW29326   0.896   1.127   6.544 -0.1103  0.0488  0.1480
 5955SOL    HW129327   0.899   1.140   6.638  0.2298 -0.6658  0.2416
 5955SOL    HW229328   0.837   1.051   6.537 -0.2523  0.1185  0.6011
 5956SOL     OW29329   0.055   3.391   5.077 -0.3605 -0.5775  0.5339
 5956SOL    HW129330   0.099   3.408   4.993  1.1648 -0.2997  1.3964
 5956SOL    HW229331   0.038   3.479   5.111 -1.4790 -1.3089  1.8458
 5957SOL     OW29332   3.934   4.718   7.073  0.1201 -0.1627  0.0357
 5957SOL    HW129333   3.987   4.686   7.146 -1.1812 -2.5711 -0.0744
 5957SOL    HW229334   3.844   4.699   7.100 -0.9832  4.2187 -0.6623
 5958SOL     OW29335   2.881   2.001  16.935  0.0641 -0.4431 -0.0801
 5958SOL    HW129336   2.826   2.077  16.914  1.3720  0.2706 -0.9374
 5958SOL    HW229337   2.832   1.956  17.003  1.9549 -1.3916  0.6474
 5959SOL     OW29338   1.420   2.037   0.840  0.6366 -0.4292 -0.1217
 5959SOL    HW129339   1.514   2.023   0.853  1.1739  1.4046 -2.0538
 5959SOL    HW229340   1.410   2.088   0.760  0.9543 -0.6265 -0.2871
 5960SOL     OW29341   4.128   4.140  17.074  0.1311 -0.0059  0.0411
 5960SOL    HW129342   4.147   4.063  17.021 -1.3643  0.7779 -1.6359
 5960SOL    HW229343   4.035   4.139  17.095  0.5120  0.6289  1.7448
 5961SOL     OW29344   2.126   2.486   5.862 -0.4141  0.5811  0.2262
 5961SOL    HW129345   2.085   2.562   5.820 -1.0056 -0.4875 -1.1262
 5961SOL    HW229346   2.219   2.507   5.847 -0.8555  2.6759  0.3774
 5962SOL     OW29347   4.312   2.047   4.053  0.3039 -0.1739 -0.1175
 5962SOL    HW129348   4.236   2.095   4.087  0.5657  2.1043 -2.7114
 5962SOL    HW229349   4.277   2.011   3.972 -0.7130 -0.1056  0.2926
 5963SOL     OW29350   3.704   2.366   5.004  0.0419 -0.1026 -0.6532
 5963SOL    HW129351   3.632   2.345   5.063  1.6711 -0.6616  1.1400
 5963SOL    HW229352   3.690   2.460   4.999  1.8560  0.1465 -1.2251
 5964SOL     OW29353   3.767   4.693   8.935 -0.1775  0.8231  0.5928
 5964SOL    HW129354   3.714   4.630   8.886  2.1257 -0.2255 -0.5311
 5964SOL    HW229355   3.813   0.024   8.869  1.9818 -2.5734 -0.5134
 5965SOL     OW29356   1.592   0.353  13.442 -0.0770 -0.0100  0.2255
 5965SOL    HW129357   1.526   0.328  13.377  1.9109 -0.3768 -1.6238
 5965SOL    HW229358   1.669   0.348  13.387  0.4014 -0.4696  0.9360
 5966SOL     OW29359   3.776   1.000   0.218  0.3112  0.6128  0.1707
 5966SOL    HW129360   3.838   0.936   0.252  0.5592 -0.2968 -1.9723
 5966SOL    HW229361   3.767   1.063   0.290 -0.2847  1.8275 -0.9533
 5967SOL     OW29362   0.972   0.853   4.010  0.5211  0.2211  0.1551
 5967SOL    HW129363   0.895   0.849   4.066  0.1112 -1.8649 -0.5966
 5967SOL    HW229364   0.944   0.788   3.946 -0.8495  1.7331 -0.7868
 5968SOL     OW29365   0.752   1.543   7.964  0.1377 -0.0102 -0.4566
 5968SOL    HW129366   0.814   1.584   7.903 -1.1565  0.1684 -1.6541
 5968SOL    HW229367   0.754   1.458   7.920  2.0604 -0.2426  0.0659
 5969SOL     OW29368   1.210   3.269   6.442 -0.5640  0.2573 -0.8736
 5969SOL    HW129369   1.139   3.214   6.411 -0.7000 -0.0071 -0.0819
 5969SOL    HW229370   1.234   3.310   6.359  1.8462 -2.3899 -1.4909
 5970SOL     OW29371   2.819   4.148   7.603  0.1142 -0.6474  0.3790
 5970SOL    HW129372   2.808   4.061   7.640  0.4062 -0.6955  0.3531
 5970SOL    HW229373   2.767   4.150   7.523  0.8333  0.0661 -0.0773
 5971SOL     OW29374   3.413   1.563  14.757 -0.5937 -0.0933 -0.3483
 5971SOL    HW129375   3.488   1.507  14.736 -1.0902 -0.6538 -0.6007
 5971SOL    HW229376   3.347   1.527  14.699 -2.5864  0.9849  1.2437
 5972SOL     OW29377   2.301   4.652   3.087  0.4871  0.2662 -0.1978
 5972SOL    HW129378   2.296   4.666   2.993  1.2568  1.7888 -0.0216
 5972SOL    HW229379   2.393   4.669   3.107  0.2774  1.7736 -0.5033
 5973SOL     OW29380   1.094   1.340   3.061  0.0249  0.0819  0.4358
 5973SOL    HW129381   0.999   1.345   3.071 -0.1553  0.9165 -1.6173
 5973SOL    HW229382   1.109   1.360   2.968  0.2510 -0.3140  0.3859
 5974SOL     OW29383   3.624   1.875   3.261 -0.7601  0.2522 -0.5165
 5974SOL    HW129384   3.671   1.817   3.322  1.5859  1.2715 -1.3579
 5974SOL    HW229385   3.574   1.938   3.313 -1.3242 -0.1014 -0.6343
 5975SOL     OW29386   3.738   3.970  12.059 -0.6998 -0.1672  0.1619
 5975SOL    HW129387   3.716   3.882  12.087  0.2849  0.2540  2.2966
 5975SOL    HW229388   3.667   4.020  12.099  2.0504  2.5471  1.6854
 5976SOL     OW29389   1.094   2.665   7.559 -0.5995  0.6282 -0.0812
 5976SOL    HW129390   1.025   2.600   7.547  1.3120 -1.3341 -0.5865
 5976SOL    HW229391   1.033   2.738   7.563  1.2360  2.1766 -0.1881
 5977SOL     OW29392   0.086   2.746  14.519 -0.0963 -0.3684  0.1094
 5977SOL    HW129393   0.039   2.827  14.503  0.8719 -0.2241 -2.1269
 5977SOL    HW229394   0.127   2.726  14.434  2.1343  0.9319  0.8760
 5978SOL     OW29395   0.164   0.162  15.352 -0.0238 -0.5730  0.3973
 5978SOL    HW129396   0.070   0.177  15.353  0.2897  1.3928  0.5064
 5978SOL    HW229397   0.188   0.167  15.445  0.5606  0.4021  0.1936
 5979SOL     OW29398   2.277   2.195   2.720  0.6451  0.3015  0.1241
 5979SOL    HW129399   2.319   2.277   2.693 -0.2598  1.0881  1.1154
 5979SOL    HW229400   2.331   2.170   2.795 -0.3946 -1.4264  0.2860
 5980SOL     OW29401   4.282   2.034  10.147 -0.5948  0.0277 -0.1515
 5980SOL    HW129402   4.222   1.964  10.172 -2.1785  1.2613 -0.4896
 5980SOL    HW229403   4.316   2.061  10.233  0.0571  0.7657 -0.6374
 5981SOL     OW29404   3.098   1.538  14.763 -0.1635  0.2666 -0.4078
 5981SOL    HW129405   3.174   1.519  14.819 -0.6703 -3.0758 -0.8530
 5981SOL    HW229406   3.031   1.533  14.831  1.0064  2.5371  0.9248
 5982SOL     OW29407   0.010   1.649   2.798  0.3903 -0.0092  0.4266
 5982SOL    HW129408   0.027   1.613   2.711 -0.8295 -2.2031  1.1022
 5982SOL    HW229409   0.008   1.569   2.851  2.0662 -1.2859 -1.4657
 5983SOL     OW29410   1.413   0.963  16.945  0.0780  0.0996  0.0501
 5983SOL    HW129411   1.477   0.994  17.009  0.3542 -2.3361  0.9608
 5983SOL    HW229412   1.406   1.044  16.894  0.5164 -1.5818 -2.7091
 5984SOL     OW29413   1.148   1.382   8.798 -0.3258 -0.1232 -0.2046
 5984SOL    HW129414   1.226   1.414   8.844 -0.5481 -0.2416  0.2605
 5984SOL    HW229415   1.183   1.296   8.777 -2.0206 -1.2521  1.4873
 5985SOL     OW29416   4.651   2.790   5.728 -0.1727 -0.1131 -0.8047
 5985SOL    HW129417   4.621   2.861   5.672  2.1874  0.2440 -1.6431
 5985SOL    HW229418   4.704   2.831   5.797 -1.2497 -1.9379  1.1198
 5986SOL     OW29419   2.942   1.818  15.097 -0.4561 -0.3744  0.4985
 5986SOL    HW129420   2.952   1.828  15.002  1.5764  0.0469  0.7616
 5986SOL    HW229421   2.849   1.796  15.093 -0.4227 -0.4448  0.0992
 5987SOL     OW29422   3.819   2.605   5.460  0.5627 -0.0619 -0.1733
 5987SOL    HW129423   3.768   2.547   5.517  0.4044 -0.3760 -0.6248
 5987SOL    HW229424   3.909   2.576   5.472  0.0115 -0.8445  2.0767
 5988SOL     OW29425   3.848   3.248   8.491 -0.0922 -0.5234  0.0982
 5988SOL    HW129426   3.775   3.286   8.442  0.5124  1.9866  1.1741
 5988SOL    HW229427   3.808   3.242   8.578  1.7786  1.5118  1.1091
 5989SOL     OW29428   1.480   4.037   6.111  0.2055  0.2961  0.9618
 5989SOL    HW129429   1.422   4.113   6.108 -0.4337 -0.2360 -0.2636
 5989SOL    HW229430   1.512   4.033   6.021 -0.3437 -0.1481  0.7889
 5990SOL     OW29431   4.108   2.977  10.836 -0.1136 -0.4371 -0.0896
 5990SOL    HW129432   4.172   2.936  10.777  2.0522  1.9943  0.5716
 5990SOL    HW229433   4.046   3.011  10.772 -2.4829 -1.7137  1.5252
 5991SOL     OW29434   0.505   3.674   7.772 -0.3774 -0.2385  0.8903
 5991SOL    HW129435   0.464   3.722   7.843 -2.2368 -0.4714 -0.0302
 5991SOL    HW229436   0.433   3.657   7.711 -0.1621  2.1385 -0.0170
 5992SOL     OW29437   2.686   2.461  17.004 -0.1897  0.1625 -0.7218
 5992SOL    HW129438   2.649   2.427  17.086  1.6141 -2.5037 -1.0110
 5992SOL    HW229439   2.609   2.508  16.972 -1.0674  0.0867  1.2441
 5993SOL     OW29440   3.440   4.611  13.564 -0.6958 -0.0125  0.0827
 5993SOL    HW129441   3.464   4.697  13.531 -0.1390  0.0378  0.6162
 5993SOL    HW229442   3.489   4.565  13.496 -1.1332  2.8570 -2.1341
 5994SOL     OW29443   2.828   4.173   4.832 -0.3680  0.2656  0.2682
 5994SOL    HW129444   2.759   4.179   4.765 -1.4806 -0.9979  1.3223
 5994SOL    HW229445   2.869   4.257   4.810 -1.0480  0.2541 -1.0893
 5995SOL     OW29446   4.171   0.593   4.516  0.1697 -0.0722 -0.8206
 5995SOL    HW129447   4.211   0.658   4.459  1.8274  1.3166  1.9851
 5995SOL    HW229448   4.207   0.515   4.474 -4.2229 -2.1423 -0.7958
 5996SOL     OW29449   3.558   1.162   3.966  0.1624 -0.0230 -0.7715
 5996SOL    HW129450   3.553   1.093   4.032 -2.0476  2.4641  1.6588
 5996SOL    HW229451   3.472   1.159   3.923 -1.1544 -0.5278  1.9114
 5997SOL     OW29452   4.016   4.062   7.793  0.1277 -0.4526  0.3429
 5997SOL    HW129453   4.071   4.043   7.869 -0.1789  0.6188  0.8383
 5997SOL    HW229454   3.946   4.104   7.842  0.9246 -0.1660  1.2334
 5998SOL     OW29455   1.508   3.433   4.690  0.0172  0.0665 -0.1979
 5998SOL    HW129456   1.434   3.392   4.645 -1.0666 -0.7454  2.3322
 5998SOL    HW229457   1.464   3.518   4.690 -0.6866 -0.3087 -1.6781
 5999SOL     OW29458   1.617   2.925   4.476 -0.4945  0.5495 -0.0066
 5999SOL    HW129459   1.525   2.901   4.485 -0.4156  0.0811 -0.4393
 5999SOL    HW229460   1.613   3.018   4.498 -2.5493  0.0092  1.8813
 6000SOL     OW29461   1.121   4.057   5.486  0.4159 -0.6822 -0.2084
 6000SOL    HW129462   1.106   4.101   5.402  1.6652  0.9595  0.4338
 6000SOL    HW229463   1.057   4.085   5.551  0.8434  1.5189 -0.7415
 6001SOL     OW29464   2.936   0.876   8.847 -0.3772  0.4791 -0.2241
 6001SOL    HW129465   2.948   0.822   8.769  0.7735 -2.4302  1.9777
 6001SOL    HW229466   2.929   0.962   8.804 -0.4295  0.6003  0.0285
 6002SOL     OW29467   2.553   2.546  10.575  0.3798  0.3708 -0.1360
 6002SOL    HW129468   2.597   2.590  10.502 -0.0768 -0.1692 -0.7392
 6002SOL    HW229469   2.571   2.609  10.644 -0.6900  1.8385 -1.1852
 6003SOL     OW29470   3.302   2.884   2.132  0.6776  0.0289  0.3394
 6003SOL    HW129471   3.327   2.800   2.091  2.5173 -0.0343  1.6018
 6003SOL    HW229472   3.384   2.905   2.175  0.8406  0.1460 -0.0275
 6004SOL     OW29473   3.132   1.520   6.513 -0.5269 -0.3382  0.5406
 6004SOL    HW129474   3.099   1.495   6.600  1.4488  1.9889  1.9519
 6004SOL    HW229475   3.063   1.573   6.474 -0.5386 -0.6280  0.1669
 6005SOL     OW29476   2.312   2.773  17.144 -0.1933  0.0871 -0.3253
 6005SOL    HW129477   2.346   2.861  17.129  0.6380 -0.1057  0.4150
 6005SOL    HW229478   2.297   2.780  17.238 -0.0056 -1.3263 -0.1834
 6006SOL     OW29479   0.668   2.074  10.606 -0.4512  0.1424  0.4072
 6006SOL    HW129480   0.650   2.167  10.619 -2.8511 -0.4494  1.4359
 6006SOL    HW229481   0.663   2.038  10.695 -0.6420 -0.0042  0.3367
 6007SOL     OW29482   4.058   2.098   3.570  0.3201  0.0164  0.1783
 6007SOL    HW129483   4.017   2.041   3.505  2.2297 -0.8797 -0.2380
 6007SOL    HW229484   4.129   2.141   3.521 -0.2044  1.7004  0.9154
 6008SOL     OW29485   0.632   2.100  15.843 -0.0034 -0.1975  0.6401
 6008SOL    HW129486   0.585   2.055  15.913  1.4591 -0.8426  1.2074
 6008SOL    HW229487   0.722   2.099  15.877  1.8790  0.3389 -4.3348
 6009SOL     OW29488   2.201   0.010   7.432  0.2068 -0.1697 -0.1801
 6009SOL    HW129489   2.195   4.653   7.490 -4.4427  0.1164 -0.2763
 6009SOL    HW229490   2.111   0.014   7.399 -0.0333  0.5252  0.5532
 6010SOL     OW29491   2.451   0.950  12.872  0.4301 -0.4823  0.4417
 6010SOL    HW129492   2.402   1.023  12.834  1.7430 -0.8022 -1.8821
 6010SOL    HW229493   2.533   0.992  12.895 -1.0997  2.3907  0.6452
 6011SOL     OW29494   2.765   3.861   9.554  0.4425 -0.1919 -0.0576
 6011SOL    HW129495   2.845   3.913   9.552 -0.3722  1.0110 -1.0150
 6011SOL    HW229496   2.750   3.845   9.461  2.0266 -0.0634 -0.3217
 6012SOL     OW29497   2.792   2.397   5.728 -0.6402  0.0193  0.1837
 6012SOL    HW129498   2.698   2.382   5.735 -0.0742 -1.8769  3.5532
 6012SOL    HW229499   2.802   2.474   5.783 -1.7540 -0.3440  0.8751
 6013SOL     OW29500   4.600   3.457   5.744 -0.4186  0.1839  0.2715
 6013SOL    HW129501   4.641   3.506   5.673  0.9909 -0.7655  0.4209
 6013SOL    HW229502   4.505   3.457   5.736 -0.4272  0.0822  0.3687
 6014SOL     OW29503   0.940   2.799   2.378 -0.1055  0.2832 -0.0470
 6014SOL    HW129504   0.865   2.749   2.345  0.0062  0.3049 -0.3326
 6014SOL    HW229505   0.962   2.860   2.308 -0.6673  0.6939  0.1273
 6015SOL     OW29506   2.724   4.222   8.121  0.1750 -0.7329  0.0092
 6015SOL    HW129507   2.773   4.186   8.047 -0.7808 -1.5495 -0.2324
 6015SOL    HW229508   2.654   4.156   8.125 -0.9889  0.3585 -1.9196
 6016SOL     OW29509   1.188   2.901  13.952 -0.1677 -0.0558 -0.3757
 6016SOL    HW129510   1.165   2.911  13.860 -1.3168  1.4437  0.0811
 6016SOL    HW229511   1.236   2.818  13.958 -0.2216 -0.2891 -3.2557
 6017SOL     OW29512   1.019   3.982  15.652 -0.7293  0.0762  0.5433
 6017SOL    HW129513   1.002   3.947  15.564 -0.5162  2.6236 -0.5167
 6017SOL    HW229514   1.114   3.996  15.648 -0.9572  1.4713  0.2016
 6018SOL     OW29515   3.922   1.760   1.363 -0.3559  0.4265 -0.2935
 6018SOL    HW129516   3.987   1.829   1.380  0.5073 -0.1680 -1.1694
 6018SOL    HW229517   3.973   1.680   1.365  0.0815  0.7336  1.2024
 6019SOL     OW29518   1.003   3.656   2.666  0.0020 -0.0735  0.1538
 6019SOL    HW129519   0.984   3.610   2.584 -0.6406 -2.2993  1.5478
 6019SOL    HW229520   0.930   3.621   2.717  0.2123  0.2642  0.6861
 6020SOL     OW29521   0.183   3.108   5.676 -0.1841  0.0622 -0.4894
 6020SOL    HW129522   0.176   3.040   5.609 -2.4836  2.0259 -2.2122
 6020SOL    HW229523   0.093   3.136   5.693 -0.2586 -2.2602  3.1203
 6021SOL     OW29524   0.136   0.940   4.611  0.0594 -0.1542 -0.2394
 6021SOL    HW129525   0.062   0.999   4.627 -0.7134 -0.8730 -1.0796
 6021SOL    HW229526   0.168   0.984   4.533 -1.7778 -0.3923 -1.1503
 6022SOL     OW29527   2.716   2.459   4.173  0.0832  0.4295  0.1280
 6022SOL    HW129528   2.629   2.437   4.205 -0.1052  0.5060 -0.3265
 6022SOL    HW229529   2.769   2.393   4.217  1.0212  0.5827 -0.7680
 6023SOL     OW29530   1.125   3.814   4.240  0.2267 -0.6593 -0.9920
 6023SOL    HW129531   1.158   3.763   4.314 -1.9964  0.3727  0.6920
 6023SOL    HW229532   1.105   3.901   4.275 -1.2180 -0.8066 -1.4683
 6024SOL     OW29533   1.720   2.583   7.387  0.6628 -0.5761 -0.1588
 6024SOL    HW129534   1.642   2.568   7.334 -1.7559 -1.8267  3.7725
 6024SOL    HW229535   1.724   2.499   7.433 -0.2838  0.3875  1.6760
 6025SOL     OW29536   0.643   4.066  14.905  0.0589  0.3791  0.0902
 6025SOL    HW129537   0.573   4.019  14.950 -0.3803 -1.0033 -2.0386
 6025SOL    HW229538   0.649   4.154  14.941 -0.5352 -0.2730  1.7904
 6026SOL     OW29539   3.855   3.367   2.908 -0.0996 -0.5338  0.4196
 6026SOL    HW129540   3.901   3.445   2.940 -1.7226  0.9265 -0.8221
 6026SOL    HW229541   3.897   3.302   2.965  0.9498 -0.0333  0.2296
 6027SOL     OW29542   1.676   1.951  13.469  0.0023  0.1465 -0.7623
 6027SOL    HW129543   1.588   1.987  13.459 -0.5015 -0.4589  1.5464
 6027SOL    HW229544   1.659   1.866  13.429 -2.4855  1.1768 -1.8610
 6028SOL     OW29545   4.331   3.787   9.037  0.1189 -0.0072 -0.0253
 6028SOL    HW129546   4.338   3.784   8.942  2.9684  1.1213  0.1442
 6028SOL    HW229547   4.394   3.718   9.059 -3.1297 -2.2743  2.1976
 6029SOL     OW29548   0.853   2.820   7.671  0.3044 -0.3364  0.2738
 6029SOL    HW129549   0.799   2.890   7.706 -0.2183 -1.1626  1.1133
 6029SOL    HW229550   0.864   2.832   7.577  2.4566  0.4073  0.6249
 6030SOL     OW29551   1.230   2.144   5.060 -0.4309  0.5514 -0.4613
 6030SOL    HW129552   1.154   2.196   5.034 -0.2584  0.2048 -1.6434
 6030SOL    HW229553   1.256   2.104   4.977  0.5571  0.9144 -0.3237
 6031SOL     OW29554   1.148   0.276  12.678 -0.2846  0.2490 -0.2979
 6031SOL    HW129555   1.233   0.234  12.670  0.1834  1.0836  0.3882
 6031SOL    HW229556   1.179   0.344  12.737  2.1492 -1.2370  0.1068
 6032SOL     OW29557   3.821   4.684  11.207 -0.4276 -0.2667  0.0999
 6032SOL    HW129558   3.865   0.049  11.204  1.3080 -1.2394 -1.5617
 6032SOL    HW229559   3.898   4.636  11.178 -1.0958 -1.4771  0.3403
 6033SOL     OW29560   4.397   1.802   1.727 -0.2497  0.1718  0.1295
 6033SOL    HW129561   4.309   1.828   1.752 -0.3718 -1.3592  1.2404
 6033SOL    HW229562   4.395   1.707   1.734  2.5165  0.0715 -0.2992
 6034SOL     OW29563   1.767   4.214  15.119  0.1798  0.2367  0.4517
 6034SOL    HW129564   1.741   4.128  15.088 -0.5668  1.0271 -1.1002
 6034SOL    HW229565   1.764   4.264  15.037  1.4104 -2.8130 -1.4386
 6035SOL     OW29566   3.142   2.645   4.895  0.1832  0.1501  0.5046
 6035SOL    HW129567   3.119   2.638   4.803  0.5528  0.5647  0.3778
 6035SOL    HW229568   3.070   2.593   4.931  1.5534 -1.1352  1.3993
 6036SOL     OW29569   0.826   3.297   4.173 -0.8560 -0.7491  0.6428
 6036SOL    HW129570   0.872   3.250   4.104  0.9817  0.2298  1.1983
 6036SOL    HW229571   0.842   3.388   4.148  0.2800 -0.3064  2.9864
 6037SOL     OW29572   2.263   4.701   2.204 -0.4165 -0.1038  0.2636
 6037SOL    HW129573   2.191   0.026   2.249 -0.7431  1.4281 -1.7535
 6037SOL    HW229574   2.231   4.699   2.114 -1.7984  0.0866  0.7419
 6038SOL     OW29575   1.392   2.882   8.818  0.2355 -0.0018  0.3488
 6038SOL    HW129576   1.406   2.893   8.724  0.0993  0.3385  0.3677
 6038SOL    HW229577   1.481   2.856   8.842 -0.5784 -2.6444  0.4994
 6039SOL     OW29578   0.330   2.770  11.522 -0.1537  0.0490  0.2466
 6039SOL    HW129579   0.276   2.842  11.488  0.3195 -0.2846 -1.1739
 6039SOL    HW229580   0.361   2.730  11.441  2.7071 -1.1193  1.9347
 6040SOL     OW29581   4.239   1.065  16.370  0.2610 -0.3537 -0.4723
 6040SOL    HW129582   4.190   1.016  16.304  1.5400 -2.9729  0.5284
 6040SOL    HW229583   4.266   0.992  16.427 -1.0995 -1.4064 -1.1716
 6041SOL     OW29584   3.102   1.954   3.961  0.0124  0.7622  0.5681
 6041SOL    HW129585   3.057   1.870   3.955  3.1077 -0.6495 -2.6502
 6041SOL    HW229586   3.037   2.018   3.991  0.1293  1.2332 -0.1715
 6042SOL     OW29587   0.729   4.074  17.465  0.0458  0.9113  0.3138
 6042SOL    HW129588   0.812   4.046  17.503  0.7497 -0.4214 -2.2546
 6042SOL    HW229589   0.749   4.110  17.379 -1.5737 -0.8100 -0.7790
 6043SOL     OW29590   1.219   1.861  10.158  0.2858 -0.4546 -0.1314
 6043SOL    HW129591   1.302   1.831  10.121  1.5340  0.0707  2.2103
 6043SOL    HW229592   1.169   1.885  10.081  0.4835 -2.5171 -0.9157
 6044SOL     OW29593   4.301   2.167   4.364  0.0943  0.4531  0.9391
 6044SOL    HW129594   4.290   2.203   4.276 -1.7218  1.4478  1.5894
 6044SOL    HW229595   4.375   2.218   4.398  1.4994 -2.1769  1.7936
 6045SOL     OW29596   0.346   2.304   0.552  0.0662  0.2294 -0.5674
 6045SOL    HW129597   0.257   2.324   0.579  0.6227 -0.3271  1.6880
 6045SOL    HW229598   0.390   2.297   0.637 -1.6978  1.0143  0.3902
 6046SOL     OW29599   2.498   1.367   3.514 -0.3124 -0.5429  0.2031
 6046SOL    HW129600   2.427   1.314   3.477  1.4902 -0.8281 -2.8551
 6046SOL    HW229601   2.466   1.396   3.599 -1.0741 -1.8323  0.3685
 6047SOL     OW29602   4.441   3.180   7.690  0.5584  0.0838 -0.3786
 6047SOL    HW129603   4.434   3.085   7.702  1.9116 -0.0269 -0.3954
 6047SOL    HW229604   4.534   3.193   7.709  0.2099 -0.6863  1.7918
 6048SOL     OW29605   0.821   3.749   8.397  0.5565 -0.0760  0.4205
 6048SOL    HW129606   0.912   3.778   8.395 -0.1610  2.0185 -1.3953
 6048SOL    HW229607   0.845   3.656   8.396  1.2192  0.1162 -0.8173
 6049SOL     OW29608   1.982   3.647   6.761  0.1640 -0.0355  0.2924
 6049SOL    HW129609   2.062   3.615   6.802  0.0445  1.3324  1.5816
 6049SOL    HW229610   2.015   3.731   6.730 -2.1545  1.5642  2.1240
 6050SOL     OW29611   2.832   2.505   7.963  0.5206 -0.2424  0.5248
 6050SOL    HW129612   2.757   2.448   7.951 -1.8074  2.4586  2.2745
 6050SOL    HW229613   2.784   2.586   7.944  1.5848  0.3451  0.3346
 6051SOL     OW29614   4.115   2.792   5.388 -0.0246 -0.2423 -0.7928
 6051SOL    HW129615   4.059   2.816   5.315  0.1246  1.6755 -0.2637
 6051SOL    HW229616   4.197   2.835   5.368  0.0945 -0.4696 -0.7945
 6052SOL     OW29617   2.119   1.004   3.480  0.4077  0.2676  0.2048
 6052SOL    HW129618   2.147   0.956   3.402  1.8832 -0.0419  0.9203
 6052SOL    HW229619   2.026   1.001   3.457  1.0459 -1.3591 -2.2536
 6053SOL     OW29620   2.940   2.460   1.686  0.6601  0.1491  0.3855
 6053SOL    HW129621   2.940   2.526   1.617 -1.6196 -0.6585 -0.4211
 6053SOL    HW229622   3.025   2.419   1.670 -1.1021 -3.6722  0.5764
 6054SOL     OW29623   3.538   0.552   9.123  0.4025  0.0827 -0.2662
 6054SOL    HW129624   3.522   0.643   9.147  1.3115  0.2322 -0.2328
 6054SOL    HW229625   3.558   0.507   9.205  0.8041 -0.2344 -0.5354
 6055SOL     OW29626   0.805   2.677   6.167 -0.4944 -0.2816 -0.0060
 6055SOL    HW129627   0.897   2.699   6.180 -0.8031 -1.2227  3.7625
 6055SOL    HW229628   0.809   2.627   6.086  0.2757 -0.2109 -0.0100
 6056SOL     OW29629   2.931   4.012   3.405 -0.1406 -0.3648 -0.1153
 6056SOL    HW129630   3.013   3.994   3.361 -0.2790  0.1381 -0.5752
 6056SOL    HW229631   2.913   3.937   3.462 -0.7644  0.5527  0.9049
 6057SOL     OW29632   1.794   2.130   2.939 -0.1239  0.4971 -0.2646
 6057SOL    HW129633   1.820   2.115   2.848  0.3283 -2.8358  0.3844
 6057SOL    HW229634   1.699   2.143   2.932  0.1440  2.0534 -0.9038
 6058SOL     OW29635   2.684   4.201  16.527  0.1879  0.3304  0.4503
 6058SOL    HW129636   2.602   4.217  16.480 -0.0210 -0.2136  0.6341
 6058SOL    HW229637   2.691   4.276  16.586 -0.7173 -0.0799  1.0840
 6059SOL     OW29638   0.857   3.540   1.628 -0.0569 -0.1522 -0.1817
 6059SOL    HW129639   0.887   3.466   1.681  2.3805  1.0090  0.0995
 6059SOL    HW229640   0.895   3.615   1.674  1.2117 -0.4501 -0.7371
 6060SOL     OW29641   1.612   2.341  10.121 -0.6481  0.0744 -0.5009
 6060SOL    HW129642   1.588   2.332  10.028  2.1828 -1.0509 -1.1201
 6060SOL    HW229643   1.532   2.306  10.159 -0.7648 -0.4805 -1.2629
 6061SOL     OW29644   2.870   4.707   7.444 -0.0541 -0.4262  0.2110
 6061SOL    HW129645   2.865   0.078   7.415  1.0099 -0.6527 -0.7024
 6061SOL    HW229646   2.944   4.678   7.390 -1.0403  0.7442 -1.7401
 6062SOL     OW29647   1.698   0.758   4.983  0.2716 -0.3493 -0.2393
 6062SOL    HW129648   1.758   0.801   4.922 -2.0488  1.2206 -1.4265
 6062SOL    HW229649   1.744   0.675   4.990 -1.4100 -1.2732 -0.2743
 6063SOL     OW29650   3.218   1.157  11.381 -0.1469  0.1367 -0.4082
 6063SOL    HW129651   3.283   1.105  11.334  0.3499 -0.0368  0.4777
 6063SOL    HW229652   3.143   1.099  11.371 -0.2732  0.3695 -0.8251
 6064SOL     OW29653   0.785   4.098   2.129 -0.5763  0.1839 -0.2366
 6064SOL    HW129654   0.855   4.043   2.165 -1.5425  0.2562  1.7489
 6064SOL    HW229655   0.712   4.042   2.157 -0.4590 -0.1928 -0.6692
 6065SOL     OW29656   1.073   3.531   3.054 -0.1033  0.4649  0.3478
 6065SOL    HW129657   1.148   3.580   3.088  1.1604  0.1675 -2.0266
 6065SOL    HW229658   1.109   3.503   2.970  1.4151 -0.4676  1.2940
 6066SOL     OW29659   2.892   1.902   5.685  0.3324 -0.1789  0.0301
 6066SOL    HW129660   2.874   1.994   5.664  0.9127 -0.0645  0.0225
 6066SOL    HW229661   2.906   1.872   5.595 -0.9156  1.1848 -0.6125
 6067SOL     OW29662   2.494   3.807   5.751  0.8060 -0.5393  0.0165
 6067SOL    HW129663   2.458   3.790   5.838  0.6682 -2.7271 -0.4681
 6067SOL    HW229664   2.561   3.871   5.775  0.2166 -0.8773  2.5770
 6068SOL     OW29665   2.358   3.600   4.914 -0.8612  0.5547  0.1407
 6068SOL    HW129666   2.318   3.514   4.928 -0.9717  0.5049 -0.4984
 6068SOL    HW229667   2.448   3.567   4.910 -1.2627 -0.7463  1.6724
 6069SOL     OW29668   0.025   3.855   5.808 -0.3507 -0.3699 -0.0178
 6069SOL    HW129669   0.008   3.917   5.736 -0.0084 -1.3508 -0.9352
 6069SOL    HW229670   0.060   3.925   5.863 -1.6031  0.8833 -0.8028
 6070SOL     OW29671   2.765   3.091   8.884 -0.1250 -0.6076  0.0994
 6070SOL    HW129672   2.777   3.169   8.938  1.0214 -0.1794 -0.7791
 6070SOL    HW229673   2.791   3.024   8.948 -0.1500 -0.1936  0.5420
 6071SOL     OW29674   3.557   2.148   4.777 -0.5192  0.2856 -0.1386
 6071SOL    HW129675   3.564   2.162   4.683  1.5167  0.4456  0.0360
 6071SOL    HW229676   3.615   2.213   4.818  0.8155 -1.5657  0.8952
 6072SOL     OW29677   0.251   0.178  15.596  0.4516 -0.3074 -0.2001
 6072SOL    HW129678   0.232   0.162  15.689 -1.2745  2.0363 -0.1810
 6072SOL    HW229679   0.258   0.273  15.590 -0.5762 -0.2939 -1.0901
 6073SOL     OW29680   0.946   0.331  10.228 -0.2892  0.3463 -0.6334
 6073SOL    HW129681   0.970   0.412  10.273  0.4878  0.5998 -1.5047
 6073SOL    HW229682   1.022   0.280  10.254 -1.7455 -1.5073 -0.0084
 6074SOL     OW29683   0.669   1.428   2.904  0.0095 -0.2425  0.2225
 6074SOL    HW129684   0.653   1.344   2.861 -1.2589  1.3047 -2.3377
 6074SOL    HW229685   0.577   1.454   2.907 -0.5687 -1.8666 -2.2660
 6075SOL     OW29686   2.723   3.597   7.014 -0.5115 -0.4750 -0.0261
 6075SOL    HW129687   2.780   3.556   6.950 -0.5187 -0.7449  0.1427
 6075SOL    HW229688   2.741   3.687   6.985 -0.5600 -0.8246 -1.1574
 6076SOL     OW29689   2.666   1.392   3.089 -0.0738 -0.1163 -0.4770
 6076SOL    HW129690   2.693   1.429   3.173 -0.2609 -2.1276  0.4717
 6076SOL    HW229691   2.636   1.473   3.047 -1.8426 -0.6485 -0.2260
 6077SOL     OW29692   0.387   0.135   4.539  0.0220 -0.0570 -0.1780
 6077SOL    HW129693   0.296   0.106   4.555  1.0277 -3.1524  0.0375
 6077SOL    HW229694   0.363   0.218   4.499 -0.5715  0.7157  1.7845
 6078SOL     OW29695   1.818   3.229   6.156 -0.0499 -0.2114 -0.2558
 6078SOL    HW129696   1.786   3.319   6.153  0.2448 -0.0189  2.3031
 6078SOL    HW229697   1.747   3.181   6.112  0.2816 -0.5922 -0.3797
 6079SOL     OW29698   1.168   2.233  10.864  0.1118  0.1521  0.4865
 6079SOL    HW129699   1.084   2.189  10.875  0.3612 -0.3572  0.3674
 6079SOL    HW229700   1.146   2.287  10.788 -0.7210 -0.5724  0.2285
 6080SOL     OW29701   0.758   3.446   6.832  0.3748  0.0747  0.0532
 6080SOL    HW129702   0.810   3.501   6.890  2.9296  0.8324 -2.9432
 6080SOL    HW229703   0.766   3.357   6.867  1.8973  0.1300 -0.1534
 6081SOL     OW29704   3.613   0.487  11.947 -0.4337  0.2574  0.0476
 6081SOL    HW129705   3.683   0.551  11.957 -1.7362  1.6028  0.4125
 6081SOL    HW229706   3.650   0.399  11.956  2.1531  1.2642 -0.9066
 6082SOL     OW29707   4.656   3.733   7.170  0.3353  0.1232 -0.2957
 6082SOL    HW129708   4.708   3.809   7.143 -1.2152  1.7226  1.1577
 6082SOL    HW229709   4.581   3.783   7.203  1.0747  1.2348 -0.2981
 6083SOL     OW29710   3.372   0.339  12.536  0.3259 -0.1862  0.4098
 6083SOL    HW129711   3.457   0.315  12.574  0.3205 -0.0218  0.5199
 6083SOL    HW229712   3.394   0.426  12.504 -1.9229  0.6484  1.2280
 6084SOL     OW29713   3.924   0.243   0.733  0.1136 -0.0442  0.4112
 6084SOL    HW129714   3.952   0.222   0.822  5.7956 -1.4040 -1.6728
 6084SOL    HW229715   3.853   0.302   0.758  2.9129  2.9119  1.4398
 6085SOL     OW29716   4.253   1.334   5.074 -0.2018 -0.7368  0.0405
 6085SOL    HW129717   4.295   1.284   5.144 -0.2974 -0.1546  0.5147
 6085SOL    HW229718   4.237   1.271   5.004 -0.8767  1.5069 -1.7947
 6086SOL     OW29719   2.511   0.268   4.435 -0.5838  0.6127 -0.4420
 6086SOL    HW129720   2.532   0.220   4.516 -0.7959  2.0078  0.4513
 6086SOL    HW229721   2.525   0.358   4.465  0.3126 -0.8043  3.4203
 6087SOL     OW29722   1.244   3.767   7.631  0.2567 -0.1965 -0.4179
 6087SOL    HW129723   1.163   3.803   7.595  1.1582  1.5540 -0.7308
 6087SOL    HW229724   1.230   3.804   7.718  2.2571 -0.0100 -0.1668
 6088SOL     OW29725   1.614   0.759  14.017  0.1158 -0.6255 -0.1306
 6088SOL    HW129726   1.564   0.678  14.012 -1.0171  0.0121  0.8527
 6088SOL    HW229727   1.689   0.736  14.072  0.9940 -1.1594 -1.5615
 6089SOL     OW29728   2.207   0.508  17.020  0.1858  0.0446 -0.0435
 6089SOL    HW129729   2.300   0.492  17.033  0.2647  0.8573  0.3838
 6089SOL    HW229730   2.186   0.461  16.939 -0.3250  0.2535 -0.0363
 6090SOL     OW29731   2.942   3.688   1.695 -0.1385 -0.1638 -0.3184
 6090SOL    HW129732   2.951   3.615   1.755 -0.9232 -1.1723 -1.4048
 6090SOL    HW229733   3.025   3.676   1.649  0.4248 -1.2671  1.0211
 6091SOL     OW29734   4.416   4.717   5.013 -0.0453  0.1533 -0.4453
 6091SOL    HW129735   4.476   0.064   4.980  0.5074 -0.4755 -0.7186
 6091SOL    HW229736   4.343   0.058   5.024 -0.4882 -0.4518 -0.0495
 6092SOL     OW29737   4.187   3.757  10.088  0.3814 -0.0706 -0.5248
 6092SOL    HW129738   4.117   3.814  10.054 -1.9421 -1.6371  1.6493
 6092SOL    HW229739   4.139   3.701  10.148 -2.3610  1.1144 -1.5803
 6093SOL     OW29740   0.388   3.838   5.574  0.6352  0.4401 -0.3490
 6093SOL    HW129741   0.413   3.746   5.564 -0.6372  0.4227 -3.5070
 6093SOL    HW229742   0.300   3.831   5.611  1.4806 -1.6942  1.2547
 6094SOL     OW29743   2.736   2.864   5.373  0.0232 -0.2511  0.0135
 6094SOL    HW129744   2.762   2.939   5.427  1.1308  0.5725 -1.6465
 6094SOL    HW229745   2.764   2.789   5.424  2.2145 -0.6864 -1.8182
 6095SOL     OW29746   4.211   1.628   4.547 -0.0319  0.0813  0.4238
 6095SOL    HW129747   4.177   1.715   4.567  0.7449  0.3982  0.3525
 6095SOL    HW229748   4.298   1.627   4.586  0.6197  0.8077 -1.0006
 6096SOL     OW29749   1.678   2.050   7.215 -0.1132  0.1264 -0.0712
 6096SOL    HW129750   1.746   2.033   7.150 -0.4017 -0.4623 -0.2136
 6096SOL    HW229751   1.732   2.061   7.293 -1.8381 -2.4225  1.4702
 6097SOL     OW29752   3.192   1.980   8.514  0.3346  0.1087  0.1758
 6097SOL    HW129753   3.206   1.887   8.499  3.4855  0.7558 -0.9024
 6097SOL    HW229754   3.271   2.033   8.527 -0.1608  0.3656  2.1908
 6098SOL     OW29755   3.627   0.907   7.583  0.0863  0.1690 -0.0132
 6098SOL    HW129756   3.646   0.994   7.615  0.2010 -0.5878  1.9494
 6098SOL    HW229757   3.539   0.891   7.615  0.0284 -1.2061 -0.8223
 6099SOL     OW29758   3.016   1.766   6.419 -0.0287 -0.4297  0.2155
 6099SOL    HW129759   3.040   1.776   6.327 -0.9753 -1.1942 -0.1159
 6099SOL    HW229760   2.978   1.852   6.437  0.3948 -0.1946 -0.0228
 6100SOL     OW29761   1.205   2.941   6.302  0.6911 -0.2831 -0.1567
 6100SOL    HW129762   1.188   3.014   6.242 -3.7950 -1.2017 -0.0080
 6100SOL    HW229763   1.265   2.887   6.251 -0.2078 -2.7174  1.3405
 6101SOL     OW29764   4.059   3.684   6.376 -0.3642 -0.6043  0.6979
 6101SOL    HW129765   4.056   3.642   6.290  1.0743 -0.0905  0.4146
 6101SOL    HW229766   4.124   3.748   6.349 -1.0458 -0.5331 -0.8170
 6102SOL     OW29767   0.531   2.795   8.218 -0.0557  0.0642  0.1461
 6102SOL    HW129768   0.471   2.868   8.207  0.5460  0.2836 -1.6209
 6102SOL    HW229769   0.483   2.719   8.185  0.9058 -0.3572 -0.2802
 6103SOL     OW29770   1.273   0.416   2.162  0.2134 -0.3172  0.1188
 6103SOL    HW129771   1.318   0.446   2.241 -1.3520  2.1028  0.0960
 6103SOL    HW229772   1.215   0.489   2.140  0.7082 -0.3691 -1.3278
 6104SOL     OW29773   3.942   4.291   3.463 -0.3216  0.2159  0.0307
 6104SOL    HW129774   3.930   4.385   3.450  0.7223  0.6023  1.8120
 6104SOL    HW229775   3.882   4.254   3.399  0.6898 -0.0903 -0.7496
 6105SOL     OW29776   0.196   2.671  12.179  0.3351  0.2936 -0.8903
 6105SOL    HW129777   0.105   2.647  12.160  0.8558  0.3985 -3.4987
 6105SOL    HW229778   0.181   2.740  12.244  0.1740 -1.0712  0.5384
 6106SOL     OW29779   0.684   1.784   3.439 -0.0241  0.2033 -0.0329
 6106SOL    HW129780   0.775   1.802   3.459 -0.1082  2.0762 -1.3376
 6106SOL    HW229781   0.664   1.844   3.366 -2.1638  0.6189  0.8835
 6107SOL     OW29782   0.707   1.962   4.543  0.4610 -0.5634  0.0217
 6107SOL    HW129783   0.647   1.894   4.510  1.2472 -1.6619  0.8344
 6107SOL    HW229784   0.657   2.043   4.531  0.5156 -0.4029  0.9200
 6108SOL     OW29785   4.703   4.429   3.999 -0.2134  0.3159  0.1034
 6108SOL    HW129786   4.677   4.373   3.926 -2.4287  0.4580  0.7814
 6108SOL    HW229787   0.027   4.504   3.958 -2.2467  1.3421 -0.1980
 6109SOL     OW29788   0.513   2.986  17.591 -0.2735 -0.0297  0.9219
 6109SOL    HW129789   0.421   3.012  17.601  0.0507  1.6203 -0.4520
 6109SOL    HW229790   0.520   2.937  17.509 -1.1466  1.9161 -0.3095
 6110SOL     OW29791   4.578   3.325   2.855  0.3121 -0.4529 -0.0292
 6110SOL    HW129792   4.563   3.248   2.801  0.7990  0.6107 -1.7029
 6110SOL    HW229793   4.641   3.363   2.793  1.1864  0.0995  1.1964
 6111SOL     OW29794   0.341   1.193   3.675 -0.3481 -0.8335  0.4765
 6111SOL    HW129795   0.331   1.218   3.767 -1.9108 -2.4930  0.7447
 6111SOL    HW229796   0.320   1.100   3.680 -0.5006 -0.7093  2.0598
 6112SOL     OW29797   2.886   0.124   6.615 -0.2296 -0.6435  0.2887
 6112SOL    HW129798   2.819   0.122   6.546  1.9767  0.0269 -1.8934
 6112SOL    HW229799   2.899   0.032   6.638 -1.4156 -0.6931  0.7737
 6113SOL     OW29800   3.347   3.029   4.690 -0.3143 -0.0744  0.0710
 6113SOL    HW129801   3.306   2.953   4.648 -1.9801  1.1862 -0.6187
 6113SOL    HW229802   3.272   3.087   4.704 -1.1785 -0.7643 -1.6093
 6114SOL     OW29803   0.362   2.289  14.808  0.4179 -0.3364  0.0877
 6114SOL    HW129804   0.346   2.203  14.769 -1.6693  0.1746 -0.1996
 6114SOL    HW229805   0.284   2.336  14.779 -0.1138 -1.3341 -0.1005
 6115SOL     OW29806   4.661   3.151   5.073 -0.3337  0.3385 -0.6902
 6115SOL    HW129807   4.604   3.188   5.006 -1.1182 -1.3886 -0.9874
 6115SOL    HW229808   0.004   3.222   5.088  1.5235 -1.2379 -0.9922
 6116SOL     OW29809   2.849   0.874   6.581  0.0446 -0.4170 -0.4947
 6116SOL    HW129810   2.818   0.807   6.520  0.4692  1.0573 -2.3454
 6116SOL    HW229811   2.939   0.893   6.552  0.1009 -0.1911 -0.1728
 6117SOL     OW29812   3.138   2.427   6.055  0.1721 -0.2812 -0.8067
 6117SOL    HW129813   3.187   2.360   6.101  0.1935  0.9446  0.9612
 6117SOL    HW229814   3.056   2.378   6.058 -0.3296  0.4722 -2.2218
 6118SOL     OW29815   4.400   3.096   5.896  0.5498  0.0055 -0.4252
 6118SOL    HW129816   4.389   3.010   5.937  0.7406  0.5379  0.7285
 6118SOL    HW229817   4.458   3.143   5.955  0.1331 -0.6676  0.5195
 6119SOL     OW29818   1.630   3.964   2.557 -0.3995 -0.1843 -0.2097
 6119SOL    HW129819   1.588   3.972   2.471  0.3801  0.0332 -0.5706
 6119SOL    HW229820   1.699   3.903   2.531  1.5309  1.1484  1.7779
 6120SOL     OW29821   2.235   3.683   1.792  0.3659 -0.3407  0.9291
 6120SOL    HW129822   2.287   3.622   1.845  0.3834 -1.0092  0.1532
 6120SOL    HW229823   2.267   3.763   1.831 -1.0267  2.1135 -2.9200
 6121SOL     OW29824   4.301   4.106   9.318 -0.2620 -0.6674  0.2149
 6121SOL    HW129825   4.256   4.054   9.251 -1.3155 -1.2129  1.3412
 6121SOL    HW229826   4.219   4.154   9.330  0.6269  0.4635  1.6466
 6122SOL     OW29827   4.459   2.635   5.323 -0.6196  0.0704 -0.2593
 6122SOL    HW129828   4.554   2.626   5.316 -0.4248  1.8663  0.2627
 6122SOL    HW229829   4.440   2.599   5.410 -0.9620  1.2884  0.1581
 6123SOL     OW29830   0.276   1.262  11.867 -0.6986 -0.7986  0.1966
 6123SOL    HW129831   0.332   1.198  11.823  0.9115  1.1204 -0.5140
 6123SOL    HW229832   0.332   1.339  11.855 -2.3301  0.2811 -0.4455
 6124SOL     OW29833   1.220   0.591   5.728 -0.0538 -0.4856  0.1276
 6124SOL    HW129834   1.247   0.673   5.770  0.7446 -0.9607  0.5559
 6124SOL    HW229835   1.237   0.612   5.636 -0.2938 -0.0683  0.1790
 6125SOL     OW29836   1.860   3.187   6.459  0.2495  0.6794  0.3861
 6125SOL    HW129837   1.840   3.179   6.366  0.7683 -1.3951  0.4521
 6125SOL    HW229838   1.927   3.256   6.461  1.6940 -0.6936 -0.6373
 6126SOL     OW29839   2.119   4.269   8.190  0.5968  0.6011  0.4990
 6126SOL    HW129840   2.119   4.175   8.174  0.3085  0.7732 -0.5173
 6126SOL    HW229841   2.208   4.287   8.218  1.2166  0.8125 -1.6489
 6127SOL     OW29842   4.619   4.356   7.506 -0.4606 -0.1402 -0.2039
 6127SOL    HW129843   4.554   4.287   7.501  0.9413 -1.3148 -2.4005
 6127SOL    HW229844   4.669   4.315   7.577 -0.1170 -0.4717 -0.6339
 6128SOL     OW29845   3.520   3.972  11.039 -0.2064  0.7171 -0.5402
 6128SOL    HW129846   3.475   3.907  10.987  0.1801 -1.6097  2.0400
 6128SOL    HW229847   3.484   4.055  11.007 -0.7504  0.7723  0.2201
 6129SOL     OW29848   1.303   1.441  16.127 -0.1713  0.0445 -0.2056
 6129SOL    HW129849   1.392   1.455  16.096  0.2331  1.6414  1.7058
 6129SOL    HW229850   1.314   1.351  16.158  0.4655 -0.3798 -1.6644
 6130SOL     OW29851   0.459   4.152   5.183 -0.2547 -0.0060  0.4910
 6130SOL    HW129852   0.417   4.177   5.101  0.8900  0.5742  0.0745
 6130SOL    HW229853   0.390   4.111   5.234  0.7218  0.2730  2.0238
 6131SOL     OW29854   0.392   0.268  15.254 -0.2347  0.2680  0.3176
 6131SOL    HW129855   0.306   0.229  15.270  0.9249 -1.4391  2.3651
 6131SOL    HW229856   0.439   0.251  15.336  1.1975  0.7567 -0.3848
 6132SOL     OW29857   3.498   3.977   4.995 -0.4043 -0.1790 -0.1867
 6132SOL    HW129858   3.429   3.937   4.942 -1.3425 -2.6459  2.9065
 6132SOL    HW229859   3.570   3.940   4.943  2.5315  1.0599  2.9501
 6133SOL     OW29860   2.476   4.561   2.877 -0.2024 -0.4245  0.1040
 6133SOL    HW129861   2.559   4.606   2.861 -0.8049  0.4258 -0.6594
 6133SOL    HW229862   2.496   4.477   2.917  1.0199  0.1675  0.7346
 6134SOL     OW29863   1.189   0.715  16.068 -0.2116  1.1675  0.5530
 6134SOL    HW129864   1.168   0.797  16.023 -0.6859 -0.1388 -1.5887
 6134SOL    HW229865   1.099   0.686  16.081  0.3794 -1.6928 -1.7536
 6135SOL     OW29866   3.405   1.983   0.625  0.2614 -0.6918  0.0081
 6135SOL    HW129867   3.414   2.078   0.620  0.4627 -0.7234 -0.2598
 6135SOL    HW229868   3.497   1.964   0.606  0.0223 -1.1383 -0.7197
 6136SOL     OW29869   1.316   0.898   4.681 -0.0053 -0.3910 -0.2429
 6136SOL    HW129870   1.232   0.918   4.640 -0.1395  0.1104  0.2780
 6136SOL    HW229871   1.340   0.984   4.716  1.4589 -1.1936  0.7172
 6137SOL     OW29872   3.299   3.279   6.713 -0.3466  0.1001  0.4503
 6137SOL    HW129873   3.291   3.257   6.620  1.0088 -2.3943  0.9322
 6137SOL    HW229874   3.244   3.209   6.747 -1.3296  1.2719  1.2695
 6138SOL     OW29875   2.042   0.571   4.565  1.0028 -0.3272  0.3047
 6138SOL    HW129876   2.005   0.656   4.540  1.4924 -0.3051 -0.3459
 6138SOL    HW229877   1.993   0.510   4.509  0.4255  2.7983 -2.6165
 6139SOL     OW29878   0.465   1.156   2.990  0.5049 -0.5543  0.2427
 6139SOL    HW129879   0.444   1.080   2.936 -0.4219  0.1745 -0.4194
 6139SOL    HW229880   0.517   1.203   2.925 -2.5941  4.1694  1.1969
 6140SOL     OW29881   1.600   2.205  11.172  0.1012 -0.2334 -0.2776
 6140SOL    HW129882   1.530   2.199  11.236  1.2517  2.2768  1.2295
 6140SOL    HW229883   1.546   2.199  11.093 -0.5278 -0.5160  0.1784
 6141SOL     OW29884   0.685   4.114  10.904  0.3514 -0.3381 -0.8250
 6141SOL    HW129885   0.670   4.206  10.882  0.2693  0.1638  1.3681
 6141SOL    HW229886   0.752   4.093  10.839  0.4364  0.1512 -0.8955
 6142SOL     OW29887   1.087   0.178   3.091  0.1938  0.6990  0.2738
 6142SOL    HW129888   1.021   0.142   3.031  0.6551 -1.5506  1.1134
 6142SOL    HW229889   1.073   0.124   3.169 -0.5044  0.0474 -0.3022
 6143SOL     OW29890   4.154   1.522   5.658 -0.2496  0.0859 -0.3466
 6143SOL    HW129891   4.178   1.610   5.687 -0.8764  0.7171 -1.7931
 6143SOL    HW229892   4.065   1.529   5.624 -1.1803  0.3989  2.1563
 6144SOL     OW29893   3.534   4.168  12.045 -0.0794  0.2157 -0.9612
 6144SOL    HW129894   3.446   4.131  12.033  0.2470  0.2879 -3.5091
 6144SOL    HW229895   3.519   4.248  11.995 -0.5501  1.9559  1.9444
 6145SOL     OW29896   0.976   0.380  15.314 -0.3698 -0.1856  0.1886
 6145SOL    HW129897   1.015   0.364  15.229  1.8184  0.8985  0.9931
 6145SOL    HW229898   0.908   0.313  15.304  0.1926 -0.8539  0.8391
 6146SOL     OW29899   0.867   1.810   7.381  0.0257 -0.4804  0.4673
 6146SOL    HW129900   0.894   1.901   7.393  1.2931 -0.6970 -0.7623
 6146SOL    HW229901   0.894   1.770   7.464 -1.0045 -1.5522  0.2845
 6147SOL     OW29902   4.553   2.099   4.161 -0.6837 -0.4283 -0.5692
 6147SOL    HW129903   4.568   2.184   4.119  2.1903 -0.4223  0.4893
 6147SOL    HW229904   4.475   2.065   4.116 -0.0996 -2.3808 -0.1258
 6148SOL     OW29905   0.087   4.111   1.520 -0.1817 -0.2048  0.8821
 6148SOL    HW129906   4.714   4.136   1.529  0.2614  1.3026  1.2719
 6148SOL    HW229907   0.082   4.044   1.452  3.9212 -0.2672  0.6447
 6149SOL     OW29908   3.967   3.415   6.488  0.4192 -0.3382 -0.3604
 6149SOL    HW129909   4.025   3.362   6.542  0.1546  1.3503  1.5778
 6149SOL    HW229910   4.008   3.501   6.479  0.2121 -0.4530 -2.3087
 6150SOL     OW29911   1.646   0.180  15.822 -0.2872 -0.1977  0.4722
 6150SOL    HW129912   1.611   0.091  15.812  0.1563 -0.5289  1.9469
 6150SOL    HW229913   1.576   0.243  15.805 -0.7859 -0.4841  1.4959
 6151SOL     OW29914   0.535   2.209   5.955 -0.2250 -0.6018  0.6428
 6151SOL    HW129915   0.619   2.247   5.979 -0.2999 -0.9985  1.5332
 6151SOL    HW229916   0.476   2.242   6.023 -1.5629 -1.3883 -0.1161
 6152SOL     OW29917   3.986   0.150   4.022 -0.0601 -0.0385  1.4675
 6152SOL    HW129918   4.075   0.133   3.991 -0.2477  1.3275  0.1419
 6152SOL    HW229919   3.951   0.217   3.963 -0.4879 -1.0911  0.5391
 6153SOL     OW29920   0.443   0.751   8.554 -0.4400 -0.7207  0.4418
 6153SOL    HW129921   0.403   0.697   8.486 -0.9272  0.5416 -0.2768
 6153SOL    HW229922   0.477   0.679   8.606  2.9336  0.3779 -0.2300
 6154SOL     OW29923   2.389   3.191  17.304 -0.0183  0.2717  0.2477
 6154SOL    HW129924   2.357   3.183  17.214  0.1722 -1.0354  0.2908
 6154SOL    HW229925   2.426   3.278  17.292  0.7994 -0.0079  0.7451
 6155SOL     OW29926   1.822   0.239   2.875 -0.1033 -0.0915 -0.0294
 6155SOL    HW129927   1.873   0.288   2.939 -0.3579  0.2047 -0.0503
 6155SOL    HW229928   1.756   0.306   2.858  1.2096  1.5646  1.3851
 6156SOL     OW29929   1.318   2.342  17.680  0.1872 -0.3800 -0.3401
 6156SOL    HW129930   1.366   2.414  17.637 -1.8397  1.0435 -0.2010
 6156SOL    HW229931   1.339   2.277  17.613  1.0310 -0.8094  0.3449
 6157SOL     OW29932   4.498   4.577   9.350 -0.5515 -0.2806  0.7906
 6157SOL    HW129933   4.569   4.520   9.321  1.3958  3.6223 -2.0850
 6157SOL    HW229934   4.488   4.561   9.444  0.6738  0.6325  1.0789
 6158SOL     OW29935   2.747   2.653   8.659  0.4497  0.3694  0.1733
 6158SOL    HW129936   2.829   2.682   8.697  1.6470 -1.0153 -1.3192
 6158SOL    HW229937   2.685   2.705   8.709  1.5256  1.3649  0.4755
 6159SOL     OW29938   3.457   1.737  12.175  0.0006  0.8678 -0.1390
 6159SOL    HW129939   3.512   1.815  12.163 -1.3969  1.7691 -0.7721
 6159SOL    HW229940   3.491   1.672  12.115  0.4231 -1.7887  3.0061
 6160SOL     OW29941   1.612   3.081   3.036 -0.8600  0.0609 -0.3534
 6160SOL    HW129942   1.602   3.026   2.959 -0.5459  1.0402 -1.0930
 6160SOL    HW229943   1.557   3.156   3.013  1.3260  2.1658  1.2563
 6161SOL     OW29944   0.500   4.173   2.644 -0.2879  0.4209  0.0660
 6161SOL    HW129945   0.567   4.163   2.577 -2.0974  0.9872 -1.8531
 6161SOL    HW229946   0.544   4.217   2.717  0.6278  0.8653 -0.7650
 6162SOL     OW29947   3.470   0.066   1.411  0.1063 -0.5117 -0.6939
 6162SOL    HW129948   3.377   0.071   1.432 -0.1560 -0.6095 -1.8448
 6162SOL    HW229949   3.497   4.713   1.467 -2.1525 -2.1554 -1.7701
 6163SOL     OW29950   3.075   2.890   4.019 -0.2749  0.0828 -0.5310
 6163SOL    HW129951   3.034   2.855   3.940 -1.4549  2.1070 -0.8209
 6163SOL    HW229952   3.086   2.981   3.992 -1.2048 -0.0046 -1.2096
 6164SOL     OW29953   2.444   0.304  14.325  0.3886  0.2532 -0.1587
 6164SOL    HW129954   2.353   0.333  14.325  0.4443  0.4136  1.1659
 6164SOL    HW229955   2.484   0.368  14.384  0.8771  0.4845 -0.7332
 6165SOL     OW29956   1.400   2.259   6.753 -0.4110  0.6014 -0.4259
 6165SOL    HW129957   1.326   2.319   6.743  0.0083  1.1719 -0.0762
 6165SOL    HW229958   1.469   2.315   6.788  0.3934 -0.2228 -0.6821
 6166SOL     OW29959   1.048   1.148   6.049 -0.6930 -0.4174  0.1003
 6166SOL    HW129960   1.000   1.066   6.035 -1.8156 -0.0638  1.8490
 6166SOL    HW229961   0.971   1.197   6.078 -1.4480 -0.9757 -0.9423
 6167SOL     OW29962   2.762   1.379  16.827 -0.3250  0.5358 -0.1442
 6167SOL    HW129963   2.741   1.428  16.747  0.2993 -1.9791 -1.8545
 6167SOL    HW229964   2.782   1.455  16.881  0.7594 -0.0103  0.2297
 6168SOL     OW29965   2.262   2.043   5.384  0.7519 -0.3273  0.2349
 6168SOL    HW129966   2.293   1.957   5.354  0.3276 -0.7030  0.8547
 6168SOL    HW229967   2.335   2.100   5.358  1.9338 -2.2993 -0.7751
 6169SOL     OW29968   1.776   4.119   3.407 -0.4816  0.3525  0.4443
 6169SOL    HW129969   1.855   4.151   3.450  0.6162 -0.4122 -1.0307
 6169SOL    HW229970   1.775   4.172   3.328 -0.6324 -1.4386 -0.7600
 6170SOL     OW29971   2.683   2.836  15.442 -0.1096 -0.1295  0.0887
 6170SOL    HW129972   2.721   2.885  15.368 -0.6636 -1.5560 -1.1498
 6170SOL    HW229973   2.636   2.906  15.487  0.9463  0.1527  0.7464
 6171SOL     OW29974   2.374   2.655   3.016  0.1942  0.5458 -0.3341
 6171SOL    HW129975   2.386   2.684   3.106  0.6992  1.1925 -0.6150
 6171SOL    HW229976   2.283   2.626   3.028  0.0102  1.3156  0.1235
 6172SOL     OW29977   3.102   0.533   5.756 -0.3841 -0.1169 -0.0621
 6172SOL    HW129978   3.116   0.509   5.848 -2.9333 -0.9662  0.1157
 6172SOL    HW229979   3.042   0.608   5.760 -1.0007 -0.5984 -0.2805
 6173SOL     OW29980   1.388   0.565  15.560  0.3093 -0.7025 -0.3593
 6173SOL    HW129981   1.408   0.472  15.573 -1.2069 -0.6052  2.8424
 6173SOL    HW229982   1.328   0.554  15.487 -0.8392  0.0517  0.4614
 6174SOL     OW29983   0.627   3.768  14.289 -0.3307  0.1889 -0.2882
 6174SOL    HW129984   0.707   3.718  14.306 -2.2317 -2.6259  0.4252
 6174SOL    HW229985   0.645   3.836  14.354 -0.3163 -1.0191  0.9823
 6175SOL     OW29986   0.092   2.872   5.933 -0.3997 -0.3080  0.6242
 6175SOL    HW129987   0.047   2.826   6.004 -0.2068  2.8448  2.7641
 6175SOL    HW229988   0.176   2.903   5.967 -1.0689  1.4362  0.7219
 6176SOL     OW29989   1.189   3.329  10.116  0.6103  0.1973  0.0113
 6176SOL    HW129990   1.152   3.415  10.096  1.3585  0.3278 -0.7732
 6176SOL    HW229991   1.271   3.364  10.149  0.7550  0.7889 -0.9905
 6177SOL     OW29992   2.948   1.424   7.422  0.4884  0.1271 -0.4864
 6177SOL    HW129993   2.953   1.349   7.363  0.8386 -0.0226 -0.2688
 6177SOL    HW229994   3.030   1.472   7.414 -0.5294  1.6256 -1.8373
 6178SOL     OW29995   4.706   3.140  14.883 -0.1365  0.2554  0.1003
 6178SOL    HW129996   4.665   3.118  14.966  0.3196 -2.0105 -0.2782
 6178SOL    HW229997   4.688   3.234  14.873  1.7744  0.4427 -1.6468
 6179SOL     OW29998   2.652   1.791  12.912 -0.1857  0.2146 -0.4157
 6179SOL    HW129999   2.734   1.833  12.885  0.6239 -1.0448  0.0762
 6179SOL    HW230000   2.666   1.697  12.924 -2.4643 -0.1289 -0.4411
 6180SOL     OW30001   3.111   0.033   7.816 -0.3138 -0.2491  0.5990
 6180SOL    HW130002   3.160   0.098   7.766 -0.9856  0.6553  1.0955
 6180SOL    HW230003   3.049   4.715   7.753 -0.4722 -0.7194  1.0319
 6181SOL     OW30004   2.243   4.174   5.355  0.1878  0.0951  0.1861
 6181SOL    HW130005   2.312   4.217   5.407 -0.0520  0.7600 -0.0454
 6181SOL    HW230006   2.296   4.134   5.286 -0.1652  0.5759 -0.3630
 6182SOL     OW30007   0.157   3.512   7.916 -0.3404 -0.5076  0.2860
 6182SOL    HW130008   0.194   3.509   7.828  0.7031 -0.6573  0.7256
 6182SOL    HW230009   0.227   3.467   7.963 -1.0953 -1.5980  0.3837
 6183SOL     OW30010   3.029   2.663   0.467 -0.4899  0.1234 -0.0722
 6183SOL    HW130011   2.978   2.671   0.548  1.0433 -0.9510  1.0164
 6183SOL    HW230012   3.090   2.736   0.479 -1.5537  0.7378  1.5367
 6184SOL     OW30013   3.744   2.899   0.457 -0.0431 -0.9422  0.0881
 6184SOL    HW130014   3.734   2.812   0.497  0.6527 -1.0222  0.0947
 6184SOL    HW230015   3.668   2.947   0.488  0.7464 -0.0475  0.6170
 6185SOL     OW30016   3.518   2.117   6.753 -0.6889  0.2183  0.2145
 6185SOL    HW130017   3.554   2.111   6.665  1.3761  2.8226  0.8827
 6185SOL    HW230018   3.586   2.167   6.797 -1.9709 -0.8168  3.3592
 6186SOL     OW30019   2.382   0.986   8.725 -0.3067  0.3228  0.2015
 6186SOL    HW130020   2.414   0.896   8.735 -0.6007 -0.0734 -2.3024
 6186SOL    HW230021   2.439   1.037   8.781  0.8486  2.4425 -2.8908
 6187SOL     OW30022   3.664   4.659   6.683 -0.3095 -0.1504 -0.4279
 6187SOL    HW130023   3.731   4.593   6.701  0.7950  0.7019 -1.3861
 6187SOL    HW230024   3.659   4.662   6.587  0.4728  0.6252 -0.4474
 6188SOL     OW30025   3.089   0.915   8.043 -0.5619  0.1232 -0.0728
 6188SOL    HW130026   3.120   0.827   8.066  2.4096  0.8581 -1.2737
 6188SOL    HW230027   3.025   0.889   7.977  0.7462  1.6552 -1.9362
 6189SOL     OW30028   2.381   3.148   4.886  0.7320 -0.3182  0.4816
 6189SOL    HW130029   2.340   3.141   4.800 -0.6065  0.6601  1.0507
 6189SOL    HW230030   2.359   3.233   4.923 -0.5873 -1.1630  1.6344
 6190SOL     OW30031   1.466   1.790   2.678 -0.3062  0.1764 -0.1679
 6190SOL    HW130032   1.494   1.819   2.765 -0.5052 -4.5985  1.4741
 6190SOL    HW230033   1.452   1.698   2.698  1.2069 -0.2165 -0.9405
 6191SOL     OW30034   0.607   4.502  14.321  0.5515  0.3715 -0.1807
 6191SOL    HW130035   0.563   4.510  14.406 -1.1765 -0.8260 -0.9533
 6191SOL    HW230036   0.674   4.438  14.345 -0.0563 -0.1408  0.1449
 6192SOL     OW30037   3.404   1.751   9.741 -0.0072  0.8185 -0.1817
 6192SOL    HW130038   3.325   1.722   9.695  0.3750 -1.2781  0.5040
 6192SOL    HW230039   3.367   1.817   9.800 -0.4262  0.2663  0.1692
 6193SOL     OW30040   3.570   1.354  13.673  0.3578  0.3614 -0.1359
 6193SOL    HW130041   3.514   1.419  13.715 -1.6056 -0.5531 -1.3444
 6193SOL    HW230042   3.531   1.268  13.690 -0.7900  0.5886 -1.5713
 6194SOL     OW30043   0.591   2.929   5.390 -0.2901  0.2174 -0.1560
 6194SOL    HW130044   0.568   2.955   5.301  1.6360  1.0880 -0.4104
 6194SOL    HW230045   0.676   2.885   5.379 -0.6199 -0.1248 -1.4096
 6195SOL     OW30046   0.939   3.155   3.949  0.4037  0.0609 -0.3620
 6195SOL    HW130047   0.890   3.074   3.932 -0.3159  0.5247 -0.5351
 6195SOL    HW230048   1.026   3.126   3.973  0.6970  0.2282 -1.2130
 6196SOL     OW30049   2.183   3.446   7.217 -0.2229  0.2252  0.5665
 6196SOL    HW130050   2.157   3.356   7.196 -0.0963  0.7403 -1.7980
 6196SOL    HW230051   2.274   3.424   7.241  0.4042 -0.7960 -2.6855
 6197SOL     OW30052   2.622   4.068   3.622 -0.0221 -0.3489 -0.0029
 6197SOL    HW130053   2.612   3.988   3.673  2.3986 -1.5371 -1.4101
 6197SOL    HW230054   2.615   4.145   3.678  0.2528 -0.4484  0.1677
 6198SOL     OW30055   3.237   3.246  10.016 -0.5983  1.3489  0.7085
 6198SOL    HW130056   3.274   3.291  10.092 -2.5423  3.3133  0.5022
 6198SOL    HW230057   3.232   3.322   9.957  2.7160  1.9116  1.1613
 6199SOL     OW30058   2.844   4.557   6.961 -0.2755  0.1280 -0.0576
 6199SOL    HW130059   2.781   4.535   7.029  0.8052 -0.6605  0.6867
 6199SOL    HW230060   2.795   4.537   6.882  0.9850  2.1794 -1.3761
 6200SOL     OW30061   1.888   3.087   2.200 -0.2449 -0.2284  0.9627
 6200SOL    HW130062   1.921   3.148   2.135 -0.9624 -0.5136  0.3359
 6200SOL    HW230063   1.880   3.012   2.141 -0.5448  0.0913  0.5976
 6201SOL     OW30064   0.496   4.525  11.368  0.4775 -0.3843 -0.1186
 6201SOL    HW130065   0.557   4.563  11.431 -1.0386  1.6050  0.1448
 6201SOL    HW230066   0.414   4.557  11.406  0.6068 -1.0032  0.6640
 6202SOL     OW30067   1.287   1.194   7.034  0.4899 -0.0481  0.4227
 6202SOL    HW130068   1.235   1.238   6.967  0.7369  1.6782  1.3727
 6202SOL    HW230069   1.261   1.236   7.116  0.0605 -1.7036  1.1257
 6203SOL     OW30070   1.798   1.207   4.104  0.2415  0.0406  0.2611
 6203SOL    HW130071   1.888   1.224   4.132  0.9255 -1.5135 -1.0373
 6203SOL    HW230072   1.794   1.249   4.018 -0.5926  0.6066  0.5630
 6204SOL     OW30073   2.427   3.894   7.351 -0.1563 -0.1411 -0.4470
 6204SOL    HW130074   2.369   3.834   7.398  0.2717  0.6780  1.0886
 6204SOL    HW230075   2.377   3.973   7.330 -0.0765  0.6021  2.2426
 6205SOL     OW30076   3.479   2.990   4.990 -0.3713  0.0221 -0.1426
 6205SOL    HW130077   3.407   2.964   5.047  0.0248  1.4860  1.0357
 6205SOL    HW230078   3.432   3.025   4.914  0.4458 -1.2730 -1.2524
 6206SOL     OW30079   3.721   1.223  16.817  0.2704 -0.4152 -0.2168
 6206SOL    HW130080   3.789   1.229  16.884  0.0782  0.1228 -0.0725
 6206SOL    HW230081   3.772   1.160  16.765 -0.1544 -2.0887  1.3849
 6207SOL     OW30082   0.228   3.326   4.201  0.1915  0.2098  0.1712
 6207SOL    HW130083   0.268   3.394   4.146  0.6632  0.4468  0.7901
 6207SOL    HW230084   0.219   3.365   4.289 -0.9767 -0.6998  0.4417
 6208SOL     OW30085   4.479   1.188   3.415  0.0526  0.2782  0.2337
 6208SOL    HW130086   4.508   1.132   3.343  3.1650 -0.7162  2.2491
 6208SOL    HW230087   4.490   1.276   3.378  0.3349 -0.3282 -1.1317
 6209SOL     OW30088   1.174   1.317   4.987  0.1755  0.5050  0.3433
 6209SOL    HW130089   1.166   1.315   5.082  0.6352 -2.4652  0.3078
 6209SOL    HW230090   1.084   1.321   4.955  0.3932  3.7051  0.1542
 6210SOL     OW30091   0.907   2.147   5.086 -0.4809 -0.7216  0.3478
 6210SOL    HW130092   0.945   2.059   5.076  0.1125 -0.2659 -1.4455
 6210SOL    HW230093   0.838   2.140   5.152  1.9016  0.4127  2.9628
 6211SOL     OW30094   0.860   2.973   6.784  0.5332 -0.2788 -0.1976
 6211SOL    HW130095   0.948   2.934   6.788 -0.0640 -1.5174  0.7221
 6211SOL    HW230096   0.814   2.913   6.725  1.6042  0.9690 -2.3165
 6212SOL     OW30097   3.800   0.435   3.880 -0.4233  0.3636 -0.2997
 6212SOL    HW130098   3.710   0.455   3.854 -1.4523 -0.9906  2.1826
 6212SOL    HW230099   3.828   0.382   3.806 -2.0847  2.1747 -2.2373
 6213SOL     OW30100   1.616   4.488   6.840 -0.1497 -0.0971 -0.0062
 6213SOL    HW130101   1.600   4.572   6.799  2.2766  0.6316  0.5666
 6213SOL    HW230102   1.528   4.457   6.862 -0.2473 -0.1777 -0.5278
 6214SOL     OW30103   1.292   0.827   0.148  0.4988  0.2327 -0.0611
 6214SOL    HW130104   1.255   0.905   0.189 -1.6455 -1.1744  0.7020
 6214SOL    HW230105   1.331   0.863   0.069  0.5022  2.7077  1.0565
 6215SOL     OW30106   3.479   0.381   6.291  0.1245 -0.0581 -0.2414
 6215SOL    HW130107   3.434   0.410   6.370  2.4487  1.2667  0.6066
 6215SOL    HW230108   3.440   0.294   6.281 -1.2215  0.4224  0.8991
 6216SOL     OW30109   0.138   4.147   3.050 -0.3139 -0.0162 -0.4172
 6216SOL    HW130110   0.175   4.137   2.963  1.1265  2.7312 -0.1222
 6216SOL    HW230111   0.067   4.083   3.039 -1.4284  0.7144  2.5407
 6217SOL     OW30112   2.060   0.489   2.954 -0.1226 -0.3419  0.8684
 6217SOL    HW130113   2.086   0.550   3.023  1.1591  1.0802 -0.8729
 6217SOL    HW230114   2.027   0.552   2.890  1.1511 -2.0033 -1.4351
 6218SOL     OW30115   2.740   4.520   3.428 -0.1349 -0.3605  0.4408
 6218SOL    HW130116   2.669   4.544   3.368  0.0670  1.0363  0.7571
 6218SOL    HW230117   2.763   4.609   3.457 -0.5782 -0.4563  1.0981
 6219SOL     OW30118   2.492   2.313   6.534 -0.5014 -0.7352 -0.1430
 6219SOL    HW130119   2.569   2.287   6.483  0.7949  0.2563  1.2857
 6219SOL    HW230120   2.459   2.391   6.490  3.1512  0.3169 -1.0676
 6220SOL     OW30121   4.367   3.484   1.478  0.2748  0.0015 -0.3574
 6220SOL    HW130122   4.331   3.539   1.548  0.0768 -0.1907 -0.3078
 6220SOL    HW230123   4.352   3.533   1.397  1.0242  1.1984  0.2336
 6221SOL     OW30124   3.090   3.914  10.612 -0.0522 -0.6981  0.2012
 6221SOL    HW130125   3.184   3.899  10.624  0.5460  0.6601 -2.6887
 6221SOL    HW230126   3.087   3.925  10.517 -1.0873 -2.6036  0.0170
 6222SOL     OW30127   3.725   1.148   7.710  0.2389 -0.3486 -0.6030
 6222SOL    HW130128   3.680   1.219   7.756 -0.0811 -1.1630  0.3391
 6222SOL    HW230129   3.815   1.177   7.723  0.8329 -1.8195 -1.4048
 6223SOL     OW30130   3.705   4.053  16.775  0.0548  1.0082 -0.1593
 6223SOL    HW130131   3.709   4.142  16.809 -2.9218  1.2598 -0.5099
 6223SOL    HW230132   3.765   4.009  16.835  1.2076  2.6554 -0.1200
 6224SOL     OW30133   1.756   2.851   6.296 -0.2059 -0.5303 -0.0371
 6224SOL    HW130134   1.813   2.828   6.368 -2.1423 -1.0511  1.3308
 6224SOL    HW230135   1.699   2.913   6.342  1.1885  0.6897  0.0309
 6225SOL     OW30136   4.487   3.830  12.771 -0.6521 -0.1764 -0.1606
 6225SOL    HW130137   4.461   3.820  12.679  1.3226  0.4156 -0.7981
 6225SOL    HW230138   4.577   3.857  12.750 -0.2618  0.1034  1.8734
 6226SOL     OW30139   2.355   0.492   8.912  0.2325 -0.3448  0.5746
 6226SOL    HW130140   2.419   0.465   8.846 -1.0893  1.1919 -1.3213
 6226SOL    HW230141   2.305   0.410   8.918  1.1832 -1.1282 -2.2410
 6227SOL     OW30142   1.899   3.668  17.301  0.0503  0.8448  0.0884
 6227SOL    HW130143   1.986   3.702  17.318  2.0748 -3.9835 -0.5222
 6227SOL    HW230144   1.876   3.640  17.390 -2.2616 -0.6073 -0.9666
 6228SOL     OW30145   1.668   3.193  16.740 -0.2715  0.1278  0.5880
 6228SOL    HW130146   1.708   3.106  16.738 -0.3099  0.1371 -0.3241
 6228SOL    HW230147   1.602   3.195  16.671 -0.3598 -0.8251  0.6421
 6229SOL     OW30148   0.277   1.833   7.222 -0.5067  0.1654  0.0135
 6229SOL    HW130149   0.240   1.748   7.199 -0.9151  0.7872 -1.6449
 6229SOL    HW230150   0.205   1.871   7.272  0.3548  1.1842  0.4944
 6230SOL     OW30151   2.340   1.203   5.089 -0.1894 -0.0917  0.0764
 6230SOL    HW130152   2.317   1.216   5.181  0.3133 -3.8304  0.7155
 6230SOL    HW230153   2.267   1.239   5.037  0.8284  1.2951 -0.4058
 6231SOL     OW30154   2.146   4.608   4.921  0.0710 -0.3580  0.1745
 6231SOL    HW130155   2.090   4.573   4.852 -2.3312  4.6033 -0.4045
 6231SOL    HW230156   2.143   4.533   4.980 -1.8320 -1.5091 -1.4093
 6232SOL     OW30157   2.912   2.090   3.694 -0.7954  0.0858  0.4559
 6232SOL    HW130158   2.925   2.164   3.634 -1.7294  0.0728  0.2378
 6232SOL    HW230159   2.991   2.040   3.675 -0.1588  0.5217  1.9295
 6233SOL     OW30160   2.269   3.882  14.394 -0.0014  0.2029  0.0039
 6233SOL    HW130161   2.294   3.791  14.410  2.0379  0.8872  0.6935
 6233SOL    HW230162   2.252   3.872  14.300 -0.9722 -1.1068  0.3252
 6234SOL     OW30163   1.507   0.222  16.194  0.0065  0.1889 -0.2435
 6234SOL    HW130164   1.591   0.248  16.158 -0.2615  0.5445 -0.6070
 6234SOL    HW230165   1.512   0.131  16.222  0.0282  0.9310  2.1341
 6235SOL     OW30166   0.448   3.431   9.828 -0.0172 -0.3396 -0.3738
 6235SOL    HW130167   0.510   3.503   9.833 -0.1478 -0.1766 -1.1660
 6235SOL    HW230168   0.379   3.471   9.776 -0.4018 -0.6058 -0.0665
 6236SOL     OW30169   3.871   4.618  13.618 -0.3377  0.0130 -0.4588
 6236SOL    HW130170   3.877   4.619  13.522  0.0786 -0.0059 -0.4312
 6236SOL    HW230171   3.868   4.524  13.632 -1.5955 -0.1373 -1.7168
 6237SOL     OW30172   3.990   3.020  13.439 -0.0787  0.5818  0.5341
 6237SOL    HW130173   4.029   3.107  13.437 -2.6173  1.6929 -0.5412
 6237SOL    HW230174   4.044   2.969  13.378 -1.0001 -0.9495  1.0081
 6238SOL     OW30175   3.412   1.828   3.665 -0.8728 -0.1766  0.2837
 6238SOL    HW130176   3.375   1.775   3.595 -0.9007  0.5043 -0.2223
 6238SOL    HW230177   3.412   1.913   3.619  1.1591 -1.3853 -1.9083
 6239SOL     OW30178   2.235   2.580   6.699 -0.2302 -1.1216  0.5826
 6239SOL    HW130179   2.257   2.617   6.785 -0.4238 -1.2809  0.7006
 6239SOL    HW230180   2.140   2.582   6.703 -0.2146  2.9595 -0.3982
 6240SOL     OW30181   3.006   3.597   7.990 -0.1176  0.2003 -0.1108
 6240SOL    HW130182   2.915   3.622   7.976 -0.0600  1.2780  1.5183
 6240SOL    HW230183   3.045   3.664   8.046  2.1779 -1.2241 -0.0092
 6241SOL     OW30184   0.385   1.434   4.393  0.3776  0.0962  0.0771
 6241SOL    HW130185   0.319   1.406   4.329 -0.2497  0.1868  0.6784
 6241SOL    HW230186   0.400   1.523   4.361  0.2348 -0.0882 -0.5118
 6242SOL     OW30187   0.403   0.894   5.875 -0.4053 -0.4851  0.7309
 6242SOL    HW130188   0.454   0.830   5.826  2.0380  1.9538  0.0321
 6242SOL    HW230189   0.320   0.879   5.831  0.8391  0.5466 -1.9715
 6243SOL     OW30190   3.258   1.291  12.525 -0.0799 -0.2135 -0.1145
 6243SOL    HW130191   3.183   1.335  12.486 -0.0799 -1.5047 -1.5532
 6243SOL    HW230192   3.308   1.365  12.560 -0.6716 -0.8177  2.0549
 6244SOL     OW30193   0.487   1.571   7.888 -0.1926  0.1618  0.5320
 6244SOL    HW130194   0.527   1.646   7.845  0.8411 -2.2480 -2.6930
 6244SOL    HW230195   0.571   1.538   7.921  1.1395  2.1832 -0.8309
 6245SOL     OW30196   0.474   4.008   6.849  0.6503  0.5796  0.7187
 6245SOL    HW130197   0.429   4.092   6.857 -1.5822 -0.1694 -4.1368
 6245SOL    HW230198   0.452   3.968   6.933 -0.7452 -2.1350 -0.9365
 6246SOL     OW30199   3.326   4.110  11.850  0.4904 -0.7294  0.3732
 6246SOL    HW130200   3.239   4.099  11.890  0.1167 -1.6804 -0.7041
 6246SOL    HW230201   3.356   4.020  11.858 -0.0277 -0.6121  3.9469
 6247SOL     OW30202   2.228   3.319  14.484  0.1143  0.4148 -0.3133
 6247SOL    HW130203   2.166   3.265  14.434  0.1381 -0.9466  1.1265
 6247SOL    HW230204   2.308   3.272  14.462 -0.0366  1.1936 -2.5777
 6248SOL     OW30205   1.539   1.792   6.749  0.2823  0.2280 -0.2691
 6248SOL    HW130206   1.584   1.868   6.786 -1.5212  1.9637 -1.6441
 6248SOL    HW230207   1.470   1.829   6.694 -0.9926  1.2951  2.0366
 6249SOL     OW30208   1.087   4.630   2.876  0.8235  0.0874 -0.4457
 6249SOL    HW130209   1.174   4.669   2.878  0.5316  0.8261 -2.2825
 6249SOL    HW230210   1.036   4.711   2.879  0.8319 -0.0589  3.9544
 6250SOL     OW30211   2.626   3.405  16.989  0.1554 -0.6393 -0.3166
 6250SOL    HW130212   2.612   3.380  16.898  1.1135  0.1580 -0.6922
 6250SOL    HW230213   2.721   3.394  16.998  0.0985 -0.1279  1.0241
 6251SOL     OW30214   4.006   4.683  17.143 -0.1210 -0.0383 -0.0604
 6251SOL    HW130215   4.067   4.657  17.212 -1.7371  2.0582  2.1353
 6251SOL    HW230216   4.048   0.045  17.115 -0.2412  1.1811  3.2891
 6252SOL     OW30217   0.924   4.404   6.808  0.3669 -0.5410 -0.2027
 6252SOL    HW130218   0.989   4.334   6.810  0.1559 -0.6715  2.8691
 6252SOL    HW230219   0.854   4.351   6.770 -0.4653 -0.6327  1.4495
 6253SOL     OW30220   2.789   1.716   2.366  0.0640  0.0523  0.3981
 6253SOL    HW130221   2.721   1.654   2.338  0.2316 -0.0898  0.3046
 6253SOL    HW230222   2.810   1.762   2.285 -0.5694  0.3710  0.4124
 6254SOL     OW30223   3.576   1.898   4.929 -0.5618 -0.1449 -0.5754
 6254SOL    HW130224   3.615   1.966   4.874 -0.8889 -0.3617 -1.0752
 6254SOL    HW230225   3.542   1.950   5.001  0.4653  0.6873 -0.6880
 6255SOL     OW30226   3.201   3.719   5.002  0.0230  0.3824  0.0727
 6255SOL    HW130227   3.114   3.744   5.033  0.6280 -0.2182  2.2697
 6255SOL    HW230228   3.227   3.778   4.931  0.7170  2.9005  2.4015
 6256SOL     OW30229   0.520   1.875   8.525 -0.3687 -0.1756 -0.0689
 6256SOL    HW130230   0.515   1.956   8.576  1.5804 -0.6183  0.8123
 6256SOL    HW230231   0.605   1.886   8.483  0.0171  0.0800  0.8029
 6257SOL     OW30232   4.435   4.172  12.506 -0.1919 -0.3958  0.1967
 6257SOL    HW130233   4.340   4.163  12.513  0.1331 -2.6231  1.8697
 6257SOL    HW230234   4.453   4.089  12.551  1.7288 -0.6537 -1.0193
 6258SOL     OW30235   1.798   3.182  11.194 -0.4264  0.5487  0.0249
 6258SOL    HW130236   1.876   3.237  11.201 -1.2497  1.5413  1.4914
 6258SOL    HW230237   1.796   3.169  11.099 -2.4809  0.6986  0.0501
 6259SOL     OW30238   3.922   1.592   7.572  0.4588  0.0060  0.0144
 6259SOL    HW130239   3.964   1.511   7.601 -1.1444 -0.1466  1.8563
 6259SOL    HW230240   3.911   1.633   7.657  0.4426  0.3716 -0.1624
 6260SOL     OW30241   0.947   0.380  10.916  0.1233  0.3437  0.0509
 6260SOL    HW130242   0.931   0.287  10.897 -2.1104  0.5184  1.0189
 6260SOL    HW230243   1.028   0.381  10.966 -0.7342  0.0585  1.4369
 6261SOL     OW30244   1.205   0.963   3.910  0.3173 -0.0246 -0.3775
 6261SOL    HW130245   1.126   0.948   3.961  1.3217 -0.6532  0.9951
 6261SOL    HW230246   1.257   0.884   3.925  2.0011  1.1318 -0.0224
 6262SOL     OW30247   4.564   1.030   6.352 -0.4848  0.1529 -0.0813
 6262SOL    HW130248   4.634   1.085   6.316  0.3524 -0.3414  0.8057
 6262SOL    HW230249   4.494   1.035   6.288  0.5092  3.2073 -0.9534
 6263SOL     OW30250   3.709   4.625   7.229  0.1073  0.3002  0.3887
 6263SOL    HW130251   3.689   4.552   7.170 -0.2036  1.4256 -0.8944
 6263SOL    HW230252   3.631   4.632   7.284 -0.3411 -0.7243 -0.1115
 6264SOL     OW30253   0.307   0.073   6.536  0.6779  0.1967 -0.3032
 6264SOL    HW130254   0.322   0.149   6.592  1.4293 -1.8140  2.2064
 6264SOL    HW230255   0.378   0.085   6.473  0.6684 -0.3291 -0.4088
 6265SOL     OW30256   2.077   0.241  16.734 -0.2255  0.3337  0.7111
 6265SOL    HW130257   2.029   0.229  16.652 -0.5819  0.5559  0.8897
 6265SOL    HW230258   2.026   0.188  16.796 -0.4415  1.9411  1.8979
 6266SOL     OW30259   1.163   4.146   6.422 -0.3578 -0.4794 -0.7724
 6266SOL    HW130260   1.082   4.193   6.403  0.4221  1.5680  0.9620
 6266SOL    HW230261   1.131   4.056   6.418 -1.4139 -0.1068 -0.8508
 6267SOL     OW30262   4.105   0.492   7.253  0.1778 -0.0265 -0.3219
 6267SOL    HW130263   4.070   0.406   7.229  2.5984 -0.8744 -0.8532
 6267SOL    HW230264   4.143   0.479   7.340 -0.7544  1.2197  0.2554
 6268SOL     OW30265   1.500   1.509  14.760  0.4605 -0.7984 -0.1063
 6268SOL    HW130266   1.479   1.580  14.699 -3.8619 -2.5711 -0.7040
 6268SOL    HW230267   1.595   1.520  14.760  0.7310 -3.1163 -0.3288
 6269SOL     OW30268   0.658   4.054  10.051  0.2639  0.1989  0.1807
 6269SOL    HW130269   0.602   3.978  10.042  0.4375  0.2614 -1.4546
 6269SOL    HW230270   0.738   4.006  10.073 -0.2888 -1.8188 -2.2817
 6270SOL     OW30271   0.478   1.548   2.655 -0.4009 -0.7222  0.1969
 6270SOL    HW130272   0.444   1.459   2.658  0.3991 -1.0770 -1.1938
 6270SOL    HW230273   0.487   1.561   2.749  0.5440  0.4410 -0.0568
 6271SOL     OW30274   2.869   0.837   4.880 -0.1977  0.1405  0.1324
 6271SOL    HW130275   2.936   0.836   4.949 -0.0589  1.2350  0.0039
 6271SOL    HW230276   2.792   0.827   4.936 -0.1273  0.7876  0.3478
 6272SOL     OW30277   3.287   3.756  13.038  0.1409 -0.2884 -0.1659
 6272SOL    HW130278   3.363   3.736  13.093 -1.1304 -2.8349  0.6354
 6272SOL    HW230279   3.256   3.827  13.095  0.3325 -0.0029 -0.4158
 6273SOL     OW30280   2.005   1.158   5.425 -0.0997  0.2234  0.4456
 6273SOL    HW130281   2.089   1.190   5.393  0.2732 -0.6314  0.5548
 6273SOL    HW230282   1.946   1.232   5.440  0.0357  0.4457 -0.1149
 6274SOL     OW30283   0.215   3.335   6.760 -0.0786 -0.7942  0.2643
 6274SOL    HW130284   0.310   3.336   6.766 -0.0953 -1.0725  0.5094
 6274SOL    HW230285   0.186   3.338   6.851 -1.7545  0.8403 -0.3143
 6275SOL     OW30286   1.250   1.131   1.987  0.5373 -0.2525 -0.2008
 6275SOL    HW130287   1.262   1.137   1.892  0.0252  1.0014 -0.1953
 6275SOL    HW230288   1.340   1.149   2.015 -0.2552  1.9291  1.0236
 6276SOL     OW30289   3.610   1.932   5.631  0.5980 -0.2261 -0.4486
 6276SOL    HW130290   3.660   1.858   5.597  1.5508 -0.1017  0.7064
 6276SOL    HW230291   3.643   1.944   5.720 -0.1361 -0.9002 -0.0886
 6277SOL     OW30292   3.677   1.106   6.411 -0.2866  0.1304  0.4397
 6277SOL    HW130293   3.771   1.091   6.405 -0.1086  0.5109  2.0981
 6277SOL    HW230294   3.674   1.197   6.382 -0.3145  0.2855  0.9304
 6278SOL     OW30295   0.143   4.710   4.836 -0.4947 -0.5955  0.0913
 6278SOL    HW130296   0.206   4.664   4.892  2.6101 -0.0755 -2.9586
 6278SOL    HW230297   0.077   0.006   4.903 -0.8948 -1.9232  0.0147
 6279SOL     OW30298   2.249   3.589   0.196  0.2671 -0.1021  0.1036
 6279SOL    HW130299   2.321   3.532   0.169 -1.0955 -2.5551  1.7473
 6279SOL    HW230300   2.184   3.566   0.130  0.8848 -0.3629 -0.4201
 6280SOL     OW30301   2.331   0.369   8.594 -0.0243 -0.5287  0.4447
 6280SOL    HW130302   2.352   0.324   8.512 -0.9427  0.1458 -0.1593
 6280SOL    HW230303   2.346   0.293   8.650  0.0016  0.2238  1.4532
 6281SOL     OW30304   4.171   4.449  16.985  0.7095  0.2741 -0.1037
 6281SOL    HW130305   4.127   4.520  17.032 -0.2463  0.8868 -1.9312
 6281SOL    HW230306   4.256   4.458  17.027 -0.3399 -0.6234  2.2171
 6282SOL     OW30307   0.620   3.436   1.382  0.9115  0.1577 -0.2024
 6282SOL    HW130308   0.544   3.396   1.425  0.2042  1.4378 -0.2713
 6282SOL    HW230309   0.671   3.354   1.376  1.8164  0.8124 -1.6814
 6283SOL     OW30310   0.161   4.076  17.155  0.1472 -0.3057  0.6782
 6283SOL    HW130311   0.198   4.099  17.070  2.3626 -0.7669  1.5383
 6283SOL    HW230312   0.067   4.084  17.135  0.8927  1.2327 -2.1833
 6284SOL     OW30313   0.119   4.344   1.143  0.2525 -0.1034 -0.3118
 6284SOL    HW130314   0.076   4.430   1.142  1.7648  0.6583  1.0661
 6284SOL    HW230315   0.189   4.381   1.196  0.1773  0.6870 -0.7569
 6285SOL     OW30316   4.094   2.788   4.069 -0.0466 -0.2660  1.0173
 6285SOL    HW130317   4.117   2.875   4.103 -0.4793 -0.5014  1.9331
 6285SOL    HW230318   4.177   2.766   4.027 -0.5072  1.2342 -0.6582
 6286SOL     OW30319   1.083   0.336  17.551  0.3804 -0.0863 -0.1710
 6286SOL    HW130320   1.156   0.383  17.591 -0.8417  0.3048  1.5859
 6286SOL    HW230321   1.097   0.250  17.592  1.6217 -0.2412 -0.9228
 6287SOL     OW30322   3.996   0.849  17.495 -0.3521 -0.8915  0.0806
 6287SOL    HW130323   3.954   0.839  17.409  2.1330  1.1880 -1.3783
 6287SOL    HW230324   4.071   0.791  17.487 -1.0712 -1.7229 -0.6251
 6288SOL     OW30325   0.855   2.669   5.853  0.4369 -0.4182  0.0442
 6288SOL    HW130326   0.775   2.656   5.802  1.2200 -0.7789 -1.0977
 6288SOL    HW230327   0.845   2.760   5.881  0.5692 -0.6330  0.7833
 6289SOL     OW30328   2.080   2.142  11.153 -0.6124 -0.0786 -0.0651
 6289SOL    HW130329   1.992   2.107  11.164 -0.2197 -1.3748 -1.0088
 6289SOL    HW230330   2.103   2.174  11.240 -0.8530  0.6704 -0.2693
 6290SOL     OW30331   2.178   3.402   3.827 -1.1697  0.6387 -0.2630
 6290SOL    HW130332   2.182   3.402   3.731 -0.7585 -1.2549 -0.2357
 6290SOL    HW230333   2.108   3.338   3.840 -1.2679  0.4409 -1.7788
 6291SOL     OW30334   1.493   2.250   7.358 -0.5344 -0.0040 -0.2102
 6291SOL    HW130335   1.541   2.187   7.306  1.2790  1.0796  0.1722
 6291SOL    HW230336   1.421   2.279   7.301 -0.7286 -2.8396 -1.4341
 6292SOL     OW30337   3.337   3.922   0.190  0.1660  0.4373  0.0986
 6292SOL    HW130338   3.377   4.000   0.227 -1.3405  1.1224  0.2786
 6292SOL    HW230339   3.411   3.862   0.184  1.1042  1.5028  1.2770
 6293SOL     OW30340   1.533   4.158   3.615  0.1318 -0.5813  0.7446
 6293SOL    HW130341   1.528   4.221   3.687 -0.0696 -1.5374  1.5652
 6293SOL    HW230342   1.623   4.126   3.622  1.2948  2.3053 -0.9595
 6294SOL     OW30343   0.380   2.636  11.944  0.2732  0.1449  0.2178
 6294SOL    HW130344   0.323   2.667  12.015  0.6822 -1.8528  1.4287
 6294SOL    HW230345   0.318   2.642  11.872 -0.1947  1.7438  0.7714
 6295SOL     OW30346   2.421   1.925  12.882 -0.0412 -0.0941  0.3202
 6295SOL    HW130347   2.497   1.868  12.899  0.4988  0.4920 -0.1178
 6295SOL    HW230348   2.447   1.987  12.813  1.1186 -1.5403 -0.5383
 6296SOL     OW30349   1.102   3.027   5.367 -0.6049 -0.1840  0.5617
 6296SOL    HW130350   1.037   2.960   5.389 -1.3551  0.3550 -0.0201
 6296SOL    HW230351   1.124   3.000   5.278 -0.0516 -0.8804  0.9171
 6297SOL     OW30352   0.756   0.709   0.752  0.4936 -0.2953 -0.5390
 6297SOL    HW130353   0.734   0.649   0.681  1.5051  1.1971 -2.1186
 6297SOL    HW230354   0.827   0.752   0.705  0.6225  0.1553  0.0582
 6298SOL     OW30355   0.742   3.337   5.939  0.1226 -0.5146  0.0332
 6298SOL    HW130356   0.747   3.245   5.915  1.3863 -0.9529  1.9791
 6298SOL    HW230357   0.808   3.344   6.007  1.6663 -2.0472 -1.3244
 6299SOL     OW30358   2.391   3.549   8.931 -0.2243 -0.2149 -0.4153
 6299SOL    HW130359   2.448   3.471   8.928  0.8928  0.5965 -0.4433
 6299SOL    HW230360   2.334   3.516   9.001 -0.2077 -0.5379 -0.5523
 6300SOL     OW30361   2.818   3.312   9.047 -0.5343  0.0574 -0.5961
 6300SOL    HW130362   2.910   3.323   9.069 -0.5800 -1.0064  0.0918
 6300SOL    HW230363   2.769   3.384   9.086 -0.1913  0.4420 -0.8705
 6301SOL     OW30364   3.358   1.502  13.803 -0.3211 -0.2791 -0.4672
 6301SOL    HW130365   3.301   1.579  13.800  2.8695  2.0805 -0.2476
 6301SOL    HW230366   3.328   1.464  13.886 -2.9205  0.9961 -0.8236
 6302SOL     OW30367   3.229   4.691  14.013  0.0674 -0.5655  0.0311
 6302SOL    HW130368   3.253   4.692  13.920  0.4377 -2.5273  0.0836
 6302SOL    HW230369   3.308   0.006  14.055  0.5623 -0.1413 -1.2628
 6303SOL     OW30370   2.921   3.404  14.719  0.6426  0.3383 -0.0953
 6303SOL    HW130371   2.830   3.396  14.748  0.9978  0.3987  1.0503
 6303SOL    HW230372   2.956   3.469  14.780 -0.0864  0.8796 -0.2533
 6304SOL     OW30373   2.254   0.883   3.275 -0.1749  0.6329  0.2322
 6304SOL    HW130374   2.327   0.935   3.242 -1.8829  0.6131 -3.5981
 6304SOL    HW230375   2.291   0.795   3.275 -1.2164  0.1815 -1.5989
 6305SOL     OW30376   0.994   2.575   8.428 -0.2860 -0.0955 -0.3672
 6305SOL    HW130377   0.918   2.522   8.451 -1.2579  0.5837 -2.0173
 6305SOL    HW230378   1.047   2.515   8.377  0.2103 -0.1050  0.1555
 6306SOL     OW30379   0.161   0.834   5.773  0.2281  0.3966 -0.1501
 6306SOL    HW130380   0.120   0.763   5.724 -1.1655  0.8551  0.3432
 6306SOL    HW230381   0.107   0.843   5.852  0.8282 -0.5492  0.3661
 6307SOL     OW30382   2.432   1.984   6.154 -0.0903  0.0215  0.5086
 6307SOL    HW130383   2.383   1.902   6.162 -1.2595  0.8379  1.6890
 6307SOL    HW230384   2.387   2.044   6.214 -0.5312 -0.9736  1.1779
 6308SOL     OW30385   0.690   0.562   0.548 -0.3750 -0.0124 -0.3684
 6308SOL    HW130386   0.598   0.557   0.523  0.4611  0.5833 -3.5539
 6308SOL    HW230387   0.743   0.531   0.474  1.0575  0.7161  0.3385
 6309SOL     OW30388   2.186   1.688  15.871 -0.3782  0.0283  0.0448
 6309SOL    HW130389   2.262   1.742  15.894  0.1320 -0.6242 -0.0845
 6309SOL    HW230390   2.239   1.609  15.857  0.2832  0.2962  0.9820
 6310SOL     OW30391   3.263   0.513  10.470  0.0388  0.0093 -0.4601
 6310SOL    HW130392   3.217   0.458  10.533  1.4873 -0.4669  0.1772
 6310SOL    HW230393   3.252   0.600  10.509  1.2099 -0.1384  0.1875
 6311SOL     OW30394   4.455   2.478  16.426  0.5370 -0.6558  0.0057
 6311SOL    HW130395   4.533   2.482  16.370 -0.3474 -1.5021 -1.2767
 6311SOL    HW230396   4.506   2.445  16.500 -0.2278 -3.1736 -0.6044
 6312SOL     OW30397   3.615   3.594   9.631  0.4054 -0.3053  0.0914
 6312SOL    HW130398   3.531   3.578   9.587 -0.2976  0.4775  1.1414
 6312SOL    HW230399   3.579   3.632   9.711 -0.7900  1.4452 -1.2915
 6313SOL     OW30400   4.570   1.007  16.966 -0.1114  0.2432 -0.4137
 6313SOL    HW130401   4.595   1.053  16.885  0.7840 -0.6029 -0.6201
 6313SOL    HW230402   4.655   0.965  16.978 -0.0835  0.4842  0.1919
 6314SOL     OW30403   2.402   4.578  17.116 -0.2307 -0.6929 -0.1230
 6314SOL    HW130404   2.398   4.525  17.196 -0.3304 -0.6788 -0.1183
 6314SOL    HW230405   2.482   4.622  17.145 -0.7153  1.5445 -2.2341
 6315SOL     OW30406   1.761   2.086  10.148 -0.2347 -0.5256 -0.0845
 6315SOL    HW130407   1.713   2.150  10.096  1.8704  0.4705 -0.7684
 6315SOL    HW230408   1.752   2.121  10.237  0.6848  0.6093 -0.4463
 6316SOL     OW30409   1.406   2.294   7.067 -0.7340 -0.2163 -0.8900
 6316SOL    HW130410   1.402   2.373   7.013 -1.3859  0.5378  0.2685
 6316SOL    HW230411   1.394   2.222   7.005 -1.3325  0.4009 -1.4937
 6317SOL     OW30412   3.969   4.318   5.194  0.5437 -0.3168 -0.1327
 6317SOL    HW130413   4.015   4.242   5.159  2.1461  0.8172 -0.4954
 6317SOL    HW230414   3.932   4.365   5.120  2.0593 -0.0542 -0.7112
 6318SOL     OW30415   2.513   4.232   6.632 -0.0353  0.3523 -0.0890
 6318SOL    HW130416   2.595   4.279   6.619  1.1347 -1.1926  1.6754
 6318SOL    HW230417   2.452   4.293   6.675 -0.3523 -0.7295  1.0008
 6319SOL     OW30418   1.499   0.114   4.432  0.1262 -0.4223 -0.2393
 6319SOL    HW130419   1.533   0.175   4.367  1.0895 -2.2946 -1.4729
 6319SOL    HW230420   1.408   0.141   4.418  1.5499  2.7853 -3.3189
 6320SOL     OW30421   4.109   0.077   2.376 -0.0972 -0.3232  0.0642
 6320SOL    HW130422   4.057   0.083   2.455  0.4213 -0.3450  0.4105
 6320SOL    HW230423   4.067   4.718   2.342  0.1526 -0.1457 -0.6724
 6321SOL     OW30424   0.638   3.620   0.843  0.3102 -0.4142 -0.5540
 6321SOL    HW130425   0.606   3.530   0.832 -2.1761  0.5014 -0.7544
 6321SOL    HW230426   0.619   3.633   0.936  0.0273  0.8953 -0.7908
 6322SOL     OW30427   3.832   4.367  13.278 -0.1460  0.5593  0.3088
 6322SOL    HW130428   3.859   4.359  13.370  0.7909 -0.5125 -0.0523
 6322SOL    HW230429   3.740   4.374  13.305  0.2632  1.6290  1.4171
 6323SOL     OW30430   3.424   1.456   1.735  0.1407  0.7114  0.0453
 6323SOL    HW130431   3.425   1.530   1.796 -1.6184  2.0774 -1.5932
 6323SOL    HW230432   3.397   1.506   1.658  0.3070 -1.2432 -1.2770
 6324SOL     OW30433   4.448   1.049   7.430  0.4542  0.2308 -0.4618
 6324SOL    HW130434   4.414   1.085   7.512 -0.0267  0.6379 -0.8451
 6324SOL    HW230435   4.447   0.956   7.454  0.5170  0.1147 -0.9020
 6325SOL     OW30436   3.817   2.938  13.151 -0.6956  0.0795 -0.2851
 6325SOL    HW130437   3.815   2.859  13.098 -1.6055  1.0681 -1.7271
 6325SOL    HW230438   3.882   2.918  13.219 -2.7967 -0.2149  1.6184
 6326SOL     OW30439   3.358   4.705   5.973  0.2062 -0.3458  0.3176
 6326SOL    HW130440   3.316   0.024   5.897  1.3690  1.5879  0.6425
 6326SOL    HW230441   3.359   0.066   6.024 -0.4982 -0.3450  0.3204
 6327SOL     OW30442   1.238   3.677   1.589  0.4992  0.2994  0.3689
 6327SOL    HW130443   1.310   3.741   1.590 -0.2863  1.2026  0.0476
 6327SOL    HW230444   1.191   3.700   1.669 -0.3805 -2.0399  0.5277
 6328SOL     OW30445   0.746   3.525   7.937 -0.8158  0.1800  0.0307
 6328SOL    HW130446   0.780   3.485   8.017  0.5421  0.4123 -0.4272
 6328SOL    HW230447   0.689   3.597   7.963 -0.8672  0.6370 -1.3037
 6329SOL     OW30448   1.459   2.772  14.609  0.3988  0.1653 -0.2304
 6329SOL    HW130449   1.548   2.790  14.580 -0.5599  0.2911 -3.0892
 6329SOL    HW230450   1.448   2.847  14.668 -0.4203 -1.5571  1.7881
 6330SOL     OW30451   2.119   3.910   3.941  0.6158 -0.2562  0.0699
 6330SOL    HW130452   2.085   3.987   3.896  0.3542 -2.1375 -2.9266
 6330SOL    HW230453   2.183   3.938   4.007 -0.5850  1.9848  0.2872
 6331SOL     OW30454   2.287   3.297   3.199  0.1583 -0.0623 -0.4500
 6331SOL    HW130455   2.331   3.360   3.142  1.5823  0.4256  1.2079
 6331SOL    HW230456   2.209   3.345   3.224 -1.0150 -0.9053 -2.4293
 6332SOL     OW30457   4.715   3.630   6.461 -0.5884  0.4099  0.0986
 6332SOL    HW130458   0.018   3.717   6.428  1.2244 -0.6676 -1.4967
 6332SOL    HW230459   0.039   3.620   6.546  2.7098 -0.0666 -1.6700
 6333SOL     OW30460   4.272   4.060   5.771 -0.3787  0.0953 -0.2953
 6333SOL    HW130461   4.281   4.078   5.678  2.9125  0.5806  0.1072
 6333SOL    HW230462   4.194   4.113   5.786 -2.2694 -2.7593  0.0727
 6334SOL     OW30463   3.031   1.927   4.691  0.2212  0.0209 -0.6063
 6334SOL    HW130464   3.021   1.843   4.736 -1.3742 -0.3356 -1.6513
 6334SOL    HW230465   3.125   1.945   4.697  0.2298 -0.2866  0.2229
 6335SOL     OW30466   4.624   1.107   4.648  0.0314  0.2480  0.6169
 6335SOL    HW130467   4.531   1.086   4.644  0.1207 -0.1472  0.6044
 6335SOL    HW230468   4.636   1.197   4.678  0.0841  0.6612 -0.6314
 6336SOL     OW30469   1.266   1.157   3.166  0.2819  0.1493  0.5652
 6336SOL    HW130470   1.279   1.101   3.089  0.6287  0.7663  0.1714
 6336SOL    HW230471   1.217   1.234   3.137  0.1203 -0.0315  0.3556
 6337SOL     OW30472   1.961   4.007   2.506  0.3180  0.5748  0.2144
 6337SOL    HW130473   1.973   3.972   2.594  1.4910 -1.6537 -0.8205
 6337SOL    HW230474   2.037   4.057   2.477 -0.7403  2.2837  0.4185
 6338SOL     OW30475   1.527   4.279   6.586  0.5476 -0.6782 -0.4306
 6338SOL    HW130476   1.606   4.295   6.535 -1.5963 -1.9348 -4.1341
 6338SOL    HW230477   1.521   4.185   6.599  0.1306 -0.7934 -1.4888
 6339SOL     OW30478   4.212   0.058  16.903 -0.1437 -0.0411 -0.4015
 6339SOL    HW130479   4.225   0.121  16.974 -0.5411 -1.9370  1.3510
 6339SOL    HW230480   4.125   0.084  16.872 -0.5285  1.0507  1.5828
 6340SOL     OW30481   2.812   2.939  11.961  0.2163 -0.1558  0.6092
 6340SOL    HW130482   2.847   3.003  11.899  0.4341  1.5724  2.5497
 6340SOL    HW230483   2.756   2.881  11.909  0.6047 -0.5586  0.6329
 6341SOL     OW30484   0.930   0.110  10.874 -0.7647 -0.3727  0.0389
 6341SOL    HW130485   0.948   0.035  10.930  1.1117  0.1041  0.0780
 6341SOL    HW230486   0.884   0.067  10.802 -0.1103 -1.8574  0.5133
 6342SOL     OW30487   4.565   0.299   4.324 -0.5320 -0.1717  0.0180
 6342SOL    HW130488   4.652   0.314   4.362  0.6772 -1.6091 -2.1956
 6342SOL    HW230489   4.535   0.221   4.371 -0.6848 -1.0474 -1.5412
 6343SOL     OW30490   3.606   3.764   5.676 -0.1952 -0.9018 -0.0757
 6343SOL    HW130491   3.588   3.750   5.769 -1.3342  1.2248  0.0286
 6343SOL    HW230492   3.656   3.685   5.657  0.8121 -0.2489 -0.1528
 6344SOL     OW30493   2.631   4.408   3.676 -0.0055  0.1042 -0.0020
 6344SOL    HW130494   2.552   4.389   3.627  0.3396  1.4060 -1.0613
 6344SOL    HW230495   2.697   4.437   3.613  1.1828 -1.6392  0.4523
 6345SOL     OW30496   0.900   3.302   3.558  0.2221  0.0821 -0.0396
 6345SOL    HW130497   0.992   3.293   3.580 -0.0257  3.4167  2.2490
 6345SOL    HW230498   0.851   3.284   3.639  1.7517 -1.1522  0.6148
 6346SOL     OW30499   0.445   3.941   7.317  0.1844  0.4067 -0.0578
 6346SOL    HW130500   0.417   3.893   7.239 -1.5348  0.1181  0.7214
 6346SOL    HW230501   0.430   4.029   7.283  0.0340 -0.1243 -1.3762
 6347SOL     OW30502   0.649   0.235   5.121 -0.2775 -0.1250 -0.6885
 6347SOL    HW130503   0.702   0.314   5.125  0.9999 -1.0723  0.7189
 6347SOL    HW230504   0.611   0.244   5.208  0.9052 -0.1633 -0.1742
 6348SOL     OW30505   2.141   1.976  15.880 -0.4247  0.1776 -0.2191
 6348SOL    HW130506   2.099   2.050  15.838 -0.7463  0.3377  0.3802
 6348SOL    HW230507   2.105   1.909  15.822 -0.1781 -0.4189  0.3149
 6349SOL     OW30508   3.937   4.089   6.652  0.1483 -0.3462 -0.1259
 6349SOL    HW130509   3.997   4.067   6.724 -0.0266 -0.2672  0.0466
 6349SOL    HW230510   3.982   4.164   6.614  1.6954 -1.4240 -0.3943
 6350SOL     OW30511   0.821   4.662  12.892  0.3427  0.3334  0.5757
 6350SOL    HW130512   0.907   4.636  12.859  0.8800  1.5119  1.0524
 6350SOL    HW230513   0.831   4.625  12.979  0.7634  0.5848  0.6312
 6351SOL     OW30514   1.168   2.496   7.799  0.1470  0.2107 -0.1929
 6351SOL    HW130515   1.103   2.552   7.758 -0.6314 -0.9866 -0.5959
 6351SOL    HW230516   1.113   2.417   7.798  0.3649  0.0295  1.7103
 6352SOL     OW30517   3.670   3.131   8.189 -0.4885  0.0916  0.0570
 6352SOL    HW130518   3.736   3.107   8.254 -1.1377  3.4341  1.9285
 6352SOL    HW230519   3.612   3.054   8.184  1.6847 -1.5859  0.9860
 6353SOL     OW30520   2.909   3.592   3.006  0.2077  0.0874 -0.1443
 6353SOL    HW130521   3.002   3.580   2.988  0.6196  3.8916 -0.6832
 6353SOL    HW230522   2.907   3.681   3.041  2.1250 -0.0124  0.2510
 6354SOL     OW30523   4.162   0.979  16.829 -0.1217  1.0373 -0.3497
 6354SOL    HW130524   4.185   1.044  16.896  1.3128 -0.3038  0.4589
 6354SOL    HW230525   4.234   0.917  16.819  0.6124  1.6107  1.3392
 6355SOL     OW30526   4.113   1.210   7.453  0.1169  0.1445  0.6698
 6355SOL    HW130527   4.079   1.153   7.384  0.9981 -2.9956  2.8443
 6355SOL    HW230528   4.158   1.276   7.401 -0.0986 -2.9012 -3.3435
 6356SOL     OW30529   1.098   0.014   4.320 -0.1246  0.5064  0.2913
 6356SOL    HW130530   1.113   4.658   4.377  0.3551  1.7393  1.7888
 6356SOL    HW230531   1.167   0.071   4.353  1.5288 -1.5157  0.3262
 6357SOL     OW30532   0.715   4.076  10.443 -0.3026  0.3920 -0.3680
 6357SOL    HW130533   0.793   4.072  10.387  1.8583  1.2322  2.5813
 6357SOL    HW230534   0.759   4.089  10.527  0.6057 -2.4374 -0.4191
 6358SOL     OW30535   3.841   1.343  12.759 -0.1814 -0.0977 -1.1286
 6358SOL    HW130536   3.856   1.311  12.848 -1.5679  1.3008 -0.3752
 6358SOL    HW230537   3.806   1.431  12.777 -1.2908 -0.3864 -1.8752
 6359SOL     OW30538   4.454   3.037  10.465  0.0722 -0.4010 -0.1476
 6359SOL    HW130539   4.543   3.060  10.495  0.3066 -1.7925  0.2213
 6359SOL    HW230540   4.475   2.982  10.390 -0.1582  1.3365 -1.4751
 6360SOL     OW30541   1.344   0.932   7.030  0.0524 -0.1813 -0.1490
 6360SOL    HW130542   1.316   1.023   7.020  2.2527  0.5348  0.2614
 6360SOL    HW230543   1.385   0.923   6.944 -0.3201 -0.1067 -0.3323
 6361SOL     OW30544   0.904   3.040  17.334  0.2741 -0.3839  0.3370
 6361SOL    HW130545   0.813   3.009  17.337  0.1339  0.0996  1.1521
 6361SOL    HW230546   0.947   2.955  17.326 -0.8678 -0.8711 -0.5733
 6362SOL     OW30547   1.560   2.096   9.296  0.1511  0.3617  0.3663
 6362SOL    HW130548   1.497   2.165   9.318 -0.0387 -0.0417  1.0636
 6362SOL    HW230549   1.520   2.029   9.351 -0.8167  0.0649 -0.6934
 6363SOL     OW30550   0.834   4.294   0.304 -0.2313  0.2133  0.2306
 6363SOL    HW130551   0.818   4.232   0.233  0.4173  1.0225 -0.6261
 6363SOL    HW230552   0.747   4.297   0.344 -0.4136 -2.3912 -0.0017
 6364SOL     OW30553   2.715   0.150   5.520 -0.5820  0.2059 -0.1865
 6364SOL    HW130554   2.712   0.123   5.612 -1.2219  0.6792 -0.0686
 6364SOL    HW230555   2.724   0.245   5.526 -2.3292  0.3112  0.7286
 6365SOL     OW30556   0.160   2.523   2.498 -0.3312  0.0555  0.6478
 6365SOL    HW130557   0.254   2.503   2.498 -0.6304 -1.3731  0.9145
 6365SOL    HW230558   0.140   2.480   2.415 -1.7077 -1.6683  1.8613
 6366SOL     OW30559   3.828   3.639   7.775 -0.3546 -0.4371  0.5107
 6366SOL    HW130560   3.837   3.731   7.798  0.0384  0.0883 -1.7611
 6366SOL    HW230561   3.733   3.634   7.761 -0.2121  1.9959 -1.2465
 6367SOL     OW30562   3.002   3.519   4.539 -0.0037 -0.8021  0.1649
 6367SOL    HW130563   3.032   3.595   4.491 -0.8676 -0.0301  0.8450
 6367SOL    HW230564   3.082   3.466   4.536 -0.0612 -0.7881 -1.3866
 6368SOL     OW30565   1.300   4.656   5.685  0.3906 -0.3473 -0.1095
 6368SOL    HW130566   1.335   4.579   5.640  0.0023  0.4138 -1.7397
 6368SOL    HW230567   1.378   4.710   5.701 -1.0814  1.6003  0.3547
 6369SOL     OW30568   2.246   4.068   2.501  0.0770 -0.0076 -0.1989
 6369SOL    HW130569   2.280   4.137   2.443 -1.6697 -0.5106 -1.8461
 6369SOL    HW230570   2.290   4.099   2.580 -0.6983  0.1799  0.1561
 6370SOL     OW30571   4.548   1.272   3.933  0.5045  0.6293  0.5106
 6370SOL    HW130572   4.572   1.300   3.845  0.8044  2.8508  1.3125
 6370SOL    HW230573   4.512   1.353   3.968  0.3284  1.0021 -0.5329
 6371SOL     OW30574   2.763   3.408   5.045  0.3994 -0.3275  0.0910
 6371SOL    HW130575   2.766   3.503   5.043  3.0039 -0.4086 -0.1018
 6371SOL    HW230576   2.689   3.393   5.103  0.8338 -1.5712  0.3309
 6372SOL     OW30577   3.833   2.002  17.607  0.3598  0.2645 -0.6129
 6372SOL    HW130578   3.757   2.044  17.648 -0.0339  0.5258 -1.6250
 6372SOL    HW230579   3.814   2.024  17.516 -1.6142 -0.7047 -0.4276
 6373SOL     OW30580   3.236   4.343  12.526 -0.1934 -0.4827  0.4541
 6373SOL    HW130581   3.191   4.404  12.468 -1.1632 -0.2250  1.4759
 6373SOL    HW230582   3.275   4.285  12.460 -0.8994 -1.3865  0.8351
 6374SOL     OW30583   1.963   3.378  15.725  0.4413  0.1232 -0.2964
 6374SOL    HW130584   1.938   3.286  15.737 -0.5050  0.4969  0.5967
 6374SOL    HW230585   1.879   3.422  15.713 -1.5255 -3.5788  0.1470
 6375SOL     OW30586   3.681   4.093   2.046 -0.1975 -0.6735  0.1633
 6375SOL    HW130587   3.709   4.055   1.963 -1.4908 -0.2578 -0.4686
 6375SOL    HW230588   3.595   4.049   2.049 -0.7099  0.3968  0.9640
 6376SOL     OW30589   0.309   3.323   4.544 -0.5672 -0.3552 -0.5645
 6376SOL    HW130590   0.342   3.264   4.476 -1.3260 -0.1079 -1.1461
 6376SOL    HW230591   0.340   3.280   4.623  0.6689  0.2753 -0.7122
 6377SOL     OW30592   3.797   3.112   7.868  0.1275 -0.0843 -0.0064
 6377SOL    HW130593   3.784   3.078   7.779  0.8090 -0.2963 -0.0234
 6377SOL    HW230594   3.885   3.078   7.884  1.1998  2.1769 -1.2274
 6378SOL     OW30595   3.603   2.188  14.047 -0.5279 -0.3842 -0.9394
 6378SOL    HW130596   3.522   2.230  14.077 -0.9624 -1.6723 -0.3326
 6378SOL    HW230597   3.619   2.132  14.122 -4.4322 -0.0561  0.1207
 6379SOL     OW30598   0.806   2.968   5.884 -0.1725  0.0312 -0.3850
 6379SOL    HW130599   0.820   2.954   5.791 -1.9766  0.3615 -0.7131
 6379SOL    HW230600   0.848   3.053   5.900  0.0331 -0.0338 -0.5785
 6380SOL     OW30601   0.615   4.590  11.639 -0.4510  0.4581  0.5849
 6380SOL    HW130602   0.582   4.530  11.706 -1.2146  2.3385  1.8904
 6380SOL    HW230603   0.625   4.667  11.696  0.8864 -0.4332  1.5627
 6381SOL     OW30604   4.433   1.737   7.978 -0.1502 -0.2322  0.1548
 6381SOL    HW130605   4.517   1.773   8.006 -0.4023  0.1943  0.3585
 6381SOL    HW230606   4.452   1.682   7.902  2.2254 -0.0282  0.6157
 6382SOL     OW30607   3.246   4.666   8.396 -0.1085 -0.1939 -0.3411
 6382SOL    HW130608   3.205   4.681   8.311  1.2812 -0.3088 -1.0346
 6382SOL    HW230609   3.202   4.584   8.421  1.9456 -0.0625  3.6104
 6383SOL     OW30610   1.184   3.431   8.241 -0.2799 -0.3351 -0.0787
 6383SOL    HW130611   1.210   3.480   8.320 -1.8052  1.1606 -0.4913
 6383SOL    HW230612   1.090   3.448   8.238 -0.0219  0.7733 -1.8050
 6384SOL     OW30613   4.469   0.454   5.974 -0.0362 -0.0486 -0.0807
 6384SOL    HW130614   4.422   0.528   5.936 -0.6085  0.5251  1.7604
 6384SOL    HW230615   4.438   0.380   5.921  1.0566 -1.5080  1.3040
 6385SOL     OW30616   0.802   1.816   9.124  0.2745 -0.4869  0.6290
 6385SOL    HW130617   0.730   1.773   9.078 -0.9606  1.3550  0.8726
 6385SOL    HW230618   0.834   1.880   9.060  0.4810 -0.2183  1.0000
 6386SOL     OW30619   4.659   3.598  16.231 -0.1992  0.6590  0.3904
 6386SOL    HW130620   4.609   3.587  16.312 -0.4231 -2.1058 -0.1473
 6386SOL    HW230621   4.603   3.586  16.155  0.7167 -0.8501 -0.0421
 6387SOL     OW30622   3.052   3.462   2.715  0.3913  0.0502  0.1223
 6387SOL    HW130623   3.068   3.454   2.809 -0.5537 -4.2666 -0.0902
 6387SOL    HW230624   3.062   3.369   2.697  0.2053 -0.5632  3.1987
 6388SOL     OW30625   0.630   3.809   4.623 -0.1197  0.1601  0.4664
 6388SOL    HW130626   0.580   3.762   4.691  0.4377  0.1842  0.8900
 6388SOL    HW230627   0.605   3.767   4.541 -2.1488 -0.8392  1.5864
 6389SOL     OW30628   2.116   2.252   5.244  0.3647  0.2498 -0.5376
 6389SOL    HW130629   2.138   2.163   5.272  0.9604  0.8887  1.0066
 6389SOL    HW230630   2.024   2.236   5.221 -0.5443  3.9676  0.5363
 6390SOL     OW30631   2.797   2.909   2.303  0.5786  0.0880  0.3627
 6390SOL    HW130632   2.799   2.967   2.227  0.1769 -1.5403 -0.8965
 6390SOL    HW230633   2.787   2.827   2.256 -0.3186  0.0196  0.6793
 6391SOL     OW30634   2.478   3.676   4.123 -0.4529 -0.2409  0.0985
 6391SOL    HW130635   2.424   3.664   4.202  0.8463 -4.8303  0.3142
 6391SOL    HW230636   2.498   3.587   4.092  1.1958 -0.5377  2.0270
 6392SOL     OW30637   3.613   0.904   3.013  0.1226 -0.3125  0.1337
 6392SOL    HW130638   3.704   0.933   3.004  0.1866 -1.0275 -1.4369
 6392SOL    HW230639   3.584   0.981   3.062  1.5436 -0.6329  1.4884
 6393SOL     OW30640   1.756   2.194  15.250 -0.2350  0.1368  0.2256
 6393SOL    HW130641   1.762   2.140  15.170  1.9883 -0.3625  0.7454
 6393SOL    HW230642   1.714   2.276  15.224 -0.5908 -0.0872  0.0937
 6394SOL     OW30643   2.067   0.059   4.022  0.1863 -0.0444 -0.1617
 6394SOL    HW130644   2.001   0.026   3.960  1.5361  1.8674 -2.6251
 6394SOL    HW230645   2.143   0.046   3.964  0.0453  1.4441 -0.6926
 6395SOL     OW30646   0.483   3.962  10.294 -0.1577  0.6788  0.2048
 6395SOL    HW130647   0.558   4.011  10.329 -0.0500  1.1616 -0.6794
 6395SOL    HW230648   0.480   3.965  10.198  0.6730  2.9846  0.2488
 6396SOL     OW30649   4.456   3.579  15.438 -0.1071  0.3068  0.3264
 6396SOL    HW130650   4.371   3.536  15.432 -0.0594  0.5399 -1.8433
 6396SOL    HW230651   4.436   3.652  15.498 -1.7224  0.8245 -0.8234
 6397SOL     OW30652   4.378   1.706  10.142 -0.3287 -0.4075 -0.2815
 6397SOL    HW130653   4.350   1.669  10.058 -1.3388 -2.0000  0.7351
 6397SOL    HW230654   4.447   1.767  10.116  0.1497 -0.8310 -0.0237
 6398SOL     OW30655   1.936   4.516   0.672  0.2410 -0.0753 -0.1123
 6398SOL    HW130656   1.845   4.513   0.643  0.2066  2.0817 -0.2581
 6398SOL    HW230657   1.927   4.476   0.759 -0.4640 -3.5479 -1.8085
 6399SOL     OW30658   1.343   4.563   4.150 -0.4691 -0.2294  0.6925
 6399SOL    HW130659   1.361   4.631   4.214 -0.0573 -0.4710  0.8343
 6399SOL    HW230660   1.280   4.607   4.093  0.0613  1.8844  1.7432
 6400SOL     OW30661   1.416   1.019   1.152 -0.2716 -0.2655  0.2731
 6400SOL    HW130662   1.453   0.998   1.066 -2.5929  0.8327 -1.0002
 6400SOL    HW230663   1.363   1.095   1.128 -0.7118 -0.8148 -0.5072
 6401SOL     OW30664   2.617   3.824   9.754 -0.1088  0.5741 -0.3618
 6401SOL    HW130665   2.679   3.810   9.682  1.7534  2.4426  0.8789
 6401SOL    HW230666   2.626   3.919   9.761 -0.8946  0.7425 -1.6342
 6402SOL     OW30667   3.926   2.306   4.868 -0.3873  0.4019 -0.0458
 6402SOL    HW130668   3.860   2.336   4.930  2.4943  1.5620  2.4853
 6402SOL    HW230669   3.884   2.333   4.787  0.2290 -0.9764 -0.8373
 6403SOL     OW30670   1.444   3.585  12.624  0.6016 -0.2437  0.3685
 6403SOL    HW130671   1.481   3.527  12.690  2.2500  0.0432 -0.3169
 6403SOL    HW230672   1.483   3.672  12.638 -1.3496  0.5636  0.8149
 6404SOL     OW30673   2.057   4.069  17.544  0.1150  0.5342 -0.1739
 6404SOL    HW130674   1.968   4.090  17.573  0.1605 -0.0451  0.4028
 6404SOL    HW230675   2.060   4.124  17.466  0.1040  2.9954  1.5705
 6405SOL     OW30676   1.581   4.026   4.711 -0.3308 -0.1635  0.7102
 6405SOL    HW130677   1.644   4.012   4.640 -0.9400 -0.5271  0.2363
 6405SOL    HW230678   1.501   4.043   4.662  0.8530 -3.6352 -2.5034
 6406SOL     OW30679   3.198   3.892   8.547 -0.7936 -0.0319  0.1061
 6406SOL    HW130680   3.243   3.842   8.480  0.7200 -1.5280  2.2568
 6406SOL    HW230681   3.232   3.841   8.621 -2.3537 -1.2519 -0.0015
 6407SOL     OW30682   3.845   0.769   2.102 -0.3267 -0.0809  0.3223
 6407SOL    HW130683   3.796   0.848   2.081 -0.3073 -0.0084  0.5507
 6407SOL    HW230684   3.861   0.736   2.014  0.9823 -5.9112  2.7189
 6408SOL     OW30685   1.939   0.793   6.197  0.5050  0.5704 -0.2259
 6408SOL    HW130686   1.855   0.826   6.165  1.4123  3.5319  0.4683
 6408SOL    HW230687   1.988   0.794   6.115 -2.3426  0.5425 -1.9310
 6409SOL     OW30688   1.570   1.188   3.147  0.2389 -0.2785  0.7332
 6409SOL    HW130689   1.496   1.130   3.131 -1.2049  2.1196 -1.2689
 6409SOL    HW230690   1.531   1.273   3.169  0.7953  0.4091 -0.9162
 6410SOL     OW30691   3.804   0.322   8.117  0.1235  0.0935  0.4822
 6410SOL    HW130692   3.847   0.298   8.199  1.9179 -0.7223 -0.6907
 6410SOL    HW230693   3.882   0.317   8.062 -0.5894 -0.1876 -0.5152
 6411SOL     OW30694   3.764   2.036  11.449  0.3224 -0.5423 -0.5760
 6411SOL    HW130695   3.810   1.982  11.384  1.7559 -0.2856  0.2390
 6411SOL    HW230696   3.838   2.076  11.494  0.6050  0.8774 -2.3056
 6412SOL     OW30697   1.046   1.441   0.443  0.2133 -0.4425 -0.0627
 6412SOL    HW130698   1.023   1.520   0.395 -3.8249 -2.2509 -1.0924
 6412SOL    HW230699   1.002   1.459   0.526  0.2030  1.6567 -0.5266
 6413SOL     OW30700   1.668   1.873  10.978  0.8625  0.2640 -0.6455
 6413SOL    HW130701   1.690   1.781  10.993 -0.5519  0.2236  1.1654
 6413SOL    HW230702   1.573   1.867  10.977  0.8634  0.1842 -0.2405
 6414SOL     OW30703   1.386   3.286   4.440  0.2968  0.0559 -0.0221
 6414SOL    HW130704   1.319   3.307   4.505 -0.2293  1.7080 -1.1044
 6414SOL    HW230705   1.336   3.329   4.371  0.1214 -2.5269 -1.5020
 6415SOL     OW30706   1.664   0.917   2.338 -0.1182 -0.1326 -0.2939
 6415SOL    HW130707   1.719   0.947   2.410  1.0491 -0.3798 -1.0603
 6415SOL    HW230708   1.729   0.865   2.289 -0.5636  0.3157 -1.3631
 6416SOL     OW30709   1.070   4.684  14.659  0.4029 -0.4243 -0.2315
 6416SOL    HW130710   1.129   4.619  14.620  0.7411 -1.4058  1.8856
 6416SOL    HW230711   0.987   4.635  14.665 -1.0288  1.8251 -1.7628
 6417SOL     OW30712   3.862   3.290   5.076  0.4037 -0.2915 -0.2792
 6417SOL    HW130713   3.801   3.219   5.058  1.1339 -0.7819 -0.8200
 6417SOL    HW230714   3.803   3.352   5.119  0.4051 -1.1955  1.0254
 6418SOL     OW30715   3.541   2.408   9.361 -0.0040  0.5527  0.1851
 6418SOL    HW130716   3.584   2.329   9.394 -2.7796 -0.0610  2.2940
 6418SOL    HW230717   3.455   2.402   9.403  0.0116 -0.7586  0.0299
 6419SOL     OW30718   4.001   2.745   5.091 -0.1833  0.6678 -0.0944
 6419SOL    HW130719   4.016   2.802   5.016  0.3291  0.2420 -0.3158
 6419SOL    HW230720   4.082   2.697   5.109 -0.4365 -0.2736 -1.4753
 6420SOL     OW30721   2.986   2.496  11.899  1.1586  0.1969 -0.2046
 6420SOL    HW130722   2.934   2.565  11.858 -1.2372 -0.8815  1.0019
 6420SOL    HW230723   2.981   2.432  11.829  0.0230  1.0908 -0.9393
 6421SOL     OW30724   0.769   3.930   4.279  0.2189  0.1312 -0.0226
 6421SOL    HW130725   0.748   4.015   4.317  1.6060  0.4357  0.0405
 6421SOL    HW230726   0.709   3.927   4.204  1.5691 -0.7831 -1.0851
 6422SOL     OW30727   1.738   3.038  13.779  0.6021  0.5035  0.1137
 6422SOL    HW130728   1.743   3.104  13.710 -0.3937  0.3162 -0.1327
 6422SOL    HW230729   1.645   3.048  13.801  0.3143 -2.3563  0.1379
 6423SOL     OW30730   1.877   2.539  12.795  0.1643  0.3577  0.5046
 6423SOL    HW130731   1.888   2.483  12.871 -2.8656 -0.4216  0.3894
 6423SOL    HW230732   1.956   2.593  12.797  0.9104 -0.7112 -0.1435
 6424SOL     OW30733   2.856   3.996  16.597  0.8898  0.4147  0.5694
 6424SOL    HW130734   2.891   4.024  16.682  1.8529  1.2208 -0.0839
 6424SOL    HW230735   2.815   4.078  16.570  0.1362 -0.2854 -0.3805
 6425SOL     OW30736   4.439   1.003   3.995 -0.2964  0.9293 -0.0071
 6425SOL    HW130737   4.467   1.093   3.982  2.0039  0.1424 -0.3975
 6425SOL    HW230738   4.369   0.988   3.931  0.6578 -2.9493 -0.1276
 6426SOL     OW30739   3.335   1.230  12.948  0.1059  0.3078 -0.1404
 6426SOL    HW130740   3.354   1.136  12.951  0.2434  0.2525 -2.8456
 6426SOL    HW230741   3.400   1.251  12.881  1.3649 -2.2217  0.2657
 6427SOL     OW30742   3.151   3.330   3.015 -0.6865 -0.3557  0.1019
 6427SOL    HW130743   3.246   3.321   3.013 -0.6296  0.1053  0.6249
 6427SOL    HW230744   3.123   3.256   3.069  0.8695 -1.6182 -0.8738
 6428SOL     OW30745   0.002   3.894   8.926  0.9678  0.0677 -0.1106
 6428SOL    HW130746   0.037   3.848   9.002  0.5240  0.3895  0.2859
 6428SOL    HW230747   0.039   3.846   8.852 -0.7386 -2.3327  0.5815
 6429SOL     OW30748   2.639   4.117   4.603  0.2825 -0.4751 -0.6006
 6429SOL    HW130749   2.690   4.176   4.547  0.7495 -1.8276 -1.6030
 6429SOL    HW230750   2.635   4.044   4.541  1.4192 -2.2618  1.4193
 6430SOL     OW30751   2.037   2.131  10.258 -0.1635 -0.4787 -0.0315
 6430SOL    HW130752   2.071   2.189  10.326 -1.4079 -0.5245  0.6422
 6430SOL    HW230753   1.993   2.185  10.192  1.1567  1.5211  0.7238
 6431SOL     OW30754   4.426   3.496  12.213 -0.2819 -0.9677 -0.3186
 6431SOL    HW130755   4.489   3.431  12.246  2.6698  1.2707 -1.5546
 6431SOL    HW230756   4.349   3.442  12.195 -0.5496 -0.6305 -0.1795
 6432SOL     OW30757   1.646   1.906   1.746 -0.2447 -0.2762 -0.0477
 6432SOL    HW130758   1.663   1.814   1.767 -0.7823 -0.2029  0.7006
 6432SOL    HW230759   1.600   1.923   1.828 -2.4042  2.5769 -1.8350
 6433SOL     OW30760   1.479   3.196  10.310 -0.0889 -0.3351  0.6420
 6433SOL    HW130761   1.422   3.120  10.306 -0.3753 -0.1940  2.0880
 6433SOL    HW230762   1.539   3.170  10.241 -2.4967  1.1905 -2.0449
 6434SOL     OW30763   0.932   1.927   5.919  0.1808 -0.4993  0.3491
 6434SOL    HW130764   0.971   2.003   5.875 -1.6220 -0.4419 -1.1571
 6434SOL    HW230765   0.995   1.855   5.909 -2.2065 -2.5157 -0.2765
 6435SOL     OW30766   3.398   3.510   0.826  0.7558 -0.1855 -0.0743
 6435SOL    HW130767   3.469   3.474   0.773  1.8807  1.0216  0.6296
 6435SOL    HW230768   3.404   3.450   0.901  0.1553 -0.0107  0.1084
 6436SOL     OW30769   0.186   3.613   6.747 -0.1546 -0.4078 -0.2635
 6436SOL    HW130770   0.265   3.609   6.694 -0.4755 -1.1139 -0.6843
 6436SOL    HW230771   0.186   3.536   6.804  0.6658 -0.1064  0.1443
 6437SOL     OW30772   0.708   2.433   8.454 -0.3478 -0.4246 -0.2333
 6437SOL    HW130773   0.627   2.467   8.417 -1.0631 -0.6406  1.1111
 6437SOL    HW230774   0.687   2.445   8.547 -1.4855  1.7305 -0.7972
 6438SOL     OW30775   1.745   0.424   4.485  0.3037  0.1333 -0.4094
 6438SOL    HW130776   1.684   0.386   4.422 -2.5436  1.3315  1.6336
 6438SOL    HW230777   1.772   0.351   4.541 -0.1376  0.1642 -0.1520
 6439SOL     OW30778   3.859   4.026   5.001  0.4839  0.3021 -0.2665
 6439SOL    HW130779   3.793   4.070   4.947  0.3552  0.3842 -0.0401
 6439SOL    HW230780   3.940   4.072   4.979  0.4295  0.8005  0.5708
 6440SOL     OW30781   1.605   4.513   2.891 -0.2076  0.0830 -0.3270
 6440SOL    HW130782   1.673   4.575   2.919  1.2395 -1.1920 -0.9976
 6440SOL    HW230783   1.631   4.431   2.933  0.4202  0.6798  0.4649
 6441SOL     OW30784   1.413   0.979   8.502 -0.2289 -0.0275  0.4598
 6441SOL    HW130785   1.424   0.896   8.455 -0.7682  0.6046 -0.7768
 6441SOL    HW230786   1.499   1.019   8.488 -1.4568  3.5090  2.8645
 6442SOL     OW30787   3.878   0.546   1.622 -0.2627  0.4218  0.2926
 6442SOL    HW130788   3.914   0.461   1.595  0.9961  0.9948  0.1559
 6442SOL    HW230789   3.799   0.554   1.568 -1.7189 -1.6522  2.1363
 6443SOL     OW30790   4.192   1.115   0.192 -0.6131 -0.6091 -0.3499
 6443SOL    HW130791   4.181   1.021   0.182 -1.9952 -0.3107 -1.6442
 6443SOL    HW230792   4.211   1.142   0.102  2.8580 -2.0029  0.0079
 6444SOL     OW30793   1.118   4.356   2.842 -0.0443  0.0236 -0.2080
 6444SOL    HW130794   1.032   4.356   2.883 -0.4730  0.2748 -1.1017
 6444SOL    HW230795   1.137   4.448   2.860 -2.8534  0.2196  1.6324
 6445SOL     OW30796   3.107   0.868   2.805 -0.2854 -0.3475 -0.3542
 6445SOL    HW130797   3.100   0.963   2.793 -0.6851 -0.2813  0.4422
 6445SOL    HW230798   3.078   0.868   2.896  0.4400 -1.6033 -0.1341
 6446SOL     OW30799   2.233   1.711   6.422  0.0097  0.1364 -0.5062
 6446SOL    HW130800   2.192   1.692   6.338  0.9985 -0.1797 -0.9123
 6446SOL    HW230801   2.191   1.796   6.436  1.6601  0.8635  0.0783
 6447SOL     OW30802   1.669   1.645   8.029  0.0289  0.1106  0.3371
 6447SOL    HW130803   1.749   1.610   8.067 -0.3028  0.0433  0.9720
 6447SOL    HW230804   1.605   1.589   8.073  0.6236 -1.0472 -0.2462
 6448SOL     OW30805   4.625   2.021   5.276  0.1957  0.0316 -0.2492
 6448SOL    HW130806   4.646   1.950   5.337 -0.5904  0.8333  0.9702
 6448SOL    HW230807   4.682   2.028   5.200 -3.0046  0.4383 -2.6414
 6449SOL     OW30808   0.677   0.032   2.492 -0.6312 -0.0840 -0.1412
 6449SOL    HW130809   0.753   0.046   2.436 -0.2958  1.5295  0.7092
 6449SOL    HW230810   0.664   4.662   2.462  1.7372 -0.9877  1.5685
 6450SOL     OW30811   2.371   3.441   8.628 -0.1631  0.0304 -0.0365
 6450SOL    HW130812   2.434   3.396   8.573 -0.6970 -0.5824 -0.1505
 6450SOL    HW230813   2.415   3.441   8.713 -1.0915 -1.2320  0.4470
 6451SOL     OW30814   0.279   1.874   8.732 -0.6865 -0.5070  0.9031
 6451SOL    HW130815   0.333   1.953   8.727  0.5993 -1.5851 -2.1172
 6451SOL    HW230816   0.250   1.853   8.643 -0.5506  1.8886  0.2825
 6452SOL     OW30817   4.541   3.861   7.696  0.8438 -0.3214  0.2339
 6452SOL    HW130818   4.617   3.803   7.697  0.8139 -0.3535  0.5566
 6452SOL    HW230819   4.493   3.850   7.778 -0.8213 -0.2971 -0.7485
 6453SOL     OW30820   3.226   1.011  15.417 -0.0363  0.3970  0.0245
 6453SOL    HW130821   3.268   1.093  15.444  1.3913  0.0556 -1.1556
 6453SOL    HW230822   3.133   1.032  15.423  0.1358  0.9384  0.7770
 6454SOL     OW30823   1.744   0.371   7.857  0.0694 -0.9176 -0.2838
 6454SOL    HW130824   1.827   0.350   7.815 -0.2120  0.5509 -1.5630
 6454SOL    HW230825   1.708   0.448   7.813 -0.0536  0.1035  1.6149
 6455SOL     OW30826   2.730   3.324   7.722 -0.1138 -0.4047 -0.1990
 6455SOL    HW130827   2.738   3.309   7.817  0.4762  2.4903  0.1916
 6455SOL    HW230828   2.638   3.301   7.710 -0.0217 -0.4851 -0.7408
 6456SOL     OW30829   4.311   1.567   9.441  0.1637 -0.1203 -0.0562
 6456SOL    HW130830   4.252   1.641   9.429 -1.3437 -1.8234 -2.8532
 6456SOL    HW230831   4.371   1.608   9.379 -0.9938  0.7179 -0.6152
 6457SOL     OW30832   0.150   2.387   5.308  0.0937 -0.1712 -0.3193
 6457SOL    HW130833   0.168   2.452   5.376 -0.0938 -0.4378 -0.0119
 6457SOL    HW230834   0.239   2.360   5.285 -0.5300 -1.0431 -1.6992
 6458SOL     OW30835   1.076   0.103   0.043 -0.0345  0.2654 -0.1258
 6458SOL    HW130836   1.036   0.016   0.036 -1.0798  0.9436 -2.7192
 6458SOL    HW230837   1.151   0.085  17.667 -0.0657 -0.0385 -0.0710
 6459SOL     OW30838   3.899   1.528   5.977 -0.0597 -0.4292 -0.0956
 6459SOL    HW130839   3.822   1.583   5.961 -0.6002 -1.9702 -2.7092
 6459SOL    HW230840   3.855   1.444   5.963 -1.5863 -0.0940  2.6370
 6460SOL     OW30841   3.519   4.303   2.320  0.4073  0.8471  0.0604
 6460SOL    HW130842   3.452   4.361   2.357 -0.4738 -0.5727  0.7015
 6460SOL    HW230843   3.514   4.233   2.386 -3.4663  1.4287  0.4166
 6461SOL     OW30844   3.136   4.454   5.695  0.4340  0.1068  0.2705
 6461SOL    HW130845   3.134   4.359   5.683 -0.3981  0.3447 -1.4405
 6461SOL    HW230846   3.227   4.473   5.719  0.1267 -1.4391  2.6094
 6462SOL     OW30847   2.534   3.092   2.756 -0.5152  0.1462  0.3833
 6462SOL    HW130848   2.557   3.125   2.842 -4.0443  0.1321  1.3286
 6462SOL    HW230849   2.439   3.103   2.758 -0.7437 -2.0385  0.7287
 6463SOL     OW30850   3.280   4.666  11.186 -0.0996  0.3011 -0.2338
 6463SOL    HW130851   3.257   4.704  11.102  0.1916 -0.6306 -0.7340
 6463SOL    HW230852   3.374   4.686  11.185  0.0839 -0.4989  0.6355
 6464SOL     OW30853   4.097   0.655  13.789  0.8332 -0.6777 -0.1532
 6464SOL    HW130854   4.135   0.730  13.835  1.7052 -0.6339 -0.9471
 6464SOL    HW230855   4.171   0.622  13.739  0.6560 -0.6173 -0.4536
 6465SOL     OW30856   2.780   3.294   4.050 -0.1696 -0.3968  0.2681
 6465SOL    HW130857   2.801   3.217   3.997  0.1111  1.9501 -3.0220
 6465SOL    HW230858   2.736   3.354   3.990 -0.6167  0.0002  1.0092
 6466SOL     OW30859   0.090   0.632   5.598  0.4444  0.2795  0.1912
 6466SOL    HW130860   0.160   0.649   5.534  0.7256  0.1700  0.4655
 6466SOL    HW230861   0.080   0.537   5.600 -1.0270  0.4216 -0.7865
 6467SOL     OW30862   0.828   3.342  12.150  0.3720 -0.4517  0.0146
 6467SOL    HW130863   0.912   3.332  12.106 -0.8595 -0.8553 -2.2498
 6467SOL    HW230864   0.801   3.251  12.161 -0.7772 -0.2528 -1.1214
 6468SOL     OW30865   1.478   3.115   2.042 -0.2554 -0.1425 -0.0264
 6468SOL    HW130866   1.465   3.208   2.059  1.7816  0.3378 -1.1410
 6468SOL    HW230867   1.500   3.109   1.949 -2.4444 -2.6947 -0.3905
 6469SOL     OW30868   2.913   3.430   5.590  0.5668  0.2524  0.2287
 6469SOL    HW130869   2.968   3.353   5.599  1.2575  0.8058  0.7335
 6469SOL    HW230870   2.880   3.434   5.680 -1.6488  0.9580 -0.6180
 6470SOL     OW30871   2.469   0.251  14.771 -0.0678 -0.2921  0.0838
 6470SOL    HW130872   2.461   0.331  14.822 -1.7532 -1.3454  1.4706
 6470SOL    HW230873   2.565   0.249  14.769 -0.1205 -0.3000 -2.4166
 6471SOL     OW30874   2.753   3.076   2.083  0.1902 -0.2366  0.3866
 6471SOL    HW130875   2.828   3.080   2.023  0.8361  0.6915  1.2555
 6471SOL    HW230876   2.749   3.167   2.113  2.1030  0.3953 -1.2279
 6472SOL     OW30877   1.172   0.239   2.395 -0.7697  0.0799  0.1023
 6472SOL    HW130878   1.226   0.282   2.328 -0.8889 -0.4437 -0.3310
 6472SOL    HW230879   1.140   0.319   2.436 -0.6269  0.8286 -1.2210
 6473SOL     OW30880   1.432   3.039   1.145 -0.4292 -0.1371  0.1637
 6473SOL    HW130881   1.422   2.992   1.062  0.0205 -0.5786  0.3561
 6473SOL    HW230882   1.371   2.991   1.201  0.9657 -0.4801  1.3736
 6474SOL     OW30883   2.156   1.714   3.878 -0.7183 -0.7853 -0.7300
 6474SOL    HW130884   2.130   1.646   3.940 -1.2284  0.4317  0.3763
 6474SOL    HW230885   2.229   1.752   3.927 -0.9475 -0.8605 -0.3310
 6475SOL     OW30886   4.605   3.253   7.312 -0.4424  0.2592  0.3603
 6475SOL    HW130887   4.631   3.278   7.401  1.2001 -3.2499  0.8773
 6475SOL    HW230888   4.622   3.332   7.260 -0.2715 -0.2197 -0.3091
 6476SOL     OW30889   4.391   2.101   6.093  0.6430  0.3020 -0.5160
 6476SOL    HW130890   4.304   2.062   6.106  0.9524 -0.6960 -1.4157
 6476SOL    HW230891   4.441   2.022   6.075 -0.4115  0.1591 -2.8233
 6477SOL     OW30892   4.613   2.494   6.149  0.3857 -0.6343  0.0191
 6477SOL    HW130893   4.677   2.461   6.212  0.7158  0.8316  0.4518
 6477SOL    HW230894   4.602   2.412   6.100 -0.0693  0.1741 -1.2165
 6478SOL     OW30895   2.159   0.383   5.059  0.6417 -0.0573 -0.9058
 6478SOL    HW130896   2.131   0.291   5.055  1.3966 -0.3811  0.9886
 6478SOL    HW230897   2.254   0.377   5.075  0.1208  1.3627  2.7300
 6479SOL     OW30898   1.371   0.848  15.807 -0.1566  0.5444  0.3100
 6479SOL    HW130899   1.427   0.792  15.753 -0.3103 -0.1535  0.8732
 6479SOL    HW230900   1.335   0.911  15.745 -0.1109  0.9143  0.6617
 6480SOL     OW30901   3.142   2.985   0.514  0.2481  0.0898  0.3590
 6480SOL    HW130902   3.169   2.969   0.424 -0.6118  1.6013 -0.1638
 6480SOL    HW230903   3.161   3.078   0.521 -0.8825  0.2518  1.3215
 6481SOL     OW30904   2.297   0.670   8.618  0.0147 -0.1088  0.0095
 6481SOL    HW130905   2.228   0.672   8.684  1.3095 -1.7336  1.4180
 6481SOL    HW230906   2.337   0.584   8.634  2.5100  0.9545 -0.5363
 6482SOL     OW30907   0.444   3.949   7.612  0.1781  0.4298 -0.2740
 6482SOL    HW130908   0.369   3.892   7.628  0.0326  1.0038  1.0724
 6482SOL    HW230909   0.443   3.960   7.517  2.9154 -0.9807 -0.4677
 6483SOL     OW30910   1.072   0.522  15.529  0.5153 -0.1290 -0.2751
 6483SOL    HW130911   1.136   0.455  15.556 -0.2072 -0.3240  0.9179
 6483SOL    HW230912   1.028   0.472  15.460 -0.6285 -0.2349  0.5517
 6484SOL     OW30913   3.137   2.618   0.069 -0.0123  0.7474  0.8299
 6484SOL    HW130914   3.188   2.691   0.034  0.0250 -0.2138 -1.1294
 6484SOL    HW230915   3.103   2.569  17.676  1.5836  2.3223 -0.9425
 6485SOL     OW30916   3.507   2.506   3.097 -0.1307  0.0067 -0.1944
 6485SOL    HW130917   3.496   2.417   3.065 -0.4751 -1.3986  3.8598
 6485SOL    HW230918   3.438   2.549   3.046 -0.3620 -1.0385 -0.7568
 6486SOL     OW30919   0.358   3.724   3.830 -0.1961  0.2878  0.2899
 6486SOL    HW130920   0.409   3.788   3.780 -1.4489  0.7246 -0.4496
 6486SOL    HW230921   0.326   3.776   3.904 -0.2153 -0.6024  0.8985
 6487SOL     OW30922   1.733   3.783   3.682  0.1570  0.0201  0.3392
 6487SOL    HW130923   1.734   3.876   3.704 -1.2602 -0.4294  2.3682
 6487SOL    HW230924   1.790   3.775   3.606  1.9444  0.8825  1.6104
 6488SOL     OW30925   1.001   0.128  11.299  0.3159 -0.3151 -0.7041
 6488SOL    HW130926   1.021   0.043  11.261  2.0659 -0.5806  0.8311
 6488SOL    HW230927   0.915   0.139  11.258  0.6189  0.8305 -1.0318
 6489SOL     OW30928   2.579   2.429   3.563  0.0069  0.4174 -0.0403
 6489SOL    HW130929   2.569   2.340   3.596 -0.8385  0.7797  0.6736
 6489SOL    HW230930   2.518   2.418   3.489 -0.3759 -1.8076  0.5964
 6490SOL     OW30931   0.098   1.787  12.616 -0.3048 -0.5344 -0.0174
 6490SOL    HW130932   0.045   1.731  12.673  1.4980 -2.9380 -0.6739
 6490SOL    HW230933   0.035   1.810  12.548  1.8665  1.5143 -1.3171
 6491SOL     OW30934   2.557   3.880  13.688 -0.1146 -0.2173  0.2075
 6491SOL    HW130935   2.494   3.812  13.708 -1.6518  0.7635 -1.2906
 6491SOL    HW230936   2.608   3.843  13.616  2.2677 -0.3878  1.9585
 6492SOL     OW30937   0.671   3.654   1.126 -0.6700  0.0242  0.3345
 6492SOL    HW130938   0.687   3.673   1.219  2.2549  1.0562 -0.3857
 6492SOL    HW230939   0.756   3.620   1.097 -0.4853  0.9944 -0.2574
 6493SOL     OW30940   1.726   4.120   0.440 -0.1300  0.5333 -0.2858
 6493SOL    HW130941   1.789   4.071   0.389  0.7353 -1.1726  2.4314
 6493SOL    HW230942   1.687   4.050   0.491  0.2141 -0.0642 -0.8521
 6494SOL     OW30943   0.801   4.427   2.618 -0.4326  0.4631  0.5772
 6494SOL    HW130944   0.887   4.401   2.583 -0.8568 -0.5525  0.2922
 6494SOL    HW230945   0.744   4.437   2.542 -1.4058  1.5494  1.4684
 6495SOL     OW30946   0.660   3.473   4.660  0.2933  0.3103 -0.1968
 6495SOL    HW130947   0.597   3.449   4.592  0.7094 -1.9547  0.2174
 6495SOL    HW230948   0.739   3.484   4.607 -0.3133 -0.6236 -1.2930
 6496SOL     OW30949   4.164   0.256   0.120 -0.6379 -0.0753 -0.0641
 6496SOL    HW130950   4.255   0.230   0.107 -0.4369  0.7602 -0.3530
 6496SOL    HW230951   4.155   0.241   0.214 -0.6669  0.4706  0.0194
 6497SOL     OW30952   2.057   3.035   9.245  0.8913 -0.0289 -1.0500
 6497SOL    HW130953   2.035   3.006   9.333 -0.5783  1.6383 -0.8840
 6497SOL    HW230954   2.148   3.059   9.260  0.9629 -1.0447  0.1673
 6498SOL     OW30955   2.701   0.919   6.247  0.0076  0.0194 -0.5821
 6498SOL    HW130956   2.665   0.959   6.326 -0.6481  0.6360 -1.1782
 6498SOL    HW230957   2.795   0.911   6.261 -0.1882  0.3056  0.9050
 6499SOL     OW30958   3.176   0.894   0.978  0.2649 -0.2160 -0.3866
 6499SOL    HW130959   3.205   0.806   0.956  3.2859  0.0276  2.6836
 6499SOL    HW230960   3.230   0.940   0.914  1.3110 -0.2310  0.5029
 6500SOL     OW30961   4.293   1.838   6.801  0.0414  0.3770 -0.4295
 6500SOL    HW130962   4.331   1.804   6.720  0.6260  1.8164 -0.7737
 6500SOL    HW230963   4.292   1.933   6.790  0.9286  0.3052 -1.1124
 6501SOL     OW30964   3.847   1.067   7.369  0.6223 -0.6132  0.3857
 6501SOL    HW130965   3.811   1.156   7.371 -0.1491 -0.9394  0.6770
 6501SOL    HW230966   3.893   1.045   7.450  0.4844  2.1032  1.2049
 6502SOL     OW30967   4.175   3.669   8.187  0.2450 -0.0375  0.1901
 6502SOL    HW130968   4.183   3.763   8.167  0.5703 -0.3486 -1.1538
 6502SOL    HW230969   4.254   3.669   8.242  0.2808  0.8897  0.1396
 6503SOL     OW30970   3.919   0.903  17.047 -0.0504  0.1460  0.3058
 6503SOL    HW130971   3.907   0.837  17.116  1.1295 -0.6278 -0.2135
 6503SOL    HW230972   4.014   0.899  17.036 -0.1667 -2.2607 -0.0001
 6504SOL     OW30973   0.869   1.257  11.872 -0.1895 -0.0048 -0.2350
 6504SOL    HW130974   0.920   1.227  11.948 -1.1012 -2.4530 -0.5840
 6504SOL    HW230975   0.905   1.202  11.802 -0.9442 -1.9100  0.8754
 6505SOL     OW30976   2.721   2.936   6.269  0.1301 -0.0499 -0.0298
 6505SOL    HW130977   2.807   2.960   6.235 -0.7696  3.4255  0.1341
 6505SOL    HW230978   2.742   2.876   6.341  0.2759  1.1429  0.9168
 6506SOL     OW30979   4.442   1.479   7.777  0.3796  0.1474  0.9792
 6506SOL    HW130980   4.516   1.421   7.796  1.5684  1.0314 -0.8878
 6506SOL    HW230981   4.483   1.551   7.729 -0.8810 -0.1868 -0.5902
 6507SOL     OW30982   4.425   1.168   9.690  0.3188 -0.1416  0.1361
 6507SOL    HW130983   4.360   1.147   9.623  0.2533  0.4828  0.0060
 6507SOL    HW230984   4.425   1.263   9.684  0.7065 -0.3083 -2.5927
 6508SOL     OW30985   1.746   3.374   8.278 -0.4937 -0.2217  0.6770
 6508SOL    HW130986   1.780   3.453   8.320  1.2815 -1.9286  2.4522
 6508SOL    HW230987   1.734   3.405   8.188  0.7417  0.3077  0.7047
 6509SOL     OW30988   2.511   4.122   5.284 -0.1637 -0.9765  0.1490
 6509SOL    HW130989   2.496   4.027   5.290 -0.1720 -1.0047 -0.3836
 6509SOL    HW230990   2.601   4.128   5.318  0.3592  1.5836 -1.6980
 6510SOL     OW30991   0.069   3.608   3.976  0.4855  0.0777 -0.5484
 6510SOL    HW130992   0.004   3.554   4.020  0.3489  1.7000  1.1874
 6510SOL    HW230993   0.059   3.682   4.035  0.1762 -1.3854  1.2332
 6511SOL     OW30994   3.099   0.746   1.187  0.2523  0.0944 -0.0748
 6511SOL    HW130995   3.137   0.793   1.113  0.3018 -0.8028 -0.6233
 6511SOL    HW230996   3.039   0.818   1.208 -1.0134 -0.6759 -1.0117
 6512SOL     OW30997   1.530   1.857  14.896  0.0969 -0.9885 -0.0091
 6512SOL    HW130998   1.469   1.928  14.913  0.7656 -0.7456  1.4051
 6512SOL    HW230999   1.553   1.871  14.804  0.0152 -0.9387 -0.0217
 6513SOL     OW31000   4.625   0.347   8.406 -1.0184 -0.2316  0.4599
 6513SOL    HW131001   4.581   0.361   8.490 -2.3226 -0.5907 -0.1668
 6513SOL    HW231002   4.586   0.415   8.351  1.7847  1.6359  0.7526
 6514SOL     OW31003   1.188   1.721   3.903  0.4574 -0.2440  0.1776
 6514SOL    HW131004   1.206   1.707   3.810  1.8525  0.2879  0.3712
 6514SOL    HW231005   1.269   1.758   3.940  0.6999 -0.9324  0.3333
 6515SOL     OW31006   0.288   1.235   3.944  0.0140 -0.3487  0.3200
 6515SOL    HW131007   0.270   1.320   3.984  0.1636  0.5436 -1.5013
 6515SOL    HW231008   0.202   1.196   3.954 -0.3581  0.1610 -0.9440
 6516SOL     OW31009   3.003   0.754   7.318  0.1887 -0.0625  0.2689
 6516SOL    HW131010   3.040   0.674   7.355  1.2067 -0.3251 -1.3620
 6516SOL    HW231011   3.081   0.809   7.324  0.4121 -0.4106  0.5771
 6517SOL     OW31012   4.224   1.112   4.918 -0.7377 -0.1186  0.0598
 6517SOL    HW131013   4.144   1.135   4.871 -0.8185  0.0708  0.2927
 6517SOL    HW231014   4.242   1.023   4.888  0.0377  1.1579 -3.3442
 6518SOL     OW31015   0.241   3.861  11.164  0.0378 -0.3029 -0.6929
 6518SOL    HW131016   0.237   3.912  11.245 -2.6083 -0.7671 -0.5532
 6518SOL    HW231017   0.319   3.807  11.179  0.9481  0.1255 -3.9114
 6519SOL     OW31018   0.137   4.055   5.085  0.0975  0.1632  0.1297
 6519SOL    HW131019   0.054   4.061   5.038  0.3152 -1.1365 -0.4243
 6519SOL    HW231020   0.126   4.101   5.169  2.4778 -0.5552  0.8526
 6520SOL     OW31021   4.521   0.418   0.025 -0.3478  0.5572 -0.2970
 6520SOL    HW131022   4.521   0.398  17.612 -0.6808  0.1991 -0.2213
 6520SOL    HW231023   4.486   0.507   0.020 -0.2071  0.6003 -0.5185
 6521SOL     OW31024   1.803   1.336   3.834  0.0949  0.3616 -0.1531
 6521SOL    HW131025   1.836   1.315   3.747 -0.9129  1.2998 -0.7653
 6521SOL    HW231026   1.710   1.326   3.812  0.1026  3.5945 -1.7043
 6522SOL     OW31027   4.283   1.057   2.749  0.1215 -0.1722  0.0313
 6522SOL    HW131028   4.350   1.058   2.680  0.9032  2.3020  0.8355
 6522SOL    HW231029   4.248   0.969   2.736 -2.0742  0.7849 -0.5724
 6523SOL     OW31030   2.779   1.657  16.856  0.1706  0.1225 -0.5834
 6523SOL    HW131031   2.759   1.703  16.775 -0.3015 -0.9733 -1.0821
 6523SOL    HW231032   2.772   1.732  16.916  0.0009 -0.6986  0.4166
 6524SOL     OW31033   1.177   3.410   5.226  0.4147 -0.6068 -0.4364
 6524SOL    HW131034   1.140   3.381   5.142 -1.1029 -0.0093  0.0213
 6524SOL    HW231035   1.270   3.413   5.207  0.6669 -0.0180  0.8622
 6525SOL     OW31036   0.637   3.492   6.305  0.0261 -0.8582 -0.1340
 6525SOL    HW131037   0.629   3.529   6.394 -2.2251 -0.1708 -0.6316
 6525SOL    HW231038   0.728   3.510   6.281  0.8408 -1.2918  2.5862
 6526SOL     OW31039   3.212   1.199   7.679  0.3541 -0.2943  0.3411
 6526SOL    HW131040   3.283   1.146   7.643  1.0190  0.3897  0.6568
 6526SOL    HW231041   3.137   1.154   7.639  0.6292 -0.9720  0.5791
 6527SOL     OW31042   3.929   3.450   7.456  0.0678  0.0200 -1.0556
 6527SOL    HW131043   4.010   3.484   7.419 -0.5131  0.3747 -1.9984
 6527SOL    HW231044   3.954   3.359   7.476  2.1872  1.2089  1.7756
 6528SOL     OW31045   0.209   1.807   6.833 -0.0011 -0.8295  0.3958
 6528SOL    HW131046   0.225   1.887   6.783  2.5786 -1.4449  0.2397
 6528SOL    HW231047   0.116   1.809   6.857 -0.8033 -0.4700 -2.7928
 6529SOL     OW31048   0.741   0.488  12.383 -0.3671  0.2011  0.2340
 6529SOL    HW131049   0.655   0.475  12.424 -1.4258 -1.1326 -2.4191
 6529SOL    HW231050   0.800   0.466  12.455 -0.2647  0.1843  0.1437
 6530SOL     OW31051   3.262   1.631   8.009  0.3807  0.5896  1.1193
 6530SOL    HW131052   3.172   1.604   8.030 -0.2005  0.0516 -2.1180
 6530SOL    HW231053   3.254   1.645   7.915 -0.5011 -0.5132  1.0230
 6531SOL     OW31054   2.439   0.413   8.118 -0.1059 -0.3188  0.0913
 6531SOL    HW131055   2.493   0.335   8.107 -0.2431 -0.3523 -0.3374
 6531SOL    HW231056   2.406   0.389   8.205  1.4953  0.8915  1.0464
 6532SOL     OW31057   4.677   4.266  17.408 -0.5082 -0.1106 -0.5836
 6532SOL    HW131058   4.689   4.173  17.426  2.0256  0.1718 -0.8764
 6532SOL    HW231059   0.043   4.287  17.371  1.4726  0.6434  4.4075
 6533SOL     OW31060   4.052   1.576  17.068 -0.4961 -0.5557 -0.4855
 6533SOL    HW131061   3.962   1.560  17.097 -0.1681 -0.2343  0.7079
 6533SOL    HW231062   4.084   1.621  17.146  0.8812 -1.3975 -0.5579
 6534SOL     OW31063   0.383   0.555   8.362 -0.0044  0.4523 -0.0053
 6534SOL    HW131064   0.439   0.496   8.312 -1.8459  0.1092 -1.6740
 6534SOL    HW231065   0.308   0.497   8.377  0.5555 -0.5262 -1.0118
 6535SOL     OW31066   3.316   2.216   6.162 -0.6038  0.2863  0.2799
 6535SOL    HW131067   3.300   2.208   6.256  1.2793 -0.2094  0.5550
 6535SOL    HW231068   3.259   2.147   6.128 -0.2822  0.2134 -0.1172
 6536SOL     OW31069   0.272   1.388   6.230 -0.0385 -0.0283  0.3405
 6536SOL    HW131070   0.304   1.298   6.233 -1.1031 -0.4656 -1.7778
 6536SOL    HW231071   0.338   1.426   6.288 -0.6732  0.9179  0.4401
 6537SOL     OW31072   3.133   2.907   6.588 -0.5099  0.2688  0.7059
 6537SOL    HW131073   3.109   2.977   6.649 -2.5634  0.5551 -0.4492
 6537SOL    HW231074   3.224   2.901   6.618 -0.6757 -0.2117  1.1087
 6538SOL     OW31075   0.613   3.345  10.204  0.1063  0.6335 -0.2886
 6538SOL    HW131076   0.697   3.311  10.175  0.3720 -0.0731  1.3135
 6538SOL    HW231077   0.543   3.298  10.158 -0.8527  0.9274  0.8620
 6539SOL     OW31078   3.849   1.699   2.272 -0.2988 -0.0026  0.0609
 6539SOL    HW131079   3.864   1.607   2.250 -2.3180 -0.7675  1.9571
 6539SOL    HW231080   3.844   1.696   2.367 -0.5590  1.5417  0.1057
 6540SOL     OW31081   1.676   1.513   8.894  0.2031  0.5397  0.2541
 6540SOL    HW131082   1.662   1.607   8.878  2.4753  0.6003 -1.4231
 6540SOL    HW231083   1.685   1.518   8.989 -0.7474  0.7092  0.3264
 6541SOL     OW31084   3.153   1.292   1.965  0.0616 -0.7373  0.4939
 6541SOL    HW131085   3.162   1.383   1.937  2.0305 -0.5176  1.8466
 6541SOL    HW231086   3.073   1.261   1.921 -0.4833  2.2286 -0.6282
 6542SOL     OW31087   4.455   1.666   2.288  0.6703  0.1570 -0.0110
 6542SOL    HW131088   4.397   1.600   2.326  1.4250 -0.3315  0.2916
 6542SOL    HW231089   4.405   1.683   2.209 -0.8594 -0.7353  0.7680
 6543SOL     OW31090   3.602   3.417   4.418  0.4240 -0.4337  0.0752
 6543SOL    HW131091   3.620   3.339   4.366  1.1631 -1.0270  1.2188
 6543SOL    HW231092   3.617   3.382   4.505 -2.2406 -1.3988  0.1222
 6544SOL     OW31093   1.814   0.141   5.544  0.6650 -0.2561  0.0902
 6544SOL    HW131094   1.868   0.212   5.509  0.3379  1.1027  2.3966
 6544SOL    HW231095   1.876   0.116   5.612  1.2524  0.9738  0.0052
 6545SOL     OW31096   0.772   4.068  11.493 -0.0712  0.1298 -0.2430
 6545SOL    HW131097   0.704   4.116  11.541  0.6528  0.1596  0.7677
 6545SOL    HW231098   0.845   4.129  11.502  1.7330 -2.3552  2.3171
 6546SOL     OW31099   0.983   0.235  14.615 -0.7934  0.4249  0.0503
 6546SOL    HW131100   0.976   0.142  14.639 -2.6134  0.8963  1.4370
 6546SOL    HW231101   0.891   0.244  14.590 -1.5398 -0.0399  2.6575
 6547SOL     OW31102   4.284   0.808   6.641  0.1277 -0.7159 -0.5791
 6547SOL    HW131103   4.190   0.822   6.628 -0.1052 -1.1626  0.5915
 6547SOL    HW231104   4.316   0.898   6.639  3.4680 -1.9157  0.0292
 6548SOL     OW31105   4.086   4.053   7.429 -0.2721 -0.2239  0.1933
 6548SOL    HW131106   4.168   4.010   7.452  0.1305  0.0183 -0.7942
 6548SOL    HW231107   4.032   3.975   7.439  0.5361 -0.7752  0.2167
 6549SOL     OW31108   4.108   1.762   9.925 -0.2385 -0.4757 -0.3298
 6549SOL    HW131109   4.157   1.680   9.928 -2.1851 -1.6215  0.1690
 6549SOL    HW231110   4.137   1.798  10.009 -1.3433 -0.3918  0.0047
 6550SOL     OW31111   0.758   4.031   0.196 -0.0261  0.2145  0.0838
 6550SOL    HW131112   0.698   4.066   0.130 -0.6325 -1.8941 -0.4821
 6550SOL    HW231113   0.826   3.986   0.145 -0.1980  0.1372 -0.0775
 6551SOL     OW31114   1.833   1.309  15.940 -0.4295 -0.3408  0.1641
 6551SOL    HW131115   1.803   1.219  15.932 -0.4026 -0.1663 -1.8755
 6551SOL    HW231116   1.774   1.353  15.879  1.1516 -1.9235 -2.4640
 6552SOL     OW31117   2.072   3.302   7.769  0.1487 -0.0851 -0.0710
 6552SOL    HW131118   2.113   3.258   7.844 -1.5701  1.5566  1.7892
 6552SOL    HW231119   2.144   3.360   7.745  0.3558  0.1691  1.1845
 6553SOL     OW31120   0.740   2.856  13.942  0.4091  0.7180 -0.3921
 6553SOL    HW131121   0.784   2.789  13.995  0.1971 -2.5957 -4.3477
 6553SOL    HW231122   0.650   2.840  13.971  0.8627  1.6533  1.5469
 6554SOL     OW31123   1.277   3.945  11.299 -0.0553  0.0967  0.0343
 6554SOL    HW131124   1.273   3.891  11.378  0.6867 -0.8618 -0.5710
 6554SOL    HW231125   1.198   3.996  11.317  0.4693  0.7565  0.4529
 6555SOL     OW31126   4.207   4.493   4.144 -0.5073 -0.2059  0.5706
 6555SOL    HW131127   4.180   4.487   4.052 -3.3654 -0.1649  1.4135
 6555SOL    HW231128   4.291   4.448   4.133 -0.1786  0.7039 -0.6837
 6556SOL     OW31129   0.598   2.252   6.895  0.0635  0.0587 -0.1350
 6556SOL    HW131130   0.609   2.219   6.806 -1.7207 -0.8315 -0.0359
 6556SOL    HW231131   0.688   2.274   6.918 -0.0265  1.8108 -1.5306
 6557SOL     OW31132   2.300   2.695   2.320 -0.5683 -0.0438 -0.6945
 6557SOL    HW131133   2.213   2.687   2.359 -0.6468 -1.5775 -1.1499
 6557SOL    HW231134   2.365   2.699   2.389 -1.5264  0.3235  0.1872
 6558SOL     OW31135   0.215   2.432   0.862  0.5622  0.8534  0.1764
 6558SOL    HW131136   0.178   2.426   0.774  2.0928  0.2689 -0.4374
 6558SOL    HW231137   0.310   2.428   0.848  0.6305 -0.2419  0.9076
 6559SOL     OW31138   3.874   4.000   5.271 -0.8845  0.4706 -0.1871
 6559SOL    HW131139   3.921   3.995   5.188 -1.2607 -0.1951 -0.3569
 6559SOL    HW231140   3.804   4.060   5.244 -1.9821 -1.7197 -2.1873
 6560SOL     OW31141   0.072   1.617   3.567 -0.2602  0.0733 -0.1971
 6560SOL    HW131142   0.153   1.617   3.618 -0.1004 -3.1284 -0.4489
 6560SOL    HW231143   0.089   1.543   3.508  1.4031  0.2940 -0.0020
 6561SOL     OW31144   2.919   4.473   8.884 -0.2757  0.0717  0.4846
 6561SOL    HW131145   2.911   4.389   8.838 -0.8241  0.2320  0.2933
 6561SOL    HW231146   3.011   4.494   8.868  0.0735 -1.8277  0.0709
 6562SOL     OW31147   0.031   0.695  17.648  0.3150  0.2004 -0.1380
 6562SOL    HW131148   4.683   0.747   0.010  0.9309  1.7859 -1.1082
 6562SOL    HW231149   0.047   0.631   0.036  1.9808 -1.1194 -1.7494
 6563SOL     OW31150   1.830   1.433   8.014 -0.0309  0.3595  0.1395
 6563SOL    HW131151   1.773   1.465   7.945  1.5180  2.2411 -0.2560
 6563SOL    HW231152   1.890   1.381   7.962 -1.7440  0.4422 -1.8865
 6564SOL     OW31153   0.287   4.089   5.411  0.1186  0.2772 -0.1211
 6564SOL    HW131154   0.322   4.123   5.494  0.1903  0.3313 -0.1734
 6564SOL    HW231155   0.223   4.152   5.379 -1.1808 -1.9541 -1.8931
 6565SOL     OW31156   0.446   2.132  12.864 -0.6147 -0.3079  0.2119
 6565SOL    HW131157   0.375   2.069  12.855  0.5116 -1.4341 -0.8365
 6565SOL    HW231158   0.523   2.076  12.872 -1.1898 -0.7715  2.3191
 6566SOL     OW31159   4.086   4.477   3.881  0.0059  0.4388 -0.2543
 6566SOL    HW131160   4.096   4.393   3.836 -1.5731  0.3951 -0.5355
 6566SOL    HW231161   3.996   4.504   3.860  0.0467 -0.0640 -1.0585
 6567SOL     OW31162   2.045   4.208   3.851  0.2311 -0.2257  0.3256
 6567SOL    HW131163   2.096   4.289   3.839  2.1669 -1.5498 -0.3897
 6567SOL    HW231164   2.036   4.217   3.945 -0.2296 -1.2312  0.3774
 6568SOL     OW31165   0.322   1.338   7.046  0.1368 -0.2011 -0.2895
 6568SOL    HW131166   0.383   1.395   6.999  1.4399 -1.5825 -0.2693
 6568SOL    HW231167   0.264   1.404   7.085 -0.8201 -0.5652 -1.0992
 6569SOL     OW31168   4.049   1.640   3.967 -0.3920 -0.0759 -0.7366
 6569SOL    HW131169   3.974   1.604   4.014 -0.0502  0.0229 -0.1210
 6569SOL    HW231170   4.120   1.644   4.031  0.0113 -0.4632 -1.1528
 6570SOL     OW31171   0.300   2.101   6.438 -0.2541  0.0359  0.2733
 6570SOL    HW131172   0.260   2.049   6.507  0.2548 -0.3695  0.2587
 6570SOL    HW231173   0.290   2.048   6.360 -0.6217  0.4763  0.0192
 6571SOL     OW31174   1.575   2.920   2.811  0.5803 -0.3651  0.1468
 6571SOL    HW131175   1.571   2.957   2.724  0.3566  1.7546  1.0657
 6571SOL    HW231176   1.495   2.866   2.813  1.2096 -1.3177 -0.3566
 6572SOL     OW31177   3.190   4.444   8.987  0.3819  0.6212  0.0421
 6572SOL    HW131178   3.207   4.454   9.081 -1.2300 -1.3611  0.5564
 6572SOL    HW231179   3.270   4.400   8.960  0.1379 -1.8327  3.3080
 6573SOL     OW31180   4.422   2.276   7.566  0.6413 -0.1589 -0.3718
 6573SOL    HW131181   4.406   2.226   7.646 -2.6213 -0.9021 -1.4725
 6573SOL    HW231182   4.343   2.329   7.568 -0.3429 -1.5820 -1.2927
 6574SOL     OW31183   0.405   4.153   8.679  0.0622 -0.3070 -0.2826
 6574SOL    HW131184   0.355   4.136   8.759  0.0222 -1.7297 -0.6134
 6574SOL    HW231185   0.360   4.231   8.647 -0.1064  0.1480  1.0501
 6575SOL     OW31186   2.034   3.217   6.016 -0.3937 -0.8119  0.3229
 6575SOL    HW131187   2.007   3.255   5.932 -0.3630  0.8825  1.0867
 6575SOL    HW231188   1.953   3.240   6.061  0.5072 -2.5765  2.8224
 6576SOL     OW31189   0.604   3.912   1.037  0.7124 -0.4986  0.6676
 6576SOL    HW131190   0.621   3.818   1.043 -0.8741 -0.7859  0.8374
 6576SOL    HW231191   0.545   3.911   1.112 -1.4217 -2.3068 -1.0313
 6577SOL     OW31192   0.506   4.393  11.796 -0.0877 -0.2173  0.2361
 6577SOL    HW131193   0.506   4.415  11.890  0.1439 -1.2037  0.4667
 6577SOL    HW231194   0.417   4.421  11.777 -1.1029 -2.9092  1.0608
 6578SOL     OW31195   0.197   2.948   3.780 -0.6058  0.2117  0.1481
 6578SOL    HW131196   0.239   2.868   3.810 -0.3023  0.8480  1.4207
 6578SOL    HW231197   0.254   3.012   3.823  0.2131 -0.3937 -0.0404
 6579SOL     OW31198   1.986   1.897  17.338 -0.5899 -0.2655 -0.1667
 6579SOL    HW131199   2.041   1.870  17.264 -1.1634  1.7657 -1.3342
 6579SOL    HW231200   1.959   1.807  17.359 -4.4049  1.4705  2.3539
 6580SOL     OW31201   2.092   2.449   2.077  0.1817  0.4825  0.2694
 6580SOL    HW131202   2.097   2.376   2.139 -1.4538 -0.6522 -0.9472
 6580SOL    HW231203   2.064   2.409   1.994  0.9274  1.2211 -0.3372
 6581SOL     OW31204   0.731   0.048  15.605 -0.0300  0.8155 -0.6370
 6581SOL    HW131205   0.702   0.041  15.696  1.8354 -0.2044 -0.1211
 6581SOL    HW231206   0.705   4.685  15.565  1.4311 -0.1029  0.3042
 6582SOL     OW31207   2.589   3.678   6.401  0.5486 -0.5876  0.2343
 6582SOL    HW131208   2.669   3.688   6.350  1.3999  2.3022  2.1513
 6582SOL    HW231209   2.527   3.671   6.328 -1.1616 -0.9496  1.7319
 6583SOL     OW31210   0.469   0.192  15.783  0.4121 -0.1775  0.1121
 6583SOL    HW131211   0.529   0.136  15.831 -0.5209 -0.7956  0.5409
 6583SOL    HW231212   0.388   0.174  15.830  0.2483  0.5629  0.1136
 6584SOL     OW31213   0.622   1.804   3.166 -0.3534 -0.4589  0.1501
 6584SOL    HW131214   0.610   1.716   3.201 -0.2486  0.2026  1.8943
 6584SOL    HW231215   0.656   1.787   3.078 -0.3062  2.3008 -0.3701
 6585SOL     OW31216   0.707   4.390  17.027  0.2307 -0.2761 -0.1578
 6585SOL    HW131217   0.669   4.390  16.939 -1.5857  3.7216  0.6372
 6585SOL    HW231218   0.658   4.312  17.056  0.2886 -0.7412 -1.2975
 6586SOL     OW31219   0.404   4.617  10.865  0.4254 -0.7123  0.4114
 6586SOL    HW131220   0.489   4.598  10.906  1.8918  0.0120 -2.3035
 6586SOL    HW231221   0.355   4.625  10.947 -0.9164 -1.5620 -0.3117
 6587SOL     OW31222   3.885   3.896   4.689  0.2204 -0.1762 -0.5104
 6587SOL    HW131223   3.910   3.975   4.736  0.3240 -0.5200  0.0109
 6587SOL    HW231224   3.791   3.890   4.707 -0.0140  1.6401 -1.1698
 6588SOL     OW31225   4.519   2.805   2.065  0.1466  0.2460 -0.2368
 6588SOL    HW131226   4.457   2.866   2.025  0.4537  0.4294 -0.4393
 6588SOL    HW231227   4.458   2.747   2.111  1.3055 -0.5000  0.3683
 6589SOL     OW31228   1.384   2.936   1.599 -0.4049 -0.5250  0.2229
 6589SOL    HW131229   1.429   2.886   1.531 -0.3795 -2.5703  1.7473
 6589SOL    HW231230   1.392   2.882   1.678 -3.1215 -0.8027  0.3262
 6590SOL     OW31231   2.623   3.741  15.063  0.2959 -0.6264  0.5849
 6590SOL    HW131232   2.630   3.837  15.063  1.4443 -0.7115  1.0034
 6590SOL    HW231233   2.544   3.744  15.009 -0.0661  1.3715  1.2059
 6591SOL     OW31234   1.616   2.733   9.971 -0.1341  0.7775 -0.3047
 6591SOL    HW131235   1.686   2.768  10.026  1.7345 -2.6150 -0.5715
 6591SOL    HW231236   1.661   2.668   9.918 -0.3542  0.1235  0.3231
 6592SOL     OW31237   2.063   0.378   8.533  0.0936 -0.5131 -0.4551
 6592SOL    HW131238   2.046   0.470   8.513  2.3017  0.5750  2.6946
 6592SOL    HW231239   2.158   0.379   8.539  0.0018 -1.6700  1.1254
 6593SOL     OW31240   2.010   4.439   2.095 -0.4076 -0.7295 -0.4139
 6593SOL    HW131241   1.936   4.385   2.067 -0.1532 -1.4265  0.2598
 6593SOL    HW231242   2.046   4.375   2.156  0.7463  0.3943  0.0857
 6594SOL     OW31243   2.714   0.941   2.110 -0.6234  0.2898  0.2967
 6594SOL    HW131244   2.699   0.847   2.107 -0.0641  0.2422 -0.9661
 6594SOL    HW231245   2.622   0.961   2.095 -0.7051  0.9645  1.7024
 6595SOL     OW31246   1.158   2.969   6.969  0.3534 -0.2522 -0.2230
 6595SOL    HW131247   1.184   3.057   6.942 -1.1594  0.1647 -0.3649
 6595SOL    HW231248   1.075   2.997   7.009  0.7900  0.0237  0.4939
 6596SOL     OW31249   3.504   4.626  14.706  0.3791  0.3905  0.0818
 6596SOL    HW131250   3.594   4.658  14.697  0.9249 -1.1646 -0.1156
 6596SOL    HW231251   3.510   4.533  14.682  2.7771  0.9021 -1.3269
 6597SOL     OW31252   3.793   3.964   8.218 -0.0956  0.0910 -0.0760
 6597SOL    HW131253   3.885   3.979   8.193  0.0734 -0.4316  0.2229
 6597SOL    HW231254   3.795   3.988   8.311 -1.8762  0.5901 -0.1719
 6598SOL     OW31255   4.525   3.609   2.693  0.0182 -0.6550 -0.1613
 6598SOL    HW131256   4.473   3.549   2.639  0.1724 -1.5453  0.6680
 6598SOL    HW231257   4.518   3.692   2.647 -0.0834  0.1868  1.3855
 6599SOL     OW31258   2.465   1.264   7.684 -0.3837 -0.3117 -0.2722
 6599SOL    HW131259   2.404   1.334   7.704 -1.7714 -1.4038 -0.7046
 6599SOL    HW231260   2.406   1.191   7.666 -0.5320  0.3743 -2.5227
 6600SOL     OW31261   1.289   2.603  11.583  0.3106  0.0110 -0.6637
 6600SOL    HW131262   1.283   2.509  11.594 -0.4428  0.2603  0.9702
 6600SOL    HW231263   1.344   2.629  11.657  2.4322  2.2107 -3.0233
 6601SOL     OW31264   3.258   1.940   7.474  0.0621 -0.1556  0.3373
 6601SOL    HW131265   3.272   1.951   7.380  0.6331  0.7571  0.5319
 6601SOL    HW231266   3.175   1.892   7.477  0.5872 -1.0707  0.4583
 6602SOL     OW31267   1.957   4.154   7.162  0.8918  0.7773  0.1879
 6602SOL    HW131268   1.884   4.216   7.157  0.5976  0.3639 -0.5679
 6602SOL    HW231269   1.926   4.091   7.227  1.2844 -0.9342 -1.2910
 6603SOL     OW31270   3.462   3.040   6.337  0.1930 -0.0323 -0.2155
 6603SOL    HW131271   3.497   3.052   6.249 -1.7804  1.4543 -0.7962
 6603SOL    HW231272   3.379   2.993   6.328  0.4609 -1.2030  3.2739
 6604SOL     OW31273   1.012   2.557  10.162 -0.1810  1.0609 -0.2253
 6604SOL    HW131274   1.082   2.607  10.121  0.8315  0.1265  0.3778
 6604SOL    HW231275   0.941   2.566  10.098  0.4920 -0.3060 -1.1592
 6605SOL     OW31276   0.272   4.442   1.828  0.2328  0.3754  0.1839
 6605SOL    HW131277   0.277   4.353   1.793 -1.8589  0.4126 -0.1844
 6605SOL    HW231278   0.196   4.468   1.777  1.3337  1.9394 -0.6498
 6606SOL     OW31279   1.126   2.139   5.872 -0.7036  0.4405  0.1876
 6606SOL    HW131280   1.182   2.112   5.800  1.5691 -1.8125  2.7965
 6606SOL    HW231281   1.147   2.232   5.876 -2.4966  0.7883  2.0514
 6607SOL     OW31282   0.471   2.384   4.145 -0.2555 -0.1528  0.5671
 6607SOL    HW131283   0.478   2.369   4.239 -1.5485 -0.5962  0.5846
 6607SOL    HW231284   0.470   2.480   4.145  1.4305 -0.1325  1.7379
 6608SOL     OW31285   0.504   0.638  13.581  0.2995 -0.5415 -0.2427
 6608SOL    HW131286   0.547   0.721  13.560 -3.1165  1.0777 -0.9114
 6608SOL    HW231287   0.575   0.583  13.549  2.3804  2.5926 -1.0766
 6609SOL     OW31288   2.191   3.487   5.771 -0.0097  0.1168  1.0686
 6609SOL    HW131289   2.242   3.464   5.849  0.7797 -0.8079  0.2816
 6609SOL    HW231290   2.253   3.541   5.721 -0.3266  0.4833  1.0775
 6610SOL     OW31291   2.762   3.151   3.510 -0.0717 -0.7371 -0.2984
 6610SOL    HW131292   2.682   3.127   3.555 -0.3149 -0.2278 -0.4522
 6610SOL    HW231293   2.794   3.064   3.486 -1.1801 -1.4134  0.6793
 6611SOL     OW31294   0.189   1.022  16.484  0.0233 -0.0198 -0.3622
 6611SOL    HW131295   0.133   1.007  16.408  1.7772  0.0739 -1.6704
 6611SOL    HW231296   0.258   1.063  16.432 -0.7436  1.2285 -0.3903
 6612SOL     OW31297   3.688   2.724   0.205  0.3423 -0.2353  0.0480
 6612SOL    HW131298   3.728   2.793   0.152 -0.3772  1.3653  1.5654
 6612SOL    HW231299   3.602   2.767   0.209 -0.3723 -1.5156 -1.5594
 6613SOL     OW31300   4.489   4.604   4.584  0.2353 -0.0622 -0.3656
 6613SOL    HW131301   4.510   4.689   4.622 -0.1126 -0.3121  0.3907
 6613SOL    HW231302   4.400   4.585   4.615  0.9059  0.0631  1.6337
 6614SOL     OW31303   4.683   3.467   4.767 -0.7837 -0.2207 -0.3876
 6614SOL    HW131304   4.596   3.427   4.776 -0.9417  0.1421 -0.3277
 6614SOL    HW231305   0.016   3.387   4.767 -0.9133 -0.3108 -1.3993
 6615SOL     OW31306   2.958   0.239   9.922 -0.6317  0.4733 -0.5768
 6615SOL    HW131307   2.904   0.200   9.990 -1.4707  0.9595 -0.9589
 6615SOL    HW231308   3.026   0.250   9.988 -0.1007 -1.7836 -0.7378
 6616SOL     OW31309   2.908   3.483   2.469 -0.2973 -0.1657 -1.0474
 6616SOL    HW131310   2.927   3.453   2.557  0.3917 -0.1711 -1.2006
 6616SOL    HW231311   2.830   3.431   2.450 -0.3238 -1.4225  2.4650
 6617SOL     OW31312   3.933   0.209  11.225 -0.3845  0.6353  0.6690
 6617SOL    HW131313   3.871   0.266  11.270 -0.7070 -1.4255  2.8021
 6617SOL    HW231314   3.954   0.270  11.154 -0.0639  1.8873  1.8338
 6618SOL     OW31315   2.832   1.784   8.055  0.3598  0.1818  0.0538
 6618SOL    HW131316   2.826   1.719   8.125 -0.2174 -0.0707 -0.2331
 6618SOL    HW231317   2.874   1.853   8.107  1.8708  2.1255 -3.7314
 6619SOL     OW31318   1.736   2.371   7.544 -0.6179  0.0364  0.5900
 6619SOL    HW131319   1.824   2.389   7.575 -0.0482  0.4873 -1.2959
 6619SOL    HW231320   1.679   2.369   7.622  1.1442  1.6601  1.9178
 6620SOL     OW31321   0.236   4.099   1.126  0.2157 -0.3700  0.1606
 6620SOL    HW131322   0.217   4.193   1.120 -1.9475 -0.7877  0.5775
 6620SOL    HW231323   0.157   4.057   1.158  0.3008  1.9919  3.5951
 6621SOL     OW31324   3.055   4.037   4.913  0.1644 -0.1170  0.1006
 6621SOL    HW131325   2.973   4.084   4.900  0.2766 -0.0715 -0.4835
 6621SOL    HW231326   3.104   4.106   4.958  2.3054 -0.1579 -2.1580
 6622SOL     OW31327   0.549   2.099   2.926  0.1981 -0.2342 -0.0831
 6622SOL    HW131328   0.551   2.114   3.020  3.8270  1.6198 -0.4318
 6622SOL    HW231329   0.640   2.074   2.906  0.2177  0.4226 -0.7947
 6623SOL     OW31330   3.313   3.235   6.441 -0.1787 -0.3680 -0.7849
 6623SOL    HW131331   3.350   3.161   6.393 -1.9513 -2.3198  0.8603
 6623SOL    HW231332   3.366   3.313   6.421  0.9253 -1.3377 -1.6237
 6624SOL     OW31333   3.345   0.262   0.278 -0.3817  0.6212 -0.5304
 6624SOL    HW131334   3.428   0.252   0.233  0.0229  0.4748  0.2501
 6624SOL    HW231335   3.375   0.275   0.368 -0.2958 -0.3638 -0.4150
 6625SOL     OW31336   0.904   3.919  11.825 -0.4830  0.2914 -0.2905
 6625SOL    HW131337   0.851   3.993  11.797 -0.5080  0.3134 -0.1866
 6625SOL    HW231338   0.854   3.893  11.903 -1.8969  0.4185 -1.1500
 6626SOL     OW31339   0.920   4.664  11.120  0.1335 -0.7755 -0.1397
 6626SOL    HW131340   0.845   4.605  11.128 -0.7937  0.3423 -0.7289
 6626SOL    HW231341   0.980   4.615  11.063 -1.1694 -1.9992 -0.4560
 6627SOL     OW31342   3.834   1.960   4.822 -0.5339  0.2177 -0.6595
 6627SOL    HW131343   3.851   1.897   4.892  0.8748 -0.2868 -1.4732
 6627SOL    HW231344   3.912   2.015   4.825 -0.6998  0.4297 -0.0588
 6628SOL     OW31345   1.610   0.959  15.597 -0.0259 -0.4528  0.3939
 6628SOL    HW131346   1.674   1.029  15.585  0.6458 -1.2882 -0.9585
 6628SOL    HW231347   1.656   0.880  15.567  2.7031  0.7991  1.2827
 6629SOL     OW31348   0.190   0.141   8.523  0.0116 -0.1356 -0.2298
 6629SOL    HW131349   0.211   0.201   8.595 -0.1351 -0.4131  0.0448
 6629SOL    HW231350   0.266   0.082   8.524  1.1115  1.2474 -2.2668
 6630SOL     OW31351   1.167   2.720  10.024 -0.0415 -0.3502 -0.0279
 6630SOL    HW131352   1.246   2.667  10.023  1.2864  1.6313 -0.6954
 6630SOL    HW231353   1.178   2.770  10.105  1.0618 -1.4492  0.4907
 6631SOL     OW31354   2.097   1.665   2.507  0.0241  0.3091  0.2416
 6631SOL    HW131355   2.051   1.614   2.440 -0.2404 -1.4552  1.7304
 6631SOL    HW231356   2.189   1.641   2.496 -0.4375 -1.1076 -0.6333
 6632SOL     OW31357   1.146   1.029   0.229 -0.0774 -0.0137 -0.1614
 6632SOL    HW131358   1.186   1.106   0.270 -0.2285  1.5142 -2.8468
 6632SOL    HW231359   1.118   1.074   0.149  0.1384  0.2280 -0.1028
 6633SOL     OW31360   1.854   1.481   3.594  0.2627 -0.6948 -0.1752
 6633SOL    HW131361   1.838   1.394   3.557  0.0605 -1.1888  1.1006
 6633SOL    HW231362   1.945   1.503   3.572 -0.0902 -1.2000 -2.1770
 6634SOL     OW31363   1.829   1.760  12.151  0.0681  0.1968 -0.1625
 6634SOL    HW131364   1.865   1.764  12.240  0.6084  0.2260 -0.3868
 6634SOL    HW231365   1.763   1.829  12.158  1.2027  1.3270 -0.6107
 6635SOL     OW31366   1.656   0.172   3.455 -0.1241 -0.4136 -0.0066
 6635SOL    HW131367   1.575   0.205   3.494 -0.0772  0.0097 -0.2771
 6635SOL    HW231368   1.704   0.138   3.531  0.6567  1.4886  0.3721
 6636SOL     OW31369   3.688   3.164   8.710 -0.3094 -0.0213  0.5149
 6636SOL    HW131370   3.648   3.201   8.788 -2.1908 -1.1677  0.1043
 6636SOL    HW231371   3.756   3.108   8.747 -1.2521  0.4520  2.9590
 6637SOL     OW31372   2.725   0.452   4.912 -0.7595  0.3564  0.4672
 6637SOL    HW131373   2.709   0.464   4.818 -2.2863 -1.3975  0.5051
 6637SOL    HW231374   2.820   0.455   4.915 -0.7588  0.6741  0.0912
 6638SOL     OW31375   4.454   4.148  15.731 -0.2102 -0.2173  0.5187
 6638SOL    HW131376   4.373   4.199  15.727  0.2572  0.3442 -2.0022
 6638SOL    HW231377   4.429   4.080  15.668  0.6099  0.7952 -0.9111
 6639SOL     OW31378   2.746   1.615   2.842 -0.3816 -0.8156 -0.0465
 6639SOL    HW131379   2.756   1.642   2.933  0.7861  1.1926 -0.7816
 6639SOL    HW231380   2.668   1.560   2.850 -1.6429  0.8303 -0.9433
 6640SOL     OW31381   2.053   0.429   6.847 -0.3140 -0.1088 -0.0685
 6640SOL    HW131382   2.143   0.407   6.822  0.4160  1.8144  0.8397
 6640SOL    HW231383   2.083   0.482   6.921  0.3080  0.1115 -0.4768
 6641SOL     OW31384   4.663   3.380  12.351  0.4109  0.1431  0.1235
 6641SOL    HW131385   4.642   3.404  12.442  1.8986  0.3431  0.4130
 6641SOL    HW231386   0.017   3.437  12.330  0.1519  0.6775  0.6391
 6642SOL     OW31387   2.982   0.457   4.905  0.4626 -0.5620  0.8315
 6642SOL    HW131388   3.056   0.517   4.896 -0.1049  0.0132  0.0246
 6642SOL    HW231389   3.003   0.390   4.840  0.5989 -0.6166  0.9305
 6643SOL     OW31390   3.558   1.906  15.119  0.1189 -0.5871 -0.3662
 6643SOL    HW131391   3.622   1.939  15.057 -0.2895 -0.6671 -0.8249
 6643SOL    HW231392   3.477   1.946  15.088  0.5664  1.9479  1.7691
 6644SOL     OW31393   1.265   3.216  17.528 -0.0299 -0.4556  0.3320
 6644SOL    HW131394   1.196   3.280  17.546  0.5806  0.5523 -0.9076
 6644SOL    HW231395   1.235   3.190  17.441 -2.0414  0.0959  0.8602
 6645SOL     OW31396   2.896   3.307   6.582  0.0485  0.0755  0.2390
 6645SOL    HW131397   2.834   3.358   6.530 -0.4667  0.0795  0.8577
 6645SOL    HW231398   2.972   3.366   6.586  0.1525 -0.1278  1.4414
 6646SOL     OW31399   0.476   2.333   0.781 -0.5316 -0.2849  0.3014
 6646SOL    HW131400   0.520   2.278   0.846 -0.0662 -1.0094 -0.6345
 6646SOL    HW231401   0.536   2.406   0.792  1.3227 -1.0862 -4.4459
 6647SOL     OW31402   1.227   1.664   2.911 -0.3025  0.6843 -0.0422
 6647SOL    HW131403   1.291   1.634   2.846  1.5456  2.0294  1.1423
 6647SOL    HW231404   1.262   1.619   2.988 -0.3613  1.1216  0.2410
 6648SOL     OW31405   3.678   4.028   6.607  0.7567 -0.2772 -0.1814
 6648SOL    HW131406   3.636   4.114   6.617 -0.6311 -1.0329  0.4141
 6648SOL    HW231407   3.768   4.050   6.631  0.2745  1.1667  0.3441
 6649SOL     OW31408   2.248   2.900  11.540 -0.1747  0.5566  0.8712
 6649SOL    HW131409   2.228   2.855  11.457 -0.5899  1.0614  0.6936
 6649SOL    HW231410   2.292   2.974  11.500  2.0959 -0.9200  0.6533
 6650SOL     OW31411   0.704   3.324  14.959 -0.3662  0.8595  0.0235
 6650SOL    HW131412   0.723   3.410  14.996 -1.1875  2.1135 -2.4695
 6650SOL    HW231413   0.795   3.297  14.945 -0.8208  0.4565 -2.1178
 6651SOL     OW31414   0.290   2.951  12.645 -0.5228  0.1800 -0.1402
 6651SOL    HW131415   0.240   2.946  12.726 -1.7166 -0.4558 -0.9006
 6651SOL    HW231416   0.372   2.949  12.693  0.1408  2.0601 -1.2146
 6652SOL     OW31417   2.529   2.174   9.964  0.0264 -0.2549 -0.4145
 6652SOL    HW131418   2.539   2.107   9.897 -0.8045  2.2102 -3.0066
 6652SOL    HW231419   2.549   2.132  10.048 -2.5081  1.8874  1.2702
 6653SOL     OW31420   0.038   0.965  12.498 -0.2551  0.1917 -0.4882
 6653SOL    HW131421   0.014   1.027  12.430 -1.0647 -1.8694 -2.0627
 6653SOL    HW231422   0.118   0.922  12.468  0.0282  1.2445 -1.2341
 6654SOL     OW31423   4.598   2.133  17.564 -0.6328  0.1712 -0.4566
 6654SOL    HW131424   4.619   2.071  17.634 -2.6729  0.3870  0.3346
 6654SOL    HW231425   4.670   2.115  17.503  0.7066  0.6310  0.9911
 6655SOL     OW31426   2.077   1.223  16.278  0.0820 -0.5310 -0.0867
 6655SOL    HW131427   2.034   1.140  16.257 -0.4710  0.3951 -2.6640
 6655SOL    HW231428   2.068   1.277  16.199 -0.8031 -0.7384 -0.1278
 6656SOL     OW31429   4.490   1.691   9.266  0.4719  0.2133  0.9693
 6656SOL    HW131430   4.572   1.642   9.262 -0.9948 -2.2150  0.2917
 6656SOL    HW231431   4.506   1.768   9.319  1.2946  0.5688  0.2126
 6657SOL     OW31432   2.383   0.681   0.104  0.1155 -0.6771 -0.0641
 6657SOL    HW131433   2.466   0.713   0.069 -0.6069  3.1729  1.6819
 6657SOL    HW231434   2.323   0.752   0.080 -0.8708 -0.8681  1.8542
 6658SOL     OW31435   0.518   1.155   5.995  0.2397 -0.0167  0.3229
 6658SOL    HW131436   0.526   1.245   5.965  0.4674 -1.0209 -2.6159
 6658SOL    HW231437   0.522   1.101   5.916 -1.0275 -0.0539  0.2816
 6659SOL     OW31438   1.859   2.385  11.193  0.4937  0.6300  0.3791
 6659SOL    HW131439   1.942   2.368  11.238 -0.8745 -1.0880  2.1885
 6659SOL    HW231440   1.881   2.360  11.103 -1.0952  0.6155 -0.0033
 6660SOL     OW31441   1.051   3.316  11.126  0.7801 -0.0044 -0.0839
 6660SOL    HW131442   1.069   3.394  11.074 -0.1323 -1.5250 -2.6706
 6660SOL    HW231443   1.109   3.334  11.200  1.5406 -0.5618 -0.5582
 6661SOL     OW31444   1.526   1.006   0.217 -0.0511  0.0108 -0.2357
 6661SOL    HW131445   1.582   1.046   0.283 -0.5119 -0.1413  0.2590
 6661SOL    HW231446   1.507   1.088   0.172 -0.7158  0.2355  0.4425
 6662SOL     OW31447   1.306   1.199   1.735 -0.1376 -0.1758 -0.1450
 6662SOL    HW131448   1.303   1.295   1.736 -2.7252 -0.2456 -0.1943
 6662SOL    HW231449   1.329   1.190   1.643 -0.2098 -0.7389 -0.1058
 6663SOL     OW31450   3.484   0.128   3.963 -0.2138 -0.0035 -0.0065
 6663SOL    HW131451   3.481   0.110   4.056  1.9307 -1.0902 -0.1339
 6663SOL    HW231452   3.540   0.061   3.923 -1.0772 -0.7019 -0.0443
 6664SOL     OW31453   4.508   3.111   2.680  0.1673 -0.1279 -0.4362
 6664SOL    HW131454   4.464   3.063   2.750 -1.6051  2.0830 -0.0316
 6664SOL    HW231455   4.564   3.041   2.646 -0.7202 -0.8780 -0.3460
 6665SOL     OW31456   2.220   3.524   6.209  0.4074  0.1046 -0.2471
 6665SOL    HW131457   2.301   3.558   6.172  0.4472 -0.3203 -0.5569
 6665SOL    HW231458   2.241   3.473   6.287 -0.2330 -0.2821 -0.3249
 6666SOL     OW31459   0.868   4.494   4.359  0.0888 -0.2038 -0.0068
 6666SOL    HW131460   0.861   4.562   4.293 -2.0566  0.5326  1.0068
 6666SOL    HW231461   0.855   4.411   4.313  3.4131 -0.3694 -0.6468
 6667SOL     OW31462   2.368   0.257  15.737  0.6304 -0.4637  0.5379
 6667SOL    HW131463   2.408   0.295  15.659  0.0562 -0.0258  0.4519
 6667SOL    HW231464   2.435   0.249  15.804  0.7653  2.0005  0.6913
 6668SOL     OW31465   2.694   3.790   7.473  0.1986  0.4484 -0.0704
 6668SOL    HW131466   2.607   3.824   7.453 -0.2318 -0.7738 -0.2859
 6668SOL    HW231467   2.720   3.751   7.389 -0.5989 -1.2310  0.4623
 6669SOL     OW31468   4.354   4.099   7.247  0.6880  0.2223  0.3929
 6669SOL    HW131469   4.410   4.132   7.177  3.6656  0.5008  2.9236
 6669SOL    HW231470   4.342   4.015   7.201 -2.6914  1.5275 -1.1005
 6670SOL     OW31471   4.017   0.853  10.802 -0.5946 -0.1662  0.3939
 6670SOL    HW131472   3.994   0.935  10.845  1.1165 -0.1942  1.3693
 6670SOL    HW231473   4.103   0.876  10.767 -0.0573 -2.7605 -0.0232
 6671SOL     OW31474   2.978   1.527   3.139 -0.1473  0.4080  0.4411
 6671SOL    HW131475   2.964   1.469   3.064  0.7747  2.5994 -1.4218
 6671SOL    HW231476   3.070   1.509   3.157  0.1688  1.2758 -0.3213
 6672SOL     OW31477   2.674   1.379   6.826 -0.3512  0.5684 -0.6981
 6672SOL    HW131478   2.598   1.327   6.799  1.2297 -1.2551 -1.5934
 6672SOL    HW231479   2.643   1.465   6.796  2.7066  2.1301  0.5738
 6673SOL     OW31480   2.134   4.651   6.966 -0.3034 -0.4190  0.4811
 6673SOL    HW131481   2.156   4.563   6.934 -3.8020 -0.2276 -2.4218
 6673SOL    HW231482   2.052   4.635   7.011 -0.8958 -0.8943 -0.7676
 6674SOL     OW31483   3.050   1.039   1.472  0.2309 -0.5743 -0.2797
 6674SOL    HW131484   3.144   1.037   1.453  0.1059 -0.2668 -0.9499
 6674SOL    HW231485   3.011   0.988   1.400 -2.3858  1.6144 -0.3842
 6675SOL     OW31486   4.354   0.921   8.087  0.6416 -0.1750 -0.0795
 6675SOL    HW131487   4.392   0.877   8.163  0.8185  3.6072  2.0135
 6675SOL    HW231488   4.333   1.000   8.137  1.3929 -0.2135  0.2954
 6676SOL     OW31489   0.702   0.396  16.541  0.9406  1.0628  1.1873
 6676SOL    HW131490   0.621   0.443  16.558  0.8738  1.8455 -1.3794
 6676SOL    HW231491   0.669   0.320  16.589  0.6444  1.9271  2.3679
 6677SOL     OW31492   3.158   3.610   6.311 -0.3125 -0.3103 -0.1672
 6677SOL    HW131493   3.167   3.705   6.311  0.9216 -0.4297 -0.8101
 6677SOL    HW231494   3.221   3.580   6.246 -0.2120  0.2712 -0.3361
 6678SOL     OW31495   1.517   2.377   5.059 -0.7540  0.0413 -0.0408
 6678SOL    HW131496   1.543   2.301   5.006  1.1629  1.1499 -0.6859
 6678SOL    HW231497   1.437   2.393   5.009 -0.8460  0.6418  0.3065
 6679SOL     OW31498   1.954   3.288   2.034 -0.1917  0.0818  0.1394
 6679SOL    HW131499   1.911   3.282   1.949  0.9897 -1.3144 -0.3739
 6679SOL    HW231500   2.027   3.342   2.003 -1.1170  0.0705 -2.0849
 6680SOL     OW31501   4.050   4.019   8.145  0.3123  0.1998  0.0661
 6680SOL    HW131502   4.086   3.999   8.231  2.1816  0.2251 -0.7176
 6680SOL    HW231503   4.121   3.985   8.090 -0.4975 -1.5701  0.1107
 6681SOL     OW31504   0.993   1.906   9.560  0.0981 -0.7582  0.6880
 6681SOL    HW131505   0.934   1.943   9.494 -1.1085 -0.4309  1.9491
 6681SOL    HW231506   0.969   1.941   9.645  0.8514 -0.2225  0.6783
 6682SOL     OW31507   1.602   0.825   4.682 -0.1499 -0.4963  0.1480
 6682SOL    HW131508   1.628   0.737   4.708  0.3235 -0.3277  0.2525
 6682SOL    HW231509   1.508   0.819   4.693  0.0604 -4.3534 -0.3107
 6683SOL     OW31510   1.753   3.304   5.262  0.4487 -0.4386 -0.2492
 6683SOL    HW131511   1.766   3.396   5.239 -0.5894 -0.5546 -1.3425
 6683SOL    HW231512   1.749   3.299   5.357  0.9408  0.0513 -0.2055
 6684SOL     OW31513   4.695   2.665   6.445 -0.0796 -0.4253  0.4084
 6684SOL    HW131514   0.054   2.696   6.401 -0.3684  1.2701  1.0812
 6684SOL    HW231515   4.651   2.745   6.475  0.1014  0.1269 -0.8010
 6685SOL     OW31516   3.888   3.761   5.058 -0.5071 -0.3503 -0.0022
 6685SOL    HW131517   3.799   3.752   5.092 -1.2999  1.1766 -1.6366
 6685SOL    HW231518   3.893   3.854   5.036  0.0534 -0.3713  0.0292
 6686SOL     OW31519   3.937   2.475   3.080  0.2985 -0.0275 -0.0584
 6686SOL    HW131520   3.898   2.442   3.161  0.5667  1.9014  0.8638
 6686SOL    HW231521   3.933   2.402   3.018 -1.0785 -0.1389  0.1706
 6687SOL     OW31522   4.594   0.106  10.971 -0.3804  0.3214 -0.0228
 6687SOL    HW131523   4.680   0.081  10.937 -0.3374 -0.4139  0.6118
 6687SOL    HW231524   4.540   0.111  10.892 -1.1780  0.7028  0.5490
 6688SOL     OW31525   3.035   1.595   2.379 -0.0208 -0.7078 -0.0447
 6688SOL    HW131526   3.088   1.675   2.380  1.3817 -1.6430 -1.0929
 6688SOL    HW231527   2.950   1.634   2.360 -0.0894 -1.1543 -0.6192
 6689SOL     OW31528   3.785   0.263   2.173  0.5081  0.7783 -0.6117
 6689SOL    HW131529   3.880   0.270   2.177  0.7626 -1.6338 -2.5951
 6689SOL    HW231530   3.769   0.169   2.163 -1.8794  0.8534  2.4567
 6690SOL     OW31531   3.544   3.816  13.516 -0.2363  0.1801  0.1506
 6690SOL    HW131532   3.502   3.774  13.441 -1.6653 -1.2073  1.7133
 6690SOL    HW231533   3.610   3.754  13.548  0.5656  0.8292 -0.2583
 6691SOL     OW31534   3.629   2.216  15.965 -0.0163 -0.0126 -0.9202
 6691SOL    HW131535   3.711   2.208  16.013 -0.6811  0.4549  0.2814
 6691SOL    HW231536   3.581   2.286  16.010  1.2609 -0.5098  1.2112
 6692SOL     OW31537   3.791   0.049   3.639 -0.0350 -0.0226 -0.2893
 6692SOL    HW131538   3.826   4.714   3.710  0.9057 -0.2131 -0.8947
 6692SOL    HW231539   3.697   0.032   3.638  0.2697 -1.8504  0.2982
 6693SOL     OW31540   3.979   3.989   3.541  0.4956  0.4325  0.2558
 6693SOL    HW131541   3.896   4.036   3.546  1.0999  1.5112  0.3362
 6693SOL    HW231542   4.022   4.045   3.476  0.1760 -1.9525 -1.9881
 6694SOL     OW31543   3.393   2.728   2.449 -0.0497  0.1887  0.1324
 6694SOL    HW131544   3.444   2.770   2.380  1.5822 -1.0889  0.5685
 6694SOL    HW231545   3.322   2.786   2.477 -0.6864 -0.7015  0.3462
 6695SOL     OW31546   1.848   2.034  10.786  0.1044 -0.2132  0.1253
 6695SOL    HW131547   1.830   2.126  10.770 -0.5273 -0.8568 -2.7544
 6695SOL    HW231548   1.776   2.022  10.849 -1.6831  1.5780 -1.5965
 6696SOL     OW31549   2.412   2.369  10.102  0.2207 -0.0104  0.1682
 6696SOL    HW131550   2.458   2.332  10.027  0.4944  0.9474 -0.1381
 6696SOL    HW231551   2.475   2.357  10.173  1.8774 -1.8225 -1.5816
 6697SOL     OW31552   4.239   3.837  11.475  0.2112  0.2377  0.5575
 6697SOL    HW131553   4.255   3.860  11.567  0.9430 -0.4361  0.5984
 6697SOL    HW231554   4.144   3.832  11.484  0.4511 -1.1820  2.3323
 6698SOL     OW31555   2.604   1.955   5.931  0.1845  0.2592  0.8562
 6698SOL    HW131556   2.546   1.991   5.997 -1.9821 -0.4814 -0.6297
 6698SOL    HW231557   2.546   1.974   5.857  2.2005  1.4260 -0.4002
 6699SOL     OW31558   0.713   3.887  15.164 -0.5795  0.6343  0.3362
 6699SOL    HW131559   0.633   3.894  15.111  1.1902  0.2998 -2.3825
 6699SOL    HW231560   0.679   3.864  15.251  0.6268  1.1727  0.9406
 6700SOL     OW31561   4.159   0.604   6.439  0.5174  0.7801  0.1386
 6700SOL    HW131562   4.101   0.534   6.408  0.6194 -0.5453  2.9370
 6700SOL    HW231563   4.190   0.558   6.516  3.2907 -0.8970 -1.9931
 6701SOL     OW31564   0.048   1.281   9.033  0.2127 -0.3541  0.4832
 6701SOL    HW131565   0.138   1.313   9.040 -0.0517  0.5739 -0.3402
 6701SOL    HW231566   0.017   1.282   9.124 -1.5435  0.8871 -0.1252
 6702SOL     OW31567   1.590   3.203   3.449 -0.5343 -0.5158 -0.9657
 6702SOL    HW131568   1.533   3.163   3.383 -0.0797 -3.3821  0.4070
 6702SOL    HW231569   1.547   3.286   3.470  1.5146  0.4270 -0.5299
 6703SOL     OW31570   0.689   3.408   2.041  0.2610 -0.0131 -0.5133
 6703SOL    HW131571   0.623   3.432   1.975  0.6271 -0.7760 -1.1604
 6703SOL    HW231572   0.621   3.388   2.106 -1.9253 -0.0748 -2.7812
 6704SOL     OW31573   3.166   4.248   3.139 -0.0308  0.2137 -0.1055
 6704SOL    HW131574   3.184   4.190   3.213  0.5846  0.7001  0.1299
 6704SOL    HW231575   3.252   4.278   3.110  0.3397  1.0501  1.8742
 6705SOL     OW31576   2.753   0.696   5.189 -0.5368 -0.4291 -0.1925
 6705SOL    HW131577   2.698   0.706   5.111  0.8963  1.3160 -0.9613
 6705SOL    HW231578   2.711   0.627   5.240 -1.0083 -1.1948 -1.6025
 6706SOL     OW31579   2.050   2.181  15.740  0.4233 -0.6467 -0.0577
 6706SOL    HW131580   2.070   2.275  15.743 -0.7949 -0.3967  0.1883
 6706SOL    HW231581   1.976   2.164  15.683  0.3261  0.2798 -0.2183
 6707SOL     OW31582   4.600   1.573   1.346 -0.4678  0.2825  0.1928
 6707SOL    HW131583   4.630   1.499   1.294  0.2839 -0.6394  1.9430
 6707SOL    HW231584   4.606   1.642   1.280 -0.2562  0.1619  0.0845
 6708SOL     OW31585   4.608   1.686   7.700  0.0058 -0.5672  0.4667
 6708SOL    HW131586   4.609   1.778   7.675  0.3597  0.3034  3.6564
 6708SOL    HW231587   4.698   1.663   7.678 -0.2422 -0.5271 -0.5857
 6709SOL     OW31588   4.627   3.082  16.355  0.0527 -0.0071 -0.2249
 6709SOL    HW131589   4.619   3.118  16.267  0.1849 -0.0899 -0.2700
 6709SOL    HW231590   4.690   3.010  16.355 -2.0896 -1.9181 -0.3570
 6710SOL     OW31591   0.943   3.160  12.473 -0.6054 -0.3324  0.4507
 6710SOL    HW131592   0.999   3.227  12.436 -2.1425  2.6860  3.5586
 6710SOL    HW231593   0.974   3.084  12.423 -1.0213  1.5930 -2.7045
 6711SOL     OW31594   4.473   3.547  16.424  0.0788  0.0975  0.0457
 6711SOL    HW131595   4.505   3.477  16.481 -1.5414 -0.9177 -0.2939
 6711SOL    HW231596   4.390   3.510  16.393  0.5694 -1.1040  0.1687
 6712SOL     OW31597   0.129   1.426   1.957  0.2648  0.2507 -0.0471
 6712SOL    HW131598   0.196   1.460   1.897 -0.2924 -0.6543 -1.1908
 6712SOL    HW231599   0.084   1.503   1.991 -1.4524 -0.9627  0.4163
 6713SOL     OW31600   4.408   4.199   5.997 -0.0434  0.1567  0.4631
 6713SOL    HW131601   4.391   4.136   5.927 -3.2291  0.4327  0.9781
 6713SOL    HW231602   4.502   4.182   6.009 -0.4255 -1.1222  1.6584
 6714SOL     OW31603   4.001   0.758   1.527  0.3692  0.0834  0.2558
 6714SOL    HW131604   3.964   0.675   1.558 -1.0707  0.2185 -1.0927
 6714SOL    HW231605   3.941   0.826   1.558  0.4154  0.2273  0.0212
 6715SOL     OW31606   2.038   4.012  16.989 -0.1411  0.1448 -0.4167
 6715SOL    HW131607   1.966   3.972  17.036  1.1018 -1.5572  0.0529
 6715SOL    HW231608   2.116   3.964  17.018 -3.2272 -4.2239  0.5243
 6716SOL     OW31609   3.766   2.750   9.219 -0.5389 -0.2159 -0.5928
 6716SOL    HW131610   3.844   2.714   9.261 -0.9367  0.3428  0.6304
 6716SOL    HW231611   3.776   2.722   9.128 -2.3165 -2.6095 -0.0762
 6717SOL     OW31612   2.055   4.502  10.625 -0.1945  0.6697 -0.1541
 6717SOL    HW131613   2.103   4.419  10.625 -0.0681  0.7423 -0.8339
 6717SOL    HW231614   1.966   4.468  10.618 -0.1520  0.9178 -2.0927
 6718SOL     OW31615   2.440   4.081  11.875  0.9220 -0.1764 -0.2171
 6718SOL    HW131616   2.376   4.080  11.805 -0.5473  1.1243  1.1088
 6718SOL    HW231617   2.519   4.095  11.822  1.3711 -1.2953  0.1587
 6719SOL     OW31618   0.109   1.099   5.722  0.1664 -0.0979 -0.0688
 6719SOL    HW131619   0.100   1.013   5.763  1.2092 -0.8319 -1.3868
 6719SOL    HW231620   0.117   1.163   5.793  0.8950  0.3643 -0.5590
 6720SOL     OW31621   2.714   3.945   6.297  0.2124  0.2195 -0.0997
 6720SOL    HW131622   2.696   3.917   6.207  1.4380  0.7716 -0.5098
 6720SOL    HW231623   2.627   3.924   6.332  0.4783 -0.2097  0.3139
 6721SOL     OW31624   1.592   1.723   8.344  0.5055  0.1716 -0.1888
 6721SOL    HW131625   1.569   1.640   8.303 -0.2340 -0.5551  1.6814
 6721SOL    HW231626   1.500   1.748   8.354  1.2997  2.7310  0.6975
 6722SOL     OW31627   1.923   0.934   5.311  0.2242  0.0547  0.3227
 6722SOL    HW131628   1.856   0.886   5.358 -0.8560  1.3296  0.1058
 6722SOL    HW231629   1.925   1.020   5.353  0.2360  0.3807 -0.3277
 6723SOL     OW31630   0.039   2.348   7.269 -0.4084  0.0247 -0.3508
 6723SOL    HW131631   0.007   2.432   7.236  1.0528  1.8133  2.8196
 6723SOL    HW231632   4.697   2.335   7.341  1.2248  1.8447  1.3790
 6724SOL     OW31633   3.245   3.657   1.616  0.1625 -0.0381 -0.1315
 6724SOL    HW131634   3.340   3.656   1.627  0.2928 -0.7860 -1.2645
 6724SOL    HW231635   3.240   3.604   1.536  0.8207  1.2811 -1.0563
 6725SOL     OW31636   3.485   3.352   3.903  0.0385 -0.0961  0.0084
 6725SOL    HW131637   3.449   3.366   3.815  1.5609  1.5632 -0.3724
 6725SOL    HW231638   3.494   3.439   3.943 -1.9459  0.2802 -0.3972
 6726SOL     OW31639   1.838   0.996   3.393  0.0170 -0.5457 -0.2385
 6726SOL    HW131640   1.743   1.005   3.405 -0.0084 -0.3640 -0.5794
 6726SOL    HW231641   1.843   0.900   3.396 -1.2596 -0.6110 -0.0544
 6727SOL     OW31642   4.188   3.304  14.370  0.3437 -0.2454 -0.2313
 6727SOL    HW131643   4.103   3.277  14.405 -0.1471  1.8025  0.1126
 6727SOL    HW231644   4.225   3.330  14.454 -2.9415  0.8810  0.8518
 6728SOL     OW31645   4.287   3.731   5.222 -0.0485 -0.4751 -0.2216
 6728SOL    HW131646   4.278   3.771   5.136 -0.7032 -0.4886 -0.1570
 6728SOL    HW231647   4.231   3.794   5.268 -0.4750  2.2269 -4.4394
 6729SOL     OW31648   2.337   4.042  13.570 -0.2079  0.1518  0.0512
 6729SOL    HW131649   2.403   3.988  13.615 -1.3001 -0.5591  0.7878
 6729SOL    HW231650   2.387   4.121  13.548 -1.0707  0.9401  0.9107
 6730SOL     OW31651   1.992   4.607   7.776  0.0352  0.5269 -0.0844
 6730SOL    HW131652   1.911   4.654   7.756 -1.1402 -0.7266  1.6981
 6730SOL    HW231653   1.960   4.547   7.843  3.3385 -1.2796 -0.1204
 6731SOL     OW31654   0.424   1.657   5.616 -0.1563  0.0991  0.0261
 6731SOL    HW131655   0.340   1.704   5.621 -0.1463  0.1358 -0.1761
 6731SOL    HW231656   0.417   1.607   5.535 -2.4533 -2.4435  1.7952
 6732SOL     OW31657   4.414   2.006  13.027 -0.1294  0.2776 -0.3473
 6732SOL    HW131658   4.340   2.064  13.046 -0.4972 -0.3622  0.1772
 6732SOL    HW231659   4.475   2.009  13.101 -0.6432 -0.7308  0.1171
 6733SOL     OW31660   0.783   4.485   0.865  0.0315 -0.1033  0.1843
 6733SOL    HW131661   0.806   4.454   0.778  1.1407 -0.2708  0.5438
 6733SOL    HW231662   0.754   4.571   0.835  1.4920 -0.1952 -1.4507
 6734SOL     OW31663   3.622   1.633  11.986 -0.3862 -1.0755 -0.3350
 6734SOL    HW131664   3.646   1.545  12.014  3.3362 -0.0911 -0.4073
 6734SOL    HW231665   3.707   1.675  11.967 -0.3706 -1.6157 -1.4497
 6735SOL     OW31666   4.540   2.315   8.971 -0.4615  0.0728 -0.4113
 6735SOL    HW131667   4.492   2.262   9.034  0.7338 -2.3280 -1.5249
 6735SOL    HW231668   4.485   2.392   8.957 -1.4879 -0.6741 -0.5371
 6736SOL     OW31669   3.582   3.126   1.810 -0.2842 -0.0355 -0.0646
 6736SOL    HW131670   3.645   3.194   1.784 -0.5416  0.0408 -0.4822
 6736SOL    HW231671   3.631   3.076   1.875 -0.8325 -1.6966 -0.9379
 6737SOL     OW31672   0.033   2.111  12.727 -0.0053 -0.3437  0.3086
 6737SOL    HW131673   4.659   2.095  12.713  0.1698 -1.8740  0.9386
 6737SOL    HW231674   0.066   2.078  12.644  0.6919 -2.5986  1.4919
 6738SOL     OW31675   4.184   0.651  17.425 -0.1889  0.4200 -0.1734
 6738SOL    HW131676   4.265   0.649  17.475 -1.6333 -2.2547  2.0550
 6738SOL    HW231677   4.131   0.581  17.463 -0.2395  0.8108  0.4556
 6739SOL     OW31678   0.385   3.570   4.408  0.1234  0.1229 -1.0419
 6739SOL    HW131679   0.334   3.542   4.484 -2.1226  1.8594 -1.9195
 6739SOL    HW231680   0.376   3.665   4.410  0.7673  0.1670 -0.3837
 6740SOL     OW31681   2.115   2.332   8.286 -0.4205  0.5516  0.3898
 6740SOL    HW131682   2.191   2.277   8.272 -0.1747  1.0722 -0.3062
 6740SOL    HW231683   2.155   2.399   8.342  0.8876 -2.0263  2.5152
 6741SOL     OW31684   1.169   3.279   5.912  0.0588 -0.1651  0.3439
 6741SOL    HW131685   1.258   3.288   5.875 -0.3815  1.3121 -0.3558
 6741SOL    HW231686   1.114   3.243   5.843  0.3856  0.1728 -0.0940
 6742SOL     OW31687   0.794   3.285  17.219  0.0175 -0.5264 -0.5553
 6742SOL    HW131688   0.758   3.315  17.302 -2.2521 -1.4414 -1.2164
 6742SOL    HW231689   0.813   3.198  17.254 -1.8746 -0.6063  0.2710
 6743SOL     OW31690   2.664   4.544   5.064  0.7563  0.4784 -0.6345
 6743SOL    HW131691   2.578   4.507   5.080  0.8638  0.3429 -0.3668
 6743SOL    HW231692   2.715   4.465   5.045 -3.0280 -2.4200  1.4253
 6744SOL     OW31693   3.398   4.395   3.076 -0.1502 -0.1071  1.3588
 6744SOL    HW131694   3.388   4.485   3.108 -1.2499  0.0586  0.5313
 6744SOL    HW231695   3.491   4.390   3.053  0.0736 -0.4470  2.3389
 6745SOL     OW31696   2.847   3.597   4.741 -0.4580  0.3861 -0.1442
 6745SOL    HW131697   2.888   3.684   4.735  2.8577 -1.2084 -0.6011
 6745SOL    HW231698   2.892   3.550   4.671  0.3005 -0.2629  0.7676
 6746SOL     OW31699   1.127   4.408  12.375  0.2761  0.1898  0.3654
 6746SOL    HW131700   1.075   4.456  12.311 -0.3333 -0.9741 -0.0126
 6746SOL    HW231701   1.211   4.423  12.332 -0.2775 -0.1260 -0.8276
 6747SOL     OW31702   1.466   2.040  13.820 -0.3510  0.2240  0.2138
 6747SOL    HW131703   1.427   2.054  13.907 -0.1852  0.1316  0.3032
 6747SOL    HW231704   1.395   2.074  13.766 -0.8138 -0.2314  0.5377
 6748SOL     OW31705   3.759   2.912  15.573  1.3946 -0.9303  0.1224
 6748SOL    HW131706   3.752   2.818  15.592 -0.3636 -0.7572  0.3436
 6748SOL    HW231707   3.732   2.916  15.482  1.2070  0.8199  0.2560
 6749SOL     OW31708   1.289   1.282   0.221  0.1734 -0.1349  0.3708
 6749SOL    HW131709   1.290   1.264   0.127 -0.7387  0.3375  0.2744
 6749SOL    HW231710   1.207   1.331   0.222 -0.5126 -1.2237 -2.4718
 6750SOL     OW31711   0.532   2.096   6.624 -0.2262 -0.1455 -0.3800
 6750SOL    HW131712   0.456   2.088   6.567 -0.9355  1.6797  0.3167
 6750SOL    HW231713   0.536   2.007   6.659  1.5072  0.1194  0.0759
 6751SOL     OW31714   4.496   2.146  13.856 -0.5383 -0.4780 -0.4087
 6751SOL    HW131715   4.538   2.163  13.772  0.2933  0.6420  0.2384
 6751SOL    HW231716   4.568   2.128  13.915 -0.0727 -0.8965 -1.0970
 6752SOL     OW31717   3.545   4.370   7.479 -0.2477  0.2415 -1.3742
 6752SOL    HW131718   3.451   4.381   7.468 -0.1345 -0.0428 -2.6454
 6752SOL    HW231719   3.564   4.462   7.462 -0.5128  0.7393  0.9739
 6753SOL     OW31720   2.758   0.674   8.459 -0.1892  0.1573  0.2596
 6753SOL    HW131721   2.794   0.710   8.377  3.0066  1.7554  2.3451
 6753SOL    HW231722   2.718   0.593   8.427  2.3313  0.0040 -2.4952
 6754SOL     OW31723   4.701   2.542   3.805 -0.4448  0.1804  0.3430
 6754SOL    HW131724   4.704   2.446   3.803 -0.1768  0.1742  1.1845
 6754SOL    HW231725   0.058   2.562   3.859  0.6523 -0.4770 -0.9752
 6755SOL     OW31726   3.728   4.116   2.316 -0.3535 -0.1699  0.3345
 6755SOL    HW131727   3.724   4.112   2.220  2.1166 -0.7278  0.2658
 6755SOL    HW231728   3.645   4.164   2.322  0.4499  1.5951 -2.6135
 6756SOL     OW31729   3.810   2.994   4.098 -0.5038  0.3140 -0.1203
 6756SOL    HW131730   3.878   3.055   4.070  2.6164 -3.2099 -0.3920
 6756SOL    HW231731   3.804   2.921   4.036 -1.1295 -0.0052  0.3072
 6757SOL     OW31732   1.717   2.813  14.533 -0.6823 -0.5693 -0.5525
 6757SOL    HW131733   1.744   2.740  14.478  1.4667 -1.0950  1.1874
 6757SOL    HW231734   1.781   2.880  14.507 -0.5616  0.1799  1.6463
 6758SOL     OW31735   3.607   0.615  11.075 -0.1166 -0.0460 -0.2150
 6758SOL    HW131736   3.661   0.682  11.034  0.0872  1.7139  2.9196
 6758SOL    HW231737   3.590   0.650  11.163  0.5502  1.9824 -0.9128
 6759SOL     OW31738   3.869   0.028   6.136 -0.3910  0.6701 -0.9179
 6759SOL    HW131739   3.829   0.004   6.220 -0.5370 -0.5327 -1.3328
 6759SOL    HW231740   3.907   4.666   6.103 -1.1404 -0.1082  0.1185
 6760SOL     OW31741   3.215   3.241   8.820  0.3617  0.3414 -0.2505
 6760SOL    HW131742   3.157   3.313   8.795 -1.2740 -0.8921  0.0264
 6760SOL    HW231743   3.160   3.164   8.815  1.9481 -0.9954  2.9982
 6761SOL     OW31744   3.323   3.753   3.868 -0.0804  0.4400 -0.1681
 6761SOL    HW131745   3.406   3.710   3.889 -0.4033  0.8940  2.0618
 6761SOL    HW231746   3.346   3.814   3.798 -0.7333  2.2501  1.2019
 6762SOL     OW31747   0.251   2.342   4.691  0.3119 -0.0394 -0.1415
 6762SOL    HW131748   0.222   2.259   4.653 -0.2780 -0.7472  1.8242
 6762SOL    HW231749   0.345   2.328   4.703  0.9645  2.8384 -1.8966
 6763SOL     OW31750   2.870   2.816   8.455  0.1290 -0.2661  0.7721
 6763SOL    HW131751   2.963   2.806   8.437 -0.0439 -0.5511  0.0106
 6763SOL    HW231752   2.841   2.727   8.437 -0.0118 -0.0222 -0.2477
 6764SOL     OW31753   4.513   0.669  15.013  0.0511  0.2651  0.0527
 6764SOL    HW131754   4.571   0.660  15.088  0.6554 -1.8235 -0.6692
 6764SOL    HW231755   4.441   0.722  15.048 -0.8351  0.3251 -1.8616
 6765SOL     OW31756   1.972   3.571   1.559  0.6779  0.2568 -0.2479
 6765SOL    HW131757   1.965   3.604   1.470 -1.1105  0.6807  0.0309
 6765SOL    HW231758   2.066   3.556   1.561  0.8114  0.9208 -1.3978
 6766SOL     OW31759   4.317   0.916   1.596  0.0579 -0.4330  0.2908
 6766SOL    HW131760   4.282   0.843   1.648 -0.9475 -0.1291  0.0341
 6766SOL    HW231761   4.364   0.954   1.671 -1.3210  2.1427 -0.1717
 6767SOL     OW31762   3.096   0.842   3.997 -0.2420 -0.0843 -0.1322
 6767SOL    HW131763   3.074   0.923   4.042  0.6812  1.3274 -2.1838
 6767SOL    HW231764   3.170   0.814   4.051  0.9241  0.6441 -1.3507
 6768SOL     OW31765   3.360   4.633   3.414 -0.4320  0.8050 -0.0164
 6768SOL    HW131766   3.398   4.553   3.450  1.3172  0.9767 -1.4432
 6768SOL    HW231767   3.269   4.604   3.404 -0.6107  0.5304  2.4163
 6769SOL     OW31768   0.045   3.643   5.198 -0.8272 -0.3396 -0.0708
 6769SOL    HW131769   0.126   3.684   5.228 -0.4816 -0.1968 -1.1655
 6769SOL    HW231770   4.703   3.715   5.209 -0.0213  0.3247  0.1163
 6770SOL     OW31771   1.555   4.278   7.370 -0.1182  0.2036 -0.1134
 6770SOL    HW131772   1.585   4.360   7.410  1.8137 -0.1120 -0.9445
 6770SOL    HW231773   1.577   4.216   7.440 -0.8300  1.7132  1.4590
 6771SOL     OW31774   4.351   1.033   4.251  0.7068 -0.0154  0.1847
 6771SOL    HW131775   4.347   0.943   4.284  2.0605  0.7143  2.3516
 6771SOL    HW231776   4.368   1.028   4.157  1.6649  0.2674  0.3377
 6772SOL     OW31777   1.044   0.332   8.102 -0.1525  0.4290 -0.1883
 6772SOL    HW131778   1.068   0.254   8.051  0.1877 -0.1496  0.8384
 6772SOL    HW231779   1.103   0.334   8.177 -1.6125 -0.1652  0.9988
 6773SOL     OW31780   3.423   2.365   2.072 -0.1901  0.5676  0.2802
 6773SOL    HW131781   3.473   2.422   2.013  1.6783 -0.1848  1.1140
 6773SOL    HW231782   3.454   2.285   2.030 -0.9818 -0.8159  2.3409
 6774SOL     OW31783   0.498   0.337  16.844 -0.3622  0.0351  0.1631
 6774SOL    HW131784   0.474   0.267  16.784  4.3407 -1.6277  0.2081
 6774SOL    HW231785   0.530   0.405  16.783  1.3708 -1.8831 -1.0645
 6775SOL     OW31786   1.676   3.722   2.135  0.1327  0.5145 -0.5260
 6775SOL    HW131787   1.664   3.792   2.199 -2.1661  0.3170 -0.7439
 6775SOL    HW231788   1.720   3.654   2.188 -0.3023  0.8974  0.3307
 6776SOL     OW31789   3.127   1.841   5.825 -0.2777  0.3194  0.0910
 6776SOL    HW131790   3.110   1.765   5.880  0.4892  1.7192  2.2892
 6776SOL    HW231791   3.044   1.867   5.786 -1.4915 -0.8333  1.9156
 6777SOL     OW31792   1.986   3.671  17.567  0.2326 -0.8460  0.1674
 6777SOL    HW131793   2.044   3.709  17.501  1.1978  0.4437  1.7645
 6777SOL    HW231794   1.932   3.746  17.591  1.4868  0.6756 -1.7357
 6778SOL     OW31795   2.793   1.502   5.155 -0.8639  0.2720  0.1409
 6778SOL    HW131796   2.712   1.450   5.155 -0.2992 -0.6031 -1.3290
 6778SOL    HW231797   2.770   1.547   5.236  1.4613  2.1632 -0.2595
 6779SOL     OW31798   1.382   4.014   4.251  0.0104  0.2404 -0.0408
 6779SOL    HW131799   1.298   3.985   4.287 -0.3701 -0.4890 -1.5071
 6779SOL    HW231800   1.365   4.106   4.229  0.2092  0.3334  0.2084
 6780SOL     OW31801   0.024   1.873  17.318 -0.2642 -0.4920 -0.2325
 6780SOL    HW131802   0.061   1.824  17.392  0.5914 -1.9985 -1.6792
 6780SOL    HW231803   0.065   1.959  17.325 -2.5942  0.5431  0.9823
 6781SOL     OW31804   1.515   0.189  13.641 -0.0750 -0.2220  0.1863
 6781SOL    HW131805   1.529   0.252  13.570 -0.8633 -2.2981 -1.8179
 6781SOL    HW231806   1.559   0.113  13.603 -0.9351  0.8461 -2.9790
 6782SOL     OW31807   1.298   1.897   3.367  0.5531  0.3775  0.0049
 6782SOL    HW131808   1.294   1.958   3.293 -2.1069  0.0118 -0.1435
 6782SOL    HW231809   1.392   1.883   3.375  0.3059 -0.8019  0.7429
 6783SOL     OW31810   3.208   0.913   7.446 -0.3097  0.3531  0.3878
 6783SOL    HW131811   3.263   0.928   7.522  1.0733  1.2962 -0.7839
 6783SOL    HW231812   3.244   0.828   7.422  0.8212  1.2024 -0.9621
 6784SOL     OW31813   3.913   4.291   2.015  0.2922 -0.0580 -0.0711
 6784SOL    HW131814   3.847   4.264   1.951 -0.0750 -1.7639  1.0352
 6784SOL    HW231815   3.956   4.367   1.974  1.2092  0.0765  1.1413
 6785SOL     OW31816   1.017   0.481   7.463 -0.1359  0.4950  0.2386
 6785SOL    HW131817   0.993   0.437   7.382  3.5737  1.4738 -1.3491
 6785SOL    HW231818   0.974   0.566   7.450  1.3770  1.0674 -0.9476
 6786SOL     OW31819   0.015   1.376   7.256 -0.0883 -0.0832 -0.3733
 6786SOL    HW131820   0.026   1.312   7.327 -0.0330  0.8210  0.4294
 6786SOL    HW231821   4.641   1.396   7.263 -0.2515 -0.8400 -0.4203
 6787SOL     OW31822   3.188   2.001   8.851  0.5244  0.1233 -0.1535
 6787SOL    HW131823   3.205   2.090   8.819 -0.7280  0.1914 -0.6087
 6787SOL    HW231824   3.267   1.964   8.811 -0.5865 -0.7522 -1.5469
 6788SOL     OW31825   3.409   4.202   9.902  0.2394 -0.5319 -0.1250
 6788SOL    HW131826   3.358   4.128   9.869  0.6831 -1.0410  0.3306
 6788SOL    HW231827   3.460   4.231   9.826 -1.4299  3.4180  0.3132
 6789SOL     OW31828   3.252   4.429   7.367  0.2323 -0.1337  0.5182
 6789SOL    HW131829   3.273   4.346   7.324 -0.1064 -0.2883  0.6535
 6789SOL    HW231830   3.195   4.397   7.437 -0.9617  1.4932  0.2700
 6790SOL     OW31831   4.110   4.633   5.333 -0.4723 -0.4783  0.4973
 6790SOL    HW131832   4.067   4.637   5.418  1.8388  1.4504  1.5667
 6790SOL    HW231833   4.081   4.715   5.294 -0.4261 -1.6076 -1.9143
 6791SOL     OW31834   0.514   1.303   5.494 -0.3951  0.9229  0.1467
 6791SOL    HW131835   0.457   1.227   5.503 -1.1890  1.5159  0.0835
 6791SOL    HW231836   0.454   1.370   5.462  1.2721  1.1795 -2.4297
 6792SOL     OW31837   3.320   4.647   5.335 -0.4501 -0.4832 -0.0522
 6792SOL    HW131838   3.334   0.022   5.326  2.3029 -1.0564 -1.6469
 6792SOL    HW231839   3.243   4.635   5.280 -0.0125  3.8051 -1.5821
 6793SOL     OW31840   2.348   4.146   2.754  0.0191 -0.7814 -0.9522
 6793SOL    HW131841   2.423   4.204   2.742 -0.3662 -0.0524  0.1071
 6793SOL    HW231842   2.290   4.202   2.805  2.0499 -0.7298  1.3004
 6794SOL     OW31843   3.832   0.329   3.631  0.3794  0.2968  0.2194
 6794SOL    HW131844   3.813   0.384   3.554  2.6021 -0.5777 -0.9433
 6794SOL    HW231845   3.781   0.249   3.614  0.9123  0.4262 -2.0176
 6795SOL     OW31846   4.209   1.648  13.958  0.2043  0.1935  0.0175
 6795SOL    HW131847   4.261   1.726  13.941  0.2059 -0.1593 -1.6084
 6795SOL    HW231848   4.151   1.631  13.883  0.4047  1.5785 -0.4467
 6796SOL     OW31849   2.753   2.792   9.600 -0.1299 -0.0650  0.0608
 6796SOL    HW131850   2.758   2.696   9.604  0.4558 -0.0793 -1.0429
 6796SOL    HW231851   2.841   2.817   9.628 -0.1612 -0.1749  0.2555
 6797SOL     OW31852   0.915   3.167   4.418 -0.0716  0.1135  0.2402
 6797SOL    HW131853   0.829   3.128   4.433  0.1608 -0.9552 -1.2457
 6797SOL    HW231854   0.909   3.199   4.328 -0.3687 -0.3058  0.1134
 6798SOL     OW31855   0.854   4.040  10.680 -0.5338 -0.0362 -0.1744
 6798SOL    HW131856   0.851   3.959  10.731  1.9770 -0.0788 -0.1030
 6798SOL    HW231857   0.940   4.021  10.643 -2.2947 -1.2599 -3.5832
 6799SOL     OW31858   4.054   1.591  12.081  0.1290 -0.3410  0.0100
 6799SOL    HW131859   4.121   1.660  12.076 -0.2615  0.0803  0.5953
 6799SOL    HW231860   4.006   1.608  12.000  0.2028 -0.1898 -0.0024
 6800SOL     OW31861   1.174   0.494   7.901  0.5857  0.3552  0.6036
 6800SOL    HW131862   1.239   0.560   7.925  0.7604  0.0336  1.0316
 6800SOL    HW231863   1.144   0.457   7.984 -0.9498  1.5576  0.5892
 6801SOL     OW31864   1.517   0.353   7.015 -0.4036  0.5257 -0.0321
 6801SOL    HW131865   1.457   0.354   6.940  0.1303 -1.5513 -0.4786
 6801SOL    HW231866   1.462   0.386   7.086 -1.1306 -3.2419  1.1591
 6802SOL     OW31867   2.426   2.034  14.472  0.2115 -0.3708 -0.3284
 6802SOL    HW131868   2.361   2.105  14.465  1.1619  0.5890  0.5737
 6802SOL    HW231869   2.504   2.090  14.472 -0.5718  0.6951 -1.9187
 6803SOL     OW31870   0.952   3.062   2.505 -0.8866 -0.3486  0.5200
 6803SOL    HW131871   1.035   3.070   2.458 -1.4425  0.6953 -0.2810
 6803SOL    HW231872   0.896   3.038   2.431 -1.6200  1.2566  0.5581
 6804SOL     OW31873   0.316   4.058  11.617 -0.8758  0.0533 -0.2450
 6804SOL    HW131874   0.283   4.089  11.701  0.2844 -0.2281  0.3027
 6804SOL    HW231875   0.401   4.032  11.652 -2.1835  0.3216  3.1412
 6805SOL     OW31876   2.075   4.175   4.944 -0.1143  0.0038 -0.0789
 6805SOL    HW131877   1.996   4.226   4.926  0.0275  0.1000 -0.4475
 6805SOL    HW231878   2.034   4.090   4.955 -2.1896  0.8709 -1.1299
 6806SOL     OW31879   3.073   1.284   1.130 -0.2627  0.4635  0.0387
 6806SOL    HW131880   3.052   1.324   1.045  0.0061 -1.5570 -0.9637
 6806SOL    HW231881   3.055   1.365   1.179  1.4719  0.2480  1.0028
 6807SOL     OW31882   1.575   1.393   1.845  0.4405 -0.6532 -0.6414
 6807SOL    HW131883   1.586   1.354   1.759 -0.9317  1.8458 -1.9377
 6807SOL    HW231884   1.564   1.320   1.907 -1.9578  0.3021  0.0541
 6808SOL     OW31885   2.839   1.069   1.678 -0.0372  0.2157 -0.0577
 6808SOL    HW131886   2.764   1.012   1.667  0.3363 -0.5435  1.2643
 6808SOL    HW231887   2.893   1.039   1.605  0.9587  0.2464  0.6644
 6809SOL     OW31888   0.349   4.454  12.086 -0.1979 -0.2393  0.0317
 6809SOL    HW131889   0.257   4.444  12.113 -0.5601  0.3998 -0.9411
 6809SOL    HW231890   0.366   4.541  12.122  0.9042 -1.1747  1.7318
 6810SOL     OW31891   0.183   1.469   8.153  0.8313 -0.6023  0.4229
 6810SOL    HW131892   0.214   1.542   8.100 -1.0589 -0.4848 -0.5307
 6810SOL    HW231893   0.128   1.437   8.082 -1.6366  0.1155  1.9785
 6811SOL     OW31894   3.201   1.847   8.176 -0.2508 -0.4065  0.4049
 6811SOL    HW131895   3.133   1.799   8.221  0.5776 -2.7171 -0.7970
 6811SOL    HW231896   3.223   1.773   8.119 -0.1567 -1.3896  1.7263
 6812SOL     OW31897   3.486   1.012   0.306 -0.1972  0.1397  0.3485
 6812SOL    HW131898   3.431   1.016   0.228  0.2316  0.3147  0.0517
 6812SOL    HW231899   3.571   0.986   0.270 -0.0106 -1.3307  1.8657
 6813SOL     OW31900   0.739   0.123  15.062 -0.2899  0.6227 -0.1284
 6813SOL    HW131901   0.775   0.136  15.150  1.6783 -0.0498 -0.8160
 6813SOL    HW231902   0.647   0.143  15.075 -0.1036  2.0153 -0.8145
 6814SOL     OW31903   0.794   3.746   5.518  0.1102  0.2834 -0.0616
 6814SOL    HW131904   0.832   3.796   5.589  1.2057  0.2472 -0.6177
 6814SOL    HW231905   0.787   3.662   5.564  2.8118 -0.5613 -1.2225
 6815SOL     OW31906   3.048   0.522   7.497  0.1796  0.5702  0.3979
 6815SOL    HW131907   3.106   0.467   7.444  1.2015  1.2985  0.7712
 6815SOL    HW231908   2.990   0.456   7.536  1.2732 -0.2049  0.6969
 6816SOL     OW31909   2.963   1.363   5.290  0.2621 -0.1720 -0.3938
 6816SOL    HW131910   3.051   1.395   5.270  0.4587 -0.7679 -0.4984
 6816SOL    HW231911   2.915   1.402   5.217 -2.3472 -0.6978  1.0290
 6817SOL     OW31912   4.400   3.660  14.674 -0.2685 -0.2468 -0.1651
 6817SOL    HW131913   4.485   3.671  14.718 -0.3003 -0.7759  0.0316
 6817SOL    HW231914   4.385   3.748  14.640  0.5068  0.2666  0.8333
 6818SOL     OW31915   0.631   4.665  15.835  0.8937 -0.2964 -0.6772
 6818SOL    HW131916   0.657   4.575  15.853  0.8973  0.0252  0.9573
 6818SOL    HW231917   0.676   4.705  15.910  0.7048  0.1638 -0.8068
 6819SOL     OW31918   4.360   1.651   6.202 -0.2493 -0.0812  0.2978
 6819SOL    HW131919   4.322   1.611   6.124 -1.1350 -0.4350  0.9048
 6819SOL    HW231920   4.290   1.634   6.265  0.2232 -0.4098  0.7374
 6820SOL     OW31921   3.694   1.582   7.420  0.3253  0.1822 -0.0661
 6820SOL    HW131922   3.767   1.597   7.480  1.6347 -3.0274 -0.8531
 6820SOL    HW231923   3.687   1.487   7.413 -1.7313  0.2846  0.7526
 6821SOL     OW31924   2.878   4.453   4.818  0.2415  0.2038  0.5750
 6821SOL    HW131925   2.945   4.486   4.759 -0.2931  1.0020  0.3997
 6821SOL    HW231926   2.820   4.529   4.806 -0.0253 -0.1746 -0.5303
 6822SOL     OW31927   3.144   3.703   8.866  0.3852  0.3528  0.4744
 6822SOL    HW131928   3.217   3.695   8.805 -1.4941 -0.9046 -1.5820
 6822SOL    HW231929   3.074   3.656   8.821  0.1182 -0.3208  1.5682
 6823SOL     OW31930   3.193   4.712   8.086 -0.6879 -0.0916 -0.1171
 6823SOL    HW131931   3.174   4.687   7.996  0.0881 -1.9946  0.2463
 6823SOL    HW231932   3.132   0.066   8.093 -0.7758 -0.3738  2.2498
 6824SOL     OW31933   4.496   0.127  10.709 -0.3774 -1.0017  0.2526
 6824SOL    HW131934   4.511   0.208  10.660  1.9634 -0.9270  1.0838
 6824SOL    HW231935   4.433   0.085  10.651  0.7084 -3.3637  0.8044
 6825SOL     OW31936   3.781   0.482  10.780  0.1410  0.7223 -0.2600
 6825SOL    HW131937   3.809   0.558  10.729 -2.1920  0.1336 -2.4339
 6825SOL    HW231938   3.700   0.516  10.817 -0.2017 -0.0326 -0.3241
 6826SOL     OW31939   4.062   3.829   2.452 -0.2044 -0.0902 -0.2513
 6826SOL    HW131940   3.993   3.891   2.430 -0.8387 -0.5023  0.5568
 6826SOL    HW231941   4.029   3.748   2.413  0.5834 -0.8135  0.5708
 6827SOL     OW31942   0.087   0.343   7.716  0.3688  0.0193 -0.3182
 6827SOL    HW131943   0.092   0.404   7.642 -0.3780 -0.1075 -0.4760
 6827SOL    HW231944   0.083   0.395   7.797  2.4168  0.9517 -0.8229
 6828SOL     OW31945   1.080   0.381  17.260 -0.2787 -0.0309  0.5708
 6828SOL    HW131946   1.115   0.467  17.282 -3.3487  0.8703  1.9053
 6828SOL    HW231947   1.053   0.358  17.348 -0.7147 -2.0737 -0.1051
 6829SOL     OW31948   0.210   4.444   7.815  0.2823 -0.0805 -0.0072
 6829SOL    HW131949   0.145   4.513   7.816 -1.9238 -2.1612 -2.6852
 6829SOL    HW231950   0.208   4.393   7.897  0.6389  1.0779  0.7255
 6830SOL     OW31951   0.708   1.794  10.633  0.1294 -0.2462  0.2999
 6830SOL    HW131952   0.670   1.799  10.721 -0.3620  0.8875  0.0233
 6830SOL    HW231953   0.738   1.703  10.628 -0.5645 -0.5592  1.9399
 6831SOL     OW31954   2.177   2.095  13.892  0.1895  0.2359  0.3142
 6831SOL    HW131955   2.190   2.009  13.934  0.3138  0.4826  0.7811
 6831SOL    HW231956   2.094   2.089  13.844 -0.0442 -0.0252  0.7474
 6832SOL     OW31957   2.128   1.888   5.050 -0.3575 -0.1738 -0.0433
 6832SOL    HW131958   2.208   1.928   5.017 -0.2552 -1.5174 -1.3916
 6832SOL    HW231959   2.128   1.803   5.006 -0.9332  0.0588 -0.5008
 6833SOL     OW31960   3.477   1.110   3.113  0.0726  0.0928  0.4731
 6833SOL    HW131961   3.474   1.171   3.188  0.6584  0.3032  0.3286
 6833SOL    HW231962   3.453   1.164   3.037  2.1200 -0.3176 -0.4449
 6834SOL     OW31963   0.319   2.270  17.326  0.0434  0.2227 -0.1231
 6834SOL    HW131964   0.386   2.281  17.394 -0.5235  2.0342  0.1535
 6834SOL    HW231965   0.267   2.349  17.343 -1.1166 -0.6924  0.5858
 6835SOL     OW31966   2.248   4.010   0.038  0.1197  0.1996  0.4494
 6835SOL    HW131967   2.192   4.025  17.643 -1.4001 -2.3757  1.0564
 6835SOL    HW231968   2.208   3.935   0.082  1.8681  0.9679  3.3878
 6836SOL     OW31969   3.072   2.702   3.817 -0.3108 -0.1162 -0.0853
 6836SOL    HW131970   3.011   2.635   3.785  0.7948 -1.7459  1.2067
 6836SOL    HW231971   3.139   2.644   3.853 -1.3758 -1.0592  0.3981
 6837SOL     OW31972   1.968   2.424   9.481  0.3125 -0.3692 -0.0551
 6837SOL    HW131973   1.985   2.468   9.564  0.4580  0.8319 -0.7249
 6837SOL    HW231974   1.945   2.493   9.419  1.8002  0.1045 -0.0830
 6838SOL     OW31975   1.828   2.596   9.303 -0.3385 -0.0306  0.0827
 6838SOL    HW131976   1.781   2.652   9.242 -2.0043 -1.5746 -0.0319
 6838SOL    HW231977   1.848   2.661   9.371  0.2721 -0.5928  0.4428
 6839SOL     OW31978   2.304   2.314   3.111  0.2192 -0.2144 -0.1394
 6839SOL    HW131979   2.218   2.356   3.106 -0.0707 -0.7100  0.6136
 6839SOL    HW231980   2.281   2.255   3.184 -2.7725 -0.0705 -0.9737
 6840SOL     OW31981   0.906   4.320  10.655  0.3153 -0.0966  0.7594
 6840SOL    HW131982   0.972   4.381  10.622  0.1133 -0.2873  0.0091
 6840SOL    HW231983   0.949   4.237  10.631 -0.9740  0.0568 -2.0313
 6841SOL     OW31984   2.843   1.037   6.800  0.1611  0.1686  0.1995
 6841SOL    HW131985   2.838   0.987   6.719  0.1386 -0.1847  0.4227
 6841SOL    HW231986   2.912   1.101   6.785 -0.0034  0.1672 -0.5697
 6842SOL     OW31987   0.377   1.502   6.572 -0.2905 -0.3762 -0.1339
 6842SOL    HW131988   0.380   1.527   6.664  0.7738  2.9910 -1.1053
 6842SOL    HW231989   0.406   1.412   6.585  0.0117 -0.4527 -1.3425
 6843SOL     OW31990   2.456   3.090  14.041  0.3382 -0.1032 -0.3284
 6843SOL    HW131991   2.466   3.166  14.097 -4.8172 -0.0745  0.5865
 6843SOL    HW231992   2.549   3.068  14.035  0.3377 -0.0587 -0.5163
 6844SOL     OW31993   3.061   2.124   4.882  0.1027  0.2378  0.6749
 6844SOL    HW131994   3.127   2.057   4.895  0.6804  0.8586  0.9609
 6844SOL    HW231995   3.083   2.151   4.793  0.4208 -1.4723  0.2515
 6845SOL     OW31996   2.648   2.459  14.493 -0.0847  0.1789 -0.1659
 6845SOL    HW131997   2.565   2.414  14.478 -0.8600  1.7974 -0.7471
 6845SOL    HW231998   2.698   2.449  14.411 -0.4784  1.5563 -0.5655
 6846SOL     OW31999   1.346   2.754   4.683 -0.5659 -0.6745 -0.8725
 6846SOL    HW132000   1.381   2.730   4.769  1.2215 -0.6913 -1.5918
 6846SOL    HW232001   1.390   2.838   4.675  0.5043 -1.1609 -0.0979
 6847SOL     OW32002   2.496   0.875   5.523 -0.0835  0.0727  0.0795
 6847SOL    HW132003   2.555   0.947   5.545 -0.3406  0.5138 -0.6821
 6847SOL    HW232004   2.556   0.809   5.490 -1.8807  0.5788 -4.1099
 6848SOL     OW32005   2.852   3.795  14.331 -0.2828  0.0502 -0.4218
 6848SOL    HW132006   2.780   3.858  14.325  2.3058  3.0163 -0.4689
 6848SOL    HW232007   2.884   3.799  14.241 -0.7603  0.7428 -0.5628
 6849SOL     OW32008   3.244   3.003   2.910 -0.2207  0.2026  0.0417
 6849SOL    HW132009   3.328   3.044   2.933  0.3197 -1.7016  1.5130
 6849SOL    HW232010   3.280   2.936   2.851  2.0489  1.5459 -0.1192
 6850SOL     OW32011   1.382   2.717   2.494 -0.2518 -0.2173 -0.1443
 6850SOL    HW132012   1.471   2.688   2.473 -0.7459 -1.1412 -0.9287
 6850SOL    HW232013   1.368   2.660   2.569  0.8289  1.4242  1.3259
 6851SOL     OW32014   3.502   4.177   8.362  0.0173  0.2673 -0.0910
 6851SOL    HW132015   3.559   4.253   8.373  1.7654 -0.9767 -0.7018
 6851SOL    HW232016   3.415   4.213   8.381  0.2566  0.3480  0.8226
 6852SOL     OW32017   1.737   4.675  16.173 -0.6292  0.2163 -0.3245
 6852SOL    HW132018   1.801   0.025  16.190  0.9797 -0.8780 -1.9230
 6852SOL    HW232019   1.667   4.687  16.237 -0.3631 -0.0343  0.0128
 6853SOL     OW32020   3.708   0.997   5.719  0.1220  0.0550 -0.0309
 6853SOL    HW132021   3.666   0.912   5.728  0.5212 -0.3006 -1.6080
 6853SOL    HW232022   3.649   1.047   5.776 -0.0028  1.4884 -1.4176
 6854SOL     OW32023   2.063   2.751   5.837  0.0152  0.2191  0.2760
 6854SOL    HW132024   2.080   2.816   5.904  0.8535 -1.6118  1.8329
 6854SOL    HW232025   2.102   2.799   5.764  0.3953 -1.0932 -0.3996
 6855SOL     OW32026   3.515   2.696   9.357  0.1061 -0.2201  0.1345
 6855SOL    HW132027   3.551   2.621   9.404 -0.9150 -1.2786 -0.7697
 6855SOL    HW232028   3.592   2.745   9.330 -1.2302  1.3640 -0.8052
 6856SOL     OW32029   2.484   2.903   3.194 -0.0482 -0.4046  0.5881
 6856SOL    HW132030   2.398   2.906   3.153 -0.5353  0.4088  1.6767
 6856SOL    HW232031   2.470   2.963   3.266 -0.5065 -1.0107  1.0033
 6857SOL     OW32032   3.349   1.169   6.937 -0.1032  0.1363  0.2886
 6857SOL    HW132033   3.297   1.093   6.966 -0.8215 -0.3529 -2.3115
 6857SOL    HW232034   3.439   1.142   6.952 -0.0912 -0.9244 -1.7045
 6858SOL     OW32035   3.475   0.491   6.695  0.4796 -0.3649  0.3137
 6858SOL    HW132036   3.550   0.528   6.743  0.0879 -1.7271  1.9938
 6858SOL    HW232037   3.405   0.544   6.732  2.8493  1.8785  1.5692
 6859SOL     OW32038   0.253   0.353   3.417  0.2043  0.2612 -0.0435
 6859SOL    HW132039   0.173   0.380   3.371 -0.0474 -0.5340 -0.0712
 6859SOL    HW232040   0.230   0.385   3.504 -2.7757 -0.6524 -0.4873
 6860SOL     OW32041   0.887   3.925  14.209  0.4811 -0.2060  0.1296
 6860SOL    HW132042   0.949   3.889  14.272  1.6616  6.4504  2.7185
 6860SOL    HW232043   0.826   3.971  14.266  0.4228 -1.1630  0.8424
 6861SOL     OW32044   2.837   3.827   6.921  0.5900 -0.1027  0.2004
 6861SOL    HW132045   2.832   3.884   6.998  1.5669 -1.1571  1.0570
 6861SOL    HW232046   2.779   3.876   6.864  0.9329 -1.8731 -1.6809
 6862SOL     OW32047   3.918   2.223   5.517  0.0523  0.0460  0.3163
 6862SOL    HW132048   3.868   2.230   5.436  2.4189 -1.2713 -1.2851
 6862SOL    HW232049   3.958   2.137   5.504  0.0912 -0.3096  2.6595
 6863SOL     OW32050   1.590   4.356   8.220  0.1189 -0.2365 -0.2095
 6863SOL    HW132051   1.682   4.382   8.226  0.5422 -1.2069 -2.8799
 6863SOL    HW232052   1.587   4.290   8.289 -0.3584 -0.2370 -0.2344
 6864SOL     OW32053   0.635   0.758  15.025  0.6306 -0.2145 -0.5144
 6864SOL    HW132054   0.727   0.756  15.052  0.5903 -1.4226 -0.4717
 6864SOL    HW232055   0.606   0.672  15.053  0.5758  0.5115  1.6662
 6865SOL     OW32056   3.988   2.900  14.452 -0.1359  0.4819  0.8583
 6865SOL    HW132057   3.959   2.974  14.504  1.7023  1.0935  1.0037
 6865SOL    HW232058   4.006   2.948  14.371  0.8735  2.3594  2.2060
 6866SOL     OW32059   3.996   0.824   3.004 -0.2486 -0.0718 -0.0135
 6866SOL    HW132060   3.986   0.903   2.950  2.0355 -0.7944 -1.4672
 6866SOL    HW232061   4.030   0.755   2.948  0.0656  0.0889 -0.0177
 6867SOL     OW32062   4.421   4.541   9.643 -0.2245  0.0828 -0.3195
 6867SOL    HW132063   4.347   4.526   9.583 -0.7204  0.4155  0.2105
 6867SOL    HW232064   4.379   4.535   9.729 -0.3403  1.2829 -0.2865
 6868SOL     OW32065   0.176   0.388   8.399 -0.2386  0.3360 -0.5447
 6868SOL    HW132066   0.088   0.359   8.371 -0.5615 -0.5582  1.3502
 6868SOL    HW232067   0.203   0.297   8.410  1.7157  1.0065  0.1049
 6869SOL     OW32068   1.929   2.052   2.691 -0.1043  0.3660  0.7803
 6869SOL    HW132069   1.995   2.026   2.627  0.4874 -0.0060  1.5511
 6869SOL    HW232070   1.944   2.146   2.699  1.2284  0.3649 -1.8113
 6870SOL     OW32071   1.597   3.616   1.078 -0.1135  0.1807 -0.2652
 6870SOL    HW132072   1.578   3.539   1.025 -1.1031 -0.1158  0.5231
 6870SOL    HW232073   1.570   3.686   1.019  0.8804 -0.9085 -2.0092
 6871SOL     OW32074   0.489   3.857   5.180 -0.1970  0.0090 -0.2390
 6871SOL    HW132075   0.404   3.835   5.142  0.8494 -1.5032 -1.6783
 6871SOL    HW232076   0.486   3.953   5.174 -0.1191  0.0053 -0.3401
 6872SOL     OW32077   2.744   1.008   5.227  0.3935  0.7323 -0.2229
 6872SOL    HW132078   2.756   1.045   5.315 -0.8908  0.6888 -0.0277
 6872SOL    HW232079   2.724   0.916   5.249  0.9226  0.8068  0.5888
 6873SOL     OW32080   4.548   1.667   3.821  0.0331 -0.2563  0.2961
 6873SOL    HW132081   4.492   1.591   3.810  2.5201 -1.4502 -4.3022
 6873SOL    HW232082   4.497   1.726   3.876 -0.2107 -0.1491 -0.0431
 6874SOL     OW32083   0.268   4.014   6.352 -0.5998  0.0240  0.7726
 6874SOL    HW132084   0.363   4.004   6.350 -0.8092 -2.1631  1.5167
 6874SOL    HW232085   0.253   3.993   6.444  1.4990  0.9120  1.3202
 6875SOL     OW32086   1.507   2.654   8.340 -0.5497  0.4217  0.2936
 6875SOL    HW132087   1.576   2.607   8.292 -0.8573 -0.6532  0.9105
 6875SOL    HW232088   1.551   2.737   8.363  1.2085 -0.1372 -1.0451
 6876SOL     OW32089   2.337   2.571  11.762  0.1562  0.3989 -0.2390
 6876SOL    HW132090   2.322   2.478  11.744 -2.0955  0.7641 -0.1566
 6876SOL    HW232091   2.273   2.595  11.829  0.6376  1.7332 -0.2678
 6877SOL     OW32092   0.479   0.437   5.724  0.3196 -0.3559 -0.5000
 6877SOL    HW132093   0.569   0.403   5.720  0.4607 -0.0304 -0.0989
 6877SOL    HW232094   0.434   0.378   5.663 -1.8317 -0.6036  1.3568
 6878SOL     OW32095   4.676   0.337  15.428 -0.3418  0.3236 -0.3058
 6878SOL    HW132096   4.660   0.338  15.333  0.8156  1.1301 -0.4901
 6878SOL    HW232097   4.592   0.366  15.463 -0.1007  0.4316  0.1888
 6879SOL     OW32098   2.362   2.060   3.306  0.2168  0.5245 -0.4475
 6879SOL    HW132099   2.351   2.003   3.230  0.0361  1.2989 -1.0045
 6879SOL    HW232100   2.455   2.039   3.319 -0.0022 -0.0433  0.2200
 6880SOL     OW32101   1.693   4.179   5.190  0.6094  0.0519  0.5431
 6880SOL    HW132102   1.623   4.221   5.240 -0.2435 -0.2549 -0.3802
 6880SOL    HW232103   1.650   4.185   5.104  0.2807  0.7567  0.7583
 6881SOL     OW32104   4.211   1.184   2.467 -0.5596 -0.6248 -0.3354
 6881SOL    HW132105   4.159   1.132   2.407  1.1661 -1.7869 -0.8113
 6881SOL    HW232106   4.285   1.124   2.481 -0.6217 -0.0828  2.4374
 6882SOL     OW32107   0.365   4.070   4.265 -0.2138  0.5917  0.6242
 6882SOL    HW132108   0.343   4.130   4.194 -0.4583 -0.0703  0.1402
 6882SOL    HW232109   0.459   4.061   4.255  0.0051  2.1544  1.2258
 6883SOL     OW32110   0.486   3.403  11.107 -0.3231  0.4399 -0.1168
 6883SOL    HW132111   0.459   3.325  11.155  1.2272  0.8779  1.4400
 6883SOL    HW232112   0.567   3.371  11.065 -0.6681 -2.2401  1.2501
 6884SOL     OW32113   0.086   1.955   3.799  0.1146 -0.1082  0.5243
 6884SOL    HW132114   0.035   1.935   3.720 -0.5153  0.1586  0.8678
 6884SOL    HW232115   0.177   1.931   3.779 -0.3579 -1.9672  0.6872
 6885SOL     OW32116   0.703   2.519   4.593  0.5073 -0.4095 -0.0917
 6885SOL    HW132117   0.754   2.450   4.550  1.4817 -0.3945  1.0232
 6885SOL    HW232118   0.756   2.596   4.574  0.4528  0.3634  2.8485
 6886SOL     OW32119   2.202   3.668   5.312 -0.5169  0.5568  0.3515
 6886SOL    HW132120   2.203   3.579   5.277 -0.3166  0.5972  0.2520
 6886SOL    HW232121   2.200   3.719   5.231  0.3223  0.4437  0.2564
 6887SOL     OW32122   1.853   0.261   2.086  0.2537  0.1344 -0.3597
 6887SOL    HW132123   1.761   0.234   2.085 -0.1340  1.4761 -1.4235
 6887SOL    HW232124   1.878   0.227   2.000  1.7038  2.8253 -1.0368
 6888SOL     OW32125   1.147   3.765   0.596  0.0116 -0.6292 -0.0642
 6888SOL    HW132126   1.103   3.691   0.555 -3.4138  2.0239 -1.1330
 6888SOL    HW232127   1.074   3.784   0.655  0.8093 -0.8252  0.9796
 6889SOL     OW32128   1.202   2.051   6.932 -1.0853 -0.1437 -0.2430
 6889SOL    HW132129   1.178   1.969   6.975 -1.4853  0.2548  0.3008
 6889SOL    HW232130   1.295   2.037   6.912 -1.3378 -5.3488  2.2012
 6890SOL     OW32131   2.242   4.235   5.723  0.1348  0.0171 -0.8931
 6890SOL    HW132132   2.227   4.164   5.661  2.4274  0.3951 -1.8923
 6890SOL    HW232133   2.154   4.252   5.756  0.2522 -2.2693  0.6263
 6891SOL     OW32134   4.681   2.206   6.089  0.2760 -0.3062  0.3995
 6891SOL    HW132135   4.719   2.184   6.174  1.6303  2.0213  0.4166
 6891SOL    HW232136   4.589   2.191   6.109  0.1454  1.1507  0.9411
 6892SOL     OW32137   1.698   0.968   7.775 -0.1236 -0.3720 -0.1830
 6892SOL    HW132138   1.611   0.986   7.810 -0.2659  0.6713 -1.0995
 6892SOL    HW232139   1.672   0.941   7.687  2.8091  0.2267 -1.2122
 6893SOL     OW32140   2.153   2.270   1.297  0.0861 -0.0073  0.1597
 6893SOL    HW132141   2.124   2.196   1.244 -0.2373 -0.9962  1.7084
 6893SOL    HW232142   2.202   2.229   1.368  0.0473 -0.5855 -0.1435
 6894SOL     OW32143   2.225   4.046   7.567 -0.5083 -0.4506 -0.2455
 6894SOL    HW132144   2.136   4.013   7.578 -1.0262  0.4424 -1.6603
 6894SOL    HW232145   2.274   3.965   7.581  1.0875  0.6207  0.4227
 6895SOL     OW32146   4.090   3.084   4.928  1.0581  0.0888 -0.3218
 6895SOL    HW132147   4.011   3.090   4.982  1.4404 -1.9456  0.4753
 6895SOL    HW232148   4.068   3.026   4.855  0.8978 -1.5357  1.0193
 6896SOL     OW32149   0.991   3.765  16.381  0.9290  0.4355  0.2214
 6896SOL    HW132150   0.954   3.682  16.413  2.2358  0.4028  1.6418
 6896SOL    HW232151   1.057   3.787  16.446 -0.4802 -1.3796  2.2855
 6897SOL     OW32152   4.687   3.910   4.778 -0.7431 -0.3928 -0.2878
 6897SOL    HW132153   4.648   3.954   4.855  0.3900 -1.1847  0.7320
 6897SOL    HW232154   4.715   3.824   4.809  0.2079  0.3050  0.8157
 6898SOL     OW32155   4.113   3.288  14.080  0.5039  0.2148  0.0977
 6898SOL    HW132156   4.070   3.361  14.036 -1.5784 -0.4287  1.0771
 6898SOL    HW232157   4.108   3.317  14.171 -4.3461  0.3894 -0.2280
 6899SOL     OW32158   2.235   4.282   8.712  0.4064 -0.3903 -0.3400
 6899SOL    HW132159   2.167   4.218   8.730  0.1496  0.0369  0.2303
 6899SOL    HW232160   2.181   4.348   8.668  0.5317  0.1012  0.2279
 6900SOL     OW32161   2.917   3.415  16.871  0.3120 -0.2346 -0.0371
 6900SOL    HW132162   2.923   3.321  16.888  0.4563 -0.1728  0.2630
 6900SOL    HW232163   2.949   3.414  16.781 -0.2577  0.2900 -0.2427
 6901SOL     OW32164   4.203   2.977   4.519 -0.2152  0.0352  0.0850
 6901SOL    HW132165   4.228   3.070   4.527 -1.6649  0.6272 -2.2912
 6901SOL    HW232166   4.119   2.990   4.476  0.8764 -0.5798 -2.2413
 6902SOL     OW32167   1.256   3.819   5.360 -0.8589  0.4899  0.3549
 6902SOL    HW132168   1.248   3.906   5.400 -4.0537  1.2363 -1.9700
 6902SOL    HW232169   1.223   3.767   5.434 -0.6622 -0.1611 -0.0225
 6903SOL     OW32170   1.009   1.080   0.733 -0.1504 -0.2164 -0.0712
 6903SOL    HW132171   1.057   1.121   0.661 -1.1295  1.2508  0.1157
 6903SOL    HW232172   1.084   1.044   0.782  2.1993  1.8903 -2.0976
 6904SOL     OW32173   0.881   3.350   6.164 -1.2941  0.4453  0.0289
 6904SOL    HW132174   0.893   3.338   6.258 -1.4356  0.8198  0.0952
 6904SOL    HW232175   0.973   3.354   6.137 -1.1074  1.6606  0.8477
 6905SOL     OW32176   1.759   0.613   7.442 -0.3771 -0.5125 -0.1129
 6905SOL    HW132177   1.850   0.593   7.461 -0.3747 -0.3793  0.0133
 6905SOL    HW232178   1.727   0.592   7.530 -2.3571 -0.7137 -0.8728
 6906SOL     OW32179   1.942   0.358   7.681 -0.2767 -0.2481  0.3588
 6906SOL    HW132180   1.947   0.275   7.635  1.7426 -0.0421  0.1969
 6906SOL    HW232181   1.978   0.417   7.615 -2.1744 -1.7310 -2.0186
 6907SOL     OW32182   2.629   1.836   4.104  0.0152  0.2177 -0.5682
 6907SOL    HW132183   2.621   1.745   4.133  0.0311 -0.6361 -3.2387
 6907SOL    HW232184   2.688   1.858   4.176 -2.0280  0.1927  1.0950
 6908SOL     OW32185   3.681   1.577   1.560 -0.2749  0.7892  0.4447
 6908SOL    HW132186   3.697   1.663   1.520 -0.7548 -0.9542 -3.4638
 6908SOL    HW232187   3.586   1.569   1.553 -0.2482 -0.2744  1.3241
 6909SOL     OW32188   2.626   0.752  10.723 -0.1426 -0.2220 -0.1990
 6909SOL    HW132189   2.571   0.827  10.748  0.5977 -0.8369  3.2408
 6909SOL    HW232190   2.564   0.682  10.744 -0.2445  0.3905  1.5971
 6910SOL     OW32191   3.743   0.828  15.990 -0.2023  0.6343 -0.0796
 6910SOL    HW132192   3.725   0.734  15.995  0.6847  0.3354 -2.7580
 6910SOL    HW232193   3.689   0.840  15.912  0.9311 -0.8317 -1.0836
 6911SOL     OW32194   4.610   3.437   4.317  0.4853  0.2626 -0.3958
 6911SOL    HW132195   4.649   3.505   4.372  1.6389 -0.8797  0.1938
 6911SOL    HW232196   4.618   3.364   4.378 -0.9148 -1.3799 -2.1869
 6912SOL     OW32197   3.100   0.014  12.971 -0.0282  0.1766  0.1026
 6912SOL    HW132198   3.130   0.065  12.896  0.6319  0.9958  0.9150
 6912SOL    HW232199   3.036   0.074  13.009  0.8924  1.7723 -0.8532
 6913SOL     OW32200   3.057   4.305   4.992 -0.2904 -0.3217  0.6030
 6913SOL    HW132201   3.141   4.338   4.962  0.4116 -1.6126  1.1642
 6913SOL    HW232202   2.997   4.354   4.935  0.1392 -1.8737 -1.1930
 6914SOL     OW32203   3.349   2.452   4.179  0.4275  0.4278  0.1158
 6914SOL    HW132204   3.396   2.381   4.136  1.6969  1.2199  0.1813
 6914SOL    HW232205   3.279   2.467   4.116  0.4373  0.5458  0.1330
 6915SOL     OW32206   4.330   1.006  17.102  0.2698  0.3429 -0.1367
 6915SOL    HW132207   4.414   0.980  17.063  0.8375  2.3280 -0.2614
 6915SOL    HW232208   4.364   1.067  17.167 -1.0094  2.5270 -1.5089
 6916SOL     OW32209   1.880   4.379   8.232 -0.7074 -0.0507  0.2536
 6916SOL    HW132210   1.963   4.333   8.219 -0.4867  0.8446 -1.4429
 6916SOL    HW232211   1.912   4.426   8.310  0.8923 -0.2378 -0.2809
 6917SOL     OW32212   2.277   4.161  14.389  0.4421  0.3306  0.1026
 6917SOL    HW132213   2.367   4.169  14.356  0.8121 -1.2325  0.7157
 6917SOL    HW232214   2.274   4.067  14.407  1.1026 -0.3020 -2.9685
 6918SOL     OW32215   4.655   1.004  12.751 -0.1482  0.1113  0.1963
 6918SOL    HW132216   4.571   0.958  12.750  0.2702 -0.6876  3.3780
 6918SOL    HW232217   4.673   0.982  12.659 -1.4357  1.7085 -0.4441
 6919SOL     OW32218   4.186   0.820   8.537 -0.1676 -0.6498 -0.5631
 6919SOL    HW132219   4.183   0.836   8.443  2.0830 -0.8391 -0.6688
 6919SOL    HW232220   4.092   0.821   8.552  0.1142  1.6666  1.1222
 6920SOL     OW32221   2.993   4.082   6.155 -0.2853 -0.5570 -0.0576
 6920SOL    HW132222   2.949   4.153   6.201  0.5002 -0.4188  0.4751
 6920SOL    HW232223   3.028   4.123   6.076 -0.9197  1.9809  0.9777
 6921SOL     OW32224   0.915   2.936  15.926 -0.0771  0.3856  0.3836
 6921SOL    HW132225   0.900   2.860  15.871 -1.8666  1.7760 -1.0266
 6921SOL    HW232226   1.003   2.965  15.903  0.0061  0.8303  1.2532
 6922SOL     OW32227   1.539   0.029  17.075  0.6477 -0.4810 -0.8020
 6922SOL    HW132228   1.481   0.104  17.061 -0.6134 -1.2545  0.2745
 6922SOL    HW232229   1.559   0.004  16.985 -2.2079  0.8061 -1.8122
 6923SOL     OW32230   2.452   3.323   5.608  0.1511 -0.1455 -0.0746
 6923SOL    HW132231   2.443   3.415   5.581  0.7658 -0.6242 -1.8918
 6923SOL    HW232232   2.479   3.341   5.698 -1.6701 -2.4410  0.9323
 6924SOL     OW32233   3.421   1.356   6.031 -0.2937 -0.3899 -0.5519
 6924SOL    HW132234   3.411   1.320   6.119  0.9398 -0.7958 -0.5851
 6924SOL    HW232235   3.450   1.275   5.989  2.3908  0.9876 -1.3335
 6925SOL     OW32236   2.805   3.422   2.175  0.3442 -0.3345  0.7392
 6925SOL    HW132237   2.773   3.355   2.236 -0.4616 -0.2131  0.4554
 6925SOL    HW232238   2.892   3.434   2.213  0.3174 -0.5751  0.8729
 6926SOL     OW32239   3.280   2.815   9.692  0.2529 -0.1894  0.3110
 6926SOL    HW132240   3.318   2.790   9.776  0.7279 -0.4795  0.0064
 6926SOL    HW232241   3.221   2.742   9.675  0.8358 -1.0263  1.9313
 6927SOL     OW32242   0.840   2.758   4.548  0.9687  0.1248 -0.0357
 6927SOL    HW132243   0.882   2.837   4.581 -0.5665 -0.2526  2.7784
 6927SOL    HW232244   0.792   2.802   4.478  0.0726 -1.3428 -0.3586
 6928SOL     OW32245   3.211   4.095   2.194  0.0321 -0.1940 -0.0361
 6928SOL    HW132246   3.135   4.154   2.191 -1.3737 -2.0927 -1.3411
 6928SOL    HW232247   3.212   4.081   2.288 -2.0678 -1.7628 -0.2444
 6929SOL     OW32248   1.625   0.690  15.539 -0.6653  0.5947 -0.0653
 6929SOL    HW132249   1.536   0.663  15.561 -1.1443  2.0417 -0.2835
 6929SOL    HW232250   1.651   0.601  15.514 -0.8964  0.0724  1.5183
 6930SOL     OW32251   4.427   2.550   3.555 -0.0546  0.0618  1.3283
 6930SOL    HW132252   4.473   2.585   3.479  1.1028 -2.5069  0.8412
 6930SOL    HW232253   4.342   2.533   3.516  0.1172  0.8097  0.6183
 6931SOL     OW32254   0.487   3.338   5.049  0.7554 -0.2952 -0.3312
 6931SOL    HW132255   0.461   3.340   5.141  0.3521  1.1213 -0.4878
 6931SOL    HW232256   0.567   3.390   5.045 -0.8893  2.1922 -0.6446
 6932SOL     OW32257   1.003   1.464   5.662  0.3854  0.1982 -0.2905
 6932SOL    HW132258   0.996   1.385   5.608  0.6217  0.1129 -0.1997
 6932SOL    HW232259   1.033   1.441   5.750  1.6875 -2.2952 -1.3844
 6933SOL     OW32260   0.633   0.538   4.860  0.3632  0.0825 -0.0792
 6933SOL    HW132261   0.561   0.596   4.833  1.1832  0.9323 -0.4643
 6933SOL    HW232262   0.627   0.548   4.955 -0.2738  0.3064 -0.1414
 6934SOL     OW32263   0.764   3.264   9.523  0.6671  0.2820 -0.5169
 6934SOL    HW132264   0.853   3.297   9.536  0.8575 -0.2360 -0.5255
 6934SOL    HW232265   0.769   3.183   9.574  0.5525  0.1498 -0.7169
 6935SOL     OW32266   3.159   3.200   8.165  0.2825 -0.6249 -0.2012
 6935SOL    HW132267   3.131   3.229   8.079 -0.2471 -1.6366 -0.3663
 6935SOL    HW232268   3.089   3.229   8.223 -0.6657  1.2640 -2.3330
 6936SOL     OW32269   4.652   4.217  15.902 -0.7338  0.5298  0.0133
 6936SOL    HW132270   4.586   4.210  15.833  0.8624 -0.6156 -1.4156
 6936SOL    HW232271   4.604   4.263  15.970 -1.3393  0.5400 -0.4240
 6937SOL     OW32272   1.512   4.437   5.520 -0.0084  0.7557  1.0835
 6937SOL    HW132273   1.607   4.446   5.529  0.4237 -1.1896 -1.4432
 6937SOL    HW232274   1.494   4.387   5.600 -2.3885  0.4130  0.3212
 6938SOL     OW32275   3.129   2.688  17.271 -0.3730 -1.0848  0.2131
 6938SOL    HW132276   3.146   2.655  17.183 -3.2509 -0.6322 -0.5017
 6938SOL    HW232277   3.147   2.782  17.265  0.5666 -1.2337  0.5658
 6939SOL     OW32278   3.882   3.184   2.393  0.5366 -0.0979  0.1444
 6939SOL    HW132279   3.949   3.183   2.461 -0.2245  0.5941  0.9073
 6939SOL    HW232280   3.803   3.204   2.444 -0.7268 -0.2680 -1.7478
 6940SOL     OW32281   2.612   3.715  16.290 -0.0104  0.7350 -0.0677
 6940SOL    HW132282   2.681   3.720  16.357 -1.8477  2.9135  1.6503
 6940SOL    HW232283   2.565   3.639  16.324 -0.7216  0.8496 -0.7985
 6941SOL     OW32284   0.057   3.055   4.535  0.1523 -0.1421  0.0929
 6941SOL    HW132285   0.052   2.996   4.460 -1.6783 -1.3320  1.1592
 6941SOL    HW232286   4.684   3.076   4.538  0.1792 -0.2000  1.4385
 6942SOL     OW32287   3.631   2.110   6.484 -0.1681  0.0239  0.0451
 6942SOL    HW132288   3.669   2.198   6.476 -1.6899  0.4761 -2.1045
 6942SOL    HW232289   3.707   2.054   6.469  2.8297  4.0559  0.1661
 6943SOL     OW32290   3.777   1.118  16.411  0.3061  0.2911 -0.3120
 6943SOL    HW132291   3.793   1.205  16.373  3.2603 -0.5932 -1.1005
 6943SOL    HW232292   3.853   1.127  16.470  0.7757  1.3926 -1.0685
 6944SOL     OW32293   1.789   4.221   6.114  0.3506 -0.2451 -0.2090
 6944SOL    HW132294   1.733   4.278   6.167 -1.4061 -2.0575 -0.1092
 6944SOL    HW232295   1.874   4.258   6.137  0.4164 -0.5122 -0.0164
 6945SOL     OW32296   1.529   1.911  14.511 -0.3173  0.3723  0.4284
 6945SOL    HW132297   1.619   1.921  14.480 -0.5239 -2.2230 -1.0357
 6945SOL    HW232298   1.543   1.967  14.587  1.0058  0.7927 -0.1263
 6946SOL     OW32299   0.311   1.089   5.533  0.1483  0.1163 -0.3798
 6946SOL    HW132300   0.255   1.099   5.609 -0.9117  0.9408 -1.2609
 6946SOL    HW232301   0.244   1.085   5.465 -0.6523 -1.8290  0.5487
 6947SOL     OW32302   1.940   2.622   6.683  0.2739 -0.0646 -0.0943
 6947SOL    HW132303   1.882   2.591   6.613 -1.0532 -0.0336  0.9921
 6947SOL    HW232304   1.888   2.698   6.708  1.6769  0.8159  0.1465
 6948SOL     OW32305   1.888   1.396  11.553  0.0683 -0.1385  0.5471
 6948SOL    HW132306   1.837   1.476  11.537 -0.1302 -0.4187 -0.2125
 6948SOL    HW232307   1.894   1.369  11.462 -0.3627 -1.6343  0.9679
 6949SOL     OW32308   1.898   3.952  13.112  0.3113 -0.0715  0.0254
 6949SOL    HW132309   1.929   3.940  13.202  1.2243  3.2697  0.1673
 6949SOL    HW232310   1.860   3.867  13.092 -2.6179  1.0791  0.6370
 6950SOL     OW32311   0.984   3.053  16.273  0.7041  0.4466  0.5637
 6950SOL    HW132312   0.939   3.013  16.347 -0.4717  0.7513  0.0199
 6950SOL    HW232313   0.974   3.145  16.296  0.2280  0.6559 -0.4572
 6951SOL     OW32314   0.803   2.535  10.004 -0.5306  0.6987 -0.3421
 6951SOL    HW132315   0.755   2.471   9.951 -0.7555 -0.8493  1.7276
 6951SOL    HW232316   0.727   2.574  10.046 -2.2236 -1.1296 -1.7117
 6952SOL     OW32317   4.280   1.890   4.376 -0.1743 -0.1554 -1.0720
 6952SOL    HW132318   4.235   1.900   4.460 -0.7798  1.5339 -1.5943
 6952SOL    HW232319   4.286   1.980   4.343 -1.6952  0.3127 -0.0584
 6953SOL     OW32320   2.719   1.710  15.793  0.4453 -0.3452 -0.4425
 6953SOL    HW132321   2.759   1.692  15.709  0.3741  0.2440 -0.6041
 6953SOL    HW232322   2.626   1.708  15.772  0.8529  0.6087 -2.3206
 6954SOL     OW32323   0.270   2.567   5.935  0.2251  0.2057  0.0773
 6954SOL    HW132324   0.177   2.551   5.920  0.4316 -0.2259 -0.6964
 6954SOL    HW232325   0.285   2.603   5.848 -1.0123 -1.0881 -0.6635
 6955SOL     OW32326   2.075   3.689  15.495 -0.5256 -0.6681 -0.5098
 6955SOL    HW132327   2.017   3.741  15.551 -1.4771 -0.3989 -1.7370
 6955SOL    HW232328   2.120   3.761  15.451 -1.8767 -0.2640 -1.2447
 6956SOL     OW32329   0.508   0.448   7.891 -0.8156  0.3638  0.3275
 6956SOL    HW132330   0.585   0.426   7.839 -0.4474 -0.7566  1.3560
 6956SOL    HW232331   0.438   0.465   7.829  0.4043 -0.8749 -1.3886
 6957SOL     OW32332   1.171   2.417  17.018  0.4579  0.3311  0.6701
 6957SOL    HW132333   1.253   2.367  17.018 -0.4706 -1.1610 -1.1935
 6957SOL    HW232334   1.186   2.470  16.940 -0.9752  0.7726  0.6917
 6958SOL     OW32335   1.889   3.480  11.063 -0.6460  0.4217 -0.3620
 6958SOL    HW132336   1.872   3.393  11.027 -0.0820  0.0084  0.3731
 6958SOL    HW232337   1.841   3.528  10.996  2.0791  1.7919 -1.3280
 6959SOL     OW32338   1.767   3.216  10.942  0.0611 -0.7342  0.1384
 6959SOL    HW132339   1.688   3.221  10.887  0.5374  1.9392 -0.3122
 6959SOL    HW232340   1.832   3.230  10.873  1.3345  0.2420  1.5294
 6960SOL     OW32341   3.946   4.316   5.485 -0.5580  0.0585 -0.3944
 6960SOL    HW132342   4.016   4.257   5.513 -0.1078 -0.4698 -2.5688
 6960SOL    HW232343   3.967   4.318   5.391 -1.7267 -3.5088 -0.7246
 6961SOL     OW32344   1.880   1.741   6.610 -0.3023 -0.0879  0.6568
 6961SOL    HW132345   1.975   1.739   6.594  0.0716 -0.1923  2.8377
 6961SOL    HW232346   1.851   1.803   6.543 -0.2766  0.4491  1.1398
 6962SOL     OW32347   3.773   2.336   2.181  0.0993  0.4288 -0.0280
 6962SOL    HW132348   3.718   2.257   2.182 -1.5397  1.5719  0.3259
 6962SOL    HW232349   3.711   2.409   2.187  0.8737  0.9622  1.4346
 6963SOL     OW32350   3.525   4.710   6.947  0.2373 -0.0364 -0.2339
 6963SOL    HW132351   3.602   0.035   6.913  0.2457  0.8296  0.9364
 6963SOL    HW232352   3.522   4.629   6.896  0.5365  0.3244 -0.8209
 6964SOL     OW32353   2.194   3.123   9.819 -0.3289  0.2824  0.0722
 6964SOL    HW132354   2.142   3.183   9.767  0.3392  1.8907  1.2607
 6964SOL    HW232355   2.126   3.089   9.878 -1.7816  1.2237 -1.0761
 6965SOL     OW32356   4.660   0.945   8.497  0.2804  0.7317 -0.4770
 6965SOL    HW132357   4.660   0.935   8.593  1.5448  0.1339 -0.5487
 6965SOL    HW232358   0.030   0.971   8.476  0.4255  0.3081 -0.3752
 6966SOL     OW32359   2.985   3.502   4.063 -0.1004 -0.2191  0.0097
 6966SOL    HW132360   2.916   3.436   4.075  0.5094 -1.0456 -0.9771
 6966SOL    HW232361   3.044   3.470   4.131 -0.3763  0.7723  0.7201
 6967SOL     OW32362   4.203   2.193   5.519  0.2188  0.1847  0.4292
 6967SOL    HW132363   4.132   2.257   5.510 -0.1106 -0.1870  0.4245
 6967SOL    HW232364   4.191   2.129   5.450 -0.2541  2.7461 -1.8803
 6968SOL     OW32365   2.531   2.367   7.054 -0.0996  0.0518 -0.5061
 6968SOL    HW132366   2.468   2.397   7.120 -0.4948 -2.0435  0.0640
 6968SOL    HW232367   2.581   2.448   7.048 -0.1734  0.1683  0.3743
 6969SOL     OW32368   1.257   0.334   3.904 -0.0419 -0.4013  0.0431
 6969SOL    HW132369   1.298   0.311   3.820 -0.0882  3.8582 -1.1820
 6969SOL    HW232370   1.244   0.426   3.878  1.8743  0.0174  0.5427
 6970SOL     OW32371   1.967   3.687   1.280  0.1451  0.0240  0.1970
 6970SOL    HW132372   1.930   3.714   1.196 -1.0744 -0.2790  0.6302
 6970SOL    HW232373   2.046   3.739   1.293 -0.7261  1.4607 -0.2407
 6971SOL     OW32374   1.705   0.128  16.628 -0.4778  0.4742  0.1451
 6971SOL    HW132375   1.769   0.129  16.699 -1.3790  0.1330  0.9478
 6971SOL    HW232376   1.736   0.195  16.566  0.8086  1.0433  1.4058
 6972SOL     OW32377   1.260   2.939   2.038 -0.0671  0.0135 -0.7259
 6972SOL    HW132378   1.278   2.883   2.113  0.0061  0.5795 -0.3252
 6972SOL    HW232379   1.326   3.007   2.049  0.4981 -0.6623  0.0458
 6973SOL     OW32380   3.106   3.300   7.422 -0.1298  0.1913 -0.1687
 6973SOL    HW132381   3.079   3.381   7.379  0.4084  0.6014  0.2641
 6973SOL    HW232382   3.202   3.303   7.425 -0.1408 -0.3450  0.7182
 6974SOL     OW32383   3.787   2.406   4.632  0.0020 -0.2248 -0.2508
 6974SOL    HW132384   3.828   2.492   4.629  1.8371 -1.0532  1.1656
 6974SOL    HW232385   3.714   2.428   4.573 -0.4035 -1.7564 -0.3475
 6975SOL     OW32386   0.570   2.688  15.382  0.0158  0.5033  0.3346
 6975SOL    HW132387   0.546   2.694  15.289 -1.4402  2.6400  0.8682
 6975SOL    HW232388   0.494   2.734  15.417 -0.1674  2.2160 -2.2822
 6976SOL     OW32389   1.835   2.893   2.024 -0.8772 -0.1159 -0.9663
 6976SOL    HW132390   1.782   2.865   1.950 -1.8208  0.5634 -0.5438
 6976SOL    HW232391   1.814   2.822   2.085  1.1253  2.6795  2.9290
 6977SOL     OW32392   0.908   1.694   9.356 -0.2664 -0.3562  0.0552
 6977SOL    HW132393   0.855   1.736   9.289  1.3834 -0.4746 -1.3316
 6977SOL    HW232394   0.893   1.763   9.421 -1.6519  1.2372 -1.9530
 6978SOL     OW32395   3.790   0.300   5.313  0.7754  0.4265  0.0708
 6978SOL    HW132396   3.730   0.241   5.359  0.9983  0.4111  0.3402
 6978SOL    HW232397   3.729   0.330   5.246 -1.8940 -1.0569  1.8097
 6979SOL     OW32398   1.257   3.798  11.048 -0.1712 -0.2499  0.1187
 6979SOL    HW132399   1.266   3.837  11.135 -0.4126 -0.0708  0.0633
 6979SOL    HW232400   1.291   3.710  11.066  0.5168  0.0777  0.4251
 6980SOL     OW32401   0.780   0.529  10.013  0.3478  0.2876  0.6698
 6980SOL    HW132402   0.723   0.503  10.086  0.5622 -0.5257  0.5458
 6980SOL    HW232403   0.747   0.615   9.987 -1.0766 -1.3970 -3.0573
 6981SOL     OW32404   4.035   2.265   2.875  0.1663 -0.3007 -0.0125
 6981SOL    HW132405   4.000   2.313   2.800 -0.7134  0.0494  0.6202
 6981SOL    HW232406   4.121   2.303   2.891 -0.0803  0.0045  0.5794
 6982SOL     OW32407   0.698   4.402  15.913  0.0414  0.2663 -0.1409
 6982SOL    HW132408   0.634   4.399  15.842 -0.5054  0.3476  0.3407
 6982SOL    HW232409   0.711   4.309  15.930  0.6213  0.3602 -0.0664
 6983SOL     OW32410   0.731   1.394   3.425  0.2597  0.3828  0.8916
 6983SOL    HW132411   0.636   1.393   3.411  0.3710  1.6220  0.0095
 6983SOL    HW232412   0.736   1.331   3.497  0.5386  0.6137  1.0714
 6984SOL     OW32413   0.384   3.143  17.301  0.4388 -0.0660  0.1320
 6984SOL    HW132414   0.399   3.225  17.255 -0.2377  0.6547  1.2007
 6984SOL    HW232415   0.289   3.151  17.312  0.2435 -0.8114 -1.0199
 6985SOL     OW32416   4.645   1.164   4.302  0.6731 -1.0211 -0.5577
 6985SOL    HW132417   4.663   1.137   4.391 -2.4907 -1.4661 -0.0758
 6985SOL    HW232418   4.557   1.202   4.303  2.4103  2.9209  0.8087
 6986SOL     OW32419   3.027   1.818   3.064  0.1855  0.0999  0.5478
 6986SOL    HW132420   2.953   1.867   3.029  1.2307  0.8868 -0.5616
 6986SOL    HW232421   3.068   1.796   2.980 -1.1261 -0.4646  0.0600
 6987SOL     OW32422   1.823   2.567   1.394 -0.1366  0.0563 -0.1100
 6987SOL    HW132423   1.745   2.512   1.401 -1.1077  1.6199  1.4340
 6987SOL    HW232424   1.859   2.519   1.319 -0.5197  2.0299 -1.5795
 6988SOL     OW32425   3.349   3.577   0.122 -0.4691  0.0025  0.3142
 6988SOL    HW132426   3.401   3.497   0.128  0.2870  0.6011  1.7606
 6988SOL    HW232427   3.273   3.569   0.179 -2.0265  1.9468 -1.5014
 6989SOL     OW32428   1.073   0.011  13.280  0.9674  0.0179 -0.4109
 6989SOL    HW132429   1.031   0.072  13.340 -1.3839 -1.7645 -0.2403
 6989SOL    HW232430   0.994   4.688  13.247  0.6920 -0.5771  1.0140
 6990SOL     OW32431   0.113   2.541  11.154  0.5026  0.9273  0.3318
 6990SOL    HW132432   0.129   2.552  11.060  2.4923  2.3153  0.8492
 6990SOL    HW232433   0.024   2.506  11.155  0.7128  0.3317 -0.9615
 6991SOL     OW32434   3.022   3.604  10.726 -0.0242  0.1023  0.1751
 6991SOL    HW132435   3.035   3.569  10.638 -1.4502 -3.1386  1.2326
 6991SOL    HW232436   3.110   3.635  10.747  1.1578 -1.3822 -2.5729
 6992SOL     OW32437   2.914   1.217   6.508 -0.5293  0.4450 -0.4797
 6992SOL    HW132438   2.841   1.279   6.516  0.2909  1.1827  1.4869
 6992SOL    HW232439   2.953   1.229   6.594 -0.7999 -0.1802 -0.2693
 6993SOL     OW32440   0.367   1.046  15.378 -0.1342 -0.0870  0.1267
 6993SOL    HW132441   0.438   0.990  15.345 -1.8323 -0.8883 -2.1838
 6993SOL    HW232442   0.365   1.103  15.301 -1.0935 -1.7765 -1.0986
 6994SOL     OW32443   2.376   0.023  10.010 -0.5581 -0.0436  0.0529
 6994SOL    HW132444   2.366   0.062  10.097  0.6540 -0.1818  0.2548
 6994SOL    HW232445   2.282   0.032   9.994 -0.8278 -1.1518  1.0314
 6995SOL     OW32446   2.725   3.239   8.040 -0.0360 -0.6238 -0.1520
 6995SOL    HW132447   2.799   3.300   8.036 -0.4531 -0.0986  0.1768
 6995SOL    HW232448   2.776   3.159   8.029 -0.7429 -0.7011 -2.9515
 6996SOL     OW32449   2.619   3.327  11.158  0.0854 -0.1992 -0.2408
 6996SOL    HW132450   2.535   3.319  11.114 -0.2319 -0.3183  0.3840
 6996SOL    HW232451   2.682   3.285  11.099 -0.5598 -0.0264 -1.0559
 6997SOL     OW32452   1.268   3.917   3.091 -0.3695 -0.1336 -0.2253
 6997SOL    HW132453   1.187   3.947   3.133  0.3657 -0.6939  1.6027
 6997SOL    HW232454   1.234   3.874   3.013 -0.1400  0.2256 -0.5204
 6998SOL     OW32455   2.900   1.104   8.674  0.1515  0.2865 -0.6614
 6998SOL    HW132456   2.971   1.168   8.678 -0.0169  0.4182  0.1748
 6998SOL    HW232457   2.920   1.079   8.584  3.5280 -2.0110  0.7690
 6999SOL     OW32458   2.989   3.020   6.189 -0.0084  0.1706 -0.2828
 6999SOL    HW132459   3.013   3.025   6.097  1.3517  1.2479  0.1307
 6999SOL    HW232460   3.016   3.100   6.233  1.5670 -1.6158  2.0290
 7000SOL     OW32461   1.477   3.282   5.782  0.1055 -0.1186  0.3393
 7000SOL    HW132462   1.563   3.247   5.760  0.5500 -0.7428  3.0509
 7000SOL    HW232463   1.446   3.299   5.693  0.0465 -1.4057  0.1079
 7001SOL     OW32464   2.840   3.903  11.641  0.1824  0.1449  0.0262
 7001SOL    HW132465   2.916   3.846  11.645 -0.0380 -0.1299  0.3620
 7001SOL    HW232466   2.765   3.850  11.670 -1.3494  1.4983 -1.4559
 7002SOL     OW32467   3.652   4.613   9.632  0.1663  0.4318  0.7155
 7002SOL    HW132468   3.743   4.639   9.614  0.5061 -1.3393 -0.1877
 7002SOL    HW232469   3.608   4.646   9.553 -2.0382  2.3548  2.7641
 7003SOL     OW32470   2.471   2.745  11.626  0.0352  0.0912 -0.2891
 7003SOL    HW132471   2.419   2.687  11.682  1.6492 -0.1295  0.9570
 7003SOL    HW232472   2.403   2.801  11.586 -0.7304 -0.1586  0.6522
 7004SOL     OW32473   0.666   2.197   8.934 -0.4289 -0.1220 -0.2763
 7004SOL    HW132474   0.582   2.162   8.963  0.1883  1.3023  3.2666
 7004SOL    HW232475   0.684   2.252   9.011 -1.1196 -1.5941  0.9455
 7005SOL     OW32476   1.743   0.960   8.249 -0.1595 -0.5686  0.1990
 7005SOL    HW132477   1.652   0.991   8.241 -0.7670 -1.9182  1.8399
 7005SOL    HW232478   1.737   0.865   8.243 -1.0858 -0.5680  0.9637
 7006SOL     OW32479   3.684   2.231  15.701  0.9027 -0.5373 -0.2492
 7006SOL    HW132480   3.643   2.225  15.787  1.2703  0.8607  0.0300
 7006SOL    HW232481   3.765   2.275  15.725  0.5609 -0.2637  0.4076
 7007SOL     OW32482   2.066   0.929   5.065  0.2743  0.0688  0.1466
 7007SOL    HW132483   2.140   0.868   5.067 -0.0110 -0.2773  0.2344
 7007SOL    HW232484   2.037   0.928   5.156  0.0191 -0.0174  0.0638
 7008SOL     OW32485   3.660   4.213   4.268 -0.1403 -0.1638  0.5319
 7008SOL    HW132486   3.592   4.236   4.205 -0.8493 -0.4117  1.2004
 7008SOL    HW232487   3.636   4.122   4.285  1.1156 -1.0114 -2.2112
 7009SOL     OW32488   4.500   0.961   5.283  0.0296  0.3616 -0.8901
 7009SOL    HW132489   4.563   0.999   5.344 -0.0442  0.5045 -0.9025
 7009SOL    HW232490   4.471   0.885   5.334 -0.8615  0.2653 -1.5393
 7010SOL     OW32491   0.448   1.197  15.169 -0.3417 -0.3544 -0.2790
 7010SOL    HW132492   0.461   1.122  15.111  1.3100  0.3030 -0.7458
 7010SOL    HW232493   0.416   1.261  15.105  1.4342  0.5749 -0.2310
 7011SOL     OW32494   1.736   3.719   5.120  0.2422 -0.3371  0.9398
 7011SOL    HW132495   1.703   3.697   5.207 -0.2781 -2.0360  0.3066
 7011SOL    HW232496   1.759   3.810   5.140  0.1479 -0.0859 -0.0662
 7012SOL     OW32497   4.298   3.795   2.870 -0.5879  0.3550  0.0627
 7012SOL    HW132498   4.228   3.747   2.826 -2.1445  1.9268  0.8263
 7012SOL    HW232499   4.336   3.852   2.804 -0.5422  3.2149  2.5442
 7013SOL     OW32500   1.373   0.332   6.009 -0.6088 -0.0925 -0.4140
 7013SOL    HW132501   1.447   0.338   5.949 -1.9134 -1.2789 -2.1530
 7013SOL    HW232502   1.370   0.239   6.034 -0.4523 -0.0632 -0.2864
 7014SOL     OW32503   3.030   3.708   9.750 -0.0743 -0.0014  0.6998
 7014SOL    HW132504   3.125   3.699   9.742 -0.1824  0.2336 -0.8243
 7014SOL    HW232505   3.018   3.685   9.842  0.6995  0.2305  0.8649
 7015SOL     OW32506   3.494   4.641   8.538 -0.0995 -0.3503  0.3676
 7015SOL    HW132507   3.422   4.644   8.476 -0.8931  1.5402  1.3796
 7015SOL    HW232508   3.531   4.556   8.515  2.4275  1.0357 -0.6719
 7016SOL     OW32509   1.070   1.246  16.030  0.6988 -0.2138 -0.0431
 7016SOL    HW132510   1.146   1.203  16.070  1.3743  1.7038  0.7265
 7016SOL    HW232511   1.116   1.296  15.963 -0.3168  0.7183 -0.0504
 7017SOL     OW32512   3.268   0.983   2.328 -0.2107 -0.4021 -0.4289
 7017SOL    HW132513   3.334   1.008   2.263  1.3858 -0.4201  1.1758
 7017SOL    HW232514   3.317   0.969   2.409  0.8944  1.0176 -0.8488
 7018SOL     OW32515   3.631   2.061  15.344  0.2231 -0.1400  0.3905
 7018SOL    HW132516   3.595   1.994  15.286 -0.4115  0.5227  0.0316
 7018SOL    HW232517   3.705   2.011  15.378 -0.8037 -2.2565 -0.4857
 7019SOL     OW32518   2.476   2.810   5.330 -0.0852  0.0350  0.6440
 7019SOL    HW132519   2.463   2.875   5.262  0.6436 -2.8534 -2.2606
 7019SOL    HW232520   2.561   2.834   5.367  0.3476 -1.7737  0.8180
 7020SOL     OW32521   4.199   1.361   7.829  0.0577  0.1234 -0.0590
 7020SOL    HW132522   4.221   1.380   7.920 -0.0950 -2.0834  0.4432
 7020SOL    HW232523   4.273   1.400   7.782 -1.6555  1.6056 -1.5329
 7021SOL     OW32524   3.622   2.065   6.136  0.2523 -0.0171  0.3555
 7021SOL    HW132525   3.564   2.133   6.169 -0.2212  0.6709 -1.9017
 7021SOL    HW232526   3.577   1.984   6.160 -1.1094  0.8501  0.6764
 7022SOL     OW32527   3.249   3.877  11.549  0.1871  0.2022  0.1142
 7022SOL    HW132528   3.186   3.906  11.482 -0.1830 -0.1091  0.3310
 7022SOL    HW232529   3.188   3.831  11.607  0.3582  2.9505  2.4576
 7023SOL     OW32530   2.834   4.572   9.144  0.1886 -0.0920  0.5943
 7023SOL    HW132531   2.861   4.560   9.053 -0.5098  1.4042  0.1975
 7023SOL    HW232532   2.757   4.517   9.134  0.7602 -0.6932 -0.4434
 7024SOL     OW32533   0.892   3.659   1.319 -0.5447 -0.0485  0.7334
 7024SOL    HW132534   0.892   3.747   1.356 -0.4001 -1.1512  3.3556
 7024SOL    HW232535   0.972   3.643   1.269 -0.8570 -0.9805  0.5286
 7025SOL     OW32536   1.374   1.545   2.703 -0.0122 -0.8753  0.0210
 7025SOL    HW132537   1.329   1.473   2.747 -1.2090 -0.0957  0.0773
 7025SOL    HW232538   1.328   1.558   2.620  2.0600 -1.0769 -1.1469
 7026SOL     OW32539   1.278   1.512   5.531  0.0366  0.1375  0.2487
 7026SOL    HW132540   1.316   1.545   5.450 -1.1326  2.1908  0.5233
 7026SOL    HW232541   1.193   1.483   5.498 -1.4099  0.3939  3.6819
 7027SOL     OW32542   1.007   3.640   8.076 -0.3486 -0.1265  0.0956
 7027SOL    HW132543   1.032   3.662   8.166 -0.2097 -1.9493  0.5040
 7027SOL    HW232544   0.943   3.572   8.101 -1.7699  1.2246  0.1019
 7028SOL     OW32545   0.629   4.234   7.718  0.1764  0.0570 -0.0226
 7028SOL    HW132546   0.629   4.309   7.778 -2.4659 -0.8411  1.1294
 7028SOL    HW232547   0.577   4.171   7.768  0.8444 -0.9731 -0.6401
 7029SOL     OW32548   4.095   0.141   7.700 -0.0487 -0.5826 -0.4055
 7029SOL    HW132549   4.141   0.120   7.619 -0.0733  0.4926 -0.6884
 7029SOL    HW232550   4.163   0.189   7.747 -1.7350  1.0598  0.3268
 7030SOL     OW32551   3.603   0.081   5.325  0.1029 -0.0411  0.0310
 7030SOL    HW132552   3.520   0.114   5.358 -1.2742 -1.7759 -1.6895
 7030SOL    HW232553   3.626   0.023   5.397  0.8366  0.4314  0.1797
 7031SOL     OW32554   1.327   2.462   4.857 -0.3230  0.0936  0.6286
 7031SOL    HW132555   1.367   2.545   4.883 -0.2658  0.4227 -0.4856
 7031SOL    HW232556   1.249   2.482   4.804  0.1246  1.2979  0.4292
 7032SOL     OW32557   0.082   0.487   6.053  0.4272  0.1510 -0.4821
 7032SOL    HW132558   0.095   0.503   6.147  0.3854 -0.4312 -0.3792
 7032SOL    HW232559   0.009   0.546   6.032  0.4135 -0.2147 -1.4462
 7033SOL     OW32560   1.027   1.554   5.396  0.4690 -0.0999 -0.7011
 7033SOL    HW132561   0.998   1.578   5.484  0.8836  2.3807 -1.2484
 7033SOL    HW232562   1.054   1.641   5.365  0.7177 -0.2748 -0.9832
 7034SOL     OW32563   3.125   3.821   8.105  0.4211  0.3236 -0.4527
 7034SOL    HW132564   3.136   3.900   8.052 -3.0133  0.9581 -0.1985
 7034SOL    HW232565   3.181   3.845   8.180  0.3323 -2.1148  0.3980
 7035SOL     OW32566   2.182   3.613  14.495 -0.9620  0.1537  0.1538
 7035SOL    HW132567   2.186   3.518  14.484 -1.0724  0.3307 -1.3622
 7035SOL    HW232568   2.087   3.620  14.502 -1.1135 -3.7550  1.6261
 7036SOL     OW32569   1.501   2.423  11.027 -0.7372 -0.4381 -0.0489
 7036SOL    HW132570   1.439   2.353  11.007 -0.6609 -0.2774 -0.8339
 7036SOL    HW232571   1.529   2.449  10.940 -0.9718 -1.8466 -0.5365
 7037SOL     OW32572   1.441   2.000   9.909 -0.1617 -0.6351 -0.1472
 7037SOL    HW132573   1.460   1.916   9.949 -0.4565 -1.9955 -2.8852
 7037SOL    HW232574   1.346   2.012   9.913  0.0839  1.3785 -0.1458
 7038SOL     OW32575   1.022   3.323  17.064 -0.1525  0.0694  0.0763
 7038SOL    HW132576   1.039   3.228  17.067  0.9048  0.2438 -0.5270
 7038SOL    HW232577   0.951   3.332  17.128 -0.1051 -1.3382  0.3299
 7039SOL     OW32578   4.636   1.029   0.827  0.2605 -0.0737  0.3535
 7039SOL    HW132579   4.547   0.994   0.825 -0.8039  2.6763 -0.6852
 7039SOL    HW232580   4.634   1.063   0.737  0.6709  0.2068  0.4492
 7040SOL     OW32581   4.358   0.365  10.470  0.1168 -0.1759  0.5553
 7040SOL    HW132582   4.340   0.350  10.563 -1.6439 -2.2442 -0.0922
 7040SOL    HW232583   4.436   0.311  10.462  0.2778  0.0919  0.3147
 7041SOL     OW32584   2.264   1.090   4.157 -0.7969  0.0071 -0.1211
 7041SOL    HW132585   2.352   1.116   4.130 -1.7548  0.9178 -2.3663
 7041SOL    HW232586   2.277   1.009   4.206  0.8377  0.1338 -0.3274
 7042SOL     OW32587   3.380   3.665   5.305  0.0164  0.1927 -0.5309
 7042SOL    HW132588   3.308   3.718   5.271 -1.3215 -0.3050  1.5619
 7042SOL    HW232589   3.346   3.577   5.290 -1.9603  0.9964 -0.8058
 7043SOL     OW32590   3.525   0.963   4.969 -0.0890  0.5056  0.0681
 7043SOL    HW132591   3.514   0.878   4.927 -0.2786  1.4572 -1.8238
 7043SOL    HW232592   3.604   0.940   5.018 -0.6486  0.5664  1.0085
 7044SOL     OW32593   4.148   4.116   6.831 -0.4090 -0.2327  0.7437
 7044SOL    HW132594   4.239   4.101   6.855  0.0133 -0.6727 -1.1216
 7044SOL    HW232595   4.098   4.044   6.869 -0.4735 -1.2513 -1.2535
 7045SOL     OW32596   0.082   0.684   9.552 -0.2534 -0.6509  0.5538
 7045SOL    HW132597   0.118   0.650   9.470  2.0615  0.9308  0.9105
 7045SOL    HW232598   0.052   0.603   9.593 -0.2687 -1.6018 -1.3471
 7046SOL     OW32599   0.068   0.937   6.661 -0.1124 -0.4925 -0.4200
 7046SOL    HW132600   0.096   0.900   6.745 -1.1076  2.0598  1.0660
 7046SOL    HW232601   0.152   0.935   6.616  1.1131  0.6621  1.8212
 7047SOL     OW32602   2.403   0.189   7.354 -0.2124  0.1628  0.2402
 7047SOL    HW132603   2.318   0.158   7.386 -0.9411  3.6601  1.7731
 7047SOL    HW232604   2.452   0.107   7.350 -0.2944  0.0740  1.0714
 7048SOL     OW32605   0.418   2.284  13.786 -0.8285  0.4927 -0.1722
 7048SOL    HW132606   0.456   2.227  13.719 -1.8580  2.0461 -2.0801
 7048SOL    HW232607   0.484   2.352  13.796  0.3878 -0.2995 -2.7345
 7049SOL     OW32608   1.775   3.694   3.077 -0.5347  0.0311  0.0712
 7049SOL    HW132609   1.751   3.602   3.087  0.1395  0.1275  2.5532
 7049SOL    HW232610   1.690   3.736   3.061  0.2130  0.3512 -2.9482
 7050SOL     OW32611   2.695   0.386   7.300 -0.0238  0.5164 -0.0022
 7050SOL    HW132612   2.720   0.472   7.264  2.5005 -0.5835 -0.9252
 7050SOL    HW232613   2.704   0.403   7.394 -2.5557 -2.0911  0.6838
 7051SOL     OW32614   2.138   0.533   5.774  0.1412 -0.3121  0.1025
 7051SOL    HW132615   2.176   0.446   5.782 -1.9586 -1.0188  2.1884
 7051SOL    HW232616   2.139   0.556   5.867 -0.1873 -1.7408  0.4627
 7052SOL     OW32617   1.853   3.973  15.926  0.2720  0.2238 -0.1046
 7052SOL    HW132618   1.944   3.972  15.955 -0.2279  0.6889  1.4813
 7052SOL    HW232619   1.815   3.967  16.014  0.2249  0.5791 -0.1040
 7053SOL     OW32620   1.438   4.587  12.405 -0.4205  0.4045  0.1247
 7053SOL    HW132621   1.378   4.576  12.331  0.8392 -2.3676 -0.4771
 7053SOL    HW232622   1.512   4.627  12.359 -0.2429  1.6419  1.4635
 7054SOL     OW32623   1.069   1.997   3.939  0.2162  0.3662  0.5928
 7054SOL    HW132624   1.088   1.908   3.969 -0.4516 -0.1529 -0.5268
 7054SOL    HW232625   1.158   2.017   3.909  0.7626  0.0006  1.9636
 7055SOL     OW32626   0.068   4.667  17.433  0.7907 -0.0103 -0.4530
 7055SOL    HW132627   4.701   4.643  17.466  0.9046  1.0134  0.5764
 7055SOL    HW232628   0.069   0.042  17.449 -1.0366 -0.1632  0.4775
 7056SOL     OW32629   4.318   4.189  17.267  0.3062 -0.5909  0.4193
 7056SOL    HW132630   4.367   4.265  17.234 -0.2612 -1.9504 -3.5614
 7056SOL    HW232631   4.254   4.180  17.196  0.0536  0.6799  0.4747
 7057SOL     OW32632   1.512   3.629   2.769  0.1653 -0.1889  0.2378
 7057SOL    HW132633   1.433   3.683   2.779 -1.2357 -2.4557  1.5147
 7057SOL    HW232634   1.575   3.695   2.742  1.4926 -1.7001 -0.3416
 7058SOL     OW32635   0.044   0.261   9.166 -0.3007  0.2179  0.2873
 7058SOL    HW132636   4.713   0.317   9.107 -0.1993 -0.2692 -0.2608
 7058SOL    HW232637   0.135   0.253   9.136 -0.8080  2.7960 -2.0297
 7059SOL     OW32638   0.790   0.486   8.089  0.0873 -0.4999 -0.2329
 7059SOL    HW132639   0.876   0.452   8.113  1.5025  2.8219 -0.6735
 7059SOL    HW232640   0.750   0.424   8.150 -2.0028  2.3128  1.2607
 7060SOL     OW32641   0.150   2.522  16.784 -0.1814  0.3888 -0.0921
 7060SOL    HW132642   0.131   2.603  16.832  0.7486  1.5001 -1.6105
 7060SOL    HW232643   0.092   2.514  16.708  2.3244 -1.1975 -1.8278
 7061SOL     OW32644   0.603   4.213   1.192 -0.0447 -1.4077  0.4646
 7061SOL    HW132645   0.582   4.220   1.099  0.0218 -2.6558  0.3579
 7061SOL    HW232646   0.577   4.303   1.214  1.2963 -0.8168 -0.4013
 7062SOL     OW32647   3.858   2.783  11.533  0.7100  0.3281  0.3343
 7062SOL    HW132648   3.837   2.861  11.481 -2.6525 -1.4067 -0.9067
 7062SOL    HW232649   3.793   2.726  11.494  1.5091 -0.4639  0.1686
 7063SOL     OW32650   0.243   0.972  11.427 -0.1718 -0.2234  0.0938
 7063SOL    HW132651   0.179   0.903  11.444  0.8257 -1.0743  0.4026
 7063SOL    HW232652   0.308   0.916  11.385 -1.8048 -1.4143 -0.8157
 7064SOL     OW32653   2.177   1.861   6.053 -0.2939 -0.8681 -0.1421
 7064SOL    HW132654   2.180   1.799   5.981 -0.4729 -0.8988 -0.1212
 7064SOL    HW232655   2.150   1.804   6.125 -1.0873  0.5131  0.6634
 7065SOL     OW32656   1.454   4.431  17.577  0.0604 -0.0689  0.0484
 7065SOL    HW132657   1.372   4.436  17.527  2.1169 -0.0833 -3.3298
 7065SOL    HW232658   1.439   4.345  17.618  1.8551 -0.0901  0.6556
 7066SOL     OW32659   0.181   1.730   7.594  0.1897  0.4609  0.0455
 7066SOL    HW132660   0.266   1.772   7.610 -0.8569  2.9981 -1.1144
 7066SOL    HW232661   0.161   1.764   7.507  0.5137  0.0290 -0.1985
 7067SOL     OW32662   0.317   3.006   6.315  0.2909  0.2406 -0.0109
 7067SOL    HW132663   0.382   3.055   6.366  0.2462  0.3801 -0.0856
 7067SOL    HW232664   0.239   3.057   6.340 -0.4641  0.4620 -2.8639
 7068SOL     OW32665   0.121   1.924   1.875 -0.8049 -0.0620  0.1585
 7068SOL    HW132666   0.137   1.846   1.929  1.0303  2.7071  3.5691
 7068SOL    HW232667   0.189   1.981   1.909 -0.1421 -0.0404 -1.2239
 7069SOL     OW32668   0.950   4.549  12.556  0.1261 -0.3467  0.3683
 7069SOL    HW132669   0.915   4.494  12.626 -0.2927 -1.0619 -0.4184
 7069SOL    HW232670   1.013   4.494  12.509  0.3786 -0.5887  0.9847
 7070SOL     OW32671   3.335   2.426   7.037  0.8389  0.0417  0.2152
 7070SOL    HW132672   3.313   2.361   6.970  1.7468  0.7863 -0.8121
 7070SOL    HW232673   3.424   2.455   7.015  0.8997 -0.6950 -0.5356
 7071SOL     OW32674   2.735   1.462   5.865 -0.1022 -0.9562 -0.3644
 7071SOL    HW132675   2.779   1.443   5.948  2.3446  1.7664 -1.0001
 7071SOL    HW232676   2.734   1.558   5.870  0.8726 -0.9162 -0.8822
 7072SOL     OW32677   2.614   4.585  13.446  0.1922 -0.0936  0.4016
 7072SOL    HW132678   2.554   4.561  13.517 -1.2596 -0.0923 -0.8276
 7072SOL    HW232679   2.555   4.619  13.379  0.7412 -1.5821 -0.8448
 7073SOL     OW32680   2.651   0.175   5.268  0.2005 -0.3614  0.3579
 7073SOL    HW132681   2.725   0.175   5.207  0.4735  0.8088  0.6978
 7073SOL    HW232682   2.684   0.196   5.355  0.3931  1.5944 -0.1870
 7074SOL     OW32683   3.711   0.246   7.247  0.1062 -0.0974  0.2104
 7074SOL    HW132684   3.760   0.202   7.317  1.4299 -1.7127 -1.6892
 7074SOL    HW232685   3.638   0.188   7.226 -0.7619  1.3825 -0.7920
 7075SOL     OW32686   2.613   4.433   2.256 -0.0327  0.3197 -0.9373
 7075SOL    HW132687   2.674   4.432   2.330 -1.5324 -0.2272  0.2789
 7075SOL    HW232688   2.585   4.525   2.254  0.6205  0.5287 -0.2552
 7076SOL     OW32689   1.945   2.625   7.187 -0.7832 -0.3431  0.2247
 7076SOL    HW132690   1.975   2.608   7.276 -1.5228 -0.6629  0.4124
 7076SOL    HW232691   1.901   2.543   7.163 -1.2357  0.1867 -0.7476
 7077SOL     OW32692   3.997   0.968   7.602  0.6354 -0.6537  0.6081
 7077SOL    HW132693   3.933   0.909   7.641 -2.0962  1.9592  0.0778
 7077SOL    HW232694   4.061   0.983   7.672  0.9378  0.4030  0.1142
 7078SOL     OW32695   2.335   0.991   7.937 -0.6662  0.1780  0.7707
 7078SOL    HW132696   2.371   0.912   7.896 -2.3894 -0.4685  0.5336
 7078SOL    HW232697   2.303   1.053   7.871  1.3908  0.3932 -0.0275
 7079SOL     OW32698   2.678   1.388   4.414 -0.6282 -0.5359  0.5085
 7079SOL    HW132699   2.622   1.311   4.412 -0.6816 -0.5113  0.9344
 7079SOL    HW232700   2.740   1.368   4.484  0.5820  0.0741 -0.3856
 7080SOL     OW32701   3.126   4.358  16.976 -0.1941 -0.5464 -0.0227
 7080SOL    HW132702   3.176   4.277  16.965  2.6979  1.1876  0.4462
 7080SOL    HW232703   3.066   4.315  17.037 -0.0704 -0.7441 -0.0405
 7081SOL     OW32704   0.363   1.457   7.339 -0.6099  0.2826 -0.1589
 7081SOL    HW132705   0.458   1.454   7.328 -0.7283 -0.5864 -1.0465
 7081SOL    HW232706   0.330   1.535   7.294 -1.4463 -0.0237 -0.0808
 7082SOL     OW32707   0.593   0.983   8.727 -0.5564  0.5609 -0.2215
 7082SOL    HW132708   0.528   1.052   8.737  0.7020  1.5721  0.8417
 7082SOL    HW232709   0.542   0.914   8.684  0.1700  1.5358 -2.6616
 7083SOL     OW32710   2.321   4.452   7.976  0.3047 -0.6466  0.2008
 7083SOL    HW132711   2.324   4.405   7.894 -1.4064  0.0775 -0.2860
 7083SOL    HW232712   2.244   4.415   8.020  0.1151 -1.4147 -0.8137
 7084SOL     OW32713   3.817   4.519   3.780 -0.0612  0.5946  0.5005
 7084SOL    HW132714   3.728   4.543   3.805 -1.0331 -2.8054  0.3022
 7084SOL    HW232715   3.784   4.433   3.753  1.5593 -0.9498  3.3888
 7085SOL     OW32716   4.293   2.466  17.434  0.2472 -0.1142 -0.3831
 7085SOL    HW132717   4.228   2.520  17.480 -1.0034 -1.9899  0.0818
 7085SOL    HW232718   4.355   2.529  17.399 -0.1922  0.0486 -0.8709
 7086SOL     OW32719   2.229   3.457  15.613 -0.0952 -0.0194  0.4482
 7086SOL    HW132720   2.202   3.536  15.566  0.5829  0.5913  1.0866
 7086SOL    HW232721   2.144   3.434  15.651  0.0070  1.0233  1.3132
 7087SOL     OW32722   1.492   3.748   6.723  0.1997  0.3757  0.0953
 7087SOL    HW132723   1.418   3.737   6.783  1.5189 -2.5944  1.1646
 7087SOL    HW232724   1.470   3.680   6.659 -0.4286 -0.3379  1.0466
 7088SOL     OW32725   3.227   3.885   6.279  0.4604  0.3305  0.0640
 7088SOL    HW132726   3.235   3.925   6.192  0.7832 -0.9245 -0.4906
 7088SOL    HW232727   3.303   3.925   6.319  0.5013 -1.5902  1.9032
 7089SOL     OW32728   0.179   3.914   8.726 -0.1351  0.7862 -0.1552
 7089SOL    HW132729   0.131   3.996   8.739 -1.4442  0.1784 -1.1526
 7089SOL    HW232730   0.213   3.926   8.637 -0.9633  2.0255 -0.3054
 7090SOL     OW32731   2.887   1.689  11.761 -0.6443 -0.1463  0.0275
 7090SOL    HW132732   2.886   1.784  11.767 -0.0457 -0.1790  0.6059
 7090SOL    HW232733   2.913   1.657  11.848  0.3985  2.1464  0.5382
 7091SOL     OW32734   1.282   3.111  14.088 -0.4000  0.8061  0.6908
 7091SOL    HW132735   1.243   3.042  14.034 -1.0671  1.0838  0.8216
 7091SOL    HW232736   1.219   3.119  14.160 -1.5488  1.6181 -0.4192
 7092SOL     OW32737   0.529   0.906   7.173 -0.2220 -0.0406 -0.2332
 7092SOL    HW132738   0.493   0.995   7.177  1.4588  0.5963  0.6863
 7092SOL    HW232739   0.505   0.884   7.263  0.9564 -0.4706 -0.0174
 7093SOL     OW32740   1.125   2.909   3.410 -1.1052  0.4656  0.5400
 7093SOL    HW132741   1.097   2.984   3.358  0.7281  0.1708 -0.8760
 7093SOL    HW232742   1.077   2.939   3.487  0.5000  3.6103  0.3099
 7094SOL     OW32743   2.000   0.071   2.617 -1.1895 -0.1946  0.6985
 7094SOL    HW132744   1.987   0.008   2.688 -1.1943 -2.1647 -1.0528
 7094SOL    HW232745   2.036   0.149   2.659 -0.6608 -0.5072  0.8360
 7095SOL     OW32746   0.318   1.675   2.444 -1.3795  0.0864  0.3791
 7095SOL    HW132747   0.356   1.648   2.527  0.5024 -1.7268 -1.0505
 7095SOL    HW232748   0.249   1.609   2.437 -0.1802 -1.0905 -0.4757
 7096SOL     OW32749   0.220   0.939  12.777  0.0658  0.1970  0.2718
 7096SOL    HW132750   0.128   0.935  12.748 -1.0872 -0.2526  4.0176
 7096SOL    HW232751   0.206   1.006  12.844 -1.9575 -1.0000  1.0650
 7097SOL     OW32752   2.090   3.832   3.351  0.0628 -0.9485 -0.6875
 7097SOL    HW132753   2.164   3.777   3.326  0.2258 -1.8780  1.8292
 7097SOL    HW232754   2.094   3.897   3.281  0.9084 -0.6897 -0.3936
 7098SOL     OW32755   0.573   3.506  10.671 -0.4772  0.1755 -0.1522
 7098SOL    HW132756   0.633   3.563  10.718 -0.4584 -0.5094  0.6635
 7098SOL    HW232757   0.573   3.528  10.578  0.8068 -1.9386 -0.6661
 7099SOL     OW32758   4.266   2.569  10.640  0.1217 -0.1435  0.8124
 7099SOL    HW132759   4.277   2.662  10.620  0.8355 -0.6327 -1.0898
 7099SOL    HW232760   4.236   2.586  10.730 -1.0180  0.5863  0.2917
 7100SOL     OW32761   0.424   2.649   4.549  0.1479  0.3880 -0.3527
 7100SOL    HW132762   0.461   2.729   4.512 -0.1153  1.2952  1.3406
 7100SOL    HW232763   0.422   2.683   4.639 -1.5304 -1.4150  0.2992
 7101SOL     OW32764   3.645   2.321  14.393 -0.2968  0.4326 -0.0961
 7101SOL    HW132765   3.717   2.362  14.347  0.2750  1.1638  1.4346
 7101SOL    HW232766   3.598   2.394  14.434  0.0483  0.6879 -0.1587
 7102SOL     OW32767   4.452   2.609   4.565  0.3109 -0.2399  0.0968
 7102SOL    HW132768   4.464   2.632   4.657  0.0332 -0.9539  0.3153
 7102SOL    HW232769   4.364   2.570   4.564  0.4920 -0.6475 -0.1082
 7103SOL     OW32770   4.667   0.226   5.205  0.5447  0.2753  0.5433
 7103SOL    HW132771   4.719   0.171   5.265  0.9163 -0.6297 -0.6221
 7103SOL    HW232772   4.607   0.273   5.263  2.3695  2.7484  0.3928
 7104SOL     OW32773   3.994   1.446   7.058 -0.0820 -0.4990 -0.2278
 7104SOL    HW132774   3.951   1.527   7.084 -0.6397 -1.0808  0.6651
 7104SOL    HW232775   4.050   1.477   6.986  1.2713 -1.3395  0.4603
 7105SOL     OW32776   1.205   1.112   3.685 -0.2939 -0.0209 -0.7663
 7105SOL    HW132777   1.116   1.102   3.650  0.1443 -0.3457 -1.7775
 7105SOL    HW232778   1.217   1.042   3.749  0.2737  0.9495  0.1810
 7106SOL     OW32779   0.025   3.924   6.987  0.5784  0.0756 -0.1692
 7106SOL    HW132780   0.025   3.975   6.906  0.1139  2.0461  1.0729
 7106SOL    HW232781   4.710   3.843   6.950  0.3611 -1.4561  3.3998
 7107SOL     OW32782   1.134   4.570  15.313  0.5000  0.1520  0.3978
 7107SOL    HW132783   1.061   4.517  15.346  0.1305 -0.3731 -1.2348
 7107SOL    HW232784   1.088   4.616  15.242 -1.3690  1.4614  2.4823
 7108SOL     OW32785   1.681   0.385   6.617 -0.0669 -0.1081  0.0364
 7108SOL    HW132786   1.753   0.445   6.597 -1.3136  1.1657 -0.5645
 7108SOL    HW232787   1.710   0.329   6.689  2.0883 -0.3064 -0.9908
 7109SOL     OW32788   1.093   2.854   0.885 -0.0561 -0.2164 -0.6104
 7109SOL    HW132789   1.079   2.888   0.973  0.7267 -0.0080 -0.5705
 7109SOL    HW232790   1.175   2.807   0.897 -0.4576 -2.1140 -5.1908
 7110SOL     OW32791   1.718   0.128   7.344  0.4419  0.1026  0.1911
 7110SOL    HW132792   1.642   0.182   7.365 -1.0719 -2.2425  0.7443
 7110SOL    HW232793   1.673   0.050   7.310  0.7294  0.1725 -0.3547
 7111SOL     OW32794   2.411   4.364   8.921  0.5733  0.2598 -0.9022
 7111SOL    HW132795   2.358   4.319   8.856  0.8361  1.2811 -1.8330
 7111SOL    HW232796   2.411   4.447   8.873 -0.1679  0.0721 -1.2204
 7112SOL     OW32797   3.260   0.790   4.457  0.2571  0.1106  0.2266
 7112SOL    HW132798   3.212   0.866   4.489 -1.0124 -1.5800  2.2893
 7112SOL    HW232799   3.348   0.823   4.478 -0.0676 -0.6474  2.8263
 7113SOL     OW32800   2.785   1.627   3.926 -0.1258  0.1323 -0.0024
 7113SOL    HW132801   2.753   1.701   3.875  0.3945  0.7236  0.5218
 7113SOL    HW232802   2.745   1.551   3.884  0.3764 -0.0973 -0.0664
 7114SOL     OW32803   0.716   0.484  11.192 -0.8567 -0.4322  0.2488
 7114SOL    HW132804   0.698   0.507  11.284  1.4897 -0.6935  0.7847
 7114SOL    HW232805   0.779   0.550  11.162 -1.8145  0.8835  1.1638
 7115SOL     OW32806   1.795   0.230   9.672  0.4660 -0.4658  0.3639
 7115SOL    HW132807   1.816   0.142   9.704 -0.7986 -0.4979  1.0743
 7115SOL    HW232808   1.858   0.238   9.600  2.6786  0.5370  2.4197
 7116SOL     OW32809   4.393   0.619   9.628  0.0952 -0.2628  0.3558
 7116SOL    HW132810   4.316   0.672   9.649  0.4301  0.9457 -1.4600
 7116SOL    HW232811   4.449   0.619   9.706  0.2034  2.0538  0.2828
 7117SOL     OW32812   0.619   3.727  15.360 -0.3941 -0.0047 -0.3231
 7117SOL    HW132813   0.574   3.720  15.445  1.8027  0.1642  0.8466
 7117SOL    HW232814   0.629   3.633  15.349 -2.5504 -0.3814  0.8831
 7118SOL     OW32815   1.017   3.879   1.464 -0.6026 -0.0935 -0.1654
 7118SOL    HW132816   1.074   3.955   1.451 -0.3327 -0.1629  0.5876
 7118SOL    HW232817   1.059   3.836   1.538  1.4224  2.1854  0.0316
 7119SOL     OW32818   0.550   0.676   2.079 -0.2885  0.5881  0.3293
 7119SOL    HW132819   0.509   0.589   2.075 -0.2313  0.5168  1.4303
 7119SOL    HW232820   0.487   0.725   2.131 -1.3055 -1.3624  0.9569
 7120SOL     OW32821   0.218   3.876   4.021  0.1180  0.1109  0.7511
 7120SOL    HW132822   0.160   3.943   4.056  1.3206  0.5031  2.0002
 7120SOL    HW232823   0.295   3.881   4.078  0.4943  0.6687  0.1928
 7121SOL     OW32824   0.034   1.873   4.815 -0.2103  0.4303  0.1841
 7121SOL    HW132825   4.679   1.911   4.769  0.3839  1.8560  0.3992
 7121SOL    HW232826   4.701   1.816   4.871 -0.0919  0.5165  0.3852
 7122SOL     OW32827   0.058   0.786   7.708  0.1130  0.2139 -0.0681
 7122SOL    HW132828   0.113   0.717   7.672  0.9544  0.2264  1.1981
 7122SOL    HW232829   4.692   0.743   7.702  0.3185 -0.1552 -0.3385
 7123SOL     OW32830   2.513   2.557   5.481  0.1183 -0.2958  0.6327
 7123SOL    HW132831   2.593   2.601   5.510 -0.0162  1.5659 -1.8194
 7123SOL    HW232832   2.490   2.611   5.406 -0.7427 -1.6789 -0.0924
 7124SOL     OW32833   4.047   0.872   4.973  0.1888 -0.0732 -0.0656
 7124SOL    HW132834   4.096   0.818   4.911 -0.0307 -0.4853  0.1176
 7124SOL    HW232835   4.116   0.893   5.036  0.7845 -0.5499 -0.5604
 7125SOL     OW32836   4.692   1.614   8.604  0.3243  0.2410 -1.1145
 7125SOL    HW132837   4.666   1.522   8.599 -1.1937  0.5241  1.6434
 7125SOL    HW232838   0.065   1.607   8.627 -0.2286 -1.0217  0.7184
 7126SOL     OW32839   4.556   0.543   7.586  0.0136 -0.1330 -0.1393
 7126SOL    HW132840   4.645   0.540   7.550 -0.8474 -3.0663 -2.0080
 7126SOL    HW232841   4.553   0.455   7.623  0.3698 -0.9530 -2.0360
 7127SOL     OW32842   3.946   0.483  13.411 -0.1908  0.6383  0.8003
 7127SOL    HW132843   3.984   0.569  13.426 -0.7879  1.4639 -2.4364
 7127SOL    HW232844   3.952   0.446  13.500  2.0256 -4.1082 -1.3501
 7128SOL     OW32845   1.118   2.978   4.447  0.1694 -0.0618  0.5377
 7128SOL    HW132846   1.111   2.954   4.539  0.7610 -0.5166  0.4620
 7128SOL    HW232847   1.052   3.048   4.451 -1.1634 -1.2009 -1.4234
 7129SOL     OW32848   2.412   1.985   2.544 -0.0325  0.2515 -0.7754
 7129SOL    HW132849   2.506   1.993   2.558 -0.0116 -1.1564 -0.0490
 7129SOL    HW232850   2.379   2.058   2.595  0.3863 -0.7200  0.8886
 7130SOL     OW32851   2.466   4.438  13.637  0.1992  0.3305 -0.2271
 7130SOL    HW132852   2.477   4.368  13.701 -1.7280  1.4037  1.2904
 7130SOL    HW232853   2.463   4.397  13.551  2.0527 -1.1120  0.4005
 7131SOL     OW32854   2.632   2.886   8.293  0.1029  0.4054 -0.1450
 7131SOL    HW132855   2.711   2.860   8.246  0.2340  0.7066 -0.0900
 7131SOL    HW232856   2.615   2.809   8.347  1.2223  0.2266 -0.0583
 7132SOL     OW32857   1.889   4.443   4.371  0.5987 -0.7331 -0.0733
 7132SOL    HW132858   1.914   4.480   4.286 -1.1379  0.7688  0.0766
 7132SOL    HW232859   1.823   4.508   4.395  1.2149 -0.4389  0.8049
 7133SOL     OW32860   2.140   4.303   7.366 -0.0427 -0.4574 -0.0664
 7133SOL    HW132861   2.213   4.326   7.424 -0.3833  2.9726 -0.9700
 7133SOL    HW232862   2.185   4.285   7.284 -0.8955  3.0794 -1.3271
 7134SOL     OW32863   2.161   3.462  11.111  0.7727  0.3880 -0.1363
 7134SOL    HW132864   2.128   3.397  11.173 -1.0649  1.6975  0.2592
 7134SOL    HW232865   2.072   3.473  11.077  1.0329 -0.3914 -1.0696
 7135SOL     OW32866   1.529   2.229   3.614 -0.3582 -0.5257  0.1094
 7135SOL    HW132867   1.584   2.304   3.637  0.2254 -0.6192 -0.9966
 7135SOL    HW232868   1.467   2.266   3.551 -0.1460 -0.9931 -0.3704
 7136SOL     OW32869   4.661   1.510   4.525 -0.1802  0.3671 -0.3187
 7136SOL    HW132870   0.021   1.507   4.578 -1.3399  1.1742  1.4669
 7136SOL    HW232871   4.698   1.475   4.444 -0.4368 -0.3192 -0.1390
 7137SOL     OW32872   3.141   1.757   6.159 -0.4771 -0.6650  0.0919
 7137SOL    HW132873   3.157   1.669   6.193 -0.9840 -0.1070  1.7620
 7137SOL    HW232874   3.059   1.743   6.111 -1.2338 -0.2604  1.2643
 7138SOL     OW32875   4.339   3.438   5.728 -0.0740  0.0367  0.5926
 7138SOL    HW132876   4.305   3.461   5.642 -0.0254  1.4998  0.9630
 7138SOL    HW232877   4.286   3.374   5.776 -0.9805  1.2091  1.1408
 7139SOL     OW32878   3.983   1.272   0.294  0.2097 -0.2769 -0.2338
 7139SOL    HW132879   4.047   1.212   0.255  0.4396 -0.0322 -0.2324
 7139SOL    HW232880   3.906   1.221   0.318  0.3941 -1.4096 -2.0612
 7140SOL     OW32881   4.334   2.858   4.300  0.1657 -0.5808 -0.7707
 7140SOL    HW132882   4.350   2.789   4.364  0.7640 -2.3932 -2.8797
 7140SOL    HW232883   4.302   2.924   4.362 -0.9642 -2.8550  1.0379
 7141SOL     OW32884   0.630   2.911   1.379  0.3769 -0.0042  0.0811
 7141SOL    HW132885   0.633   2.815   1.379 -0.0014 -0.0163  0.5022
 7141SOL    HW232886   0.538   2.935   1.372  1.0428  1.6534 -2.7038
 7142SOL     OW32887   2.679   2.510  13.545 -0.2660  0.3831 -0.0447
 7142SOL    HW132888   2.738   2.580  13.514  0.4700 -0.7158 -1.1203
 7142SOL    HW232889   2.629   2.475  13.471  1.5191  0.5179 -1.3375
 7143SOL     OW32890   0.809   4.076  17.015  0.3364 -0.6632  0.1756
 7143SOL    HW132891   0.732   4.020  17.024  0.6411 -1.0130  0.5629
 7143SOL    HW232892   0.826   4.107  17.104  2.8419 -2.2046  0.2053
 7144SOL     OW32893   0.401   1.240   0.372 -0.1612  0.2091  0.0901
 7144SOL    HW132894   0.316   1.196   0.373  0.1759 -0.4477 -1.3615
 7144SOL    HW232895   0.375   1.329   0.398  1.4555  0.2694  1.4881
 7145SOL     OW32896   0.056   0.247   3.210 -0.0458 -0.1262  0.2476
 7145SOL    HW132897   0.005   0.297   3.146  0.9024 -0.8130 -1.0411
 7145SOL    HW232898   0.114   0.198   3.151  0.4279  0.0283  0.5801
 7146SOL     OW32899   1.196   4.616   2.235  0.6632  1.0325  0.3496
 7146SOL    HW132900   1.196   4.584   2.325 -2.1135 -0.9589 -0.3692
 7146SOL    HW232901   1.227   4.542   2.183  2.9309  1.6130  0.9050
 7147SOL     OW32902   4.032   1.452   2.999  0.7747 -0.4810 -0.1666
 7147SOL    HW132903   4.059   1.425   2.911  0.6877  1.5251 -0.8139
 7147SOL    HW232904   3.956   1.506   2.974 -0.6711 -2.5164 -0.1412
 7148SOL     OW32905   1.959   3.089  13.576  0.2968 -0.0696  0.1573
 7148SOL    HW132906   1.987   3.055  13.661  0.8381  2.7166  1.0740
 7148SOL    HW232907   1.970   3.011  13.521 -0.6363 -0.8672  1.0906
 7149SOL     OW32908   4.432   2.712   1.707 -0.0726 -0.3736 -0.3067
 7149SOL    HW132909   4.372   2.745   1.641 -1.4429  0.6341  1.4252
 7149SOL    HW232910   4.492   2.786   1.711  0.5361 -0.9880  1.9446
 7150SOL     OW32911   2.429   0.322   1.295 -0.0966  0.3576  0.1355
 7150SOL    HW132912   2.515   0.298   1.261  0.0191  1.1524 -0.1190
 7150SOL    HW232913   2.433   0.413   1.268 -2.2315  0.1713 -0.8225
 7151SOL     OW32914   1.428   3.930   5.684  0.1637 -0.5220  0.8834
 7151SOL    HW132915   1.377   3.950   5.763 -2.1447 -0.1412 -0.7049
 7151SOL    HW232916   1.355   3.904   5.629  0.1475 -1.1534  1.2007
 7152SOL     OW32917   4.482   1.307   1.999  0.0846 -0.4513 -0.0436
 7152SOL    HW132918   4.388   1.308   1.983  0.0597  0.8174  0.2028
 7152SOL    HW232919   4.524   1.334   1.917 -2.6530 -0.2677 -1.3969
 7153SOL     OW32920   0.673   2.424   2.896  0.2758  0.1300  0.2637
 7153SOL    HW132921   0.703   2.513   2.884 -0.9843  0.7515  1.7702
 7153SOL    HW232922   0.753   2.390   2.934 -0.8584 -2.1664  0.6195
 7154SOL     OW32923   3.368   1.934   7.219  0.2029  0.3462  0.2821
 7154SOL    HW132924   3.383   1.860   7.161 -3.2986 -1.2880  1.4889
 7154SOL    HW232925   3.369   1.999   7.149 -0.3861 -0.1416 -0.1701
 7155SOL     OW32926   0.954   2.502   2.654 -0.2998  0.2503 -0.1279
 7155SOL    HW132927   0.875   2.533   2.699  0.8244 -0.3652  2.3025
 7155SOL    HW232928   0.998   2.583   2.627  0.2499  1.0975  3.2842
 7156SOL     OW32929   3.926   0.896   3.667 -0.6004 -0.0621  0.3081
 7156SOL    HW132930   3.867   0.842   3.719  0.6135 -1.8077 -0.1211
 7156SOL    HW232931   3.865   0.948   3.615  0.0062  1.2557  0.9270
 7157SOL     OW32932   4.613   1.672   0.642  0.1700  0.2066 -0.1006
 7157SOL    HW132933   4.647   1.737   0.581 -0.7744  1.3522  0.5886
 7157SOL    HW232934   4.686   1.633   0.689 -2.4899 -2.5756  1.7163
 7158SOL     OW32935   2.031   3.081  15.211  0.0864  0.3728 -0.2371
 7158SOL    HW132936   2.009   3.022  15.139  1.2659  0.1855 -0.4500
 7158SOL    HW232937   1.943   3.092  15.247 -1.1377  0.6124 -3.3395
 7159SOL     OW32938   0.308   3.412   3.233 -0.0926 -0.1649 -0.0685
 7159SOL    HW132939   0.298   3.364   3.314 -3.0561 -0.1058 -0.4196
 7159SOL    HW232940   0.235   3.375   3.184  1.4214 -2.5907 -0.5085
 7160SOL     OW32941   0.219   4.013   8.350  0.2587 -0.3707  0.5957
 7160SOL    HW132942   0.270   3.961   8.411 -2.1340 -1.9660  1.2439
 7160SOL    HW232943   0.129   3.981   8.356  0.1712 -0.1727  0.3529
 7161SOL     OW32944   2.810   0.237   4.483 -0.7895  0.3461 -0.1410
 7161SOL    HW132945   2.748   0.305   4.454 -0.2896 -0.1326 -2.2967
 7161SOL    HW232946   2.836   0.202   4.398 -0.3247 -2.0594  0.9885
 7162SOL     OW32947   2.281   1.110  12.697  0.1269 -0.5530  0.2117
 7162SOL    HW132948   2.205   1.146  12.652 -0.0558 -1.8881 -0.5455
 7162SOL    HW232949   2.313   1.048  12.631  0.3443 -1.0374  0.7708
 7163SOL     OW32950   2.143   2.505   0.110  0.2703 -0.3789 -0.1093
 7163SOL    HW132951   2.060   2.462   0.133 -0.5977  0.7565 -1.1308
 7163SOL    HW232952   2.174   2.428   0.062 -1.2321  0.0239 -1.7426
 7164SOL     OW32953   4.332   1.975   8.829 -0.3494 -0.4489  0.6974
 7164SOL    HW132954   4.408   1.959   8.774 -0.1229 -1.4038  1.2885
 7164SOL    HW232955   4.281   1.901   8.797 -1.4990  0.6400 -0.0119
 7165SOL     OW32956   3.624   4.342   5.592 -0.3612  0.5545 -0.1059
 7165SOL    HW132957   3.639   4.418   5.535  2.4625  2.0371  2.5675
 7165SOL    HW232958   3.670   4.273   5.545 -0.7792  0.7833 -0.8406
 7166SOL     OW32959   4.669   1.590   6.941  0.3151 -0.6417 -0.2289
 7166SOL    HW132960   4.587   1.558   6.978 -0.3550  0.0028 -1.1382
 7166SOL    HW232961   4.664   1.555   6.852 -1.4681 -0.6297 -0.1432
 7167SOL     OW32962   0.908   3.884  14.761  0.2643  0.3411 -0.1353
 7167SOL    HW132963   0.836   3.919  14.708  0.5276 -2.1397 -2.1328
 7167SOL    HW232964   0.967   3.849  14.694  2.5767  0.7573  1.7037
 7168SOL     OW32965   3.372   3.910   4.197  0.6207  0.1294  0.1707
 7168SOL    HW132966   3.295   3.893   4.142 -0.1561 -0.7579  1.5368
 7168SOL    HW232967   3.429   3.945   4.129 -0.3414  0.3353 -0.5318
 7169SOL     OW32968   2.959   2.160   5.631 -0.2468  0.0909 -0.2484
 7169SOL    HW132969   3.037   2.199   5.592 -1.4952  2.0773 -0.7552
 7169SOL    HW232970   2.967   2.191   5.721  0.8535  0.1785 -0.3847
 7170SOL     OW32971   0.832   3.732  17.622  0.6982 -0.4986 -0.2654
 7170SOL    HW132972   0.759   3.717   0.001  1.4079 -0.1677  0.6871
 7170SOL    HW232973   0.892   3.760   0.009  0.0879  0.2241 -0.0242
 7171SOL     OW32974   4.445   1.457  13.830 -0.1856  0.0776 -0.7476
 7171SOL    HW132975   4.392   1.388  13.869  1.5527 -1.4546 -1.0812
 7171SOL    HW232976   4.474   1.505  13.907  0.1590 -1.7140  0.2507
 7172SOL     OW32977   0.723   3.070   6.372  0.0623  0.1066  0.3717
 7172SOL    HW132978   0.704   3.106   6.459  0.8525  0.1766  0.5125
 7172SOL    HW232979   0.683   2.983   6.377  2.3813 -0.9449  0.2071
 7173SOL     OW32980   3.482   0.693   4.902 -0.2611 -0.8920 -0.2346
 7173SOL    HW132981   3.466   0.619   4.843  0.7942 -0.2650 -1.3188
 7173SOL    HW232982   3.576   0.678   4.898 -0.2545 -0.8960 -0.0538
 7174SOL     OW32983   4.583   1.580   5.783  0.0077  0.1538 -0.0926
 7174SOL    HW132984   4.585   1.674   5.801  1.6017 -0.0120  0.5705
 7174SOL    HW232985   4.641   1.564   5.708  1.2459  2.0159  0.4736
 7175SOL     OW32986   3.128   1.392   4.695 -0.2390  0.4233 -0.4886
 7175SOL    HW132987   3.194   1.358   4.755  0.3078  0.3025 -1.1699
 7175SOL    HW232988   3.159   1.360   4.611 -0.7564  0.1474 -0.5716
 7176SOL     OW32989   3.213   4.036   2.444 -0.6237 -0.3619  0.1091
 7176SOL    HW132990   3.127   3.994   2.445 -0.1074 -1.4089 -1.0342
 7176SOL    HW232991   3.197   4.104   2.510 -0.0054 -1.6695  1.6132
 7177SOL     OW32992   0.584   3.882  10.961  0.7741 -0.0766 -0.2182
 7177SOL    HW132993   0.664   3.843  10.927  2.8589  3.2220  0.9454
 7177SOL    HW232994   0.604   3.975  10.954  0.2284 -0.0728 -1.6597
 7178SOL     OW32995   0.959   1.895  10.806  0.1225 -0.0455  0.6254
 7178SOL    HW132996   0.890   1.916  10.868 -1.8664 -0.0202 -1.6144
 7178SOL    HW232997   0.945   1.803  10.786  1.4551  0.5206 -2.9029
 7179SOL     OW32998   3.743   2.158   7.256  0.0165  0.0649 -0.2770
 7179SOL    HW132999   3.703   2.094   7.315  0.7003 -0.9476 -0.9177
 7179SOL    HW233000   3.795   2.097   7.203  0.2227 -0.2223  0.2528
 7180SOL     OW33001   3.264   1.953  12.590 -0.0156 -0.0900 -0.4517
 7180SOL    HW133002   3.293   1.951  12.499  0.3495 -0.1998 -0.3327
 7180SOL    HW233003   3.203   2.026  12.578 -0.3389 -0.3574 -0.4381
 7181SOL     OW33004   1.621   3.210   1.227  0.2467 -0.0351 -0.2972
 7181SOL    HW133005   1.698   3.173   1.184  1.3308 -1.7013  2.9763
 7181SOL    HW233006   1.551   3.155   1.192  0.5810 -0.0907 -0.8805
 7182SOL     OW33007   1.698   4.175  12.270  0.3139  0.0148 -0.2933
 7182SOL    HW133008   1.793   4.187  12.269 -0.1296  3.0375 -2.5012
 7182SOL    HW233009   1.690   4.120  12.192 -0.2741  0.9742 -0.8990
 7183SOL     OW33010   4.397   0.906   9.130  0.5076 -0.3559 -0.2794
 7183SOL    HW133011   4.312   0.866   9.108  0.5854 -0.9550  0.4734
 7183SOL    HW233012   4.384   0.988   9.084 -1.0949 -0.4894 -0.0884
 7184SOL     OW33013   1.793   4.458   7.478 -0.0473  0.6696  0.1863
 7184SOL    HW133014   1.875   4.507   7.469  0.4292 -0.4437 -1.3425
 7184SOL    HW233015   1.743   4.536   7.454  1.3997  1.3689 -0.5445
 7185SOL     OW33016   3.792   1.344  10.636 -0.2702 -0.5327  0.1674
 7185SOL    HW133017   3.847   1.269  10.611 -1.6173 -1.0979 -1.1684
 7185SOL    HW233018   3.744   1.350  10.553 -0.6557 -0.8051  0.3680
 7186SOL     OW33019   1.709   1.885   9.596  0.3467 -0.3617  0.1131
 7186SOL    HW133020   1.620   1.917   9.577  0.3584 -0.0563  0.5747
 7186SOL    HW233021   1.760   1.955   9.555 -0.0644  0.3594  0.8222
 7187SOL     OW33022   4.102   3.489   1.733 -0.4143 -0.3562  0.3186
 7187SOL    HW133023   4.168   3.553   1.708  0.0466 -0.5697  1.0033
 7187SOL    HW233024   4.090   3.433   1.656  2.8469 -1.2679  0.4743
 7188SOL     OW33025   3.800   3.805   9.237  0.3767 -0.0108  0.0708
 7188SOL    HW133026   3.792   3.889   9.283  0.2047 -0.6480  1.1855
 7188SOL    HW233027   3.859   3.768   9.303 -0.1727  2.1604  1.7791
 7189SOL     OW33028   4.685   2.677   4.450  0.1446  1.1043 -1.0440
 7189SOL    HW133029   4.598   2.666   4.489  0.7798 -2.0413 -0.4859
 7189SOL    HW233030   4.657   2.708   4.364 -2.8037  1.2918 -0.0097
 7190SOL     OW33031   4.640   3.815  12.380 -0.2002  0.3014 -0.4802
 7190SOL    HW133032   4.708   3.880  12.397 -2.0311  2.2127 -0.4157
 7190SOL    HW233033   4.676   3.730  12.407  2.0099  0.7729 -1.9632
 7191SOL     OW33034   4.189   4.562   0.386  0.4523 -0.2318 -0.1094
 7191SOL    HW133035   4.249   4.493   0.417  0.2373 -1.3638 -2.2117
 7191SOL    HW233036   4.221   4.562   0.296  1.0927  0.5591  0.1185
 7192SOL     OW33037   1.741   2.508   9.837 -0.2281 -0.5163  0.4275
 7192SOL    HW133038   1.833   2.519   9.810 -0.1969  1.0358  1.1496
 7192SOL    HW233039   1.713   2.438   9.778  0.7662  1.4183 -2.3494
 7193SOL     OW33040   0.860   0.698  10.763  0.4189 -0.1431  0.0090
 7193SOL    HW133041   0.944   0.667  10.729 -0.0869 -2.0032  0.4382
 7193SOL    HW233042   0.817   0.613  10.755 -0.1094  0.1997 -0.7632
 7194SOL     OW33043   2.428   0.416   0.026  0.1900  0.7086 -0.2269
 7194SOL    HW133044   2.352   0.394  17.652 -0.9951  1.1874  1.1980
 7194SOL    HW233045   2.409   0.506   0.054 -4.0430 -0.3101  0.2619
 7195SOL     OW33046   1.508   1.207  17.680 -0.0214 -0.1538  0.5194
 7195SOL    HW133047   1.590   1.249  17.654 -0.6251  0.9567  0.4147
 7195SOL    HW233048   1.450   1.283  17.678  0.6708  0.3543 -0.3418
 7196SOL     OW33049   4.325   1.368  16.315  0.0412 -0.1249  0.1509
 7196SOL    HW133050   4.375   1.362  16.234 -3.7516  0.0624 -2.1818
 7196SOL    HW233051   4.317   1.277  16.344  1.4444 -0.3929 -0.2965
 7197SOL     OW33052   1.987   1.435   4.588  0.1885 -0.1908  0.2047
 7197SOL    HW133053   2.037   1.356   4.564  2.7964  1.6492 -0.3947
 7197SOL    HW233054   1.912   1.398   4.635 -0.9872  1.2221 -0.5757
 7198SOL     OW33055   4.240   1.592   2.781 -0.3951  0.2504 -0.3902
 7198SOL    HW133056   4.221   1.531   2.710  0.8630 -0.3009 -0.2597
 7198SOL    HW233057   4.322   1.557   2.816 -1.9010 -0.3454  2.5261
 7199SOL     OW33058   1.728   0.447  15.463 -0.3051 -0.1206 -0.4022
 7199SOL    HW133059   1.716   0.388  15.389 -0.4281 -3.1347  2.0198
 7199SOL    HW233060   1.762   0.389  15.532  0.5673  0.3411 -0.4343
 7200SOL     OW33061   3.782   1.933   7.036  0.1332 -0.3045 -0.7374
 7200SOL    HW133062   3.824   1.970   6.959 -1.4324  0.8642 -1.0303
 7200SOL    HW233063   3.852   1.952   7.099 -1.7904 -0.4853  1.4767
 7201SOL     OW33064   3.307   0.471   8.150 -0.2840 -0.6874 -0.0595
 7201SOL    HW133065   3.397   0.453   8.121  0.4824  1.1483  1.1988
 7201SOL    HW233066   3.303   0.425   8.234  1.0374  0.2530  0.5126
 7202SOL     OW33067   4.398   2.454   7.170  0.7393  0.2695  0.6671
 7202SOL    HW133068   4.424   2.364   7.150 -0.9530  0.3863 -2.0641
 7202SOL    HW233069   4.310   2.456   7.132  1.6354  0.6788 -1.3985
 7203SOL     OW33070   0.489   0.051   4.019 -0.0146 -0.2582 -0.0760
 7203SOL    HW133071   0.497   0.000   4.100  1.3495 -0.6720 -0.4597
 7203SOL    HW233072   0.493   4.707   3.947  1.3215  2.8198 -2.7090
 7204SOL     OW33073   3.816   3.020  11.693 -0.0870  0.0076  0.5808
 7204SOL    HW133074   3.815   3.046  11.601  0.1376  1.3690  0.9662
 7204SOL    HW233075   3.829   2.925  11.695 -1.8556 -0.2365  0.3368
 7205SOL     OW33076   1.847   0.209   6.239  0.1186  0.5607  0.8528
 7205SOL    HW133077   1.772   0.161   6.273 -0.9107  0.3971 -1.6480
 7205SOL    HW233078   1.813   0.289   6.198  0.8498  1.7956  2.6614
 7206SOL     OW33079   0.465   3.910   0.450 -0.0150 -0.2371  0.1626
 7206SOL    HW133080   0.465   3.846   0.521 -0.0660 -0.6571 -0.2142
 7206SOL    HW233081   0.548   3.949   0.477 -0.0192 -0.9700  1.2502
 7207SOL     OW33082   0.874   3.206   1.545  1.3767 -0.2809 -0.3225
 7207SOL    HW133083   0.864   3.263   1.621 -2.1729 -0.3137 -0.7555
 7207SOL    HW233084   0.939   3.144   1.579 -1.6622 -3.3948 -0.2170
 7208SOL     OW33085   4.327   0.420   0.830  0.1140  0.0311  0.0067
 7208SOL    HW133086   4.396   0.386   0.773  0.8985 -0.0663  1.0089
 7208SOL    HW233087   4.299   0.352   0.891 -0.0182 -0.6498 -0.8134
 7209SOL     OW33088   4.484   2.139   6.492 -0.4743  0.0657  0.5571
 7209SOL    HW133089   4.549   2.140   6.561 -0.7664 -0.8944  0.8422
 7209SOL    HW233090   4.536   2.095   6.425 -2.6178  0.7172 -1.5607
 7210SOL     OW33091   0.044   2.940  14.244  0.6011 -0.0327 -0.2365
 7210SOL    HW133092   4.698   2.888  14.198  0.3370 -1.6724  1.9353
 7210SOL    HW233093   4.715   2.977  14.318  0.1035 -0.1180 -0.5209
 7211SOL     OW33094   0.200   4.401   9.154 -0.0551  0.5125 -0.9540
 7211SOL    HW133095   0.109   4.411   9.126 -0.5974 -1.1166  0.2294
 7211SOL    HW233096   0.232   4.491   9.144  2.9855 -0.2982  1.2752
 7212SOL     OW33097   2.424   3.161  12.165 -0.1690 -0.1421  0.1485
 7212SOL    HW133098   2.404   3.067  12.172  1.7276 -0.2986  3.3234
 7212SOL    HW233099   2.476   3.156  12.085  1.1245 -1.1258  1.0427
 7213SOL     OW33100   4.709   1.123  16.777  0.1533  0.1057 -0.1285
 7213SOL    HW133101   0.078   1.091  16.790  0.5460  1.3260  0.1735
 7213SOL    HW233102   0.001   1.209  16.737 -0.4416 -0.5945 -1.8138
 7214SOL     OW33103   1.425   4.716  17.351  0.5620 -0.4255  0.0563
 7214SOL    HW133104   1.463   0.011  17.264  0.7037 -1.6042 -0.0812
 7214SOL    HW233105   1.391   4.630  17.326 -0.5521  0.2894 -0.8691
 7215SOL     OW33106   4.423   3.891   2.623 -0.2922  0.0436  0.0265
 7215SOL    HW133107   4.401   3.903   2.530  2.4575 -0.3132 -0.6932
 7215SOL    HW233108   4.396   3.972   2.665  0.7600 -0.3086  1.3697
 7216SOL     OW33109   1.819   3.483  12.376  0.0716  0.0701  0.2671
 7216SOL    HW133110   1.901   3.444  12.408 -0.1641 -1.0640 -0.5128
 7216SOL    HW233111   1.757   3.466  12.446 -0.5608 -3.0517 -1.0609
 7217SOL     OW33112   3.072   3.746  11.700 -0.3097  0.9604  0.0436
 7217SOL    HW133113   3.078   3.653  11.722  1.4029  1.3998  1.3393
 7217SOL    HW233114   3.058   3.775  11.790 -0.1478  0.4723  0.2291
 7218SOL     OW33115   2.962   1.861  14.808 -0.4747  0.1755 -0.5736
 7218SOL    HW133116   3.030   1.857  14.741 -0.4751 -2.9676 -0.3958
 7218SOL    HW233117   2.882   1.856  14.755  0.0059  1.3670 -1.3968
 7219SOL     OW33118   3.715   4.124   5.823  0.0945 -0.1612 -0.0672
 7219SOL    HW133119   3.656   4.141   5.749  1.6090  3.3970 -0.4896
 7219SOL    HW233120   3.665   4.155   5.898  1.7477 -0.4291  1.1604
 7220SOL     OW33121   0.497   2.533   6.614 -0.1243 -0.5422  0.2015
 7220SOL    HW133122   0.591   2.544   6.630  0.2925 -0.8378 -1.9938
 7220SOL    HW233123   0.500   2.508   6.522  3.0086 -0.5262  0.2935
 7221SOL     OW33124   1.854   2.109   9.154  0.1144  0.4769  0.4039
 7221SOL    HW133125   1.882   2.099   9.063 -0.1463 -0.9118  0.4712
 7221SOL    HW233126   1.931   2.162   9.176  0.5853 -0.4545  1.0168
 7222SOL     OW33127   1.280   1.819   7.138  0.0730  0.7784  0.9065
 7222SOL    HW133128   1.310   1.767   7.212 -0.9658  0.8863  1.4064
 7222SOL    HW233129   1.194   1.789   7.166  1.0161 -0.0671  2.8489
 7223SOL     OW33130   0.895   4.113   7.530  0.3187 -0.3546  0.1604
 7223SOL    HW133131   0.929   4.029   7.559  1.3335  0.7095  2.0628
 7223SOL    HW233132   0.954   4.184   7.557 -0.7478  0.4643  0.3447
 7224SOL     OW33133   2.144   4.692   8.964 -0.0111 -0.1858  0.3597
 7224SOL    HW133134   2.121   4.618   9.020 -0.0402  0.2379  0.9122
 7224SOL    HW233135   2.068   0.026   8.988  0.3374  0.7506 -0.6341
 7225SOL     OW33136   1.860   4.625   3.840 -0.5581  0.5575  0.1688
 7225SOL    HW133137   1.894   4.620   3.751  0.6878  3.5271  0.4934
 7225SOL    HW233138   1.803   4.701   3.831  2.3446  2.5365 -1.3878
 7226SOL     OW33139   3.877   4.381   8.963 -0.2796 -0.4276  0.0291
 7226SOL    HW133140   3.891   4.302   8.910 -1.3245 -0.4443 -0.2181
 7226SOL    HW233141   3.950   4.442   8.952  1.2823 -1.8834  2.2227
 7227SOL     OW33142   3.769   0.551   8.984 -0.2459 -0.5114  0.4444
 7227SOL    HW133143   3.692   0.546   9.041  0.5972 -3.7755  1.3052
 7227SOL    HW233144   3.841   0.494   9.008 -1.1485 -0.5503  3.0734
 7228SOL     OW33145   1.715   0.093   3.203 -0.0860 -0.2820  0.9804
 7228SOL    HW133146   1.765   0.166   3.166  0.8261 -0.0359  2.7430
 7228SOL    HW233147   1.693   0.139   3.283 -1.8890  0.5616  0.0124
 7229SOL     OW33148   2.126   2.333   6.374  0.6552 -0.2129  0.8116
 7229SOL    HW133149   2.081   2.286   6.304  0.2756 -1.3216  1.7769
 7229SOL    HW233150   2.111   2.419   6.337 -1.2654  0.0352  2.1339
 7230SOL     OW33151   0.713   0.982   2.848 -0.2504  0.0342  0.0960
 7230SOL    HW133152   0.638   1.000   2.791  0.7001  0.8620 -0.8824
 7230SOL    HW233153   0.677   0.906   2.892  1.4594 -2.0749 -2.1338
 7231SOL     OW33154   3.147   2.637   7.024 -0.1188  0.0399 -0.7021
 7231SOL    HW133155   3.217   2.571   7.030  0.1143  0.2656 -0.9564
 7231SOL    HW233156   3.076   2.575   7.003  0.1985  0.0572 -1.8472
 7232SOL     OW33157   3.748   2.435  14.726  0.1255 -0.2944 -0.8167
 7232SOL    HW133158   3.833   2.395  14.706 -0.5667 -0.9021 -2.5326
 7232SOL    HW233159   3.739   2.500  14.656 -0.4890 -1.8291 -2.1543
 7233SOL     OW33160   0.554   2.329   3.396  0.1437 -0.8622  0.2587
 7233SOL    HW133161   0.521   2.410   3.435  1.1262 -0.6334  0.6044
 7233SOL    HW233162   0.503   2.321   3.315 -0.6401 -1.6108  0.8258
 7234SOL     OW33163   4.318   0.043  10.287  0.4057 -0.0784 -0.2383
 7234SOL    HW133164   4.309   0.070  10.195  0.9828 -1.5195 -0.7206
 7234SOL    HW233165   4.412   0.052  10.302  0.7219 -1.3426 -1.4475
 7235SOL     OW33166   2.133   3.052  10.922  0.3318 -0.0246 -0.2240
 7235SOL    HW133167   2.079   3.013  10.991 -0.2919  2.6672  0.8125
 7235SOL    HW233168   2.157   2.967  10.885  0.5402  0.9093 -2.2249
 7236SOL     OW33169   0.903   4.388   5.132 -0.3298  0.2525  0.5887
 7236SOL    HW133170   0.870   4.478   5.142  0.2085  0.5649 -0.4554
 7236SOL    HW233171   0.946   4.358   5.212  2.0213  0.7735 -0.4969
 7237SOL     OW33172   1.288   1.633   3.660 -0.2408 -0.1618  0.0048
 7237SOL    HW133173   1.289   1.626   3.565 -0.5804  1.2485 -0.0940
 7237SOL    HW233174   1.383   1.647   3.669  0.0513 -2.2118  0.1776
 7238SOL     OW33175   2.429   0.410   6.352 -0.0869  0.4298 -0.4622
 7238SOL    HW133176   2.376   0.367   6.418  2.1954  0.2655  1.2571
 7238SOL    HW233177   2.395   0.359   6.279 -0.6724  1.3943 -0.8740
 7239SOL     OW33178   3.108   3.150   3.897  0.7992  0.5137  0.0805
 7239SOL    HW133179   3.050   3.104   3.836  0.7307 -0.5132  0.9163
 7239SOL    HW233180   3.105   3.230   3.846 -1.8779  0.0183 -0.5450
 7240SOL     OW33181   3.057   2.451   2.413  0.1138  0.1863  0.5343
 7240SOL    HW133182   3.091   2.495   2.335  0.3841 -0.3662  0.3366
 7240SOL    HW233183   2.983   2.407   2.373 -0.3335  0.6460  0.8633
 7241SOL     OW33184   4.287   0.879   5.106 -0.2030  0.2825  0.3424
 7241SOL    HW133185   4.285   0.783   5.116 -1.1494  0.1525 -1.1239
 7241SOL    HW233186   4.375   0.886   5.143  1.2318  0.0574 -2.9688
 7242SOL     OW33187   1.370   2.244   8.386 -0.1782 -0.1621 -0.1638
 7242SOL    HW133188   1.356   2.320   8.330  1.8035  1.0192  0.9239
 7242SOL    HW233189   1.378   2.175   8.320 -0.2346 -0.7821  0.4766
 7243SOL     OW33190   4.261   4.664   7.064  0.2636 -0.3073  0.0978
 7243SOL    HW133191   4.300   4.601   7.124  0.9919  0.4778  0.4519
 7243SOL    HW233192   4.333   0.008   7.065  1.9913 -2.2569  0.0897
 7244SOL     OW33193   4.116   0.821   3.495  0.1252 -0.2162  0.1674
 7244SOL    HW133194   4.118   0.735   3.537 -0.6218 -0.3566 -0.0860
 7244SOL    HW233195   4.049   0.863   3.549 -1.2245 -2.3535  0.1530
 7245SOL     OW33196   2.980   0.170   2.129  0.3826 -0.2450  0.2272
 7245SOL    HW133197   2.884   0.165   2.135  0.4907 -2.9018 -0.4013
 7245SOL    HW233198   2.992   0.179   2.223 -0.1220  0.8142  0.1970
 7246SOL     OW33199   4.026   2.424   2.171 -0.5260  0.1611  0.5653
 7246SOL    HW133200   4.014   2.442   2.078 -0.4012 -1.0038  0.3201
 7246SOL    HW233201   3.938   2.393   2.192  0.1521 -1.5318  0.9200
 7247SOL     OW33202   1.285   1.578  15.169  0.4160 -0.0489  0.1409
 7247SOL    HW133203   1.377   1.599  15.157 -0.6523  2.6414 -3.5217
 7247SOL    HW233204   1.295   1.506  15.231  2.0356 -0.3317 -0.4518
 7248SOL     OW33205   3.559   2.600   8.182  0.2647  0.2656 -0.4853
 7248SOL    HW133206   3.475   2.556   8.168 -0.7496  2.1070 -0.1264
 7248SOL    HW233207   3.548   2.671   8.119 -0.6217  0.9488  0.4285
 7249SOL     OW33208   1.361   1.693   7.350  0.1539  0.1944 -0.1930
 7249SOL    HW133209   1.375   1.605   7.383  3.9878  0.0392 -2.2902
 7249SOL    HW233210   1.417   1.754   7.398  1.1773 -2.0885  1.4676
 7250SOL     OW33211   1.835   3.730   7.073  0.4806  0.1385  0.2217
 7250SOL    HW133212   1.916   3.687   7.046 -0.0966 -0.5718 -0.3552
 7250SOL    HW233213   1.783   3.652   7.092 -0.7433  1.0762  0.7097
 7251SOL     OW33214   3.142   3.778   4.058 -0.7218  0.2080  0.3658
 7251SOL    HW133215   3.067   3.723   4.035  0.7206 -1.8290  0.5108
 7251SOL    HW233216   3.204   3.758   3.988  0.7814  1.4972  1.3446
 7252SOL     OW33217   0.946   3.930   6.837  0.0034 -0.5423  0.4465
 7252SOL    HW133218   1.007   3.998   6.810 -0.4369  0.2842  1.5242
 7252SOL    HW233219   0.867   3.951   6.786 -0.0775 -0.2594  0.6882
 7253SOL     OW33220   4.625   0.776   5.940 -0.1367 -0.6602  0.0409
 7253SOL    HW133221   4.619   0.872   5.941  0.2431 -0.6390  0.5562
 7253SOL    HW233222   4.597   0.750   6.027 -2.5076  0.2271 -0.4627
 7254SOL     OW33223   3.262   3.684   7.447 -0.0997 -0.0061 -0.5384
 7254SOL    HW133224   3.186   3.626   7.455  0.6938 -0.9445  0.3269
 7254SOL    HW233225   3.317   3.637   7.385 -1.6120 -0.1278 -1.7783
 7255SOL     OW33226   4.314   1.911   5.298  0.2491  0.7682  0.0371
 7255SOL    HW133227   4.250   1.980   5.283 -1.8600 -0.7174  2.2246
 7255SOL    HW233228   4.399   1.955   5.293  0.3363  0.3968 -1.7942
 7256SOL     OW33229   2.782   3.487   1.819 -0.1440 -0.6496  0.6071
 7256SOL    HW133230   2.720   3.521   1.755  1.6009  0.3360 -0.5781
 7256SOL    HW233231   2.776   3.566   1.874  1.1047 -0.4499  0.4641
 7257SOL     OW33232   3.857   0.713  14.007  0.0898  0.3259  0.1116
 7257SOL    HW133233   3.779   0.695  14.060 -0.3936  0.6516 -0.4895
 7257SOL    HW233234   3.871   0.630  13.961  1.6258  0.3666  0.5022
 7258SOL     OW33235   2.310   3.988   6.806  0.1354  0.2254 -0.2574
 7258SOL    HW133236   2.290   3.985   6.899 -1.0139 -1.8524 -0.5749
 7258SOL    HW233237   2.267   4.068   6.775  0.2381  1.0481  1.7557
 7259SOL     OW33238   3.457   4.109  13.763 -0.0697  0.3023  0.1586
 7259SOL    HW133239   3.384   4.099  13.824  1.0125 -0.5219  1.2966
 7259SOL    HW233240   3.430   4.195  13.730 -1.4432  0.1909  1.0008
 7260SOL     OW33241   0.984   2.983   3.623  0.0041 -0.0526 -0.1977
 7260SOL    HW133242   0.891   2.996   3.642  0.3656  1.3017  0.6450
 7260SOL    HW233243   1.008   2.916   3.686  0.0605  0.8584  0.7354
 7261SOL     OW33244   3.382   3.501   5.023 -0.2968  0.0185  0.0107
 7261SOL    HW133245   3.335   3.422   4.996  0.0226  0.1162 -0.8406
 7261SOL    HW233246   3.315   3.569   5.031 -0.6444  0.0101 -2.9493
 7262SOL     OW33247   3.597   3.663  16.809 -0.2936 -0.2753 -0.0686
 7262SOL    HW133248   3.551   3.701  16.733  1.2100  0.0150 -0.8443
 7262SOL    HW233249   3.568   3.722  16.878 -0.9741  0.2651 -0.8101
 7263SOL     OW33250   2.424   0.656  13.016  0.6611  0.7316 -0.6861
 7263SOL    HW133251   2.518   0.642  13.018  0.7610  1.2928 -1.9544
 7263SOL    HW233252   2.418   0.746  12.984  0.9287  1.6185  1.7713
 7264SOL     OW33253   3.177   2.159  16.791 -0.2834  0.1850  0.1041
 7264SOL    HW133254   3.167   2.070  16.825 -1.1092  0.2408  0.0065
 7264SOL    HW233255   3.168   2.141  16.698 -2.3132 -1.1275  0.5637
 7265SOL     OW33256   4.442   0.384   0.530 -0.2678 -0.3649  0.0876
 7265SOL    HW133257   4.518   0.389   0.588  0.0197 -0.5847 -0.2654
 7265SOL    HW233258   4.481   0.384   0.442  0.4900 -1.7339  0.4188
 7266SOL     OW33259   1.845   3.782   6.402 -0.4667  0.5771  0.0077
 7266SOL    HW133260   1.862   3.844   6.472 -1.5049 -1.1950  1.8210
 7266SOL    HW233261   1.828   3.841   6.328  0.7385  0.8724 -0.0424
 7267SOL     OW33262   2.511   1.099   8.987 -0.2798  0.5406 -0.7757
 7267SOL    HW133263   2.582   1.140   8.938 -0.0883 -0.5760 -1.4417
 7267SOL    HW233264   2.537   1.007   8.984 -0.3056  0.4211  2.7448
 7268SOL     OW33265   3.684   2.145   0.315 -0.6135  0.0227 -0.3363
 7268SOL    HW133266   3.666   2.169   0.406 -0.8505  0.4586 -0.4940
 7268SOL    HW233267   3.615   2.080   0.301 -0.1280 -0.3777 -0.8449
 7269SOL     OW33268   3.016   3.321   7.967 -0.2645  0.5602 -0.4422
 7269SOL    HW133269   3.028   3.416   7.958  1.9191  0.2299 -1.0898
 7269SOL    HW233270   3.067   3.285   7.895  0.9038 -0.3291  0.8254
 7270SOL     OW33271   3.927   3.451  15.273  0.5599  0.1889  0.1929
 7270SOL    HW133272   3.866   3.515  15.237  2.2621  1.3751 -0.5823
 7270SOL    HW233273   3.883   3.368  15.253  0.4769  0.0475  0.9647
 7271SOL     OW33274   2.364   3.883   5.388 -0.0561 -0.2813  0.3212
 7271SOL    HW133275   2.355   3.805   5.334 -1.9246 -0.3599  0.7506
 7271SOL    HW233276   2.272   3.904   5.402  0.0754 -0.0737  0.9038
 7272SOL     OW33277   1.388   4.572  15.406  0.1759 -0.2003  0.2451
 7272SOL    HW133278   1.370   4.541  15.495 -1.1321  0.3994  0.1894
 7272SOL    HW233279   1.303   4.564  15.363  0.3390  1.2078 -0.3451
 7273SOL     OW33280   4.402   3.959  17.088 -0.1407  0.0757  0.4102
 7273SOL    HW133281   4.406   3.904  17.167  1.5252  2.7574  2.2072
 7273SOL    HW233282   4.351   3.911  17.023 -1.1900 -0.4920  1.6541
 7274SOL     OW33283   2.148   3.915   7.233  0.2420 -0.3979  0.1260
 7274SOL    HW133284   2.095   3.993   7.221 -0.2612 -0.7418  0.0928
 7274SOL    HW233285   2.076   3.859   7.262  0.0415 -0.2991 -0.1905
 7275SOL     OW33286   0.165   0.909   2.516  0.2403 -0.2643 -0.7622
 7275SOL    HW133287   0.108   0.857   2.573 -0.9484  0.6529 -1.1105
 7275SOL    HW233288   0.233   0.843   2.502  1.0291  0.6457 -1.2445
 7276SOL     OW33289   4.501   2.632   1.296 -0.2554  0.3548 -0.0231
 7276SOL    HW133290   4.533   2.693   1.363  0.6147 -1.6328  1.3773
 7276SOL    HW233291   4.435   2.580   1.340  0.0695 -1.2442 -1.4444
 7277SOL     OW33292   2.882   3.107   4.324 -0.1131 -0.0361  0.7306
 7277SOL    HW133293   2.841   3.112   4.237 -1.4334  0.2654  1.3784
 7277SOL    HW233294   2.846   3.181   4.373  2.2122  1.9971 -0.5916
 7278SOL     OW33295   1.449   1.569   5.869  0.1825 -0.4174  0.5616
 7278SOL    HW133296   1.462   1.622   5.791 -0.1759 -3.9737 -1.9264
 7278SOL    HW233297   1.422   1.490   5.822  2.8830 -0.8065 -0.3169
 7279SOL     OW33298   1.283   2.757   3.889  0.1042 -0.0796  0.0824
 7279SOL    HW133299   1.369   2.797   3.882  0.0561  0.2539  1.4288
 7279SOL    HW233300   1.285   2.720   3.977  0.9355 -0.5985 -0.1581
 7280SOL     OW33301   3.402   1.850  15.817  0.3007 -0.2736 -0.6070
 7280SOL    HW133302   3.455   1.909  15.764  0.3778  0.8467  0.7241
 7280SOL    HW233303   3.465   1.847  15.889 -1.0519  1.2610  0.6447
 7281SOL     OW33304   0.698   1.219  17.447 -0.3268 -0.3968  0.2663
 7281SOL    HW133305   0.774   1.177  17.408 -1.1072 -0.5676 -1.0865
 7281SOL    HW233306   0.732   1.307  17.463  0.4840 -0.0420 -3.3540
 7282SOL     OW33307   3.678   2.443   5.601 -0.6430  0.2095  0.3051
 7282SOL    HW133308   3.623   2.501   5.654  1.8966  0.3650  2.8281
 7282SOL    HW233309   3.700   2.371   5.660 -1.9167 -0.8563 -0.5377
 7283SOL     OW33310   3.570   4.555   8.818 -0.2145  0.1520  0.0281
 7283SOL    HW133311   3.527   4.605   8.749 -1.6000 -0.4774  0.4460
 7283SOL    HW233312   3.578   4.465   8.785  0.4512  0.3556 -0.3684
 7284SOL     OW33313   3.655   1.668   3.442 -0.2171 -0.2843  0.0274
 7284SOL    HW133314   3.593   1.636   3.506  0.4627 -1.0955  0.2760
 7284SOL    HW233315   3.728   1.654   3.502  0.4009  1.0052 -0.4106
 7285SOL     OW33316   2.450   0.557  10.752 -0.0049  0.0709  0.7798
 7285SOL    HW133317   2.395   0.525  10.823 -0.2370 -0.7655  0.2266
 7285SOL    HW233318   2.406   0.515  10.677 -1.3247  1.8694  0.5573
 7286SOL     OW33319   4.034   1.532   0.690  0.1753  0.2496 -0.4057
 7286SOL    HW133320   4.096   1.567   0.755 -0.4951 -0.3191  0.5491
 7286SOL    HW233321   3.953   1.540   0.741  1.3220 -0.9426  1.6308
 7287SOL     OW33322   3.751   3.048   9.285  0.1787  0.0511 -0.0211
 7287SOL    HW133323   3.769   3.027   9.377  0.4727 -0.8502 -0.2860
 7287SOL    HW233324   3.716   2.964   9.255 -0.5772 -0.0729  1.1856
 7288SOL     OW33325   3.850   0.717  10.635 -0.1520 -0.2616 -0.0918
 7288SOL    HW133326   3.824   0.786  10.574 -1.7595 -2.8660 -2.3912
 7288SOL    HW233327   3.915   0.772  10.679 -0.9005  0.3142  0.2850
 7289SOL     OW33328   2.277   3.691   3.215 -0.6568 -0.3947 -0.2410
 7289SOL    HW133329   2.340   3.761   3.201  0.6709 -1.9690 -2.0894
 7289SOL    HW233330   2.331   3.628   3.167 -4.1333  0.1734 -4.8832
 7290SOL     OW33331   1.278   0.841   8.153  0.1275  0.3245  0.0552
 7290SOL    HW133332   1.203   0.898   8.169 -0.0519 -0.2123  1.0879
 7290SOL    HW233333   1.330   0.879   8.223 -0.6823  0.2270  0.7078
 7291SOL     OW33334   0.243   0.473   4.869 -0.0955 -0.5668 -0.3613
 7291SOL    HW133335   0.155   0.479   4.833 -0.6095 -2.4536  0.5983
 7291SOL    HW233336   0.231   0.484   4.963  0.8067  0.0195 -0.3145
 7292SOL     OW33337   4.631   4.261   5.525 -0.3854  0.0549 -0.0222
 7292SOL    HW133338   4.565   4.327   5.505 -1.2166  0.0326  2.6773
 7292SOL    HW233339   4.628   4.278   5.619 -0.1107 -1.0078  0.1822
 7293SOL     OW33340   2.472   3.056   3.933  0.4853 -0.1719  0.1116
 7293SOL    HW133341   2.514   2.983   3.888  0.0665  0.0723 -0.6602
 7293SOL    HW233342   2.485   3.027   4.024 -0.7040  0.4247  0.4714
 7294SOL     OW33343   3.112   4.023  12.006  0.3401  0.2622 -0.5646
 7294SOL    HW133344   3.056   3.945  12.008 -0.6482  1.0409  2.8968
 7294SOL    HW233345   3.185   3.997  12.062 -1.7646 -3.7915  0.3121
 7295SOL     OW33346   3.433   0.362  10.723  0.1109 -0.7579  0.5625
 7295SOL    HW133347   3.482   0.441  10.745  1.7142 -1.8809  1.0641
 7295SOL    HW233348   3.343   0.392  10.721  0.4851  0.3906  1.2133
 7296SOL     OW33349   1.850   0.144  12.490 -0.3688  0.2757  0.0519
 7296SOL    HW133350   1.873   0.052  12.509  1.2006  0.8974  1.1673
 7296SOL    HW233351   1.896   0.190  12.561  2.5395 -1.7336 -0.5012
 7297SOL     OW33352   0.566   0.365  13.254  0.1898  0.1665  0.4180
 7297SOL    HW133353   0.586   0.416  13.333  1.9604 -0.1329  0.1633
 7297SOL    HW233354   0.546   0.290  13.309  2.0125 -2.9079 -3.1605
 7298SOL     OW33355   4.175   0.787   0.599  0.2396  0.6243 -0.3599
 7298SOL    HW133356   4.218   0.727   0.538  1.4022 -1.7335  2.8126
 7298SOL    HW233357   4.139   0.729   0.665  0.2412 -0.4347 -1.2848
 7299SOL     OW33358   2.999   3.351   3.687 -0.1330 -0.0227  1.0808
 7299SOL    HW133359   2.966   3.366   3.598 -2.1715 -1.4163  1.6028
 7299SOL    HW233360   2.946   3.273   3.697  0.2817 -0.3402  0.8132
 7300SOL     OW33361   4.163   2.253   8.753 -0.0558  0.0129  0.2796
 7300SOL    HW133362   4.106   2.285   8.683 -1.8027  0.0003  1.6948
 7300SOL    HW233363   4.239   2.213   8.709 -0.9373  1.7151 -2.7871
 7301SOL     OW33364   4.052   2.900   7.837  0.1844 -0.4565  0.0634
 7301SOL    HW133365   4.101   2.966   7.887  0.4115 -1.2533  0.8963
 7301SOL    HW233366   4.010   2.856   7.911 -0.1284 -0.3343 -0.0422
 7302SOL     OW33367   0.151   0.171   5.388 -0.1086 -0.2934 -0.3364
 7302SOL    HW133368   0.210   0.183   5.313 -1.4746 -0.3746 -1.4111
 7302SOL    HW233369   0.189   0.088   5.418 -0.4044  0.0360  0.9833
 7303SOL     OW33370   1.517   4.014   7.230 -0.1934  0.0203 -0.0732
 7303SOL    HW133371   1.546   4.105   7.239  1.1965 -0.3977 -0.4269
 7303SOL    HW233372   1.540   3.998   7.139  0.8093  2.9516 -0.3472
 7304SOL     OW33373   2.710   3.020   4.649 -0.0417 -0.1079  0.3351
 7304SOL    HW133374   2.722   3.062   4.735 -0.3527  1.5378 -0.4232
 7304SOL    HW233375   2.701   2.928   4.674  0.3340 -0.1912  0.1672
 7305SOL     OW33376   1.462   2.335   4.379 -0.5951 -0.0002  0.4568
 7305SOL    HW133377   1.482   2.241   4.375 -1.6422 -0.1293 -1.6378
 7305SOL    HW233378   1.459   2.358   4.472  0.7595 -1.4382  0.8649
 7306SOL     OW33379   1.835   3.453  12.007 -0.2651  0.4138 -0.0766
 7306SOL    HW133380   1.852   3.496  11.923 -0.5999 -0.8504 -0.7818
 7306SOL    HW233381   1.796   3.370  11.981  0.5966 -1.2369  3.7896
 7307SOL     OW33382   2.449   1.239   6.719  0.0170 -0.7254  0.5875
 7307SOL    HW133383   2.366   1.210   6.681  0.3900 -0.5510 -0.3637
 7307SOL    HW233384   2.485   1.152   6.740 -1.5088 -1.0783  1.6989
 7308SOL     OW33385   2.254   0.905   6.624 -0.3649 -0.1024 -0.6340
 7308SOL    HW133386   2.326   0.853   6.659  0.3699  2.8260  2.2867
 7308SOL    HW233387   2.211   0.920   6.709 -1.5457 -2.1013 -0.8857
 7309SOL     OW33388   1.725   2.797  16.981  0.2165 -0.0497 -0.4179
 7309SOL    HW133389   1.744   2.844  16.900 -1.7623  2.1745  0.4266
 7309SOL    HW233390   1.734   2.704  16.959  0.4633 -0.1551  0.1490
 7310SOL     OW33391   0.935   3.271   7.942 -0.4326 -0.1729 -0.1942
 7310SOL    HW133392   0.872   3.198   7.948 -1.3954  0.4382 -3.0010
 7310SOL    HW233393   0.905   3.324   8.016 -0.3298  0.4683 -0.6238
 7311SOL     OW33394   3.897   2.097   8.740  0.1024  0.4194 -0.0292
 7311SOL    HW133395   3.946   2.032   8.792  0.2140 -0.0723 -0.7426
 7311SOL    HW233396   3.962   2.126   8.676  0.7476  1.1626  0.9731
 7312SOL     OW33397   2.929   4.370   2.676  0.0637  0.0193  0.0395
 7312SOL    HW133398   3.006   4.333   2.633  1.6217  0.8062  2.1053
 7312SOL    HW233399   2.970   4.412   2.752  1.2370 -0.8528 -0.1187
 7313SOL     OW33400   2.478   0.456  17.076  0.1464  0.1792  0.2337
 7313SOL    HW133401   2.544   0.512  17.116  1.4220 -0.6218 -0.7712
 7313SOL    HW233402   2.503   0.441  16.985 -1.2135  1.9093 -0.4137
 7314SOL     OW33403   0.546   4.308  12.192  0.5283 -0.0271 -0.1154
 7314SOL    HW133404   0.475   4.353  12.147  0.1697 -0.4129  0.0702
 7314SOL    HW233405   0.608   4.381  12.201 -0.2224  0.4701  1.0303
 7315SOL     OW33406   0.382   0.961  14.529  0.6171 -0.8014 -0.0730
 7315SOL    HW133407   0.360   0.901  14.458  1.7002 -2.4335  0.9684
 7315SOL    HW233408   0.429   1.023  14.473 -2.0027 -0.0595 -1.4118
 7316SOL     OW33409   1.031   0.171  12.900 -0.5396 -0.1655  0.3002
 7316SOL    HW133410   1.049   0.077  12.890 -0.9465 -0.0527 -1.4174
 7316SOL    HW233411   1.044   0.206  12.812 -0.0455 -0.6505  0.1756
 7317SOL     OW33412   3.261   3.225  16.176  0.2489 -0.0022  0.6351
 7317SOL    HW133413   3.340   3.250  16.222  1.4507  0.2225 -1.5312
 7317SOL    HW233414   3.236   3.308  16.134 -1.2099 -0.7595 -0.0358
 7318SOL     OW33415   2.306   0.022   3.892 -0.5609 -0.2328 -0.2185
 7318SOL    HW133416   2.366   4.668   3.882  0.0535  0.2408  0.0326
 7318SOL    HW233417   2.362   0.098   3.900 -2.4029  0.8840  2.2137
 7319SOL     OW33418   0.657   0.508  15.851  0.8502  0.1598 -0.3549
 7319SOL    HW133419   0.715   0.485  15.777  2.0421 -0.9326  0.9240
 7319SOL    HW233420   0.720   0.541  15.914  1.0869 -0.8993 -0.0310
 7320SOL     OW33421   1.947   4.651   6.333  0.3122  0.1485  0.0666
 7320SOL    HW133422   1.857   4.676   6.316 -0.2437  0.4374  3.4519
 7320SOL    HW233423   1.955   4.638   6.427 -0.0952 -1.4539 -0.1133
 7321SOL     OW33424   1.273   4.453   8.759 -0.6072  0.1659  0.2024
 7321SOL    HW133425   1.330   4.519   8.799 -0.5124  0.8591 -1.0964
 7321SOL    HW233426   1.216   4.443   8.836 -0.3938 -1.3836  0.1674
 7322SOL     OW33427   0.192   0.349   1.076  0.3433  0.0122  0.0591
 7322SOL    HW133428   0.148   0.433   1.090 -2.7245 -1.3683 -1.5022
 7322SOL    HW233429   0.281   0.385   1.073  0.2723 -0.0515 -2.1204
 7323SOL     OW33430   2.468   0.816  13.269  0.0951  0.2629 -0.1674
 7323SOL    HW133431   2.463   0.744  13.205  1.2163 -1.6079  1.8480
 7323SOL    HW233432   2.558   0.812  13.301 -0.6496 -1.5051  1.7045
 7324SOL     OW33433   2.920   1.791  12.545  0.6726 -0.0281  0.2591
 7324SOL    HW133434   3.010   1.764  12.527  0.2671 -0.7470 -0.6820
 7324SOL    HW233435   2.930   1.862  12.609 -0.6359 -0.8408  1.3444
 7325SOL     OW33436   3.444   3.726  13.259 -0.6128 -0.1051  0.7434
 7325SOL    HW133437   3.460   3.636  13.286  1.3862 -0.0616 -0.3087
 7325SOL    HW233438   3.519   3.752  13.206 -1.1195  1.0333  0.5734
 7326SOL     OW33439   2.586   1.592   7.639 -0.2518 -0.3121  0.1359
 7326SOL    HW133440   2.546   1.644   7.709 -0.9615  0.5495 -0.9047
 7326SOL    HW233441   2.518   1.587   7.572 -0.3790  1.0529  0.1639
 7327SOL     OW33442   4.423   3.079   4.118  0.1392  0.1557 -0.1916
 7327SOL    HW133443   4.516   3.101   4.130 -0.5617  1.8268  2.1747
 7327SOL    HW233444   4.416   2.995   4.163 -1.1378 -0.0428 -0.7493
 7328SOL     OW33445   3.406   0.486   8.746  0.3765 -0.4862 -0.5317
 7328SOL    HW133446   3.478   0.429   8.772 -0.2362 -0.4339  1.2978
 7328SOL    HW233447   3.453   0.569   8.739  0.0263 -0.1842  0.6767
 7329SOL     OW33448   2.860   0.364  11.867 -0.0602 -0.3100 -0.0942
 7329SOL    HW133449   2.955   0.357  11.864 -0.0645 -0.0779 -0.7592
 7329SOL    HW233450   2.839   0.452  11.898  0.5605 -0.1553 -0.1180
 7330SOL     OW33451   3.227   3.432   2.066 -0.6992  0.1098  0.1238
 7330SOL    HW133452   3.168   3.410   2.138 -2.7957  0.4421 -1.4918
 7330SOL    HW233453   3.165   3.399   2.001 -1.7424 -2.7798  2.5953
 7331SOL     OW33454   3.336   2.303  14.100 -0.0484 -0.1606 -0.5191
 7331SOL    HW133455   3.257   2.251  14.116 -0.9219  1.0510 -0.8842
 7331SOL    HW233456   3.313   2.385  14.144  2.7336 -1.1817  2.8658
 7332SOL     OW33457   0.936   4.538   9.784 -0.3378 -0.5825  0.1642
 7332SOL    HW133458   0.871   4.544   9.853 -0.7151 -0.3556 -0.2079
 7332SOL    HW233459   0.961   4.630   9.779  1.6967 -0.9476  3.4597
 7333SOL     OW33460   1.822   2.548   5.577  0.2822  0.1571 -0.5097
 7333SOL    HW133461   1.914   2.553   5.551  1.3938 -1.9053  2.9378
 7333SOL    HW233462   1.815   2.452   5.583  0.2955 -0.0507 -3.7018
 7334SOL     OW33463   2.518   2.089  12.105  0.0835  0.0202 -0.0644
 7334SOL    HW133464   2.591   2.077  12.166  0.9557 -0.4698 -1.2136
 7334SOL    HW233465   2.451   2.024  12.125 -1.1014  1.7134  1.5295
 7335SOL     OW33466   2.278   1.911   9.609  0.4125 -0.0831  0.1232
 7335SOL    HW133467   2.258   1.824   9.643 -0.6814  0.3467  0.5778
 7335SOL    HW233468   2.250   1.899   9.518 -2.7909 -1.0859  1.2507
 7336SOL     OW33469   2.484   4.091   7.128 -0.3206 -0.1689  0.6772
 7336SOL    HW133470   2.389   4.105   7.121 -0.8530 -3.5008  1.3705
 7336SOL    HW233471   2.513   4.141   7.051  0.7391 -2.5201 -0.4614
 7337SOL     OW33472   1.949   1.879   3.035  0.5249 -0.3764  0.3317
 7337SOL    HW133473   1.906   1.964   3.042 -2.5893 -1.9685  0.2812
 7337SOL    HW233474   1.894   1.834   2.971 -3.0790  0.2402  2.9899
 7338SOL     OW33475   1.552   1.836   2.957  0.1540  0.2400  0.5882
 7338SOL    HW133476   1.573   1.826   3.050  1.4830  1.4032  0.4062
 7338SOL    HW233477   1.639   1.820   2.919 -0.2088 -0.4084  0.0224
 7339SOL     OW33478   0.599   3.680   9.818  0.3445  0.0212  0.4941
 7339SOL    HW133479   0.669   3.717   9.764 -0.8704  1.4728 -0.0983
 7339SOL    HW233480   0.538   3.754   9.823 -2.0157 -1.8966  0.0751
 7340SOL     OW33481   0.962   1.274  15.460 -0.4711 -0.4374  0.2984
 7340SOL    HW133482   0.917   1.252  15.542 -0.8663  1.4303  0.5817
 7340SOL    HW233483   0.950   1.368  15.458  1.0600 -0.2774 -1.2732
 7341SOL     OW33484   1.613   1.934   3.583  0.2800 -0.8041 -0.0371
 7341SOL    HW133485   1.578   2.021   3.563  0.2568 -0.9140 -0.4833
 7341SOL    HW233486   1.706   1.941   3.562  0.1978  0.6277  0.0481
 7342SOL     OW33487   2.731   0.400   6.329 -0.2166 -0.1040 -0.2998
 7342SOL    HW133488   2.647   0.442   6.308 -0.9419 -0.9731  0.8477
 7342SOL    HW233489   2.704   0.309   6.346 -0.0221 -0.2556 -0.8080
 7343SOL     OW33490   4.433   3.259  15.326  0.3724  0.6367  0.0980
 7343SOL    HW133491   4.436   3.227  15.416 -0.5249  2.3545  0.7365
 7343SOL    HW233492   4.353   3.311  15.326 -0.6064 -0.8886  0.2767
 7344SOL     OW33493   2.364   0.791   9.099 -0.6722  0.1656  0.9915
 7344SOL    HW133494   2.319   0.826   9.176  0.9021  3.9587  0.2069
 7344SOL    HW233495   2.410   0.720   9.143 -0.2419 -0.3656 -0.3372
 7345SOL     OW33496   0.893   0.648  11.753  0.9030  0.1622  0.5444
 7345SOL    HW133497   0.842   0.570  11.773  0.1731  0.4622 -0.1274
 7345SOL    HW233498   0.920   0.685  11.837 -0.2613  0.8769  0.6051
 7346SOL     OW33499   3.048   3.410  15.794 -0.4785  0.1438 -0.1077
 7346SOL    HW133500   2.994   3.365  15.729  0.2418 -1.3686  0.3212
 7346SOL    HW233501   3.133   3.377  15.763 -0.6869 -1.8416  1.4395
 7347SOL     OW33502   3.785   0.753   9.843  0.1096  0.0123 -0.6684
 7347SOL    HW133503   3.700   0.747   9.800 -0.1552 -0.0552 -0.1429
 7347SOL    HW233504   3.842   0.769   9.768 -0.5990  2.8022 -0.6027
 7348SOL     OW33505   4.258   2.864   7.357 -0.1313 -0.0958 -0.5827
 7348SOL    HW133506   4.311   2.931   7.400  0.9764 -1.3599  0.0329
 7348SOL    HW233507   4.170   2.884   7.387 -0.8740 -2.8425 -0.8867
 7349SOL     OW33508   2.626   2.539   2.110  0.6326  0.4239 -0.0967
 7349SOL    HW133509   2.574   2.584   2.043  0.0850 -1.8035 -1.1707
 7349SOL    HW233510   2.664   2.466   2.060 -2.1160 -1.1354  0.0695
 7350SOL     OW33511   0.893   0.804   8.393 -0.1581  0.4299 -0.1085
 7350SOL    HW133512   0.863   0.728   8.443 -1.9542  1.5007  0.4425
 7350SOL    HW233513   0.982   0.800   8.428 -0.5494  1.4645  0.9816
 7351SOL     OW33514   2.919   0.001   2.439  0.1490  0.5634 -0.5397
 7351SOL    HW133515   2.956   0.042   2.517  0.8312 -1.5433  0.2235
 7351SOL    HW233516   2.842   0.056   2.424  0.7632  1.8077  0.9155
 7352SOL     OW33517   4.656   3.968  11.597  0.2694 -0.0927 -0.1998
 7352SOL    HW133518   4.695   3.981  11.683  0.0469 -0.4633 -0.0427
 7352SOL    HW233519   4.565   3.995  11.609  0.3942  0.5637 -0.7538
 7353SOL     OW33520   2.123   0.325   1.108 -0.1140  0.4272 -0.3231
 7353SOL    HW133521   2.160   0.384   1.174 -1.6895 -1.3210  2.1369
 7353SOL    HW233522   2.050   0.283   1.154  1.7663 -1.5642  0.8944
 7354SOL     OW33523   3.099   3.717   0.191  0.6794 -0.4258  0.4774
 7354SOL    HW133524   3.159   3.792   0.185  0.8547 -0.4485  1.9154
 7354SOL    HW233525   3.130   3.683   0.275  3.5364 -1.2203 -0.9041
 7355SOL     OW33526   1.603   1.271   2.254  0.1811  0.4519  0.4724
 7355SOL    HW133527   1.572   1.351   2.296  2.4616  1.9649 -0.7074
 7355SOL    HW233528   1.692   1.265   2.288 -0.3515  1.9737  2.1136
 7356SOL     OW33529   4.355   0.653   7.051  0.5702 -0.1753 -0.5000
 7356SOL    HW133530   4.370   0.700   7.134 -1.1779 -1.7635  0.7081
 7356SOL    HW233531   4.322   0.719   6.991  0.4420  0.2755  0.0603
 7357SOL     OW33532   2.321   2.066   8.773 -0.0886 -0.4405 -0.4018
 7357SOL    HW133533   2.324   1.998   8.706  1.1311 -1.1436  0.3680
 7357SOL    HW233534   2.227   2.067   8.792 -0.5315  1.0206 -2.6061
 7358SOL     OW33535   4.062   3.950   2.995  0.1454  0.5557 -0.2099
 7358SOL    HW133536   4.115   3.899   2.934  3.0877  0.7770  2.1101
 7358SOL    HW233537   4.098   4.036   2.972 -0.3839  1.0637  0.8394
 7359SOL     OW33538   0.785   4.149   2.760 -0.0283  0.3814  0.6231
 7359SOL    HW133539   0.806   4.213   2.692  0.0198  2.0474  2.2072
 7359SOL    HW233540   0.732   4.093   2.703 -0.9959  0.5498  1.3550
 7360SOL     OW33541   0.535   3.658  12.799  0.0617 -0.2159 -0.3023
 7360SOL    HW133542   0.597   3.708  12.746  2.0327 -1.5113  0.7767
 7360SOL    HW233543   0.555   3.565  12.788 -1.2131 -0.5114 -0.1198
 7361SOL     OW33544   4.315   3.449   2.907  0.0754 -0.5088 -0.3123
 7361SOL    HW133545   4.391   3.418   2.858  0.9692 -0.8369  1.3032
 7361SOL    HW233546   4.246   3.415   2.851 -2.4667  0.5319  2.1948
 7362SOL     OW33547   0.791   2.677   3.424 -0.4181  0.3369  0.0851
 7362SOL    HW133548   0.796   2.700   3.517 -0.4859  3.2528 -0.6358
 7362SOL    HW233549   0.719   2.734   3.396  0.9261  0.7813 -2.4699
 7363SOL     OW33550   3.374   4.200   5.010  0.2525  0.2487  0.1063
 7363SOL    HW133551   3.347   4.200   5.102  0.1208  0.4256  0.0694
 7363SOL    HW233552   3.422   4.120   4.992  0.3082  0.1708  0.6024
 7364SOL     OW33553   1.474   2.551   9.102  0.5730  0.0944  0.0186
 7364SOL    HW133554   1.444   2.501   9.178 -0.2053 -1.1426 -1.1131
 7364SOL    HW233555   1.535   2.483   9.075 -1.6556 -0.8146 -2.6295
 7365SOL     OW33556   0.004   0.193   2.796  0.2998  0.0445 -0.2437
 7365SOL    HW133557   0.049   0.158   2.719 -0.4215  0.4681 -0.8565
 7365SOL    HW233558   0.082   0.203   2.850 -0.0638  1.1969  0.0770
 7366SOL     OW33559   0.786   0.702   1.144  0.5632  0.1025  0.1912
 7366SOL    HW133560   0.845   0.645   1.193 -1.6502 -1.3884  1.1176
 7366SOL    HW233561   0.731   0.740   1.212  0.5408 -0.0593  0.2645
 7367SOL     OW33562   4.170   2.068   9.391  0.4024 -0.3791 -0.0835
 7367SOL    HW133563   4.222   2.137   9.433 -0.8665  1.4974 -1.5880
 7367SOL    HW233564   4.199   2.084   9.300  0.5757 -3.0451 -0.4840
 7368SOL     OW33565   0.385   4.592  10.609  0.0472 -0.0158  0.0674
 7368SOL    HW133566   0.323   4.518  10.605 -0.0721 -0.0318  1.9297
 7368SOL    HW233567   0.397   4.597  10.704  2.9338 -0.4931 -0.2671
 7369SOL     OW33568   0.382   1.898   3.322  0.0985 -0.1487 -0.0215
 7369SOL    HW133569   0.474   1.910   3.296  0.2886 -1.3183  0.0979
 7369SOL    HW233570   0.359   1.827   3.262  2.5360 -0.3379 -0.7393
 7370SOL     OW33571   4.612   0.429   0.880  0.1305 -0.1046  0.2121
 7370SOL    HW133572   4.553   0.469   0.944 -2.2538  0.0187 -2.0893
 7370SOL    HW233573   4.639   0.511   0.839  0.3166 -0.5268 -0.5149
 7371SOL     OW33574   3.444   3.846   2.466  0.2148 -0.4137 -0.3239
 7371SOL    HW133575   3.358   3.804   2.455  0.2087 -0.4580 -0.1219
 7371SOL    HW233576   3.502   3.778   2.433  1.2958  0.0790  0.5737
 7372SOL     OW33577   3.713   1.073   5.293 -0.6199 -0.0319 -0.2683
 7372SOL    HW133578   3.735   1.122   5.214  0.6956  2.0400  1.3777
 7372SOL    HW233579   3.628   1.036   5.269  0.2532 -1.6900 -0.8500
 7373SOL     OW33580   0.966   0.251   1.986  0.4388  0.4318 -0.5488
 7373SOL    HW133581   0.940   0.163   1.961 -0.6016  0.5394  0.1531
 7373SOL    HW233582   0.906   0.256   2.060 -1.5784 -0.3122 -2.1070
 7374SOL     OW33583   1.101   1.152  11.378 -0.2152  0.8672  0.3729
 7374SOL    HW133584   1.054   1.143  11.461  0.3814  2.4545  0.8831
 7374SOL    HW233585   1.053   1.222  11.335 -2.7491 -1.6950 -0.9526
 7375SOL     OW33586   2.686   2.320   4.564  0.3834 -0.4918 -0.2677
 7375SOL    HW133587   2.655   2.409   4.549 -0.8870 -0.5538  1.9863
 7375SOL    HW233588   2.726   2.305   4.478  0.8135 -1.8230  0.1593
 7376SOL     OW33589   2.513   4.319   2.968  0.1582 -0.5786  0.3064
 7376SOL    HW133590   2.478   4.239   3.006  0.3294 -0.6268  0.3646
 7376SOL    HW233591   2.605   4.295   2.980  0.2720 -0.8394 -1.1379
 7377SOL     OW33592   0.048   1.212   6.929  0.1371 -0.4254 -0.2000
 7377SOL    HW133593   0.091   1.262   6.998  0.0296  0.3529 -0.6847
 7377SOL    HW233594   0.067   1.268   6.853  0.4300 -1.9345 -1.2329
 7378SOL     OW33595   2.629   1.943  15.495  0.2849  0.2310 -0.3982
 7378SOL    HW133596   2.629   2.026  15.448 -1.2994  0.0282 -0.7287
 7378SOL    HW233597   2.716   1.916  15.464  0.4246  0.2674 -0.0405
 7379SOL     OW33598   1.712   1.570   9.487 -0.2720  0.2927 -0.0917
 7379SOL    HW133599   1.686   1.521   9.409 -0.7111  0.9369 -0.3457
 7379SOL    HW233600   1.631   1.618   9.503  1.2297  2.7338  0.0947
 7380SOL     OW33601   1.413   1.587   9.656 -0.3154 -0.0181 -0.5007
 7380SOL    HW133602   1.381   1.530   9.586 -1.5392  2.0423 -1.6135
 7380SOL    HW233603   1.366   1.669   9.644  1.3872  0.7446 -2.0653
 7381SOL     OW33604   1.315   1.793   2.410 -0.5716  0.2237  0.5258
 7381SOL    HW133605   1.389   1.800   2.470  0.0750 -0.5109 -0.1853
 7381SOL    HW233606   1.266   1.716   2.440 -0.7884  0.2800  0.3269
 7382SOL     OW33607   2.479   4.413   7.056  0.4713 -0.2949 -0.1076
 7382SOL    HW133608   2.526   4.349   7.002 -1.3597 -1.4925 -0.2998
 7382SOL    HW233609   2.511   4.391   7.143 -1.0061 -2.1852 -0.0418
 7383SOL     OW33610   4.013   2.101  11.562 -0.5606  0.4669 -0.3864
 7383SOL    HW133611   4.034   2.122  11.471  1.4911  4.3729  0.9996
 7383SOL    HW233612   4.103   2.115  11.593 -0.5222  0.7943 -0.6572
 7384SOL     OW33613   1.233   1.935  10.740 -0.5455  0.0890  0.1557
 7384SOL    HW133614   1.141   1.910  10.749 -0.5245 -0.3799 -0.9661
 7384SOL    HW233615   1.222   1.997  10.668 -1.1929  0.6386  0.7336
 7385SOL     OW33616   1.471   3.493   8.196  0.0749 -0.3736 -0.0105
 7385SOL    HW133617   1.513   3.455   8.119  2.3574 -0.6941  1.3987
 7385SOL    HW233618   1.401   3.435   8.224 -1.1995  0.3312 -1.6762
 7386SOL     OW33619   0.693   3.083   3.393 -0.0714  0.2183  0.1184
 7386SOL    HW133620   0.746   3.161   3.377 -2.5517  2.1065  0.9938
 7386SOL    HW233621   0.634   3.113   3.462  1.9374  0.9710  1.4946
 7387SOL     OW33622   3.733   0.342  16.493 -0.0685 -0.4487  0.2722
 7387SOL    HW133623   3.691   0.414  16.542 -1.1045 -0.5083 -0.5092
 7387SOL    HW233624   3.822   0.376  16.487  0.4489 -1.3682  2.8498
 7388SOL     OW33625   0.806   1.431   8.822  0.2688 -0.4335 -0.2583
 7388SOL    HW133626   0.780   1.471   8.740  1.1002  0.2608 -0.1822
 7388SOL    HW233627   0.884   1.382   8.797  0.3826 -0.0070 -0.7156
 7389SOL     OW33628   2.450   4.241   7.570  0.1090 -0.0067  0.3439
 7389SOL    HW133629   2.362   4.204   7.567  0.3173 -0.4192 -0.8060
 7389SOL    HW233630   2.457   4.280   7.483  0.7614 -0.6350  0.1064
 7390SOL     OW33631   0.722   2.854   1.063  0.3673 -0.3480  0.4718
 7390SOL    HW133632   0.780   2.863   0.987  0.7381 -0.3118  0.7561
 7390SOL    HW233633   0.780   2.848   1.140  1.9970  3.2765 -0.4815
 7391SOL     OW33634   3.118   1.554   8.809 -0.2249  0.0370  0.2967
 7391SOL    HW133635   3.153   1.627   8.860 -1.5826  0.6545  0.3457
 7391SOL    HW233636   3.088   1.619   8.745  1.6285 -0.0765 -0.6767
 7392SOL     OW33637   3.899   0.029   9.542 -0.3433  0.5975 -0.3140
 7392SOL    HW133638   3.949   0.092   9.593  1.3128 -0.0189 -1.1709
 7392SOL    HW233639   3.884   0.088   9.469 -0.9115 -0.4053 -1.0147
 7393SOL     OW33640   4.092   0.312   6.367 -0.1398  0.4276 -0.3376
 7393SOL    HW133641   4.001   0.282   6.363  0.1817 -0.8127  1.4443
 7393SOL    HW233642   4.114   0.330   6.276 -0.4312  0.6959 -0.3526
 7394SOL     OW33643   1.364   1.989   6.680  0.0200 -0.1007  0.1135
 7394SOL    HW133644   1.367   2.010   6.586  3.1293  1.5018  0.5858
 7394SOL    HW233645   1.375   2.075   6.721  1.1783 -1.2650  2.2082
 7395SOL     OW33646   3.851   0.756   4.722  0.7653  0.4256 -0.0832
 7395SOL    HW133647   3.879   0.846   4.737 -0.1901  0.3430  2.2497
 7395SOL    HW233648   3.868   0.745   4.629 -0.8070  2.0198 -0.5530
 7396SOL     OW33649   1.511   3.394  10.947  0.5321  0.0187 -0.1458
 7396SOL    HW133650   1.583   3.454  10.929  0.6114  0.2246  0.8232
 7396SOL    HW233651   1.489   3.364  10.859 -2.4554  0.3587  0.4929
 7397SOL     OW33652   3.562   1.241   5.475  0.5968  0.0112  0.3009
 7397SOL    HW133653   3.639   1.203   5.433  1.4124  1.0659  0.8584
 7397SOL    HW233654   3.594   1.275   5.558  1.3768  0.5168 -0.2063
 7398SOL     OW33655   1.717   1.056   6.098 -0.0229  0.0997  0.2033
 7398SOL    HW133656   1.658   0.984   6.119  1.5811 -1.4083 -0.4241
 7398SOL    HW233657   1.648   1.116   6.071 -1.1204 -1.1512  0.2061
 7399SOL     OW33658   3.289   4.534  13.114  0.0446  0.3706 -0.0740
 7399SOL    HW133659   3.362   4.591  13.090  2.9266 -2.1640  2.7817
 7399SOL    HW233660   3.286   4.554  13.207 -1.4546 -2.5617  0.4977
 7400SOL     OW33661   1.679   1.440  14.073  0.1636 -0.1388  0.1175
 7400SOL    HW133662   1.598   1.404  14.036  1.0808 -1.0033 -1.0516
 7400SOL    HW233663   1.738   1.410  14.003  0.8809  0.1085  0.6217
 7401SOL     OW33664   3.415   2.927   6.884 -0.4065 -0.3340 -0.2414
 7401SOL    HW133665   3.393   2.962   6.970  0.1883  1.6058 -0.8818
 7401SOL    HW233666   3.489   2.988   6.877 -1.5642  1.0489 -0.3832
 7402SOL     OW33667   0.492   2.841   8.784  0.6768 -0.6629 -0.0413
 7402SOL    HW133668   0.477   2.863   8.692  0.0554  4.3278  1.2418
 7402SOL    HW233669   0.566   2.782   8.795  1.5350  0.6986  1.3969
 7403SOL     OW33670   3.461   2.710   7.924 -0.5074 -0.0932 -0.2122
 7403SOL    HW133671   3.388   2.660   7.886  1.2677 -0.1439 -3.5209
 7403SOL    HW233672   3.492   2.763   7.852 -0.4823 -0.1986 -0.2793
 7404SOL     OW33673   4.306   2.359   4.159 -0.3301 -0.2386 -0.4201
 7404SOL    HW133674   4.253   2.349   4.080  0.1723 -0.0698 -0.7774
 7404SOL    HW233675   4.252   2.419   4.210  0.8117  0.2354  0.2400
 7405SOL     OW33676   4.494   2.018  13.449 -0.7113  0.4138  0.0735
 7405SOL    HW133677   4.437   1.972  13.511  2.1859 -1.1855  1.5893
 7405SOL    HW233678   4.441   2.097  13.445  0.5321  1.3487  2.0146
 7406SOL     OW33679   0.186   3.409  11.359  0.3494  0.1231 -0.0581
 7406SOL    HW133680   0.280   3.406  11.374  0.1691 -2.2715  0.5291
 7406SOL    HW233681   0.170   3.316  11.350  0.4080 -0.1603  2.8689
 7407SOL     OW33682   2.039   2.825  14.688 -0.3061  0.3215 -0.1262
 7407SOL    HW133683   2.131   2.851  14.680  0.1658 -1.1091  0.7032
 7407SOL    HW233684   1.997   2.910  14.695 -0.4769  0.1962  0.3312
 7408SOL     OW33685   4.030   3.535   5.226 -0.4822 -0.1908  0.2293
 7408SOL    HW133686   4.032   3.439   5.221 -2.9210 -0.2059 -0.1024
 7408SOL    HW233687   3.981   3.562   5.149 -2.7041 -1.0545  1.3385
 7409SOL     OW33688   1.158   1.038   5.344  0.7798 -0.2835  0.5091
 7409SOL    HW133689   1.135   1.128   5.321  4.2823  1.0532  2.2604
 7409SOL    HW233690   1.088   1.020   5.407  2.1256 -1.9874  1.5333
 7410SOL     OW33691   4.623   0.808   9.276  0.5699 -0.3842 -0.4400
 7410SOL    HW133692   4.584   0.728   9.311  1.9679 -2.9538 -4.6552
 7410SOL    HW233693   4.556   0.839   9.214 -2.3812  1.8517  3.8940
 7411SOL     OW33694   1.514   2.343   1.089  0.0460 -0.2802  0.1901
 7411SOL    HW133695   1.559   2.394   1.022 -3.0682 -0.4639 -2.0398
 7411SOL    HW233696   1.424   2.358   1.060  0.0072 -2.3056 -0.7353
 7412SOL     OW33697   2.004   0.213   9.489 -0.6264  0.2167  0.4382
 7412SOL    HW133698   2.040   0.289   9.444 -0.4791  0.3806  0.8309
 7412SOL    HW233699   2.078   0.207   9.550 -1.3225  1.8865  1.4258
 7413SOL     OW33700   3.165   0.357   3.734 -0.1428  0.0907 -0.2899
 7413SOL    HW133701   3.147   0.322   3.646  0.7750 -0.4763 -0.2477
 7413SOL    HW233702   3.260   0.344   3.740 -0.0528  0.0246 -1.6755
 7414SOL     OW33703   3.509   3.115   2.929 -0.7259 -0.2108 -0.6462
 7414SOL    HW133704   3.557   3.036   2.953  1.0982  1.3010  0.5865
 7414SOL    HW233705   3.528   3.107   2.836 -2.0472 -1.3117 -0.8354
 7415SOL     OW33706   2.604   2.382   7.836 -0.2943 -0.3840  0.5861
 7415SOL    HW133707   2.538   2.351   7.773  1.0227 -0.6363 -0.6520
 7415SOL    HW233708   2.543   2.439   7.885 -2.5085 -1.0142 -1.4403
 7416SOL     OW33709   2.960   1.441  15.755 -0.3860  0.1771  0.1640
 7416SOL    HW133710   3.000   1.507  15.698  1.0154 -0.9749 -0.1819
 7416SOL    HW233711   2.976   1.490  15.837 -0.1074 -0.6074  0.5759
 7417SOL     OW33712   3.680   3.055   5.528 -0.2634  0.3604  0.0161
 7417SOL    HW133713   3.751   2.992   5.536  0.2136  0.6020 -2.3388
 7417SOL    HW233714   3.728   3.133   5.500 -1.2986  1.1477  0.4206
 7418SOL     OW33715   2.737   2.538   9.244  0.5716  0.4070  0.3368
 7418SOL    HW133716   2.781   2.603   9.298  1.5574 -0.9973  1.2349
 7418SOL    HW233717   2.798   2.522   9.172 -0.1969 -1.3576  0.0699
 7419SOL     OW33718   0.954   4.308   1.496  0.4586 -0.0765  0.3032
 7419SOL    HW133719   0.925   4.385   1.447  0.7563  1.1539  2.0760
 7419SOL    HW233720   0.940   4.239   1.431  1.9479  0.1104 -0.2319
 7420SOL     OW33721   4.269   4.441   5.202  0.9057  0.5799 -0.1919
 7420SOL    HW133722   4.286   4.510   5.139  1.0606 -1.3950 -2.3226
 7420SOL    HW233723   4.200   4.483   5.253  1.4687  0.8287  0.3659
 7421SOL     OW33724   2.863   2.836   8.153 -0.1244 -0.0781 -0.2096
 7421SOL    HW133725   2.852   2.848   8.059 -0.0918 -1.4796 -0.3843
 7421SOL    HW233726   2.957   2.836   8.171 -0.1813  0.6037  0.0819
 7422SOL     OW33727   3.455   0.460   4.514  0.3526  0.2784  0.2578
 7422SOL    HW133728   3.378   0.439   4.462 -0.2345  0.1681  1.1790
 7422SOL    HW233729   3.417   0.484   4.598 -3.2495 -1.9108 -0.7603
 7423SOL     OW33730   0.102   3.445   7.356  0.0588  0.1246 -0.7665
 7423SOL    HW133731   0.143   3.509   7.298  0.0120  0.6519 -0.2185
 7423SOL    HW233732   0.049   3.501   7.413  2.4417  2.4643 -0.8669
 7424SOL     OW33733   1.798   4.416   5.600  0.0701 -0.2020 -0.0613
 7424SOL    HW133734   1.830   4.336   5.642 -1.5886 -2.1644 -2.5055
 7424SOL    HW233735   1.817   4.407   5.507  0.0952  0.3231 -0.1054
 7425SOL     OW33736   3.410   3.613   3.173  0.0451 -0.0661 -0.0825
 7425SOL    HW133737   3.468   3.538   3.157  0.2221  0.3024 -1.1957
 7425SOL    HW233738   3.371   3.585   3.256 -2.2251 -0.6034 -1.3292
 7426SOL     OW33739   1.756   0.380  16.320  0.1819  0.0442 -0.3048
 7426SOL    HW133740   1.776   0.467  16.285  1.8106 -0.2026  0.0362
 7426SOL    HW233741   1.755   0.329  16.239  2.5648 -2.7203  1.4062
 7427SOL     OW33742   1.174   4.187   7.109 -0.2722  0.1378 -0.4550
 7427SOL    HW133743   1.173   4.163   7.201  3.0725 -0.8747 -0.6763
 7427SOL    HW233744   1.081   4.200   7.089 -0.5652  0.3253  0.9884
 7428SOL     OW33745   2.959   2.720   7.477 -0.2418 -0.2920  0.0322
 7428SOL    HW133746   2.973   2.720   7.571 -1.5418 -0.9545  0.2248
 7428SOL    HW233747   2.927   2.809   7.459 -0.1753 -0.4046 -0.6501
 7429SOL     OW33748   2.280   4.649  16.871 -0.1954 -0.0434  0.0533
 7429SOL    HW133749   2.329   0.009  16.849 -0.4158  1.1147  3.8394
 7429SOL    HW233750   2.339   4.623  16.942  0.6945  0.1431 -0.6260
 7430SOL     OW33751   1.971   0.470  14.242  0.7415 -0.1223 -0.0205
 7430SOL    HW133752   2.053   0.433  14.275 -1.1842 -1.4814  3.1370
 7430SOL    HW233753   1.911   0.461  14.315  1.1736  1.6257  0.5491
 7431SOL     OW33754   1.715   0.126   2.619 -0.0638  0.3553  0.2828
 7431SOL    HW133755   1.782   0.092   2.559 -1.5247  0.7663 -1.5750
 7431SOL    HW233756   1.769   0.140   2.697  4.2927  1.0873 -2.8737
 7432SOL     OW33757   2.322   0.110   9.318  0.1343  0.3385  0.6156
 7432SOL    HW133758   2.415   0.094   9.332  0.0376  2.5968  3.9167
 7432SOL    HW233759   2.309   0.193   9.364  0.1864  0.2175  0.8469
 7433SOL     OW33760   0.239   2.846  12.390  0.2638  0.1387 -0.3794
 7433SOL    HW133761   0.178   2.797  12.446  0.0046  1.5178  0.5324
 7433SOL    HW233762   0.267   2.907  12.458 -0.6583 -1.4417  1.4262
 7434SOL     OW33763   0.866   2.365   3.652  0.0194  0.4940  0.0689
 7434SOL    HW133764   0.942   2.423   3.649 -0.7621  1.5693  0.8616
 7434SOL    HW233765   0.899   2.294   3.707  0.4140  0.6673  0.0590
 7435SOL     OW33766   1.284   2.499   8.277  0.1612 -0.0332 -0.2778
 7435SOL    HW133767   1.335   2.570   8.317  0.8718 -1.1255  0.7574
 7435SOL    HW233768   1.233   2.551   8.215 -0.1915  0.9057  0.8027
 7436SOL     OW33769   1.522   2.569   4.239 -0.1824 -0.0819  0.4673
 7436SOL    HW133770   1.454   2.621   4.280  1.0964  0.7546  1.5472
 7436SOL    HW233771   1.517   2.486   4.286  0.4140 -1.5161 -1.9713
 7437SOL     OW33772   3.313   3.569   3.422  0.1924 -0.1390  0.0452
 7437SOL    HW133773   3.300   3.474   3.434 -0.3022  0.2007  2.2797
 7437SOL    HW233774   3.386   3.588   3.482 -1.3911  0.3572  1.8002
 7438SOL     OW33775   3.685   1.335   8.703  0.0613  0.3294 -0.1624
 7438SOL    HW133776   3.620   1.280   8.660 -1.4025  2.1420 -0.2805
 7438SOL    HW233777   3.637   1.346   8.785 -1.9989  0.9580 -1.4695
 7439SOL     OW33778   2.575   3.503   4.767 -0.2862 -0.4885  0.4449
 7439SOL    HW133779   2.652   3.554   4.793  0.7180 -1.0114 -1.5340
 7439SOL    HW233780   2.616   3.418   4.751 -0.8258 -1.2587  3.1438
 7440SOL     OW33781   4.312   1.919  14.038 -0.8226  0.5882 -0.3800
 7440SOL    HW133782   4.388   1.929  13.981 -1.6971 -1.2019 -1.8690
 7440SOL    HW233783   4.347   1.855  14.100 -5.3732 -0.6566  0.9452
 7441SOL     OW33784   3.794   0.201   4.779  0.0584  0.0339  0.3808
 7441SOL    HW133785   3.787   0.242   4.693  3.4543  0.2285  0.2042
 7441SOL    HW233786   3.874   0.147   4.773 -0.8066 -1.4084  1.7339
 7442SOL     OW33787   2.340   3.154   6.801  0.1168  0.1307  0.5662
 7442SOL    HW133788   2.248   3.132   6.787  1.2068 -1.7967 -3.3636
 7442SOL    HW233789   2.331   3.189   6.890 -1.4617 -3.2599  1.7143
 7443SOL     OW33790   3.857   3.953   3.179  0.1043  0.1332 -0.4350
 7443SOL    HW133791   3.933   3.985   3.227  0.1186 -0.6491  0.0652
 7443SOL    HW233792   3.907   3.913   3.107 -0.1468  0.4858 -0.8029
 7444SOL     OW33793   0.035   0.334   5.820 -0.1988  0.4945 -0.5967
 7444SOL    HW133794   4.659   0.339   5.821 -0.2659 -0.7386 -0.6652
 7444SOL    HW233795   0.059   0.387   5.895 -2.3771  0.5323  0.0768
 7445SOL     OW33796   2.721   3.430   3.111  0.0699  0.1095  0.4865
 7445SOL    HW133797   2.739   3.424   3.205  2.6136 -0.0198 -0.0144
 7445SOL    HW233798   2.798   3.477   3.080 -0.7332  1.7140  0.9263
 7446SOL     OW33799   1.367   2.886   3.561 -0.0012  0.0402  0.7346
 7446SOL    HW133800   1.291   2.897   3.504  1.9472 -3.4190 -2.5050
 7446SOL    HW233801   1.432   2.917   3.497 -1.0604 -0.2629 -0.4977
 7447SOL     OW33802   1.488   0.007   2.480 -0.1586  0.1683 -0.7393
 7447SOL    HW133803   1.556   0.061   2.521 -2.3221  0.7604  2.0895
 7447SOL    HW233804   1.539   4.709   2.401  1.0097  0.2304 -0.0092
 7448SOL     OW33805   2.073   0.099   2.364  0.2270 -0.0015 -0.2799
 7448SOL    HW133806   2.090   0.193   2.371 -0.1636  0.0172  0.3858
 7448SOL    HW233807   2.051   0.074   2.454 -1.3173 -0.6950 -0.8447
 7449SOL     OW33808   0.590   3.878   8.369  0.3763 -0.3224 -0.2178
 7449SOL    HW133809   0.632   3.948   8.319  3.8059  0.0346  3.0932
 7449SOL    HW233810   0.661   3.817   8.393 -0.1933  0.2312  2.8725
 7450SOL     OW33811   2.783   1.035   7.382  0.4373  0.2636  0.1585
 7450SOL    HW133812   2.745   1.087   7.453  2.8580  0.9048  0.9916
 7450SOL    HW233813   2.713   0.970   7.373  3.1701 -2.4631 -1.0871
 7451SOL     OW33814   0.769   4.717  14.304  0.1857 -0.2927 -0.1563
 7451SOL    HW133815   0.781   4.707  14.399  0.2459  0.8311 -0.0447
 7451SOL    HW233816   0.703   4.650  14.284  1.7020 -1.3009 -1.7654
 7452SOL     OW33817   3.661   0.449   9.878 -0.0015 -0.5582 -0.1909
 7452SOL    HW133818   3.694   0.538   9.875  1.3676 -1.0351  0.6378
 7452SOL    HW233819   3.729   0.411   9.933 -1.3096  0.7087  2.2659
 7453SOL     OW33820   4.104   3.952   8.405 -0.3382  0.3592 -0.1578
 7453SOL    HW133821   4.121   4.026   8.463  2.1712  1.9031 -2.8772
 7453SOL    HW233822   4.077   3.876   8.458  2.9891 -1.6834 -1.3743
 7454SOL     OW33823   0.156   1.097   5.305  0.4856  0.1102 -0.6356
 7454SOL    HW133824   0.111   1.182   5.305 -0.1663 -0.2378  0.2726
 7454SOL    HW233825   0.177   1.083   5.213 -1.9794  0.6646 -1.2741
 7455SOL     OW33826   2.387   2.667   7.686 -0.0649 -0.0304  0.5696
 7455SOL    HW133827   2.412   2.612   7.612 -0.7454  1.1441 -0.5296
 7455SOL    HW233828   2.373   2.745   7.633  0.2855 -0.9156 -0.8281
 7456SOL     OW33829   1.646   3.916   4.325 -0.2908 -0.1525  0.1483
 7456SOL    HW133830   1.667   3.999   4.284 -0.8186 -0.4543 -0.7328
 7456SOL    HW233831   1.551   3.921   4.336 -0.3577 -1.6674  0.3598
 7457SOL     OW33832   2.427   2.567   1.885  0.6701 -0.0077 -0.3383
 7457SOL    HW133833   2.355   2.524   1.840  0.7668 -1.3170  0.7827
 7457SOL    HW233834   2.391   2.656   1.883 -2.0932 -1.1396 -0.5536
 7458SOL     OW33835   3.216   1.667   7.705  0.3966 -0.6440  1.1526
 7458SOL    HW133836   3.215   1.708   7.618 -0.7715  0.6391  1.7736
 7458SOL    HW233837   3.136   1.696   7.748  0.0343  2.9179 -1.8831
 7459SOL     OW33838   0.563   1.509   9.254  0.1966 -0.1626  0.4612
 7459SOL    HW133839   0.620   1.507   9.177  1.8609 -0.1456  1.6964
 7459SOL    HW233840   0.499   1.573   9.223 -0.0940 -1.0839 -0.8541
 7460SOL     OW33841   3.839   3.545   0.842 -0.4180  0.1974 -0.0802
 7460SOL    HW133842   3.825   3.457   0.806  0.4185 -0.2584  0.7155
 7460SOL    HW233843   3.903   3.576   0.778 -2.9275 -0.5120 -2.9164
 7461SOL     OW33844   2.705   2.734  10.760 -0.2434 -0.3691 -0.1696
 7461SOL    HW133845   2.800   2.737  10.767 -0.2259  0.0994 -0.5721
 7461SOL    HW233846   2.689   2.651  10.805 -1.3078 -1.1815 -2.0363
 7462SOL     OW33847   0.582   1.601  11.956 -0.3024 -0.8799  0.0205
 7462SOL    HW133848   0.488   1.604  11.975 -0.6466 -1.3822 -1.6130
 7462SOL    HW233849   0.581   1.507  11.936 -0.3313 -0.8955  0.0961
 7463SOL     OW33850   3.686   3.137   2.732  0.4830  0.1386 -0.3503
 7463SOL    HW133851   3.709   3.056   2.688  0.8579  1.0452 -1.8300
 7463SOL    HW233852   3.752   3.157   2.799  0.1186 -2.3630  0.7236
 7464SOL     OW33853   1.972   3.941  13.369  0.2604 -0.5764  0.0490
 7464SOL    HW133854   1.894   3.908  13.414 -0.1065  2.4453  1.6535
 7464SOL    HW233855   1.979   4.025  13.415 -0.2971 -0.7655  0.4878
 7465SOL     OW33856   2.161   3.982   3.571 -0.2308  0.3674 -0.2885
 7465SOL    HW133857   2.239   3.933   3.545 -0.8749  0.1450 -1.7975
 7465SOL    HW233858   2.091   3.948   3.514 -0.7370 -0.1063  0.6156
 7466SOL     OW33859   0.762   0.498   5.987  0.1599  0.0437 -0.6655
 7466SOL    HW133860   0.780   0.545   5.906 -0.7652 -1.3539 -1.6768
 7466SOL    HW233861   0.815   0.422   5.965 -1.2479 -0.2212 -3.0613
 7467SOL     OW33862   4.196   3.498  15.324  0.6422 -0.1269  0.0234
 7467SOL    HW133863   4.191   3.556  15.248  0.4629  1.6846  1.4077
 7467SOL    HW233864   4.104   3.477  15.340  0.6925 -0.9117 -0.7133
 7468SOL     OW33865   4.412   2.085   2.513 -0.0712  0.5492  0.2166
 7468SOL    HW133866   4.423   1.993   2.537  1.0695  0.8001  0.6433
 7468SOL    HW233867   4.424   2.084   2.418 -0.8400 -0.5733  0.1268
 7469SOL     OW33868   2.993   2.824   9.899  0.3101  0.5273 -0.1850
 7469SOL    HW133869   3.031   2.907   9.872  0.4383  0.5312  0.0117
 7469SOL    HW233870   2.979   2.780   9.814 -0.7127 -0.3735  0.4467
 7470SOL     OW33871   4.436   4.392  14.522  0.5190  0.0192  0.3946
 7470SOL    HW133872   4.358   4.415  14.473  1.0975 -1.3810 -1.1834
 7470SOL    HW233873   4.477   4.477  14.539  1.1075 -0.6174  2.1576
 7471SOL     OW33874   3.398   1.781   6.672 -0.2228 -0.4299 -0.0491
 7471SOL    HW133875   3.472   1.796   6.730  1.4115 -0.5866 -2.0938
 7471SOL    HW233876   3.345   1.728   6.731  0.4501  0.5397  1.4321
 7472SOL     OW33877   1.901   3.610  11.546 -0.1534 -0.6866 -0.2941
 7472SOL    HW133878   1.845   3.533  11.542  0.5349 -1.1453 -1.3202
 7472SOL    HW233879   1.838   3.681  11.552  0.4942 -0.0888 -0.5107
 7473SOL     OW33880   1.472   1.460   7.472  0.4233  0.0419 -0.1492
 7473SOL    HW133881   1.400   1.410   7.434  0.5293 -1.2152  1.3358
 7473SOL    HW233882   1.521   1.388   7.512  0.9368 -0.4490 -1.6619
 7474SOL     OW33883   2.854   4.177   1.074  0.2664  0.3521  0.0716
 7474SOL    HW133884   2.903   4.095   1.079  1.9496  1.4152  1.4287
 7474SOL    HW233885   2.926   4.240   1.066  0.7034 -0.0137  1.0638
 7475SOL     OW33886   2.760   2.647   5.520  0.3672 -0.0462 -0.1081
 7475SOL    HW133887   2.791   2.558   5.504  2.4849  0.4808  1.0509
 7475SOL    HW233888   2.778   2.651   5.614  0.3535 -1.7064 -0.0315
 7476SOL     OW33889   2.697   4.635   4.756  0.1330 -0.0353  0.2057
 7476SOL    HW133890   2.626   4.591   4.802  0.7380  0.0401  1.2149
 7476SOL    HW233891   2.659   4.711   4.711  0.6691 -0.2642 -0.6386
 7477SOL     OW33892   1.143   4.261   8.108  0.0981 -0.3386 -0.0025
 7477SOL    HW133893   1.188   4.186   8.145  4.9111  2.6425  0.2175
 7477SOL    HW233894   1.050   4.250   8.126  0.0427 -0.6197 -0.4737
 7478SOL     OW33895   2.570   3.866   4.526  0.2136  0.2236 -0.5178
 7478SOL    HW133896   2.565   3.772   4.506  0.2123  0.3475 -1.0971
 7478SOL    HW233897   2.478   3.873   4.553 -0.4409 -1.0338 -2.4144
 7479SOL     OW33898   2.276   2.807   6.893 -0.7822  0.2733  0.2212
 7479SOL    HW133899   2.182   2.816   6.882 -0.7987  1.5499  1.3410
 7479SOL    HW233900   2.282   2.850   6.979  2.8844 -1.2318  0.7541
 7480SOL     OW33901   0.644   1.902   2.074  0.1423 -0.3269  0.4958
 7480SOL    HW133902   0.701   1.828   2.098  1.8866  0.7816 -0.2475
 7480SOL    HW233903   0.574   1.899   2.140  0.3041  0.7319  0.7151
 7481SOL     OW33904   4.531   2.235   8.696  0.1000  0.0666  0.2730
 7481SOL    HW133905   4.580   2.267   8.771 -0.5375 -0.4601  0.9130
 7481SOL    HW233906   4.550   2.141   8.696 -0.9917 -0.1563  0.0194
 7482SOL     OW33907   0.620   3.139   4.176 -0.1622 -0.8567  0.0031
 7482SOL    HW133908   0.693   3.200   4.171 -0.7945 -0.1828 -1.0821
 7482SOL    HW233909   0.588   3.141   4.086 -2.0929 -1.2261  0.6683
 7483SOL     OW33910   3.844   4.186  11.901  0.0622  0.7319 -0.4802
 7483SOL    HW133911   3.802   4.152  11.980 -0.9685  4.3980  0.5635
 7483SOL    HW233912   3.929   4.210  11.937 -0.0602  0.2875  0.1191
 7484SOL     OW33913   3.138   0.111   9.153 -0.1741 -0.3663  0.1244
 7484SOL    HW133914   3.050   0.133   9.123 -0.9393 -3.5869 -0.0252
 7484SOL    HW233915   3.127   0.021   9.183 -2.1811 -0.0939  0.2063
 7485SOL     OW33916   2.968   3.077   0.284 -0.6447 -0.1437 -0.5518
 7485SOL    HW133917   2.994   3.158   0.328 -0.4690  0.3741 -1.6104
 7485SOL    HW233918   2.919   3.035   0.355  0.8650  2.7885  2.1916
 7486SOL     OW33919   1.110   1.387   7.495 -0.6045 -0.1805  0.5908
 7486SOL    HW133920   1.176   1.343   7.442  0.0384  0.8374  0.5649
 7486SOL    HW233921   1.032   1.394   7.440  0.1928 -1.2833 -0.6742
 7487SOL     OW33922   2.996   0.863   3.060  0.0892 -0.0885  0.0947
 7487SOL    HW133923   3.014   0.793   3.123  4.0339  2.1961  1.4978
 7487SOL    HW233924   3.067   0.922   3.086  0.2934 -0.5374  0.5553
 7488SOL     OW33925   2.831   2.146   5.903  0.0573 -0.7838  0.1796
 7488SOL    HW133926   2.775   2.069   5.905 -0.0043 -0.6995  1.8944
 7488SOL    HW233927   2.773   2.207   5.857 -0.4927 -2.2635 -1.1033
 7489SOL     OW33928   3.700   3.218   1.076 -0.1738 -0.4925 -0.0901
 7489SOL    HW133929   3.646   3.279   1.126  1.6949  0.8683  0.2696
 7489SOL    HW233930   3.786   3.251   1.104  1.1334 -1.2303 -3.1884
 7490SOL     OW33931   4.530   4.704   8.977 -0.5591  0.6704  0.0804
 7490SOL    HW133932   4.460   0.033   9.021 -1.5830 -0.7424  0.0028
 7490SOL    HW233933   4.581   0.057   8.940  0.6074  0.1543  0.6883
 7491SOL     OW33934   1.845   2.222   5.190  0.5340 -0.6978  0.0023
 7491SOL    HW133935   1.795   2.242   5.111 -1.7832 -0.1899  1.5851
 7491SOL    HW233936   1.776   2.192   5.249  0.1646 -0.4578 -0.3101
 7492SOL     OW33937   0.402   4.698   5.774 -0.0562 -1.1124  0.0331
 7492SOL    HW133938   0.355   0.046   5.726  2.5450  1.1541  0.6802
 7492SOL    HW233939   0.425   0.025   5.855  2.3362  1.1173 -1.9428
 7493SOL     OW33940   3.077   0.376   8.024 -0.0150 -0.0237 -0.6850
 7493SOL    HW133941   3.163   0.402   8.055 -1.5128  0.6393  3.0045
 7493SOL    HW233942   3.095   0.380   7.930 -0.0302 -1.6099 -0.7607
 7494SOL     OW33943   0.830   3.430   0.526 -0.2501  0.4094 -0.3823
 7494SOL    HW133944   0.817   3.524   0.540  0.5087  0.0039  3.0751
 7494SOL    HW233945   0.817   3.421   0.431  2.8454  0.1489 -0.7759
 7495SOL     OW33946   2.718   2.896   2.831  0.2065 -0.1503  0.1740
 7495SOL    HW133947   2.650   2.952   2.793  1.6287  0.3017 -1.6767
 7495SOL    HW233948   2.731   2.940   2.915 -0.1896 -0.7660  0.5658
 7496SOL     OW33949   4.209   1.863   2.505 -0.3175 -0.1987 -0.2285
 7496SOL    HW133950   4.223   1.871   2.599  1.0852  1.0348 -0.5392
 7496SOL    HW233951   4.240   1.774   2.489  0.9480  0.0463  0.9498
 7497SOL     OW33952   0.415   2.273   8.430 -0.1213 -1.0091 -0.2520
 7497SOL    HW133953   0.450   2.358   8.405  1.4668 -1.4143  0.5574
 7497SOL    HW233954   0.498   2.225   8.423  0.5091 -0.2914  2.4193
 7498SOL     OW33955   1.019   1.178   8.370 -0.0452  0.3055 -0.2965
 7498SOL    HW133956   0.941   1.141   8.412  2.0091  0.3307  3.5509
 7498SOL    HW233957   1.069   1.199   8.449 -1.7853 -0.2533  0.9698
 7499SOL     OW33958   0.269   3.444   5.517  0.1275 -0.0952  0.5788
 7499SOL    HW133959   0.178   3.424   5.540 -0.8794  0.8560 -2.5731
 7499SOL    HW233960   0.304   3.429   5.605  0.5750 -1.8726  0.0898
 7500SOL     OW33961   1.580   3.095   5.480 -0.3862  0.4297 -0.5318
 7500SOL    HW133962   1.505   3.153   5.493 -1.0403 -0.2405 -1.3083
 7500SOL    HW233963   1.649   3.140   5.528  0.4077 -1.6233  0.2679
 7501SOL     OW33964   0.381   2.568   0.483  0.5201 -0.3421  0.3829
 7501SOL    HW133965   0.373   2.475   0.504 -1.5724 -0.5528 -1.3461
 7501SOL    HW233966   0.436   2.609   0.550  4.0611 -0.2311 -2.6262
 7502SOL     OW33967   3.148   4.234   5.237  0.0407  0.2522 -0.0822
 7502SOL    HW133968   3.093   4.265   5.310  2.0318 -1.3306  2.1028
 7502SOL    HW233969   3.116   4.285   5.164 -1.2196 -0.9289 -0.3685
 7503SOL     OW33970   3.002   2.149  14.946 -0.8440  0.5517  0.2482
 7503SOL    HW133971   3.084   2.164  14.900 -0.9401  1.0597  0.2416
 7503SOL    HW233972   2.999   2.053  14.950  1.7235  0.4741  0.1356
 7504SOL     OW33973   2.127   1.018   2.022  0.4801 -0.1690 -0.1519
 7504SOL    HW133974   2.034   1.039   2.034  0.5855  0.3286 -0.2257
 7504SOL    HW233975   2.141   0.969   2.103 -0.1923  1.1164  0.7327
 7505SOL     OW33976   2.853   3.129  11.776  0.0605 -0.4488 -0.0972
 7505SOL    HW133977   2.946   3.147  11.765  0.3603 -1.4510  0.7745
 7505SOL    HW233978   2.814   3.212  11.748  0.7017 -0.2423 -0.3795
 7506SOL     OW33979   4.119   0.439   6.692  0.1099  0.3223  0.8485
 7506SOL    HW133980   4.098   0.493   6.768 -0.2759  0.6842  0.4838
 7506SOL    HW233981   4.043   0.382   6.691  2.0973 -2.2989 -0.4141
 7507SOL     OW33982   2.457   4.291   3.478 -0.5324 -0.4138  0.0005
 7507SOL    HW133983   2.482   4.307   3.386  0.5679 -1.1541  0.1748
 7507SOL    HW233984   2.498   4.207   3.494 -1.4839 -0.7305  0.7258
 7508SOL     OW33985   3.435   0.237   5.650 -0.0930 -0.5594 -0.5330
 7508SOL    HW133986   3.459   0.315   5.699  0.8100 -1.0233 -0.2431
 7508SOL    HW233987   3.355   0.211   5.694  0.2779 -1.3318 -0.3178
 7509SOL     OW33988   4.096   0.606  14.704 -0.4559 -0.4777  0.2534
 7509SOL    HW133989   4.103   0.517  14.737  0.6786  0.0310  1.4147
 7509SOL    HW233990   4.001   0.610  14.710 -0.3608  0.7166  1.1332
 7510SOL     OW33991   2.728   3.685   5.026 -0.1616 -0.7992  0.4106
 7510SOL    HW133992   2.732   3.736   4.945 -1.5749  1.3609  1.7060
 7510SOL    HW233993   2.642   3.714   5.056  0.1318  0.8336 -0.3657
 7511SOL     OW33994   0.437   1.476   5.173  0.0955  0.0553 -0.2808
 7511SOL    HW133995   0.527   1.446   5.162  0.3475  0.5834  0.3678
 7511SOL    HW233996   0.400   1.407   5.118 -0.5676  0.0235  0.2138
 7512SOL     OW33997   0.931   0.298  17.036 -0.0150 -0.2300  0.1407
 7512SOL    HW133998   0.949   0.319  17.128 -0.1361 -0.9574  0.3304
 7512SOL    HW233999   1.012   0.327  16.994  0.8207 -2.7694 -0.0178
 7513SOL     OW34000   2.518   2.950   3.636  0.7600 -0.3668 -0.0418
 7513SOL    HW134001   2.506   2.866   3.591  0.9011  0.9843 -2.5914
 7513SOL    HW234002   2.566   2.928   3.717  1.4513  0.2649 -0.2826
 7514SOL     OW34003   2.753   2.043   6.988  0.4559  0.0185  0.3622
 7514SOL    HW134004   2.675   2.079   6.946 -0.1816 -0.0713  1.4709
 7514SOL    HW234005   2.800   2.020   6.908 -1.5200  0.4600 -0.9165
 7515SOL     OW34006   0.813   1.464  17.435  0.2467 -0.3028  0.2244
 7515SOL    HW134007   0.803   1.496  17.345 -0.6553  1.6400  1.0065
 7515SOL    HW234008   0.850   1.546  17.469 -0.3294  1.1186 -2.5612
 7516SOL     OW34009   0.696   2.703   6.893  0.0517 -0.1560 -0.1464
 7516SOL    HW134010   0.748   2.627   6.866 -0.3449 -0.0013 -1.3207
 7516SOL    HW234011   0.681   2.753   6.812  1.4294 -1.4749 -1.2032
 7517SOL     OW34012   0.631   3.144   4.491 -0.2407  0.0319 -0.1900
 7517SOL    HW134013   0.576   3.163   4.567  2.3682  1.2558  1.4140
 7517SOL    HW234014   0.634   3.227   4.443  1.0942  0.4293  0.5662
 7518SOL     OW34015   2.094   1.810   7.521  0.5201  0.2400 -0.1498
 7518SOL    HW134016   2.008   1.842   7.550  0.2094 -0.9254  0.2227
 7518SOL    HW234017   2.134   1.893   7.498 -1.7900  1.1631 -0.9134
 7519SOL     OW34018   4.394   0.638  17.602  0.3821  0.0429  0.1338
 7519SOL    HW134019   4.435   0.704  17.657 -0.7950  1.5164 -0.7512
 7519SOL    HW234020   4.447   0.655  17.524  1.5338  3.5775  1.6988
 7520SOL     OW34021   0.534   0.401   2.971  0.0184 -0.7846  0.3614
 7520SOL    HW134022   0.541   0.457   2.894  0.3429 -0.3755  0.6927
 7520SOL    HW234023   0.482   0.459   3.026 -0.1817  0.5698 -1.2835
 7521SOL     OW34024   3.983   2.447   1.910 -0.0327 -0.5792  0.3810
 7521SOL    HW134025   3.997   2.373   1.850 -1.3751  0.8525 -1.7293
 7521SOL    HW234026   3.946   2.514   1.852 -0.1308 -0.2574  0.8144
 7522SOL     OW34027   3.259   2.236  14.863  0.3659  0.2064  0.1959
 7522SOL    HW134028   3.275   2.298  14.935 -2.4583  0.9326  0.2098
 7522SOL    HW234029   3.291   2.287  14.789 -0.7891 -0.4022 -0.7185
 7523SOL     OW34030   1.925   2.935   5.432  0.4996 -0.2980 -0.2429
 7523SOL    HW134031   1.939   2.986   5.512 -2.1244  0.8565 -0.5313
 7523SOL    HW234032   2.010   2.891   5.431  1.0360  0.6714  2.1449
 7524SOL     OW34033   2.122   4.547  16.144 -0.4720  0.0797 -0.2048
 7524SOL    HW134034   2.134   4.607  16.218  0.1099 -0.3781  0.0668
 7524SOL    HW234035   2.187   4.575  16.080 -1.5977  1.0574 -0.9365
 7525SOL     OW34036   4.212   0.785   1.363  0.5355 -0.7081  0.3792
 7525SOL    HW134037   4.146   0.777   1.431  0.7060  0.1315  0.6516
 7525SOL    HW234038   4.281   0.799   1.427  1.0320  0.6866 -0.4479
 7526SOL     OW34039   2.469   1.670   5.467  0.1435 -0.0138 -0.0663
 7526SOL    HW134040   2.424   1.713   5.394  1.7096  0.9098 -0.4809
 7526SOL    HW234041   2.417   1.590   5.469  0.0692  0.0510  0.6910
 7527SOL     OW34042   2.657   0.602  16.594  0.4105 -0.2521 -0.1736
 7527SOL    HW134043   2.734   0.657  16.582 -0.8685  1.3219 -1.2660
 7527SOL    HW234044   2.605   0.627  16.517 -1.7946 -0.0954  1.3520
 7528SOL     OW34045   0.384   2.672   2.914 -0.2331  0.2699  0.3179
 7528SOL    HW134046   0.424   2.728   2.980  0.0340  2.0406 -1.3332
 7528SOL    HW234047   0.389   2.726   2.835 -2.5415 -0.0908 -0.0743
 7529SOL     OW34048   2.731   3.408   3.410 -0.1530 -0.0243  0.3534
 7529SOL    HW134049   2.658   3.416   3.471 -1.1146  2.2658 -1.0880
 7529SOL    HW234050   2.772   3.328   3.441  0.2472  0.6905  1.6603
 7530SOL     OW34051   2.826   4.692   3.134 -0.0655 -0.9315  0.5681
 7530SOL    HW134052   2.846   0.024   3.055 -1.1458 -0.8599  0.3481
 7530SOL    HW234053   2.862   4.609   3.102 -0.4565 -1.4250  1.4187
 7531SOL     OW34054   0.755   0.572   7.098 -0.0495 -0.6687  0.1014
 7531SOL    HW134055   0.803   0.533   7.171 -0.6527 -0.6154  0.5302
 7531SOL    HW234056   0.798   0.513   7.037  0.4857  1.2091 -1.3458
 7532SOL     OW34057   4.033   2.936   7.526  0.3318  0.4260 -0.0526
 7532SOL    HW134058   4.092   2.924   7.601 -2.2593  0.8568  2.0653
 7532SOL    HW234059   3.968   2.866   7.535  0.3655  0.3575 -0.3632
 7533SOL     OW34060   3.393   3.757   8.695  1.0084 -0.3698 -0.3729
 7533SOL    HW134061   3.466   3.809   8.728  0.8019  1.1344 -2.2685
 7533SOL    HW234062   3.442   3.681   8.664  4.0684  2.0657 -1.5747
 7534SOL     OW34063   3.533   4.644   3.770  0.4870  0.0104  0.0558
 7534SOL    HW134064   3.515   4.694   3.690 -1.8459  1.8113  1.7022
 7534SOL    HW234065   3.449   4.604   3.795  0.5565  0.7089  1.3925
 7535SOL     OW34066   4.163   2.532   7.002 -0.6401 -0.2309 -0.0784
 7535SOL    HW134067   4.169   2.564   6.912  1.8816 -0.8688 -0.1370
 7535SOL    HW234068   4.128   2.610   7.046 -1.2595 -0.2654 -0.5056
 7536SOL     OW34069   4.193   2.306   1.227 -0.2890  0.2678  0.9765
 7536SOL    HW134070   4.118   2.292   1.285 -0.3240  1.2061  1.1554
 7536SOL    HW234071   4.154   2.363   1.161  0.1006 -2.0107 -1.2102
 7537SOL     OW34072   3.472   0.726   6.494  0.0480  0.4465 -0.3800
 7537SOL    HW134073   3.516   0.688   6.571 -0.1602 -0.5678 -0.7658
 7537SOL    HW234074   3.381   0.738   6.523  0.1495 -1.1436  0.6152
 7538SOL     OW34075   3.331   4.248   2.828 -0.5377 -0.2071 -0.0226
 7538SOL    HW134076   3.375   4.192   2.891 -0.6509  0.4181  0.6037
 7538SOL    HW234077   3.349   4.338   2.853 -0.1250 -0.4881  0.6972
 7539SOL     OW34078   2.918   3.859   2.706 -0.5858  0.6717  0.1651
 7539SOL    HW134079   2.918   3.892   2.617  0.2612  0.1595 -0.0303
 7539SOL    HW234080   3.001   3.890   2.744  0.0515 -1.7083  0.7349
 7540SOL     OW34081   3.600   3.435   0.104 -0.0559 -0.1218  0.3223
 7540SOL    HW134082   3.648   3.438   0.187 -1.0540  0.6783  0.8685
 7540SOL    HW234083   3.674   3.436   0.044  0.1414 -0.5423  0.5561
 7541SOL     OW34084   3.150   2.473   2.139 -0.3074  0.2091  0.0614
 7541SOL    HW134085   3.141   2.560   2.177  1.8030  1.2104 -1.7400
 7541SOL    HW234086   3.218   2.493   2.074 -0.7929 -1.2812 -0.8917
 7542SOL     OW34087   4.327   1.766  11.599  0.1861 -0.0225  0.3604
 7542SOL    HW134088   4.239   1.786  11.630  0.6198  1.8908  0.3410
 7542SOL    HW234089   4.324   1.795  11.508  1.1166  0.1283  0.3781
 7543SOL     OW34090   4.370   1.481   3.997  0.5382  0.1575  0.7843
 7543SOL    HW134091   4.378   1.570   4.031 -0.0127  0.4659  0.1153
 7543SOL    HW234092   4.366   1.483   3.902 -0.0947  1.3656  0.8425
 7544SOL     OW34093   1.698   4.305   0.036  0.3408  0.0291  0.0769
 7544SOL    HW134094   1.624   4.252   0.066  0.4793  0.5218  1.3238
 7544SOL    HW234095   1.739   4.254  17.647 -0.4152  0.6421 -0.8050
 7545SOL     OW34096   3.776   4.589   8.041 -0.6366  0.3765 -0.4902
 7545SOL    HW134097   3.755   4.676   8.075 -0.9233 -0.0676  0.4751
 7545SOL    HW234098   3.840   4.610   7.973 -0.4400 -0.3003 -0.5109
 7546SOL     OW34099   0.660   4.226   6.962 -0.7062  0.0149 -0.0444
 7546SOL    HW134100   0.601   4.197   7.031 -1.6442  1.0921 -0.3828
 7546SOL    HW234101   0.639   4.319   6.967 -1.5723 -0.3515  2.7909
 7547SOL     OW34102   3.994   4.198  14.704  0.5313 -0.2009 -0.7025
 7547SOL    HW134103   4.063   4.226  14.763  1.1038 -0.2649 -1.3361
 7547SOL    HW234104   3.932   4.158  14.764  0.9871  2.7291  1.7141
 7548SOL     OW34105   3.143   2.528   4.040  0.1805 -0.0870  0.2005
 7548SOL    HW134106   3.100   2.558   4.120  1.4190 -0.5705  1.0542
 7548SOL    HW234107   3.067   2.495   3.992  0.8676 -0.0280 -0.9166
 7549SOL     OW34108   3.854   4.513  12.554  0.4599 -0.2120  0.2403
 7549SOL    HW134109   3.760   4.535  12.558  0.4244 -0.2627 -0.4089
 7549SOL    HW234110   3.897   4.560  12.625  0.4070 -1.8070  1.3178
 7550SOL     OW34111   0.598   1.070  16.139  0.2166 -0.1271 -0.2697
 7550SOL    HW134112   0.683   1.101  16.109 -0.3804  2.1877  0.4881
 7550SOL    HW234113   0.562   1.033  16.058  0.0572  0.8037 -0.6229
 7551SOL     OW34114   0.593   1.962  13.037  0.0016  0.0602 -0.4098
 7551SOL    HW134115   0.651   1.955  13.113 -3.3768 -2.0198  1.9912
 7551SOL    HW234116   0.547   1.879  13.052  0.0999  0.1979  0.6408
 7552SOL     OW34117   2.046   3.388  17.425  0.1029 -0.4024 -0.1669
 7552SOL    HW134118   2.068   3.459  17.365 -0.4222  1.7517  2.1719
 7552SOL    HW234119   2.015   3.318  17.368 -1.9628 -0.5348  1.1360
 7553SOL     OW34120   0.520   0.771   4.524  0.1624  0.0047  0.0055
 7553SOL    HW134121   0.487   0.732   4.604 -1.9482  1.2463 -0.2577
 7553SOL    HW234122   0.457   0.839   4.499  0.0220 -0.1479 -0.0500
 7554SOL     OW34123   3.552   0.419   8.053 -0.2916 -0.0662 -0.0637
 7554SOL    HW134124   3.643   0.401   8.077 -0.3226  1.4755  1.1802
 7554SOL    HW234125   3.564   0.440   7.961  0.8160 -1.3729 -0.2169
 7555SOL     OW34126   4.358   0.083   0.794 -0.7009 -0.1639 -0.3140
 7555SOL    HW134127   4.410   0.008   0.822 -0.2940 -0.3892 -1.6863
 7555SOL    HW234128   4.300   0.079   0.870 -0.0924  0.4116  0.1736
 7556SOL     OW34129   1.668   1.473  15.794  0.5156 -0.2464 -0.0076
 7556SOL    HW134130   1.599   1.536  15.773 -0.4079 -1.1004  0.4811
 7556SOL    HW234131   1.694   1.506  15.880 -0.3020 -0.4232  0.2973
 7557SOL     OW34132   4.222   4.251   8.184  0.4593  0.5449  0.3535
 7557SOL    HW134133   4.148   4.250   8.125  0.7098 -1.2531  0.0671
 7557SOL    HW234134   4.282   4.186   8.148 -0.0097 -0.9654  2.3109
 7558SOL     OW34135   1.023   0.916  15.851 -0.3277  0.1634  0.2767
 7558SOL    HW134136   1.051   0.907  15.760  0.7276 -0.0638  0.6261
 7558SOL    HW234137   1.104   0.953  15.888 -0.2285  1.4569 -1.2171
 7559SOL     OW34138   1.999   1.930   3.845  0.5349  0.2766  0.7042
 7559SOL    HW134139   2.051   1.850   3.843  3.1189  1.9439  0.9510
 7559SOL    HW234140   2.051   1.987   3.788  1.4147 -1.8988 -0.6617
 7560SOL     OW34141   4.551   1.847   6.092  0.7463 -0.2297  0.6683
 7560SOL    HW134142   4.571   1.822   6.002 -0.1410 -2.0708  0.9825
 7560SOL    HW234143   4.510   1.771   6.133  2.2619 -0.4245  1.8511
 7561SOL     OW34144   0.607   4.526   5.696  0.1614 -0.5528  0.0375
 7561SOL    HW134145   0.536   4.570   5.742  1.5107  0.0123  1.5792
 7561SOL    HW234146   0.661   4.599   5.666 -0.6682 -0.0114 -0.1566
 7562SOL     OW34147   2.616   2.159   0.869  0.5146 -0.6153 -0.3643
 7562SOL    HW134148   2.599   2.248   0.839  1.9316 -0.0265  0.5893
 7562SOL    HW234149   2.697   2.175   0.919  0.4345 -2.9369  0.5074
 7563SOL     OW34150   4.266   2.528   1.404 -0.4752  0.7173  0.5226
 7563SOL    HW134151   4.277   2.457   1.340  2.1476  1.2450  0.3728
 7563SOL    HW234152   4.183   2.515   1.448 -1.3033  0.1443 -1.1997
 7564SOL     OW34153   4.430   1.041   3.187 -0.3764 -0.1004  0.5914
 7564SOL    HW134154   4.412   0.947   3.190 -0.6533 -0.0399  0.8184
 7564SOL    HW234155   4.355   1.072   3.238 -0.9117 -1.2604  0.5074
 7565SOL     OW34156   1.314   2.979   5.549  0.0081 -0.4767 -0.0908
 7565SOL    HW134157   1.257   2.991   5.473  0.9981  0.7000 -0.6572
 7565SOL    HW234158   1.402   2.977   5.511 -1.2184  1.2044 -3.0616
 7566SOL     OW34159   3.665   2.159   9.506  0.4254  0.4006  0.0123
 7566SOL    HW134160   3.665   2.099   9.581  2.0719  1.7307  1.0844
 7566SOL    HW234161   3.738   2.119   9.457 -0.1821  1.8329 -2.0781
 7567SOL     OW34162   0.306   2.612   7.851 -1.0028 -0.5312 -0.0386
 7567SOL    HW134163   0.353   2.572   7.777  0.3781  1.8874 -0.4506
 7567SOL    HW234164   0.304   2.705   7.831  0.2393 -0.6294 -0.6042
 7568SOL     OW34165   0.969   2.339   6.569  0.1709  0.0316 -0.0852
 7568SOL    HW134166   1.056   2.375   6.551 -0.5656  1.7377 -0.1390
 7568SOL    HW234167   0.993   2.255   6.609  1.8604 -0.0751 -1.3323
 7569SOL     OW34168   3.049   0.407   9.217  0.4914  0.3512  0.3086
 7569SOL    HW134169   3.137   0.370   9.209 -0.1678 -1.2932  0.5924
 7569SOL    HW234170   3.007   0.329   9.253 -0.0161  0.4408 -0.0811
 7570SOL     OW34171   3.389   3.604   2.818 -0.1208  0.2005 -0.0611
 7570SOL    HW134172   3.304   3.578   2.853  0.0923  1.0835  1.1262
 7570SOL    HW234173   3.440   3.613   2.899  0.3208  0.6919 -0.3939
 7571SOL     OW34174   3.081   4.427   0.746 -0.1689 -0.2343 -0.5184
 7571SOL    HW134175   3.033   4.409   0.827 -0.1725 -1.5440 -0.8108
 7571SOL    HW234176   3.045   4.509   0.714  0.9339  0.1923 -0.6401
 7572SOL     OW34177   3.567   3.621   5.918 -0.2363 -0.0741  0.2542
 7572SOL    HW134178   3.627   3.549   5.899  1.6588  1.3486  0.8211
 7572SOL    HW234179   3.599   3.639   6.007 -2.9050  1.8336  0.8323
 7573SOL     OW34180   2.746   3.086   3.232 -0.0531  0.1425  0.1542
 7573SOL    HW134181   2.675   3.036   3.191  0.0363  0.9197 -0.9381
 7573SOL    HW234182   2.700   3.122   3.308  1.0192 -1.0164  1.3653
 7574SOL     OW34183   4.310   4.675   5.882 -0.0382 -1.2752 -0.2431
 7574SOL    HW134184   4.373   4.683   5.953  0.1648 -0.0030 -0.5629
 7574SOL    HW234185   4.262   4.601   5.920 -0.9814 -0.1545  0.7452
 7575SOL     OW34186   1.998   2.862   6.972 -0.0849 -0.1682  0.1380
 7575SOL    HW134187   1.928   2.909   7.016 -0.5984  0.1581 -1.0261
 7575SOL    HW234188   2.002   2.778   7.018  1.8074  0.6646  1.4789
 7576SOL     OW34189   4.057   0.931   1.834  0.0529 -0.0287 -0.3460
 7576SOL    HW134190   4.010   0.847   1.836 -2.6757  1.4552 -1.4111
 7576SOL    HW234191   3.994   1.000   1.811  1.2129  1.1546  0.0819
 7577SOL     OW34192   3.935   3.747  15.878 -0.2928  0.4268 -0.5124
 7577SOL    HW134193   3.974   3.829  15.847  2.6535 -0.5350  0.6098
 7577SOL    HW234194   3.852   3.782  15.910  0.1803 -1.1568  2.5251
 7578SOL     OW34195   4.360   2.929   3.570 -0.3324 -0.1252 -0.3100
 7578SOL    HW134196   4.400   2.867   3.631 -1.1787  0.8637  1.2442
 7578SOL    HW234197   4.366   3.000   3.634  2.7538  0.5207 -1.3480
 7579SOL     OW34198   3.123   1.819   3.324  0.2249  0.1462 -0.2765
 7579SOL    HW134199   3.107   1.913   3.325 -1.4211 -0.1700  2.9609
 7579SOL    HW234200   3.087   1.809   3.236 -1.9626 -0.3002  0.6731
 7580SOL     OW34201   2.537   2.578   7.444 -0.3288  0.2654  0.0487
 7580SOL    HW134202   2.589   2.642   7.493 -0.7537  1.3253 -0.8929
 7580SOL    HW234203   2.569   2.601   7.357 -0.6432  1.0138  0.1309
 7581SOL     OW34204   4.145   1.517   6.352 -0.5325  0.0650 -0.1802
 7581SOL    HW134205   4.099   1.433   6.353  0.7287 -0.6423 -0.9481
 7581SOL    HW234206   4.088   1.582   6.312 -1.2319 -0.3149  0.1896
 7582SOL     OW34207   3.965   1.998   7.258 -0.5830  0.2195  0.2260
 7582SOL    HW134208   3.944   1.921   7.312  0.2304 -0.7061 -0.7669
 7582SOL    HW234209   4.000   2.058   7.323  1.8957 -1.0940  0.1274
 7583SOL     OW34210   0.282   4.500   3.630  0.0097 -0.5606 -0.2385
 7583SOL    HW134211   0.290   4.579   3.682 -0.3712  0.7731 -2.2010
 7583SOL    HW234212   0.321   4.527   3.547 -0.0065  0.9164  0.2308
 7584SOL     OW34213   0.847   4.376  15.003  0.3098 -0.1297 -0.2317
 7584SOL    HW134214   0.795   4.406  14.929  0.5986  0.0256 -0.3700
 7584SOL    HW234215   0.859   4.285  14.975  1.0416 -0.6018  1.5960
 7585SOL     OW34216   4.182   3.522   7.319  0.1776 -0.3511  0.3241
 7585SOL    HW134217   4.202   3.448   7.261  0.8773  0.3311 -0.2927
 7585SOL    HW234218   4.224   3.480   7.394 -1.4343  0.7058  1.8099
 7586SOL     OW34219   4.331   0.468   7.454  0.2536  0.5278  0.0921
 7586SOL    HW134220   4.397   0.526   7.492  0.3256  1.1001 -0.9033
 7586SOL    HW234221   4.372   0.433   7.375  1.5025 -0.1521  1.0577
 7587SOL     OW34222   3.759   2.752  11.830 -0.0968  0.3502 -0.1018
 7587SOL    HW134223   3.796   2.746  11.918 -1.0005  0.4666  0.2824
 7587SOL    HW234224   3.696   2.680  11.837  1.3960 -0.7573  2.0930
 7588SOL     OW34225   4.599   2.243   7.090 -0.1456 -0.1370  0.1436
 7588SOL    HW134226   4.659   2.253   7.164 -0.0577  0.3221  0.0106
 7588SOL    HW234227   4.655   2.263   7.015  1.2065  0.2545  1.2580
 7589SOL     OW34228   1.856   3.915  12.715 -0.2028 -0.1760 -0.6267
 7589SOL    HW134229   1.823   3.975  12.648  0.1978  0.1364 -0.5416
 7589SOL    HW234230   1.951   3.921  12.705  0.2213 -1.7157  2.4389
 7590SOL     OW34231   0.718   0.761   4.327 -0.1007 -0.1933  0.1645
 7590SOL    HW134232   0.625   0.769   4.350 -0.2349  0.5107 -0.6315
 7590SOL    HW234233   0.741   0.853   4.310 -0.4579  0.1961  1.7841
 7591SOL     OW34234   3.584   0.668   5.473  0.1539  0.1277  0.3896
 7591SOL    HW134235   3.612   0.759   5.474 -0.3701  0.3138 -1.0238
 7591SOL    HW234236   3.668   0.624   5.462  0.3799 -0.0942  2.9795
 7592SOL     OW34237   0.979   4.096  11.163 -0.0447 -0.1106  0.3858
 7592SOL    HW134238   1.033   4.161  11.118  1.2988 -0.1632  1.9571
 7592SOL    HW234239   0.899   4.145  11.184  1.1262  2.3926 -1.0017
 7593SOL     OW34240   0.881   4.183   6.386  0.2241  0.2813 -0.3220
 7593SOL    HW134241   0.846   4.268   6.411 -0.8732 -0.9884  2.5661
 7593SOL    HW234242   0.866   4.198   6.293 -1.1670  4.7674  0.6182
 7594SOL     OW34243   3.813   2.145   8.263  0.2596 -0.3421 -0.0422
 7594SOL    HW134244   3.843   2.219   8.209 -1.6553 -0.3794 -1.1695
 7594SOL    HW234245   3.723   2.175   8.263  0.2281 -0.4837  1.8961
 7595SOL     OW34246   0.532   4.250  11.463 -0.9360 -0.2875  0.3335
 7595SOL    HW134247   0.543   4.336  11.423  0.3281  0.5904  2.5546
 7595SOL    HW234248   0.463   4.257  11.528 -1.8317 -0.5567 -0.5849
 7596SOL     OW34249   4.348   3.901   4.990  0.1265  0.2343 -0.3703
 7596SOL    HW134250   4.414   3.958   4.950  2.3620 -0.1753  2.7358
 7596SOL    HW234251   4.325   3.840   4.920 -1.5356  2.5604 -1.8348
 7597SOL     OW34252   2.517   4.216  14.927  0.3525  0.5185 -0.0253
 7597SOL    HW134253   2.446   4.178  14.875 -1.1919  0.5812  2.0484
 7597SOL    HW234254   2.547   4.276  14.858 -0.2988 -1.8868 -2.3718
 7598SOL     OW34255   1.257   0.961   0.533  0.2331 -0.0363  0.1198
 7598SOL    HW134256   1.267   0.974   0.627  0.1353 -3.2511  0.5788
 7598SOL    HW234257   1.210   1.038   0.502  0.7544  1.9245  4.2446
 7599SOL     OW34258   3.469   3.886  14.340  0.4461  0.2813  0.3830
 7599SOL    HW134259   3.373   3.882  14.340  0.5118 -1.1440  2.9597
 7599SOL    HW234260   3.496   3.853  14.426  0.1492 -0.1932  0.2980
 7600SOL     OW34261   3.321   1.974   4.734 -0.3484 -0.0084 -0.1613
 7600SOL    HW134262   3.324   1.918   4.811 -2.3269 -0.4593 -0.4171
 7600SOL    HW234263   3.413   2.001   4.732  0.1965 -1.8070  0.4290
 7601SOL     OW34264   2.799   3.282   8.670 -0.2367 -0.4988  0.2647
 7601SOL    HW134265   2.803   3.209   8.731  0.4882 -0.3061  0.4406
 7601SOL    HW234266   2.889   3.312   8.682 -0.2054 -0.7532  0.6461
 7602SOL     OW34267   2.666   4.061   3.346  0.2272  0.2115 -0.0870
 7602SOL    HW134268   2.762   4.054   3.346  0.2678  0.7713  2.0024
 7602SOL    HW234269   2.650   4.086   3.437 -1.0580  2.4166 -0.9120
 7603SOL     OW34270   3.494   4.359   3.488  0.3572  0.8105 -0.4531
 7603SOL    HW134271   3.539   4.321   3.413  2.9505 -0.9893  2.0399
 7603SOL    HW234272   3.433   4.291   3.517 -1.1449  2.9044  1.2805
 7604SOL     OW34273   1.981   2.521   4.050 -0.1604  0.4392  0.1881
 7604SOL    HW134274   2.057   2.463   4.051 -0.2635  0.3142  0.9664
 7604SOL    HW234275   1.926   2.476   4.114  0.5212  0.7399  0.9780
 7605SOL     OW34276   0.945   4.336   8.456  0.2142  0.1086 -0.4244
 7605SOL    HW134277   1.017   4.399   8.451 -0.0752  0.4898  0.2487
 7605SOL    HW234278   0.872   4.397   8.456 -2.0764 -2.6338 -1.0175
 7606SOL     OW34279   1.406   3.230  13.133 -0.2095  0.4682  0.5537
 7606SOL    HW134280   1.353   3.245  13.055 -0.5006  2.3280  1.1184
 7606SOL    HW234281   1.470   3.301  13.137  1.7668 -1.2668  0.2142
 7607SOL     OW34282   1.979   3.672  12.187  0.8454 -0.3496 -0.1333
 7607SOL    HW134283   2.055   3.645  12.238  2.3592  0.0988 -2.1383
 7607SOL    HW234284   2.013   3.719  12.111  0.6741  0.1574  0.1050
 7608SOL     OW34285   4.542   1.597   6.494 -0.5021 -0.3247  0.5119
 7608SOL    HW134286   4.636   1.581   6.500 -0.5068 -0.7497 -0.5884
 7608SOL    HW234287   4.500   1.511   6.496 -1.3703  0.0739 -0.1660
 7609SOL     OW34288   1.029   4.153   1.225 -0.1411 -0.4055 -0.3789
 7609SOL    HW134289   1.002   4.233   1.179  0.6589 -1.3269 -2.4722
 7609SOL    HW234290   0.954   4.130   1.279 -0.0574  1.3966  0.5085
 7610SOL     OW34291   3.136   2.775   8.401 -0.0546  0.0329  0.4477
 7610SOL    HW134292   3.201   2.844   8.387 -1.9307  1.3374 -1.9872
 7610SOL    HW234293   3.176   2.690   8.383  0.1000  0.3292 -0.6297
 7611SOL     OW34294   0.883   4.232  11.814 -0.2208 -0.4398 -0.4178
 7611SOL    HW134295   0.916   4.286  11.885 -0.7509 -0.7954  0.0975
 7611SOL    HW234296   0.855   4.300  11.752 -0.9570  0.0555  0.4646
 7612SOL     OW34297   0.206   1.001   8.404  0.2197 -0.2955 -0.4780
 7612SOL    HW134298   0.264   0.929   8.377 -1.3883 -1.9250  0.4203
 7612SOL    HW234299   0.230   1.077   8.352 -1.1433  0.6598  0.2869
 7613SOL     OW34300   3.763   4.157   4.795  0.0286  0.0257 -0.0212
 7613SOL    HW134301   3.710   4.138   4.718  0.9015 -0.6638 -0.4557
 7613SOL    HW234302   3.709   4.225   4.834 -0.0739  0.4705 -0.9244
 7614SOL     OW34303   4.169   0.784  17.163  0.0823  0.1879  0.1444
 7614SOL    HW134304   4.202   0.790  17.252  0.3867  1.2827 -0.0430
 7614SOL    HW234305   4.220   0.845  17.110  0.3789  1.0235  1.3899
 7615SOL     OW34306   2.370   1.168   6.266 -0.0139  0.3116  0.6158
 7615SOL    HW134307   2.294   1.131   6.312 -1.5865  1.2820 -1.2421
 7615SOL    HW234308   2.356   1.262   6.274  1.4349  0.4297  1.9695
 7616SOL     OW34309   0.717   4.625   4.639 -0.4439  0.4487 -0.0423
 7616SOL    HW134310   0.695   4.696   4.700 -3.9014 -1.7680  1.2415
 7616SOL    HW234311   0.675   4.550   4.680 -1.8561  1.1628 -0.1698
 7617SOL     OW34312   1.217   2.324  13.832 -0.9824  0.2413  0.0572
 7617SOL    HW134313   1.260   2.268  13.896 -2.0902 -1.1782 -0.4271
 7617SOL    HW234314   1.294   2.369  13.796  1.3870 -1.9736  2.3855
 7618SOL     OW34315   1.047   3.149   9.821 -0.2619 -0.1863 -0.3305
 7618SOL    HW134316   1.070   3.239   9.800 -0.1427 -0.1509 -0.0344
 7618SOL    HW234317   1.097   3.099   9.755  3.5218  0.7904  1.8454
 7619SOL     OW34318   2.158   0.068   5.295  0.0314  0.3832  0.3669
 7619SOL    HW134319   2.121   0.134   5.354 -2.0800  0.5538 -1.1286
 7619SOL    HW234320   2.249   0.095   5.304  0.3268 -1.0562  1.7198
 7620SOL     OW34321   2.644   0.757   3.447  0.0414  0.3937 -0.3035
 7620SOL    HW134322   2.551   0.779   3.435 -0.1903  0.4232  1.5705
 7620SOL    HW234323   2.626   0.711   3.529  1.0250  0.9519  0.2219
 7621SOL     OW34324   3.707   2.723  10.726  0.0548  0.5932  0.1580
 7621SOL    HW134325   3.769   2.678  10.784  0.7757 -0.0894 -1.1478
 7621SOL    HW234326   3.741   2.811  10.742 -0.6564  0.4953  2.2452
 7622SOL     OW34327   4.356   1.655   3.419 -0.0671 -0.5365 -0.9513
 7622SOL    HW134328   4.422   1.590   3.397  0.6942 -0.9368  2.4792
 7622SOL    HW234329   4.274   1.608   3.401  0.2374 -2.0873  1.7570
 7623SOL     OW34330   3.873   0.525   9.613 -0.6040 -0.8231  0.1898
 7623SOL    HW134331   3.858   0.502   9.521  0.6219 -2.3328  0.3549
 7623SOL    HW234332   3.917   0.610   9.605 -0.5473 -1.0994 -2.3809
 7624SOL     OW34333   4.211   1.090   9.529  0.1118 -0.7043 -0.5264
 7624SOL    HW134334   4.124   1.113   9.561  0.9322  1.4781  0.1268
 7624SOL    HW234335   4.196   1.124   9.441 -1.3486  1.8443  0.7408
 7625SOL     OW34336   2.090   1.446   6.710 -0.4227  0.0124  0.3929
 7625SOL    HW134337   2.062   1.460   6.800  1.4257  2.6348  0.5512
 7625SOL    HW234338   2.118   1.529   6.672  0.7100 -0.7390 -0.4379
 7626SOL     OW34339   2.200   4.577   9.381 -0.2045 -0.0067  0.2364
 7626SOL    HW134340   2.245   4.661   9.387 -0.0598  0.2628 -4.5783
 7626SOL    HW234341   2.114   4.615   9.361 -0.9427 -1.9568 -0.2700
 7627SOL     OW34342   4.486   0.265   7.650  0.5423  0.5056 -0.0412
 7627SOL    HW134343   4.562   0.230   7.603  0.4332  0.4396 -0.1695
 7627SOL    HW234344   4.416   0.225   7.597 -1.3951  0.6477  2.3992
 7628SOL     OW34345   0.014   3.665   4.495 -0.2174  0.4726  0.0638
 7628SOL    HW134346   0.064   3.623   4.565 -0.7325  2.2205  1.4709
 7628SOL    HW234347   0.075   3.737   4.483 -0.4754  0.2226 -2.7733
 7629SOL     OW34348   1.997   3.802   1.830  0.2731  0.3817 -0.2900
 7629SOL    HW134349   2.073   3.751   1.803  1.2641  0.5700  2.0963
 7629SOL    HW234350   1.947   3.793   1.749 -1.5823  0.4345  0.8324
 7630SOL     OW34351   3.733   3.936   9.617  0.1720 -0.2009  0.0476
 7630SOL    HW134352   3.771   3.857   9.577  0.9025 -0.6988  1.7154
 7630SOL    HW234353   3.682   3.963   9.541  0.9482  0.1696 -0.3463
 7631SOL     OW34354   3.020   3.176   3.203 -0.2100 -0.8456 -0.4221
 7631SOL    HW134355   3.024   3.250   3.262 -4.5619 -1.5571  0.7351
 7631SOL    HW234356   2.928   3.153   3.214  0.1726 -2.3837 -0.4180
 7632SOL     OW34357   4.270   2.947  11.193  0.3106 -0.2245 -0.1289
 7632SOL    HW134358   4.363   2.952  11.173  0.8230  1.1153  2.6114
 7632SOL    HW234359   4.245   2.856  11.209 -0.7347  0.2998  1.2300
 7633SOL     OW34360   1.684   0.269   4.267 -0.7458 -0.0015 -0.0212
 7633SOL    HW134361   1.769   0.289   4.228  0.5557 -0.4796  2.5999
 7633SOL    HW234362   1.620   0.287   4.198 -1.2809  0.8964  0.7192
 7634SOL     OW34363   3.487   0.986   2.511 -0.6722 -0.1414  0.4489
 7634SOL    HW134364   3.440   1.016   2.588  0.5379 -2.0124  1.9181
 7634SOL    HW234365   3.497   0.894   2.535 -2.2607 -0.7214 -1.1188
 7635SOL     OW34366   3.898   2.056   6.825 -0.0880  0.1529  0.0784
 7635SOL    HW134367   3.920   2.084   6.736  0.6881  3.2089  1.2390
 7635SOL    HW234368   3.965   2.107   6.871 -0.2950  0.4549  0.0372
 7636SOL     OW34369   3.938   1.303   8.089 -0.3928  0.2805  0.0579
 7636SOL    HW134370   4.032   1.316   8.094 -0.3518  0.3157 -0.8673
 7636SOL    HW234371   3.923   1.222   8.040 -1.6461  1.8957 -2.2540
 7637SOL     OW34372   4.320   4.390   6.333 -0.1716  0.2700 -0.1126
 7637SOL    HW134373   4.409   4.389   6.297  0.3702  0.5144  1.2306
 7637SOL    HW234374   4.283   4.466   6.289 -1.1649 -0.3339 -0.3255
 7638SOL     OW34375   4.299   2.091   6.698 -0.2161 -0.0805 -0.1308
 7638SOL    HW134376   4.317   2.115   6.608  0.4465 -0.6459 -0.1493
 7638SOL    HW234377   4.383   2.114   6.737 -0.5853  1.4951 -0.2932
 7639SOL     OW34378   2.922   0.527   3.740 -0.2030 -0.6143 -0.3088
 7639SOL    HW134379   2.885   0.538   3.653 -1.3407 -0.4194  0.1955
 7639SOL    HW234380   2.971   0.445   3.737 -0.7150 -1.0027  1.6642
 7640SOL     OW34381   2.938   0.657  16.586  0.3678  0.2105  0.0590
 7640SOL    HW134382   2.984   0.652  16.670 -2.0390 -1.3356  1.2883
 7640SOL    HW234383   2.996   0.623  16.518  0.7062  0.8321  0.0380
 7641SOL     OW34384   3.397   1.525   4.091 -0.1125 -0.5553  0.0578
 7641SOL    HW134385   3.345   1.502   4.015 -1.8986  0.1871  1.0600
 7641SOL    HW234386   3.330   1.578   4.135 -1.5744 -1.9726 -0.4928
 7642SOL     OW34387   4.101   3.932   8.783 -0.0270  0.2597 -0.5095
 7642SOL    HW134388   4.120   3.843   8.754 -2.9272 -0.0081 -1.6388
 7642SOL    HW234389   4.126   3.981   8.704  1.5988 -0.9176 -0.7313
 7643SOL     OW34390   1.093   2.790   2.915  0.1715  0.1516  0.2743
 7643SOL    HW134391   1.112   2.864   2.857  1.9439 -0.2037  0.4231
 7643SOL    HW234392   1.120   2.715   2.862 -1.0487 -0.2045  0.1609
 7644SOL     OW34393   0.862   2.872   8.096 -0.8806  0.2434 -0.0189
 7644SOL    HW134394   0.904   2.861   8.182 -0.0325  1.2307 -0.3123
 7644SOL    HW234395   0.876   2.786   8.057  0.0441  0.4528 -0.1631
 7645SOL     OW34396   4.609   2.508  12.410  0.1761 -0.2752 -0.1844
 7645SOL    HW134397   4.590   2.601  12.398 -0.2041 -0.1762  1.1750
 7645SOL    HW234398   4.635   2.493  12.501 -1.2144  0.4518  0.3346
 7646SOL     OW34399   1.753   0.284   8.555  0.4768  0.4174 -0.2724
 7646SOL    HW134400   1.660   0.297   8.573  0.4956  2.3552 -1.6103
 7646SOL    HW234401   1.748   0.290   8.459  0.7543  0.1786 -0.3031
 7647SOL     OW34402   0.238   3.687   5.796  0.2329  0.6192  1.1345
 7647SOL    HW134403   0.222   3.593   5.802 -0.4580  0.5403 -1.7039
 7647SOL    HW234404   0.147   3.715   5.794  0.7275  2.0874 -0.3534
 7648SOL     OW34405   0.867   0.948   6.070  0.1230 -0.0449  0.3305
 7648SOL    HW134406   0.846   0.996   6.150 -2.1622 -1.3799  0.5225
 7648SOL    HW234407   0.798   0.882   6.066 -0.2109  0.4143 -1.4252
 7649SOL     OW34408   0.550   1.983  11.133 -0.1307 -0.1573 -0.7103
 7649SOL    HW134409   0.564   2.026  11.217 -1.3584 -0.0346 -0.5591
 7649SOL    HW234410   0.460   1.954  11.152  0.3478  1.0797  3.4004
 7650SOL     OW34411   3.565   2.268   7.106  0.0361  0.0465  0.4919
 7650SOL    HW134412   3.511   2.189   7.099  0.4776 -0.2255  0.1020
 7650SOL    HW234413   3.639   2.237   7.159 -0.9749 -1.3667  1.0982
 7651SOL     OW34414   1.616   1.930  15.710  0.1585  0.4809  0.1050
 7651SOL    HW134415   1.607   1.999  15.775 -3.1418 -1.2360  1.4822
 7651SOL    HW234416   1.670   1.967  15.640 -1.0489  0.7205 -0.6994
 7652SOL     OW34417   0.904   1.464   7.314  0.3152 -0.4285  0.0448
 7652SOL    HW134418   0.953   1.420   7.245  2.1292 -1.1149  1.7442
 7652SOL    HW234419   0.933   1.555   7.309 -2.1175  0.3459  0.0053
 7653SOL     OW34420   3.508   2.363  14.716  0.6640 -0.1249  0.3625
 7653SOL    HW134421   3.592   2.408  14.717  1.8245 -2.2710 -1.9367
 7653SOL    HW234422   3.456   2.442  14.705  0.1020 -0.5998 -0.4243
 7654SOL     OW34423   1.374   4.059  12.648 -0.2451 -0.5873 -0.2657
 7654SOL    HW134424   1.373   4.062  12.552  1.5284  0.7956 -0.2230
 7654SOL    HW234425   1.287   4.090  12.673  0.2255  0.9381 -0.5721
 7655SOL     OW34426   0.326   0.784  15.697  0.6022  0.0427 -0.4306
 7655SOL    HW134427   0.332   0.786  15.792 -1.3810  2.1574 -0.3597
 7655SOL    HW234428   0.408   0.834  15.691  1.3578 -1.1815 -0.2463
 7656SOL     OW34429   3.613   3.917   4.423 -0.4293  0.6642  0.0989
 7656SOL    HW134430   3.604   3.829   4.387 -1.9990  0.0772  1.9405
 7656SOL    HW234431   3.707   3.919   4.402  0.0550  1.3300  2.3614
 7657SOL     OW34432   2.468   3.722   2.989 -0.1134 -0.4630 -0.2606
 7657SOL    HW134433   2.495   3.706   2.898 -1.6608 -1.3374 -0.5570
 7657SOL    HW234434   2.527   3.792   3.015  0.4534 -1.0868  0.1370
 7658SOL     OW34435   4.455   0.593   6.654 -0.4666 -0.0884  0.2085
 7658SOL    HW134436   4.393   0.666   6.660 -1.0329 -0.5273 -0.2417
 7658SOL    HW234437   4.516   0.633   6.592 -0.5374 -1.0284 -0.4698
 7659SOL     OW34438   1.441   3.058   3.284 -0.0206 -0.2019 -0.2911
 7659SOL    HW134439   1.477   3.064   3.195  0.7640  1.9078  0.1525
 7659SOL    HW234440   1.347   3.068   3.267  0.4132  1.3681 -1.7625
 7660SOL     OW34441   1.800   1.803   2.827 -0.0216  0.2780  0.0401
 7660SOL    HW134442   1.813   1.860   2.751  0.5721 -0.8335 -0.6894
 7660SOL    HW234443   1.871   1.741   2.810  0.0831  0.4027  0.0258
 7661SOL     OW34444   3.326   2.638   2.002  0.0129 -0.5337  0.3218
 7661SOL    HW134445   3.394   2.586   1.960  0.1230  0.9167 -1.3443
 7661SOL    HW234446   3.277   2.658   1.922  1.9614 -0.7465 -0.9309
 7662SOL     OW34447   1.965   3.704   3.875 -0.7419  0.3342 -0.1853
 7662SOL    HW134448   1.892   3.690   3.935  1.1524 -0.3717  1.9641
 7662SOL    HW234449   2.015   3.778   3.911  1.1425 -0.9664 -0.1441
 7663SOL     OW34450   0.843   3.439   0.248 -0.2045  0.2626  0.2227
 7663SOL    HW134451   0.906   3.368   0.237 -1.1354 -0.8826  2.1516
 7663SOL    HW234452   0.802   3.435   0.162 -3.6823  2.4086  1.7867
 7664SOL     OW34453   3.991   0.473  16.483  0.3483 -0.2606  0.7207
 7664SOL    HW134454   4.000   0.546  16.421 -3.1830 -0.8518 -0.4814
 7664SOL    HW234455   4.003   0.523  16.564  0.1795  0.1914  0.4691
 7665SOL     OW34456   0.477   2.506   8.347  0.1037  0.0576 -0.2675
 7665SOL    HW134457   0.419   2.565   8.395  0.0914 -0.4869  0.3866
 7665SOL    HW234458   0.440   2.519   8.259 -1.2851  0.5954  0.3931
 7666SOL     OW34459   2.743   2.667   2.475  0.4295 -0.3236  0.0029
 7666SOL    HW134460   2.815   2.697   2.532  0.6484  0.2123 -0.5533
 7666SOL    HW234461   2.783   2.697   2.393 -2.5775  0.4761 -1.1509
 7667SOL     OW34462   4.062   0.010   7.344  0.9072 -0.2273 -0.0286
 7667SOL    HW134463   3.991   0.073   7.362  0.2475 -1.2583  0.9616
 7667SOL    HW234464   4.133   0.063   7.380  0.7655  1.0294 -1.5839
 7668SOL     OW34465   4.505   0.157  15.970  0.3377  0.3077 -0.3162
 7668SOL    HW134466   4.431   0.097  15.960 -0.0583  0.4878  1.4535
 7668SOL    HW234467   4.537   0.168  15.881 -0.3707  1.6487 -0.3999
 7669SOL     OW34468   4.543   3.254  16.557  0.1955  0.6033 -0.4393
 7669SOL    HW134469   4.606   3.194  16.516 -0.7179  1.2710 -2.8284
 7669SOL    HW234470   4.459   3.216  16.534  0.7649 -0.7842 -0.2265
 7670SOL     OW34471   3.518   1.105   5.888 -0.5613 -0.1832 -0.1981
 7670SOL    HW134472   3.527   1.060   5.972 -1.3126 -0.7348 -0.4074
 7670SOL    HW234473   3.434   1.068   5.858 -1.4649  1.9472 -0.2780
 7671SOL     OW34474   2.301   0.127  13.661 -0.4204 -0.1895  0.1931
 7671SOL    HW134475   2.314   0.222  13.656 -2.4204  0.1212  0.8382
 7671SOL    HW234476   2.381   0.090  13.698  0.5121 -0.0164 -1.6291
 7672SOL     OW34477   0.586   1.058   0.331  0.3524 -0.2537 -0.0855
 7672SOL    HW134478   0.510   1.117   0.328 -0.4381 -1.3274 -1.0314
 7672SOL    HW234479   0.553   1.012   0.254 -0.8131 -1.0775  0.9054
 7673SOL     OW34480   2.599   3.183   5.181  0.3509 -0.0954 -0.7269
 7673SOL    HW134481   2.602   3.088   5.183 -1.5120 -0.1260  0.8699
 7673SOL    HW234482   2.574   3.206   5.270 -0.9832  0.1775 -1.1741
 7674SOL     OW34483   3.014   4.077   1.303 -0.4146  0.4414 -0.6806
 7674SOL    HW134484   3.074   4.025   1.356 -0.4381  0.8071 -0.2935
 7674SOL    HW234485   2.997   4.023   1.226 -1.4807 -1.6742  1.0476
 7675SOL     OW34486   1.917   4.178   7.485 -0.0622 -0.0837  0.0365
 7675SOL    HW134487   1.989   4.218   7.436  0.2198  0.3064  0.7762
 7675SOL    HW234488   1.849   4.245   7.474  0.8495  0.6938 -0.9633
 7676SOL     OW34489   4.542   0.190   6.464 -0.4024  0.2954 -0.1291
 7676SOL    HW134490   4.601   0.220   6.533 -0.2885 -1.9664  0.7718
 7676SOL    HW234491   4.467   0.247   6.480 -0.7614  0.2356 -1.6958
 7677SOL     OW34492   1.980   1.861  12.358 -0.4231  0.0328 -0.0207
 7677SOL    HW134493   2.074   1.843  12.351 -0.4935 -0.5030  0.4761
 7677SOL    HW234494   1.983   1.957  12.364  2.1751  0.0869 -1.9507
 7678SOL     OW34495   1.411   3.623  17.259  0.0567  0.0166  0.0794
 7678SOL    HW134496   1.457   3.600  17.179 -2.4320 -0.8819 -1.1020
 7678SOL    HW234497   1.442   3.557  17.321 -2.7161 -1.3127  0.0794
 7679SOL     OW34498   3.696   4.033  16.047 -0.4834  0.2665  0.3499
 7679SOL    HW134499   3.749   4.055  16.123 -3.5779  0.4488  2.4673
 7679SOL    HW234500   3.674   4.109  15.993  0.7725  2.0173  2.3373
 7680SOL     OW34501   1.392   2.554   6.925 -0.1562 -1.1351 -0.0983
 7680SOL    HW134502   1.354   2.565   6.838  3.0022 -0.2438 -1.3746
 7680SOL    HW234503   1.457   2.625   6.934 -0.9711 -0.2516 -1.2495
 7681SOL     OW34504   2.739   0.227  10.079 -0.0369  0.1281  0.0160
 7681SOL    HW134505   2.763   0.318  10.059 -1.0391  0.2218 -0.7671
 7681SOL    HW234506   2.647   0.239  10.103  0.2679  0.5966  0.9670
 7682SOL     OW34507   2.878   2.039   4.492  0.4838 -0.8035 -0.2084
 7682SOL    HW134508   2.955   2.007   4.538  1.2359  1.2047 -0.0867
 7682SOL    HW234509   2.812   2.038   4.562  1.6447  0.2174  0.8951
 7683SOL     OW34510   0.195   2.772   1.969  0.1606 -0.0895  0.3576
 7683SOL    HW134511   0.191   2.676   1.965  1.2378 -0.1525  0.8264
 7683SOL    HW234512   0.285   2.784   2.000  0.5947 -0.3573 -0.7831
 7684SOL     OW34513   0.163   1.720   5.720  0.0845  0.0627 -0.0930
 7684SOL    HW134514   0.155   1.813   5.699  2.2804  0.3165  0.1187
 7684SOL    HW234515   0.160   1.724   5.816 -1.8517  1.5506 -0.2271
 7685SOL     OW34516   3.771   2.547   8.764 -0.1275 -0.6353 -0.3995
 7685SOL    HW134517   3.756   2.462   8.807 -0.8240  0.4062  1.4229
 7685SOL    HW234518   3.710   2.536   8.692 -2.1473  0.0677  1.1930
 7686SOL     OW34519   2.952   4.052   9.455 -0.0044 -0.3727  0.0399
 7686SOL    HW134520   2.885   4.099   9.405 -0.0158 -0.9532 -0.5002
 7686SOL    HW234521   3.003   4.126   9.487  0.8881 -0.2124 -1.7571
 7687SOL     OW34522   2.247   2.024   7.449  0.0508 -0.4139  0.5884
 7687SOL    HW134523   2.228   2.103   7.500  3.5748  1.0245 -0.2699
 7687SOL    HW234524   2.339   2.015   7.475  0.4470  1.0611 -0.2980
 7688SOL     OW34525   1.701   4.150   4.007  0.7537 -0.5042  0.3617
 7688SOL    HW134526   1.707   4.243   3.985 -2.2190 -0.2042  0.8438
 7688SOL    HW234527   1.795   4.138   4.022  0.9462 -0.6306 -0.9449
 7689SOL     OW34528   4.613   0.259  10.516 -0.6447 -0.0277  0.1613
 7689SOL    HW134529   4.667   0.338  10.514  0.5433 -0.8262  0.3288
 7689SOL    HW234530   4.659   0.202  10.455  0.8832  0.8000  0.5413
 7690SOL     OW34531   4.636   4.270   2.809 -0.7666 -0.5377 -0.1976
 7690SOL    HW134532   4.606   4.300   2.895 -0.7280  1.8177 -0.9998
 7690SOL    HW234533   4.715   4.323   2.796 -0.5514 -1.3776 -2.3247
 7691SOL     OW34534   0.340   4.613  12.558 -0.5486 -0.4068 -0.1692
 7691SOL    HW134535   0.248   4.599  12.536  0.0652 -1.9488 -1.7716
 7691SOL    HW234536   0.354   4.534  12.611 -0.0125 -0.4366 -0.3590
 7692SOL     OW34537   1.140   3.270   3.630  0.1821  0.5425  0.1523
 7692SOL    HW134538   1.136   3.190   3.682 -0.2743  0.3066 -0.2519
 7692SOL    HW234539   1.220   3.310   3.665  0.9493 -0.4916 -0.4012
 7693SOL     OW34540   4.717   2.777  11.286  0.2415 -0.8260  0.1437
 7693SOL    HW134541   0.044   2.701  11.250 -0.8822 -0.7871 -1.4046
 7693SOL    HW234542   0.060   2.844  11.259 -0.2725 -0.1276  0.7151
 7694SOL     OW34543   3.630   3.445   5.123  0.0582  0.1700 -0.1715
 7694SOL    HW134544   3.654   3.526   5.079  1.4967 -0.3587 -0.3470
 7694SOL    HW234545   3.537   3.441   5.099  0.3896 -0.9219 -1.2808
 7695SOL     OW34546   2.516   2.825   6.777 -0.2266 -0.7746  0.9722
 7695SOL    HW134547   2.581   2.881   6.821 -1.0711  0.1861  0.9868
 7695SOL    HW234548   2.442   2.829   6.837  0.5866  0.0692  1.9152
 7696SOL     OW34549   2.929   1.277   1.834 -0.4062 -0.2714 -0.1793
 7696SOL    HW134550   2.862   1.286   1.903  0.7221  3.0648  0.5094
 7696SOL    HW234551   2.877   1.207   1.795 -0.7431 -0.6933  1.0244
 7697SOL     OW34552   3.667   1.835   9.261 -0.1612 -0.6217  0.0048
 7697SOL    HW134553   3.732   1.870   9.321  1.4586 -0.2657 -1.9561
 7697SOL    HW234554   3.610   1.796   9.327 -2.4763  0.0893 -1.5806
 7698SOL     OW34555   3.776   3.648   8.459 -0.0323 -0.1276 -0.6580
 7698SOL    HW134556   3.695   3.606   8.486 -0.0207  0.2048 -0.0906
 7698SOL    HW234557   3.804   3.697   8.537  1.2195 -0.1562 -1.0921
 7699SOL     OW34558   0.426   2.668   6.172  0.2930 -0.1393 -0.2833
 7699SOL    HW134559   0.378   2.597   6.130 -1.3001  1.2554 -0.8402
 7699SOL    HW234560   0.459   2.716   6.096  0.2972  0.2058 -0.0671
 7700SOL     OW34561   0.688   1.253   7.104  0.7496 -0.2347 -0.0056
 7700SOL    HW134562   0.721   1.200   7.177  1.6258 -1.7610 -1.5137
 7700SOL    HW234563   0.604   1.279   7.142  0.9877 -0.7544  0.9068
 7701SOL     OW34564   4.691   3.304   6.615 -0.4650 -0.2588  0.0876
 7701SOL    HW134565   0.057   3.311   6.658 -0.8210 -2.9852  1.2761
 7701SOL    HW234566   4.636   3.293   6.692  0.2888 -2.4748  0.3093
 7702SOL     OW34567   1.648   2.489   3.659 -0.2820 -0.3232  0.5876
 7702SOL    HW134568   1.644   2.512   3.566  0.2397 -3.6167 -0.2605
 7702SOL    HW234569   1.725   2.536   3.691  0.5483 -1.6512  0.5330
 7703SOL     OW34570   3.519   3.314  16.240 -0.0402 -0.0365 -0.2658
 7703SOL    HW134571   3.522   3.338  16.147 -2.4708 -0.8078 -0.5290
 7703SOL    HW234572   3.586   3.377  16.266 -0.9214  1.2437 -1.0716
 7704SOL     OW34573   1.765   1.635  11.916 -0.2475 -0.1226 -0.0458
 7704SOL    HW134574   1.828   1.629  11.844  2.0166 -1.9727  2.0710
 7704SOL    HW234575   1.804   1.684  11.987  1.1048 -0.6166 -0.4476
 7705SOL     OW34576   1.885   3.472   2.842 -0.2757  0.3359  0.4167
 7705SOL    HW134577   1.857   3.446   2.930 -1.5948 -0.2847 -0.1858
 7705SOL    HW234578   1.874   3.388   2.798  1.3552 -0.5195  1.6815
 7706SOL     OW34579   3.183   4.230   2.604  0.1001  0.4366 -0.0931
 7706SOL    HW134580   3.218   4.252   2.690  1.7679  3.2130 -1.4756
 7706SOL    HW234581   3.220   4.300   2.551  0.1718 -0.1294 -0.8019
 7707SOL     OW34582   1.427   2.049   3.827 -0.1776  0.1937 -0.7015
 7707SOL    HW134583   1.502   2.091   3.785  0.3712  1.9593  2.0068
 7707SOL    HW234584   1.458   2.046   3.918 -0.9390  0.1935 -0.4469
 7708SOL     OW34585   3.297   1.222   1.733  0.4550  0.5236  0.1321
 7708SOL    HW134586   3.234   1.228   1.805  0.5635  0.4770  0.2325
 7708SOL    HW234587   3.344   1.301   1.760  1.6836 -1.0888  2.8074
 7709SOL     OW34588   4.147   0.485   7.675  0.4871 -0.7091 -0.6707
 7709SOL    HW134589   4.189   0.466   7.591 -0.1303  0.7265 -1.3103
 7709SOL    HW234590   4.226   0.526   7.711  1.3100 -1.5817 -1.4748
 7710SOL     OW34591   3.805   4.126   9.224  0.0892 -0.3684  0.1853
 7710SOL    HW134592   3.867   4.096   9.290  2.2103 -0.0571 -1.6560
 7710SOL    HW234593   3.865   4.147   9.152  0.0415 -0.3596  0.1481
 7711SOL     OW34594   1.224   3.148   4.911  0.7498 -0.7079 -0.2979
 7711SOL    HW134595   1.199   3.240   4.920  0.4542 -0.7472 -0.7178
 7711SOL    HW234596   1.283   3.143   4.836  2.5455  1.1218  1.0147
 7712SOL     OW34597   0.717   3.428   2.614  0.4727  0.3263 -0.0594
 7712SOL    HW134598   0.738   3.480   2.536 -1.9630  2.6639  0.8419
 7712SOL    HW234599   0.647   3.373   2.577 -0.1706  0.8469  0.3843
 7713SOL     OW34600   0.027   4.674   7.863  0.3862 -0.0329 -0.4460
 7713SOL    HW134601   0.106   0.008   7.860 -0.3239  1.0081 -0.9186
 7713SOL    HW234602   4.709   4.694   7.777  0.7030  2.1513 -0.0905
 7714SOL     OW34603   1.586   0.846   6.195 -0.1844  0.1803  0.4160
 7714SOL    HW134604   1.538   0.776   6.151  1.7474  0.1239 -1.6112
 7714SOL    HW234605   1.545   0.844   6.282 -1.5751  0.5220 -0.2307
 7715SOL     OW34606   1.775   1.852   8.511  0.0827 -0.0368 -0.5610
 7715SOL    HW134607   1.833   1.785   8.474 -1.2907 -2.0272  0.8429
 7715SOL    HW234608   1.694   1.809   8.484 -0.8917  1.4170  0.0541
 7716SOL     OW34609   0.124   2.966   4.910  0.0665  0.1032  0.0212
 7716SOL    HW134610   0.131   2.886   4.858 -1.6936 -0.3339  0.4622
 7716SOL    HW234611   0.067   2.940   4.982 -0.8646  0.6091 -0.5341
 7717SOL     OW34612   4.246   3.393   2.117  0.3453 -0.9209 -0.4523
 7717SOL    HW134613   4.287   3.327   2.173  1.0394  0.6095  0.8460
 7717SOL    HW234614   4.166   3.395   2.170 -0.2102  0.5378 -1.3600
 7718SOL     OW34615   4.073   2.160   4.112  0.0329 -0.0861  0.7981
 7718SOL    HW134616   4.041   2.229   4.055  1.4781 -0.2950 -0.2749
 7718SOL    HW234617   3.990   2.148   4.159 -2.2271  1.5098 -2.7775
 7719SOL     OW34618   4.349   1.136   0.417 -0.3958 -0.5765 -0.2628
 7719SOL    HW134619   4.324   1.151   0.326  0.2973 -2.1501 -0.7213
 7719SOL    HW234620   4.261   1.131   0.454 -1.6190  0.4277 -3.0830
 7720SOL     OW34621   2.627   1.199   5.928 -0.3897  0.5339 -0.7979
 7720SOL    HW134622   2.654   1.276   5.877 -0.2162  0.5201 -0.7256
 7720SOL    HW234623   2.663   1.212   6.016 -1.0398 -0.9797 -0.3094
 7721SOL     OW34624   3.187   3.645   9.144  0.1582  0.0666  1.0949
 7721SOL    HW134625   3.178   3.670   9.052  2.6110  2.1388  1.4072
 7721SOL    HW234626   3.234   3.723   9.174 -0.7927  1.6024 -1.4349
 7722SOL     OW34627   0.754   0.888   6.583 -0.2540 -0.0940  0.2236
 7722SOL    HW134628   0.689   0.859   6.519  0.4806  1.3914 -1.2035
 7722SOL    HW234629   0.709   0.902   6.667 -1.7608 -0.0498 -0.5775
 7723SOL     OW34630   3.552   1.236   5.062  0.2424 -0.2340 -0.0220
 7723SOL    HW134631   3.641   1.262   5.037  0.4308  0.6765  1.6263
 7723SOL    HW234632   3.530   1.151   5.023 -0.1163 -0.2378  0.1861
 7724SOL     OW34633   0.479   4.440   1.538  0.3264 -0.0476  0.2257
 7724SOL    HW134634   0.454   4.484   1.619 -1.3509 -1.0433  0.2478
 7724SOL    HW234635   0.566   4.410   1.566  0.9932 -0.0387 -1.8392
 7725SOL     OW34636   0.500   1.063   4.458 -0.4371 -0.8297 -1.0812
 7725SOL    HW134637   0.430   1.045   4.396 -1.9088  1.8638 -0.1876
 7725SOL    HW234638   0.550   1.136   4.421  0.2462 -1.1555 -0.7952
 7726SOL     OW34639   3.139   1.742   2.127 -0.2845 -0.4015 -0.2693
 7726SOL    HW134640   3.185   1.825   2.137  2.6302 -2.1982  1.2886
 7726SOL    HW234641   3.063   1.788   2.091 -0.1569  0.5823  0.7097
 7727SOL     OW34642   4.462   0.291   5.751 -0.1386 -0.1880  0.0392
 7727SOL    HW134643   4.414   0.344   5.687  0.2746 -0.8735 -0.8273
 7727SOL    HW234644   4.466   0.213   5.696 -0.0086 -0.1883  0.0498
 7728SOL     OW34645   0.456   1.027   5.014  0.0232 -0.1645 -0.2456
 7728SOL    HW134646   0.420   1.024   4.925 -0.5917 -0.2042  0.0042
 7728SOL    HW234647   0.530   0.967   5.028 -0.4782 -1.0489 -1.3822
 7729SOL     OW34648   2.860   0.567  11.338 -0.7794 -0.1709  0.3034
 7729SOL    HW134649   2.867   0.631  11.408 -0.6080  1.3176 -1.0633
 7729SOL    HW234650   2.781   0.600  11.295 -1.2632 -2.3076 -0.4489
 7730SOL     OW34651   2.176   3.658   4.687 -0.3729 -0.3753 -0.5360
 7730SOL    HW134652   2.250   3.665   4.747 -0.0635  1.6368 -1.1424
 7730SOL    HW234653   2.106   3.698   4.739 -2.3039 -1.5477 -2.2165
 7731SOL     OW34654   0.092   2.906   4.305  0.2289 -0.5205 -0.0922
 7731SOL    HW134655   0.037   2.845   4.256 -1.7573  1.0499  0.1460
 7731SOL    HW234656   0.177   2.866   4.289  1.5002  2.0127  0.2496
 7732SOL     OW34657   0.063   0.653   8.493  0.2854 -0.2264 -0.1855
 7732SOL    HW134658   0.039   0.691   8.409 -1.4220 -0.1197  0.3393
 7732SOL    HW234659   0.114   0.579   8.458  0.4287 -0.6425  0.8952
 7733SOL     OW34660   2.200   1.643   5.885  0.3944  0.2313  0.0940
 7733SOL    HW134661   2.252   1.563   5.877 -0.0769 -0.2544  1.7393
 7733SOL    HW234662   2.113   1.613   5.858  0.8103 -0.2718 -0.6873
 7734SOL     OW34663   1.245   0.496   4.392 -0.0378 -0.1769  0.3698
 7734SOL    HW134664   1.292   0.570   4.353 -2.2642  0.6284 -0.7920
 7734SOL    HW234665   1.154   0.522   4.378  0.3721  0.3962 -1.2414
 7735SOL     OW34666   4.309   1.091  13.600  0.0946  0.1488  0.2490
 7735SOL    HW134667   4.347   1.174  13.570  0.8232  0.6594  2.5927
 7735SOL    HW234668   4.384   1.036  13.578 -1.4060 -1.0420 -1.8502
 7736SOL     OW34669   4.192   4.344   3.316  0.3604 -0.2137 -0.2731
 7736SOL    HW134670   4.123   4.288   3.353 -0.9477  0.8550 -1.1301
 7736SOL    HW234671   4.247   4.334   3.394 -1.3683 -1.1438  0.8332
 7737SOL     OW34672   2.968   1.554   6.744  0.3336  0.3197 -0.6641
 7737SOL    HW134673   2.913   1.609   6.689  0.9462  0.0272 -1.5580
 7737SOL    HW234674   2.959   1.608   6.823 -2.0354  0.6986 -1.1922
 7738SOL     OW34675   1.548   0.758   1.572  0.9132  0.0038  0.1649
 7738SOL    HW134676   1.517   0.836   1.618  0.9697 -0.6881  1.3749
 7738SOL    HW234677   1.550   0.786   1.481  2.2332  1.1411  0.5514
 7739SOL     OW34678   0.152   3.693   3.057  0.3347 -0.0963  0.4749
 7739SOL    HW134679   0.227   3.645   3.021  0.0131 -0.7717  0.7015
 7739SOL    HW234680   0.080   3.673   2.998  1.2926  0.3121 -0.8506
 7740SOL     OW34681   4.463   4.626   6.518  0.4225 -0.0302  0.1054
 7740SOL    HW134682   4.386   4.666   6.557  0.4145 -1.0469  1.1447
 7740SOL    HW234683   4.431   4.618   6.428 -1.1314  0.1166  0.6557
 7741SOL     OW34684   4.041   1.236  16.139  0.7405  0.8370 -0.1470
 7741SOL    HW134685   4.031   1.141  16.133 -1.3745  1.0359  0.1420
 7741SOL    HW234686   4.124   1.250  16.093  1.0067 -2.0776 -0.5314
 7742SOL     OW34687   0.736   0.197   0.462 -0.0161  0.5160  0.0144
 7742SOL    HW134688   0.643   0.181   0.478  0.2016 -2.5777 -1.9473
 7742SOL    HW234689   0.771   0.123   0.413 -0.3177  0.3394  0.0661
 7743SOL     OW34690   2.379   3.389   0.002  0.1138 -0.6823  0.1917
 7743SOL    HW134691   2.284   3.381  17.676  0.3062 -1.7565 -1.0325
 7743SOL    HW234692   2.404   3.359   0.090  0.7547 -2.8514 -0.7397
 7744SOL     OW34693   3.212   1.374   2.634  0.0716  0.0712  0.2744
 7744SOL    HW134694   3.250   1.447   2.683 -0.3863 -0.6200  1.6716
 7744SOL    HW234695   3.254   1.298   2.673 -0.7878 -0.3765  0.3331
 7745SOL     OW34696   1.276   3.771   7.219  0.5927 -0.3624 -0.0817
 7745SOL    HW134697   1.300   3.679   7.229 -1.4657 -0.9084 -0.1456
 7745SOL    HW234698   1.236   3.791   7.304 -0.5206 -0.8405 -0.5017
 7746SOL     OW34699   3.920   2.617   5.842 -0.0957  0.2299  0.6477
 7746SOL    HW134700   3.956   2.658   5.763  1.1259  0.7402  1.4675
 7746SOL    HW234701   3.975   2.653   5.912  0.2532 -0.0032  0.4975
 7747SOL     OW34702   3.138   2.484   8.557 -0.1430 -0.4585  0.6745
 7747SOL    HW134703   3.225   2.518   8.536 -1.2249  1.5236 -0.5763
 7747SOL    HW234704   3.156   2.408   8.500  2.1270  0.1616  0.5563
 7748SOL     OW34705   3.594   3.697   0.903  0.1395 -1.0400  0.5401
 7748SOL    HW134706   3.663   3.635   0.882  0.2790 -0.3998 -0.9166
 7748SOL    HW234707   3.512   3.651   0.883  0.8859 -2.3433  0.5033
 7749SOL     OW34708   3.352   1.469  16.791 -0.9150 -0.3243  0.3780
 7749SOL    HW134709   3.374   1.476  16.698  1.2065  1.4205  1.0219
 7749SOL    HW234710   3.419   1.525  16.830  0.8141 -1.9978 -0.1721
 7750SOL     OW34711   4.450   4.629   6.112 -0.1920 -0.8461 -0.5176
 7750SOL    HW134712   4.455   4.535   6.129  2.5766 -0.3706  1.1734
 7750SOL    HW234713   4.534   4.646   6.154  1.2087  0.3015 -3.7238
 7751SOL     OW34714   0.878   4.570   8.203  0.2908  0.7076  0.7776
 7751SOL    HW134715   0.829   4.551   8.283 -0.4310  1.9564  0.6389
 7751SOL    HW234716   0.957   4.518   8.217 -1.3510 -1.7117  1.1456
 7752SOL     OW34717   2.558   2.063   7.478  0.1383  0.0757 -0.4706
 7752SOL    HW134718   2.627   2.042   7.541 -0.1088 -0.9997 -0.5513
 7752SOL    HW234719   2.603   2.057   7.394 -0.6177  0.1416 -0.8781
 7753SOL     OW34720   1.239   1.286   6.210 -0.4132 -0.4132 -0.1151
 7753SOL    HW134721   1.175   1.234   6.162  0.0499 -0.4549 -0.6850
 7753SOL    HW234722   1.198   1.296   6.296 -0.8249 -1.2753 -0.2112
 7754SOL     OW34723   1.405   0.402   0.835  0.1357  0.0829  0.9871
 7754SOL    HW134724   1.486   0.433   0.875 -0.0098  0.6156  0.8725
 7754SOL    HW234725   1.384   0.322   0.884  1.6437  0.0694  1.5998
 7755SOL     OW34726   3.717   1.256   1.498  0.7077 -0.0354 -0.5723
 7755SOL    HW134727   3.707   1.283   1.589  1.9936  1.1823 -0.7996
 7755SOL    HW234728   3.723   1.339   1.451 -0.4058  2.1029  3.0854
 7756SOL     OW34729   4.290   2.659   8.097 -0.7181  0.2156 -0.0002
 7756SOL    HW134730   4.279   2.602   8.172 -1.4611 -0.1213 -0.3603
 7756SOL    HW234731   4.238   2.621   8.026  0.2285 -1.9961  0.5000
 7757SOL     OW34732   0.442   0.136   0.321 -0.3701  0.1176 -0.1291
 7757SOL    HW134733   0.477   0.193   0.252 -1.7373  3.5829  2.0052
 7757SOL    HW234734   0.453   0.045   0.296  0.4075  0.6959 -1.8645
 7758SOL     OW34735   2.788   2.544   4.929 -0.4838 -0.1074  0.0174
 7758SOL    HW134736   2.765   2.461   4.888 -1.2639 -0.8598  1.9680
 7758SOL    HW234737   2.869   2.527   4.977  0.8162  1.5316 -1.5970
 7759SOL     OW34738   3.435   0.622   2.427 -0.5406 -0.0256 -0.6322
 7759SOL    HW134739   3.386   0.659   2.501 -1.6926 -1.3739 -0.7208
 7759SOL    HW234740   3.394   0.668   2.354 -3.2224  1.5721  1.8871
 7760SOL     OW34741   0.911   4.339   5.618  0.0581  0.5624  0.0611
 7760SOL    HW134742   0.857   4.271   5.658  0.4111 -0.8617 -1.9041
 7760SOL    HW234743   0.880   4.428   5.636 -1.3056  0.0899  0.0880
 7761SOL     OW34744   0.854   0.547  12.918  0.2948 -0.8991  0.3829
 7761SOL    HW134745   0.821   0.473  12.970 -1.9188 -1.2309 -1.4703
 7761SOL    HW234746   0.833   0.624  12.970  3.6516 -0.6456  1.3384
 7762SOL     OW34747   3.276   4.006   4.436 -0.2758  0.5043  0.3074
 7762SOL    HW134748   3.322   3.981   4.356 -0.5049 -0.3105  0.4305
 7762SOL    HW234749   3.304   3.946   4.505 -1.5832  2.0100  2.1829
 7763SOL     OW34750   1.428   1.956   4.542  0.1109  0.2373 -0.0362
 7763SOL    HW134751   1.407   2.005   4.463  0.6075  2.0045  0.9216
 7763SOL    HW234752   1.516   1.931   4.517  1.0983  0.7296  2.9239
 7764SOL     OW34753   2.976   1.729   7.818 -0.1803  0.1346  0.8538
 7764SOL    HW134754   2.930   1.754   7.898  2.8272 -0.3737  2.7206
 7764SOL    HW234755   2.930   1.647   7.797  2.1193 -0.6146 -1.2313
 7765SOL     OW34756   4.512   3.429  15.100 -0.2600 -0.2790 -0.1556
 7765SOL    HW134757   4.572   3.494  15.137  1.4184 -2.0955  0.3064
 7765SOL    HW234758   4.465   3.406  15.180  0.9481 -1.0882  0.3148
 7766SOL     OW34759   0.377   1.638   3.196 -0.1458 -0.4184 -0.5855
 7766SOL    HW134760   0.342   1.565   3.246 -0.9396 -2.1304 -3.6670
 7766SOL    HW234761   0.440   1.608   3.130  1.6361  0.9977  0.4704
 7767SOL     OW34762   3.760   0.552   4.866  0.2449  0.1258  0.4126
 7767SOL    HW134763   3.764   0.475   4.809  2.4550  0.8456 -0.3983
 7767SOL    HW234764   3.781   0.623   4.806 -0.6682 -0.9630 -1.2163
 7768SOL     OW34765   2.325   4.582   8.782  0.3062  0.1490  0.1273
 7768SOL    HW134766   2.280   4.597   8.865  2.3900 -0.1870  1.3339
 7768SOL    HW234767   2.256   4.558   8.720 -0.3227 -0.7283  1.1610
 7769SOL     OW34768   0.940   0.667   2.704 -0.2868  0.5114 -0.4966
 7769SOL    HW134769   0.903   0.740   2.654  2.5888  1.9241 -0.5573
 7769SOL    HW234770   0.962   0.605   2.635  1.2772  2.1291 -1.4415
 7770SOL     OW34771   0.573   0.915  17.456 -0.6767 -0.4710  0.1226
 7770SOL    HW134772   0.599   0.993  17.504 -0.8607 -0.7646  0.6966
 7770SOL    HW234773   0.657   0.891  17.418 -0.5258  2.2303 -1.2755
 7771SOL     OW34774   0.489   1.854   1.638 -0.3894  0.0039 -0.3699
 7771SOL    HW134775   0.451   1.898   1.562 -0.7406  0.9354  0.3278
 7771SOL    HW234776   0.574   1.839   1.599 -1.3749 -3.2871 -1.1914
 7772SOL     OW34777   1.913   0.694  14.876 -0.3764 -0.4944  0.1468
 7772SOL    HW134778   1.933   0.763  14.812  1.1627 -0.3059  0.8291
 7772SOL    HW234779   1.820   0.695  14.856 -0.5872 -0.3687  1.1560
 7773SOL     OW34780   1.010   1.031   7.240  0.0750 -0.2458 -0.3078
 7773SOL    HW134781   0.968   1.023   7.325 -2.2890 -2.3277 -1.6740
 7773SOL    HW234782   1.055   0.947   7.228 -0.4958 -0.4385 -1.1578
 7774SOL     OW34783   1.112   3.957   6.193 -0.3560  0.3191  0.1483
 7774SOL    HW134784   1.033   3.935   6.241 -0.5333  3.0803  1.1234
 7774SOL    HW234785   1.071   4.022   6.137 -0.0784 -0.1464 -0.6020
 7775SOL     OW34786   1.640   3.828   7.749  0.4293  0.1949 -0.0474
 7775SOL    HW134787   1.572   3.818   7.816 -1.0594  0.6120 -1.4959
 7775SOL    HW234788   1.684   3.906   7.781  0.7266 -0.0322  0.1047
 7776SOL     OW34789   0.237   2.169   8.249 -0.0928  0.3172 -0.0117
 7776SOL    HW134790   0.242   2.074   8.242  1.2005  0.3287  0.8532
 7776SOL    HW234791   0.295   2.188   8.322 -0.2705  2.1332 -0.3509
 7777SOL     OW34792   1.187   0.489   1.847 -0.1190 -0.1647 -0.4072
 7777SOL    HW134793   1.267   0.457   1.887 -0.3292 -0.2358 -0.0373
 7777SOL    HW234794   1.149   0.517   1.931 -0.0490  1.8404 -1.0450
 7778SOL     OW34795   2.301   1.366   8.877  0.1484 -0.2790 -0.0132
 7778SOL    HW134796   2.338   1.351   8.790 -1.2965  0.9328 -0.8398
 7778SOL    HW234797   2.322   1.284   8.921 -1.3510 -1.0151 -0.6744
 7779SOL     OW34798   3.861   2.166   4.377 -0.0245 -0.0028 -0.5290
 7779SOL    HW134799   3.880   2.085   4.425  1.6543 -0.2020 -1.5088
 7779SOL    HW234800   3.932   2.225   4.403  0.4903 -0.0235 -1.8912
 7780SOL     OW34801   1.484   4.356   3.428  0.1089 -0.0411  0.3942
 7780SOL    HW134802   1.572   4.393   3.433  0.9989 -1.8415 -1.9914
 7780SOL    HW234803   1.513   4.273   3.468  4.2241  0.3271 -1.8718
 7781SOL     OW34804   1.114   1.734   6.214  0.5292  0.2927  0.0789
 7781SOL    HW134805   1.089   1.826   6.223 -2.6504 -0.3233 -2.7038
 7781SOL    HW234806   1.103   1.721   6.120  1.8285  3.2161 -0.4885
 7782SOL     OW34807   2.589   2.219   5.394 -0.6614 -0.4592 -0.1813
 7782SOL    HW134808   2.532   2.219   5.318  1.1978 -0.0385 -1.5614
 7782SOL    HW234809   2.526   2.241   5.463 -0.3373 -0.3504  0.0804
 7783SOL     OW34810   3.096   0.173   2.563  0.1592 -0.1807 -0.4913
 7783SOL    HW134811   3.053   0.255   2.587 -0.6348 -0.4995 -0.8375
 7783SOL    HW234812   3.184   0.199   2.536  0.8303 -1.3369  0.6309
 7784SOL     OW34813   3.893   0.806   8.944  0.1631  0.2910  0.1768
 7784SOL    HW134814   3.822   0.861   8.977 -0.8675 -1.1855  0.4257
 7784SOL    HW234815   3.845   0.736   8.900 -0.3447  0.6974  0.0895
 7785SOL     OW34816   1.419   4.415   3.157  0.3212  0.2886 -0.0177
 7785SOL    HW134817   1.416   4.331   3.111 -1.4500  0.2460  0.1706
 7785SOL    HW234818   1.445   4.384   3.244 -0.0997 -0.3142 -0.1120
 7786SOL     OW34819   4.248   1.666   8.171 -0.1805  0.1008  0.6820
 7786SOL    HW134820   4.303   1.695   8.098 -1.2383  2.4206  0.8134
 7786SOL    HW234821   4.201   1.588   8.142  0.3450  0.5321 -1.3683
 7787SOL     OW34822   3.925   1.359   6.518  0.2012 -0.3527 -0.0459
 7787SOL    HW134823   3.833   1.376   6.497  0.2530  1.1094  0.9150
 7787SOL    HW234824   3.935   1.271   6.482 -2.8909 -1.1520  1.0200
 7788SOL     OW34825   3.121   4.558   4.718  0.1008  0.1589 -0.5296
 7788SOL    HW134826   3.183   4.494   4.754 -0.8158 -0.6879 -0.4672
 7788SOL    HW234827   3.172   4.602   4.649 -0.3451  0.4096 -0.6979
 7789SOL     OW34828   1.241   0.354  14.655  0.1509  0.0012 -0.5445
 7789SOL    HW134829   1.150   0.325  14.654 -0.5613  2.2464 -1.5975
 7789SOL    HW234830   1.266   0.321  14.569 -0.9570 -1.8310 -0.1595
 7790SOL     OW34831   4.167   1.176   9.272 -0.0975 -0.7623  0.5380
 7790SOL    HW134832   4.109   1.243   9.236 -0.7467 -1.6454 -0.0834
 7790SOL    HW234833   4.230   1.168   9.200 -2.0384  2.1863 -1.4892
 7791SOL     OW34834   0.967   4.254   4.836  0.1320  0.7451  0.3293
 7791SOL    HW134835   0.913   4.289   4.907 -1.7491 -0.0382 -0.7007
 7791SOL    HW234836   1.047   4.215   4.871  1.0322  0.7849 -1.6998
 7792SOL     OW34837   3.177   4.011  14.926 -0.3271  0.6037 -0.1793
 7792SOL    HW134838   3.152   3.967  14.844 -1.6446 -0.6034  0.8761
 7792SOL    HW234839   3.099   3.984  14.974 -1.2131  0.0573 -1.8965
 7793SOL     OW34840   4.651   3.987   8.452  0.0486  0.1671  0.5126
 7793SOL    HW134841   4.631   4.030   8.535 -1.6691  1.5262 -0.6030
 7793SOL    HW234842   4.563   3.954   8.432  1.0932 -2.7033  0.5957
 7794SOL     OW34843   2.943   2.439   6.962 -0.2231  0.3495 -0.6524
 7794SOL    HW134844   2.957   2.345   6.950  0.6229  0.2064  1.4847
 7794SOL    HW234845   2.859   2.441   7.008  0.2096  0.8087  0.1190
 7795SOL     OW34846   0.073   3.459   9.179 -0.2876 -0.0933 -0.0726
 7795SOL    HW134847   0.043   3.377   9.139 -0.8725 -0.4632  1.1127
 7795SOL    HW234848   0.164   3.442   9.200 -0.2236  0.1376 -0.1628
 7796SOL     OW34849   1.927   0.332   3.851  0.4308  0.2963  0.1167
 7796SOL    HW134850   1.947   0.409   3.798  0.1953  0.3359  0.0856
 7796SOL    HW234851   2.008   0.323   3.902 -0.1524 -2.4476  0.5736
 7797SOL     OW34852   3.096   1.101   8.213  0.2761 -0.3976  0.7986
 7797SOL    HW134853   3.078   1.017   8.170 -3.1194  1.1087 -0.6557
 7797SOL    HW234854   3.125   1.144   8.133  1.9882  0.9009  2.0994
 7798SOL     OW34855   3.330   1.605  13.318 -0.0809 -0.0632 -0.6277
 7798SOL    HW134856   3.323   1.687  13.366  2.8354 -1.1437  1.6226
 7798SOL    HW234857   3.339   1.551  13.396  0.8225  3.0067  1.3634
 7799SOL     OW34858   1.825   2.956   2.459  0.7268  0.4935  0.0459
 7799SOL    HW134859   1.897   3.019   2.471  0.6919  0.3173  1.2043
 7799SOL    HW234860   1.829   2.943   2.365 -1.3721 -1.2245  0.2117
 7800SOL     OW34861   2.708   1.107   3.654 -0.2198 -0.3802  0.1664
 7800SOL    HW134862   2.658   1.140   3.579 -2.2442 -4.3473 -0.2262
 7800SOL    HW234863   2.801   1.117   3.633 -0.9591 -1.3748 -3.6176
 7801SOL     OW34864   0.803   1.247   9.576  0.0704  0.0444  0.0648
 7801SOL    HW134865   0.839   1.220   9.661 -2.6307 -0.4112  1.0746
 7801SOL    HW234866   0.845   1.332   9.568  0.3440 -0.2914 -1.9739
 7802SOL     OW34867   0.889   1.876   7.028 -0.2054  0.0679  0.8247
 7802SOL    HW134868   0.804   1.886   7.071  0.7454  0.7178  2.5683
 7802SOL    HW234869   0.857   1.857   6.940  1.1298 -1.2110  0.6074
 7803SOL     OW34870   2.389   0.485   4.062  0.1030  0.1482 -0.2803
 7803SOL    HW134871   2.339   0.501   4.142  1.6835  0.7522  0.5878
 7803SOL    HW234872   2.436   0.567   4.046 -1.1756  1.0425  0.6394
 7804SOL     OW34873   4.192   4.003   9.089 -0.3010  0.1156 -0.2416
 7804SOL    HW134874   4.247   3.926   9.075  1.6309  1.6422 -0.9710
 7804SOL    HW234875   4.112   3.959   9.060 -0.9170  1.2935 -0.3277
 7805SOL     OW34876   1.216   2.396   5.857 -0.1659 -0.6167 -0.6994
 7805SOL    HW134877   1.292   2.443   5.893 -0.4302 -0.8668  0.1889
 7805SOL    HW234878   1.238   2.400   5.764  0.0718 -1.3666 -0.6735
 7806SOL     OW34879   4.414   1.457   6.992  0.6639 -0.7398  0.3126
 7806SOL    HW134880   4.413   1.373   6.944  2.2511 -0.5222 -0.0915
 7806SOL    HW234881   4.328   1.491   6.968  2.1852  0.5426 -3.3077
 7807SOL     OW34882   0.662   0.745   9.897  0.5487  0.1313  0.0601
 7807SOL    HW134883   0.644   0.821   9.952  1.3249 -0.3194  0.9285
 7807SOL    HW234884   0.597   0.741   9.826 -0.2055  1.5270  0.6755
 7808SOL     OW34885   2.472   1.565   3.749 -0.7952 -0.6367  0.1738
 7808SOL    HW134886   2.562   1.533   3.753  0.2784  2.1858 -1.3501
 7808SOL    HW234887   2.496   1.656   3.768 -0.3645 -0.9456  1.1079
 7809SOL     OW34888   4.524   4.262   7.081 -0.0242 -0.2577  0.4600
 7809SOL    HW134889   4.607   4.224   7.109  0.7457  1.3981  0.4470
 7809SOL    HW234890   4.534   4.280   6.987  0.4570 -0.1880  0.5202
 7810SOL     OW34891   3.441   2.700   7.190  0.0324  0.0167  0.0339
 7810SOL    HW134892   3.461   2.624   7.244 -1.5039  1.3780  2.5472
 7810SOL    HW234893   3.353   2.686   7.155 -0.1560  1.6252 -0.1548
 7811SOL     OW34894   4.223   3.400   8.108 -0.4605 -0.2278  0.1758
 7811SOL    HW134895   4.313   3.371   8.093 -1.0296 -1.1923 -1.3057
 7811SOL    HW234896   4.236   3.485   8.151  0.2463  1.5192 -3.5468
 7812SOL     OW34897   2.557   4.583   8.209 -0.0126 -0.0383  0.9487
 7812SOL    HW134898   2.621   4.649   8.237 -0.4130 -0.3085  2.4900
 7812SOL    HW234899   2.598   4.568   8.124  0.4447  1.1714  0.9542
 7813SOL     OW34900   3.688   2.595   3.349 -0.5138 -0.2651 -0.1605
 7813SOL    HW134901   3.665   2.680   3.313  0.9033  0.0736 -0.2781
 7813SOL    HW234902   3.637   2.531   3.299 -1.4889  2.3631 -2.5033
 7814SOL     OW34903   2.890   2.305   3.506 -0.5127  0.0606 -0.6420
 7814SOL    HW134904   2.837   2.377   3.541  1.3456  1.1952 -0.1734
 7814SOL    HW234905   2.865   2.319   3.414  0.4458 -0.4967 -0.9884
 7815SOL     OW34906   2.263   3.178   8.840  0.4355 -0.6470  0.4468
 7815SOL    HW134907   2.346   3.224   8.852  1.6837 -2.3813 -1.5814
 7815SOL    HW234908   2.262   3.115   8.912 -1.4885  0.8559  1.7290
 7816SOL     OW34909   4.055   0.116   4.623  0.7082  0.1157 -0.0324
 7816SOL    HW134910   4.099   0.196   4.595 -0.7580  0.2129 -2.1163
 7816SOL    HW234911   4.001   0.089   4.548 -0.7068  1.4940  0.5004
 7817SOL     OW34912   0.814   1.528   1.679 -0.2291  0.0926 -0.8433
 7817SOL    HW134913   0.822   1.459   1.613  1.4943  0.6716 -1.2265
 7817SOL    HW234914   0.841   1.473   1.753 -0.6324  0.6344 -0.2936
 7818SOL     OW34915   4.676   2.908   6.625 -0.1636 -0.2270 -0.4422
 7818SOL    HW134916   4.595   2.904   6.674 -0.8188  0.2931 -1.4737
 7818SOL    HW234917   0.022   2.929   6.691  0.2320  0.0879 -0.9320
 7819SOL     OW34918   1.831   1.518   5.725  0.2939 -0.1248  0.3793
 7819SOL    HW134919   1.842   1.605   5.762  0.4744 -0.5085  1.2312
 7819SOL    HW234920   1.760   1.473   5.770  0.9345 -1.1549  0.3697
 7820SOL     OW34921   3.781   3.961   2.544  0.6505  0.2141 -0.3854
 7820SOL    HW134922   3.765   3.984   2.453 -1.1864 -0.0384 -0.1191
 7820SOL    HW234923   3.839   4.029   2.581  0.0745  0.4324  0.1173
 7821SOL     OW34924   1.548   2.702   5.552  0.5637  0.5766  0.0548
 7821SOL    HW134925   1.633   2.686   5.511 -0.1380 -2.5182 -0.2060
 7821SOL    HW234926   1.503   2.629   5.509 -0.7533  1.4025  0.0529
 7822SOL     OW34927   0.188   2.515  17.384 -0.5672  0.9711  0.2367
 7822SOL    HW134928   0.231   2.600  17.391  0.9014  0.0866  1.9836
 7822SOL    HW234929   0.111   2.535  17.332  0.4530  0.7550 -1.3585
 7823SOL     OW34930   4.230   0.112   9.495 -0.0663  0.1742  0.5461
 7823SOL    HW134931   4.242   0.089   9.587  2.7417  0.8923  0.3462
 7823SOL    HW234932   4.222   0.207   9.502 -4.4750  0.0536 -2.1935
 7824SOL     OW34933   4.233   0.915   2.079  0.4303 -0.3089 -0.7097
 7824SOL    HW134934   4.159   0.891   2.024  0.4460  0.7287 -1.1926
 7824SOL    HW234935   4.306   0.892   2.021  1.6235 -0.8499  0.9768
 7825SOL     OW34936   1.322   4.148   2.453 -0.0671 -0.7441 -1.0772
 7825SOL    HW134937   1.356   4.235   2.432  0.3079 -0.4151  0.8860
 7825SOL    HW234938   1.231   4.161   2.425  0.3257 -0.2722 -2.1395
 7826SOL     OW34939   3.410   1.705  10.172 -0.3986 -0.1623  0.1969
 7826SOL    HW134940   3.345   1.774  10.185  1.8600  2.0324 -0.1463
 7826SOL    HW234941   3.353   1.630  10.155 -0.1593 -0.3860  0.3625
 7827SOL     OW34942   1.175   2.363  14.737  0.8058 -0.1043  0.3023
 7827SOL    HW134943   1.086   2.339  14.762  0.1760 -0.1970 -1.9595
 7827SOL    HW234944   1.163   2.458  14.734  0.0772 -0.2824 -2.3066
 7828SOL     OW34945   1.769   4.665  15.083  0.2851  1.0351 -0.6291
 7828SOL    HW134946   1.686   4.712  15.081 -0.4844 -0.3416 -0.8012
 7828SOL    HW234947   1.772   4.626  14.996 -3.9184 -1.2672  0.2812
 7829SOL     OW34948   1.334   3.698   3.471 -0.5235 -0.0786 -0.4568
 7829SOL    HW134949   1.285   3.653   3.403 -2.8068 -0.9176  1.7396
 7829SOL    HW234950   1.312   3.788   3.450  3.2286  0.7081 -0.9795
 7830SOL     OW34951   0.981   0.784   3.683 -0.4050  0.1523  0.4400
 7830SOL    HW134952   0.928   0.716   3.642 -1.5534  1.2532  0.1060
 7830SOL    HW234953   1.062   0.751   3.644 -0.9734 -2.4124  1.4315
 7831SOL     OW34954   2.924   3.205  15.132 -0.0157  0.0721 -0.2015
 7831SOL    HW134955   2.983   3.270  15.096 -1.5483  0.9219 -1.1704
 7831SOL    HW234956   2.840   3.240  15.101 -0.7314 -1.1999  0.2814
 7832SOL     OW34957   1.474   1.841   5.672  0.2939 -0.0239  0.4463
 7832SOL    HW134958   1.539   1.800   5.615  0.4327 -0.9703  1.2917
 7832SOL    HW234959   1.501   1.931   5.654 -1.2211 -0.0792 -2.0295
 7833SOL     OW34960   3.614   3.733   3.461  0.2380 -0.1605  0.0542
 7833SOL    HW134961   3.701   3.707   3.492  0.4713  1.3584  0.6915
 7833SOL    HW234962   3.616   3.720   3.366  0.3686 -0.4728  0.1006
 7834SOL     OW34963   0.263   3.273   0.677  0.0058  0.1967 -0.0164
 7834SOL    HW134964   0.308   3.204   0.725 -2.0649 -2.3577 -1.7228
 7834SOL    HW234965   0.194   3.229   0.627 -1.2559  2.8591 -0.6221
 7835SOL     OW34966   2.199   2.791   3.513  0.0691  0.3253 -0.2088
 7835SOL    HW134967   2.110   2.820   3.492  0.2977  1.2618  0.1115
 7835SOL    HW234968   2.193   2.789   3.609 -1.0092 -1.7936 -0.3117
 7836SOL     OW34969   4.516   1.110   5.013  0.2566  0.3173  0.2215
 7836SOL    HW134970   4.508   1.068   5.098  3.4008  1.3092  0.9960
 7836SOL    HW234971   4.432   1.088   4.974  0.3816  0.5433 -0.1761
 7837SOL     OW34972   1.551   2.169   4.846  0.6277 -0.5260  0.0833
 7837SOL    HW134973   1.470   2.132   4.810  1.4758 -1.6772 -0.6379
 7837SOL    HW234974   1.587   2.101   4.903  1.9776  1.2432  1.3467
 7838SOL     OW34975   1.082   4.252  17.393  0.2580  0.6478 -0.0509
 7838SOL    HW134976   1.127   4.304  17.460  2.3976 -1.0764 -0.1653
 7838SOL    HW234977   1.111   4.163  17.412 -0.6592  0.4231  0.2977
 7839SOL     OW34978   3.208   3.867   1.438 -0.8380  0.4022  0.3216
 7839SOL    HW134979   3.207   3.800   1.506 -1.8931 -0.2791 -0.3660
 7839SOL    HW234980   3.149   3.816   1.382  0.5469  0.7965 -1.5034
 7840SOL     OW34981   0.130   3.785  15.362 -0.9574  0.0202 -0.2597
 7840SOL    HW134982   0.138   3.731  15.441  0.1967  0.1453 -0.2955
 7840SOL    HW234983   0.219   3.772  15.328 -0.0311  2.2549  1.3300
 7841SOL     OW34984   0.827   2.664   4.009 -0.4201  0.6472  0.1184
 7841SOL    HW134985   0.896   2.710   4.057 -0.7477  1.7621 -0.4715
 7841SOL    HW234986   0.882   2.598   3.966 -0.7083  0.3434  0.2110
 7842SOL     OW34987   4.539   2.459   7.413 -0.5068 -0.0068 -0.1341
 7842SOL    HW134988   4.496   2.419   7.489  1.9692  1.4381  2.0311
 7842SOL    HW234989   4.468   2.471   7.350  1.4257  2.4243 -1.8282
 7843SOL     OW34990   2.539   3.164   5.428 -0.2071  0.1034 -0.3702
 7843SOL    HW134991   2.505   3.216   5.501  0.1142 -0.2602  0.0417
 7843SOL    HW234992   2.629   3.160   5.459 -0.3770  1.7344  0.3568
 7844SOL     OW34993   0.062   2.069   8.548 -0.3444 -0.3544  0.1262
 7844SOL    HW134994   0.079   2.161   8.527  1.5758 -0.4137  1.4145
 7844SOL    HW234995   0.145   2.036   8.513 -0.3874  0.0270 -0.3436
 7845SOL     OW34996   2.089   3.321   6.611  0.4913 -0.2801 -0.2403
 7845SOL    HW134997   2.152   3.369   6.664 -0.7315  1.2401 -0.1649
 7845SOL    HW234998   2.105   3.233   6.644  0.8806  0.0215  0.3718
 7846SOL     OW34999   1.690   4.125   1.424  0.5047  0.5996  0.3419
 7846SOL    HW135000   1.693   4.038   1.384 -1.5341 -1.4381  4.6759
 7846SOL    HW235001   1.594   4.129   1.427  0.4296 -1.2542 -0.0852
 7847SOL     OW35002   4.106   4.590   2.690 -0.6658 -0.4291 -0.3055
 7847SOL    HW135003   4.101   4.506   2.644 -2.0132 -0.9107  0.6905
 7847SOL    HW235004   4.201   4.601   2.692 -0.7789  0.3751  0.7962
 7848SOL     OW35005   4.192   1.210  13.802  0.3611  0.1535 -0.2260
 7848SOL    HW135006   4.099   1.190  13.789 -0.3339  1.6929  2.2991
 7848SOL    HW235007   4.232   1.140  13.751  1.4423  0.5491  0.0732
 7849SOL     OW35008   2.432   1.978   0.930  0.0603 -0.7274  0.0712
 7849SOL    HW135009   2.473   1.893   0.946  0.4452 -0.5220  0.1761
 7849SOL    HW235010   2.508   2.023   0.896 -0.0421 -1.0012 -0.5243
 7850SOL     OW35011   3.993   2.346   3.961 -0.1562  0.6789 -0.1825
 7850SOL    HW135012   3.985   2.426   4.014 -2.5102 -0.9350  1.9483
 7850SOL    HW235013   3.923   2.351   3.896  0.7991  1.3966 -1.1383
 7851SOL     OW35014   3.610   4.514   2.191  0.0133 -0.1186  0.4056
 7851SOL    HW135015   3.585   4.426   2.222 -1.7894  0.1091 -0.4127
 7851SOL    HW235016   3.558   4.510   2.111 -2.4773  0.4204  2.0036
 7852SOL     OW35017   2.314   3.586   4.324  0.1205  0.8804 -0.2624
 7852SOL    HW135018   2.363   3.504   4.328 -2.6318 -0.8496 -2.0499
 7852SOL    HW235019   2.320   3.622   4.412  1.9469 -0.4843  0.1560
 7853SOL     OW35020   2.729   4.692   6.094  0.3878 -0.0765 -0.0676
 7853SOL    HW135021   2.802   4.634   6.075  1.2561  0.4503  1.5910
 7853SOL    HW235022   2.657   4.636   6.067  0.3807 -0.0564 -0.0902
 7854SOL     OW35023   0.004   3.836  10.455  0.3499 -0.0993 -0.3993
 7854SOL    HW135024   0.088   3.872  10.483  0.5706 -0.3473 -0.7510
 7854SOL    HW235025   4.683   3.826  10.542  0.4981  1.9573 -0.0884
 7855SOL     OW35026   1.107   0.100  14.905 -0.3395  0.1229 -0.2612
 7855SOL    HW135027   1.092   0.040  14.831  0.5117 -0.1306 -0.2330
 7855SOL    HW235028   1.068   0.048  14.975  2.7634  0.5274  1.7613
 7856SOL     OW35029   1.552   0.821   6.859 -0.1591  0.3470 -0.6092
 7856SOL    HW135030   1.585   0.911   6.863 -2.4919  1.1879 -0.1905
 7856SOL    HW235031   1.603   0.770   6.796  0.0890  0.2616 -0.3431
 7857SOL     OW35032   4.617   0.051   6.704  0.6375  0.7272 -0.1262
 7857SOL    HW135033   4.587   0.004   6.626 -2.4113 -0.0809  1.5275
 7857SOL    HW235034   4.571   4.713   6.765  1.9439  0.4380  0.5821
 7858SOL     OW35035   1.770   3.323   5.543 -0.2612  0.5136 -0.0047
 7858SOL    HW135036   1.769   3.259   5.614 -2.2173  1.6677  0.9893
 7858SOL    HW235037   1.712   3.392   5.575 -0.3871  1.1703 -1.6546
 7859SOL     OW35038   4.390   1.329  13.431  0.1840  0.4636 -0.3227
 7859SOL    HW135039   4.436   1.294  13.355  0.8764  0.9433 -0.1234
 7859SOL    HW235040   4.337   1.394  13.385 -0.4390 -0.1560 -0.4851
 7860SOL     OW35041   3.922   4.473   9.386  0.3015  0.8445 -0.2247
 7860SOL    HW135042   3.907   4.559   9.426 -1.5770  0.8970 -1.0789
 7860SOL    HW235043   3.874   4.476   9.303 -0.6515 -0.9146  0.2768
 7861SOL     OW35044   3.865   1.075   3.074 -0.2739  0.3181  0.1430
 7861SOL    HW135045   3.958   1.084   3.055 -0.4015  0.9365 -0.2057
 7861SOL    HW235046   3.829   1.114   2.995  1.5286  0.1376 -0.7460
 7862SOL     OW35047   1.110   2.649  13.716 -0.0952 -0.0594  0.2397
 7862SOL    HW135048   1.183   2.645  13.655 -0.5502  2.5203 -0.4792
 7862SOL    HW235049   1.088   2.742  13.718 -0.2334 -0.0465 -2.1123
 7863SOL     OW35050   2.497   1.977   9.765  0.2645  0.1050 -0.0434
 7863SOL    HW135051   2.434   1.975   9.693 -0.2063  0.0370  0.3692
 7863SOL    HW235052   2.484   1.884   9.786  1.0958 -0.0000  0.0089
 7864SOL     OW35053   2.215   4.564   2.807 -0.2485 -0.2985 -0.1160
 7864SOL    HW135054   2.310   4.574   2.816 -0.4619  0.9718  0.7012
 7864SOL    HW235055   2.206   4.471   2.830  1.8291 -0.1801  1.1384
 7865SOL     OW35056   1.580   3.339   4.256 -0.1136 -0.3352 -0.4962
 7865SOL    HW135057   1.531   3.379   4.183 -1.0330  1.0135  0.8677
 7865SOL    HW235058   1.527   3.349   4.334  0.5463  1.8366 -0.3156
 7866SOL     OW35059   2.134   1.924   2.566 -0.1456  0.6775  0.0719
 7866SOL    HW135060   2.230   1.923   2.555 -0.1877  1.1836 -0.3284
 7866SOL    HW235061   2.121   1.829   2.567 -2.4885  0.9756 -2.1569
 7867SOL     OW35062   3.678   0.287   6.857 -0.2083  1.1212  0.3912
 7867SOL    HW135063   3.594   0.301   6.901  0.9811 -0.0017  2.9840
 7867SOL    HW235064   3.734   0.330   6.921  3.3324 -0.4024 -1.6472
 7868SOL     OW35065   0.473   1.874   2.288  0.3339  0.1905  0.5150
 7868SOL    HW135066   0.412   1.809   2.323 -2.0999  1.2134 -1.7965
 7868SOL    HW235067   0.531   1.895   2.361  0.2200 -0.0201  0.6685
 7869SOL     OW35068   3.313   4.325   0.651  0.3301  0.1999 -0.1401
 7869SOL    HW135069   3.219   4.340   0.654  0.7868  2.8104  0.8797
 7869SOL    HW235070   3.329   4.355   0.741 -0.6122  1.2013 -0.3111
 7870SOL     OW35071   4.258   2.150   0.853 -0.8925  0.3415 -0.4861
 7870SOL    HW135072   4.260   2.119   0.762 -1.1886  0.9387 -0.6994
 7870SOL    HW235073   4.287   2.241   0.845 -1.6004  0.7801  2.1062
 7871SOL     OW35074   0.190   1.273   2.997  0.2860  0.0979  0.1989
 7871SOL    HW135075   0.169   1.333   2.925  1.2380  0.0464 -0.1264
 7871SOL    HW235076   0.274   1.244   2.962 -1.0221 -2.4233 -0.8665
 7872SOL     OW35077   0.862   0.986   7.460 -0.2621  0.3879 -0.5319
 7872SOL    HW135078   0.789   1.034   7.421 -0.5283 -0.5771 -1.2456
 7872SOL    HW235079   0.830   0.986   7.550 -2.2704  1.5085 -1.2551
 7873SOL     OW35080   2.303   0.141   6.999 -0.2703  0.6284  0.9964
 7873SOL    HW135081   2.379   0.088   7.023 -0.3283  0.0338 -0.1400
 7873SOL    HW235082   2.239   0.070   7.008  1.6770 -1.1344  0.9448
 7874SOL     OW35083   3.013   4.652   4.454  0.4677  0.1271  0.6704
 7874SOL    HW135084   3.033   4.569   4.498  2.5301 -0.6568 -1.7749
 7874SOL    HW235085   3.047   4.638   4.366 -0.4739 -2.3011  0.6965
 7875SOL     OW35086   3.873   2.832   8.047 -0.2141  0.2194 -0.0501
 7875SOL    HW135087   3.839   2.749   8.012  0.6745 -0.5369  0.8637
 7875SOL    HW235088   3.795   2.875   8.081 -0.5716  0.1428 -0.7733
 7876SOL     OW35089   0.970   0.893   4.635 -0.2810 -0.4465 -0.3426
 7876SOL    HW135090   0.919   0.817   4.608 -0.9431 -0.7122  1.6562
 7876SOL    HW235091   0.918   0.967   4.603 -0.5200 -1.1718 -1.6391
 7877SOL     OW35092   2.285   2.324   9.713 -0.1534  0.3622  0.0922
 7877SOL    HW135093   2.246   2.377   9.782  1.6264  1.3196  0.3578
 7877SOL    HW235094   2.242   2.239   9.723  0.1484  0.5151  2.8234
 7878SOL     OW35095   3.407   0.176   9.342 -0.4687  0.1121 -0.0578
 7878SOL    HW135096   3.336   0.177   9.277 -1.5126  2.5259  1.1090
 7878SOL    HW235097   3.419   0.082   9.354  2.6924  0.3984 -1.1286
 7879SOL     OW35098   3.303   0.963   5.851 -0.4118  0.5343 -0.1135
 7879SOL    HW135099   3.332   0.904   5.781 -2.2358 -3.1613  2.2159
 7879SOL    HW235100   3.209   0.962   5.830 -0.4037 -1.7427 -0.0382
 7880SOL     OW35101   1.871   4.045  10.761  0.3450 -0.5110 -0.4829
 7880SOL    HW135102   1.831   4.128  10.788  1.1791 -0.0448 -0.6586
 7880SOL    HW235103   1.794   3.988  10.759  0.5439 -0.7613 -1.1565
 7881SOL     OW35104   0.084   4.715   4.192 -0.4551 -0.0956 -0.5891
 7881SOL    HW135105   0.058   4.704   4.101 -1.3642  0.4397 -0.3947
 7881SOL    HW235106   4.719   4.696   4.234  1.4508 -0.0476  3.2139
 7882SOL     OW35107   0.157   2.964  12.881  0.4075  0.0190  0.4599
 7882SOL    HW135108   0.126   2.874  12.892  0.4820  0.0205  0.6880
 7882SOL    HW235109   0.077   3.017  12.888 -0.8148 -1.9224  1.0416
 7883SOL     OW35110   1.919   2.015  16.292  0.1693 -0.1098  0.0936
 7883SOL    HW135111   1.890   1.996  16.203  2.4100 -0.1945 -0.6081
 7883SOL    HW235112   1.964   1.933  16.313 -0.3791 -0.9285 -2.0076
 7884SOL     OW35113   0.926   2.777  12.415 -0.5355 -0.0323  0.5128
 7884SOL    HW135114   0.943   2.790  12.509 -1.0155  0.1176  0.5771
 7884SOL    HW235115   0.981   2.844  12.373  1.3673 -0.0924  2.8802
 7885SOL     OW35116   0.190   3.331   2.831  0.3305  0.5482 -0.1960
 7885SOL    HW135117   0.233   3.277   2.764 -0.0621  1.0788 -0.8822
 7885SOL    HW235118   0.168   3.409   2.779  0.0080  0.2122 -0.5639
 7886SOL     OW35119   3.683   1.531  12.889  0.1710 -0.8448  0.2093
 7886SOL    HW135120   3.614   1.585  12.851  0.4713 -0.2634  0.4824
 7886SOL    HW235121   3.641   1.492  12.966  2.1929 -3.3404  0.0508
 7887SOL     OW35122   4.010   1.456   5.186 -0.3330  0.0288  0.0400
 7887SOL    HW135123   4.076   1.387   5.175  0.7600  1.5994 -3.1425
 7887SOL    HW235124   4.055   1.534   5.153 -1.1816  0.1041 -0.9242
 7888SOL     OW35125   2.743   1.000   3.194 -0.7423  0.2787 -0.2129
 7888SOL    HW135126   2.709   0.910   3.189  0.6135 -0.2191 -0.5474
 7888SOL    HW235127   2.812   1.002   3.127 -0.6907 -3.5169 -0.2634
 7889SOL     OW35128   0.468   2.733   7.065  0.2536  0.2104 -0.2192
 7889SOL    HW135129   0.481   2.690   6.980 -0.1823  0.0710 -0.2183
 7889SOL    HW235130   0.378   2.761   7.050  0.1985  0.0439 -0.2047
 7890SOL     OW35131   0.759   3.082   2.278  0.0083 -0.1920  0.3786
 7890SOL    HW135132   0.730   3.108   2.190 -2.5253 -0.7796  1.0265
 7890SOL    HW235133   0.822   3.015   2.253 -0.8337 -0.7210 -0.3395
 7891SOL     OW35134   4.141   2.943   2.293  0.6376  0.3026  0.3893
 7891SOL    HW135135   4.127   2.849   2.299  1.9699 -0.1576 -3.0984
 7891SOL    HW235136   4.221   2.952   2.240  0.0569  0.4119 -0.4742
 7892SOL     OW35137   0.735   0.781  12.650  0.1014  0.1274  0.3847
 7892SOL    HW135138   0.645   0.812  12.661  0.2512  0.5672  0.3662
 7892SOL    HW235139   0.719   0.687  12.641  0.8091  0.2695 -2.4944
 7893SOL     OW35140   2.748   2.999   5.856  0.0086 -0.0277 -0.5435
 7893SOL    HW135141   2.669   2.994   5.910  0.0616  2.2028 -0.2885
 7893SOL    HW235142   2.795   3.080   5.876 -1.6962  1.3870 -2.4324
 7894SOL     OW35143   0.628   4.060  12.779  0.2078 -0.3708  0.0924
 7894SOL    HW135144   0.678   3.994  12.828  2.8343  1.9679  0.5209
 7894SOL    HW235145   0.668   4.059  12.692  1.9786 -0.7385  0.8968
 7895SOL     OW35146   3.078   3.749   6.612  0.0468 -0.5130 -0.0045
 7895SOL    HW135147   3.048   3.797   6.535  1.3085  0.6373  0.2323
 7895SOL    HW235148   3.116   3.669   6.576  0.0374 -1.2882  1.7127
 7896SOL     OW35149   3.748   4.646   5.840  0.0048 -0.1192  0.0160
 7896SOL    HW135150   3.681   4.619   5.902  0.7362 -2.0898 -0.0418
 7896SOL    HW235151   3.774   0.012   5.874 -1.2221 -0.1286  0.9614
 7897SOL     OW35152   3.203   0.016   8.916 -0.2311 -0.2178 -0.0122
 7897SOL    HW135153   3.204   4.640   8.913  1.8746 -0.1305 -2.2507
 7897SOL    HW235154   3.188   0.038   9.008  1.2964 -0.9981  0.4201
 7898SOL     OW35155   2.953   3.815   6.078 -0.0633  0.4614 -0.2716
 7898SOL    HW135156   3.001   3.891   6.111  0.6722 -1.0524  2.2273
 7898SOL    HW235157   3.008   3.804   6.001 -0.4366 -0.5790 -0.3858
 7899SOL     OW35158   3.615   1.168  14.710 -0.1285  0.0626  0.6605
 7899SOL    HW135159   3.527   1.190  14.739 -0.1391  1.5024 -0.4583
 7899SOL    HW235160   3.643   1.084  14.746 -0.3122 -0.0929  0.4400
 7900SOL     OW35161   1.169   3.173  13.284  0.4582  0.0705  0.0711
 7900SOL    HW135162   1.264   3.170  13.297  0.7808  0.8942 -2.1350
 7900SOL    HW235163   1.141   3.088  13.251 -3.6231  2.0001 -1.3953
 7901SOL     OW35164   3.344   3.684  12.215  0.5010 -0.3854  0.4895
 7901SOL    HW135165   3.254   3.713  12.224  0.2007 -0.9236 -0.7588
 7901SOL    HW235166   3.355   3.610  12.274  1.0233 -1.4781 -0.9529
 7902SOL     OW35167   1.789   0.610   3.813 -0.0122  0.4786  0.1022
 7902SOL    HW135168   1.779   0.532   3.868 -1.1618  1.5435  1.3904
 7902SOL    HW235169   1.793   0.564   3.729 -0.3348  1.6112 -0.5205
 7903SOL     OW35170   2.433   3.621   2.623 -0.0506 -0.1064 -0.0202
 7903SOL    HW135171   2.486   3.632   2.702  2.2959 -1.5257 -1.3892
 7903SOL    HW235172   2.397   3.709   2.621  0.8578  0.2140 -2.8145
 7904SOL     OW35173   1.921   3.344  13.466  0.2606 -0.4383  0.0296
 7904SOL    HW135174   1.999   3.381  13.506 -0.3233  3.0426 -2.0106
 7904SOL    HW235175   1.921   3.251  13.489 -1.6921 -0.7603 -1.2632
 7905SOL     OW35176   1.729   4.372  12.786 -0.1520  1.0191  0.2535
 7905SOL    HW135177   1.652   4.383  12.841 -0.4534  0.0084  0.0337
 7905SOL    HW235178   1.688   4.382  12.700 -0.0879  1.0942  0.2317
 7906SOL     OW35179   4.496   1.598   0.946 -0.5946 -0.6289  0.0022
 7906SOL    HW135180   4.496   1.504   0.929  1.3088 -0.7043  0.3816
 7906SOL    HW235181   4.587   1.616   0.923 -0.1470 -1.9060  0.7495
 7907SOL     OW35182   4.258   1.074   6.673  0.4217  0.0466 -0.0351
 7907SOL    HW135183   4.261   1.095   6.580 -0.4468  2.1454  0.3882
 7907SOL    HW235184   4.210   1.146   6.714  2.3248  1.6173 -0.5757
 7908SOL     OW35185   1.306   1.243   8.246 -0.1281 -0.0282 -0.3049
 7908SOL    HW135186   1.210   1.236   8.250 -0.0703 -0.2529  0.8169
 7908SOL    HW235187   1.335   1.296   8.320  2.9254  2.0791 -3.0176
 7909SOL     OW35188   3.513   3.177   9.095 -0.5203 -0.6044  0.0597
 7909SOL    HW135189   3.493   3.113   9.027  1.5906  0.3527 -1.4662
 7909SOL    HW235190   3.577   3.132   9.151 -1.3898 -0.6265  1.0218
 7910SOL     OW35191   4.407   0.618  16.564 -0.3022  0.2991 -0.2771
 7910SOL    HW135192   4.362   0.592  16.483 -2.7650  0.8667  0.9048
 7910SOL    HW235193   4.470   0.549  16.583 -1.7479 -0.5068  1.5559
 7911SOL     OW35194   0.079   3.997  15.958 -0.2266  0.5783 -0.5741
 7911SOL    HW135195   0.037   4.081  15.937  1.7942  1.3472 -1.5836
 7911SOL    HW235196   0.170   4.025  15.950  0.1640 -0.8054 -0.9544
 7912SOL     OW35197   1.844   2.886   2.733 -0.9692 -0.1883  0.4197
 7912SOL    HW135198   1.762   2.903   2.780 -0.9002 -0.9521  0.8223
 7912SOL    HW235199   1.816   2.893   2.642  0.1423 -0.4066  0.0683
 7913SOL     OW35200   1.509   3.705  14.752  0.0291 -0.6837 -0.4106
 7913SOL    HW135201   1.570   3.654  14.699  0.3417 -1.5685  0.8030
 7913SOL    HW235202   1.555   3.788  14.738 -1.4843  0.2062 -0.1093
 7914SOL     OW35203   1.810   4.496  13.139 -0.1930 -0.6015 -0.2965
 7914SOL    HW135204   1.821   4.470  13.230 -0.8414 -3.4648 -1.0242
 7914SOL    HW235205   1.764   4.416  13.113 -2.2995 -0.0001  1.5387
 7915SOL     OW35206   2.860   3.506   9.644 -0.5464 -0.1933 -0.6362
 7915SOL    HW135207   2.901   3.584   9.680 -1.1040  0.0534 -0.5386
 7915SOL    HW235208   2.850   3.452   9.722 -1.1327  0.9218  0.0517
 7916SOL     OW35209   3.503   1.133   4.753 -0.1391 -0.2933 -0.7859
 7916SOL    HW135210   3.532   1.059   4.807 -0.9195  0.5362  0.7764
 7916SOL    HW235211   3.526   1.099   4.667 -2.0252 -2.4990 -0.4233
 7917SOL     OW35212   0.856   2.328   3.068  0.1569 -0.3223  0.2195
 7917SOL    HW135213   0.830   2.367   3.151  0.3343 -0.5885  0.3986
 7917SOL    HW235214   0.916   2.402   3.062  0.4399 -0.5482  0.2545
 7918SOL     OW35215   0.049   0.366  11.015  0.0520  0.3933 -0.2609
 7918SOL    HW135216   0.030   0.315  10.937 -0.4486 -1.2196  0.9067
 7918SOL    HW235217   0.077   0.449  10.977 -0.1066 -0.3553 -2.0003
 7919SOL     OW35218   2.335   0.792  13.594  0.2722 -0.7339  0.3090
 7919SOL    HW135219   2.420   0.747  13.593  0.9652  0.6014 -0.8567
 7919SOL    HW235220   2.285   0.720  13.634  0.5693 -2.6302 -2.7167
 7920SOL     OW35221   3.255   2.411   1.556  0.7252 -0.6349  0.6023
 7920SOL    HW135222   3.221   2.328   1.521  2.6631 -0.7599 -1.0014
 7920SOL    HW235223   3.315   2.379   1.623 -0.9041 -0.2932  2.2454
 7921SOL     OW35224   2.680   2.623   5.230  0.0933 -0.4548 -0.2568
 7921SOL    HW135225   2.721   2.696   5.277 -3.4890  1.0758  0.4933
 7921SOL    HW235226   2.718   2.550   5.281  0.8720  0.3826  0.3793
 7922SOL     OW35227   4.003   3.193  13.767 -0.5288 -0.0379  0.0524
 7922SOL    HW135228   4.085   3.237  13.748  0.5521 -3.0279 -2.2460
 7922SOL    HW235229   3.949   3.267  13.739 -0.7696 -0.3985 -0.4513
 7923SOL     OW35230   0.413   1.321   9.359 -0.2323  0.0105 -0.3292
 7923SOL    HW135231   0.450   1.253   9.414 -0.4934 -1.0605 -1.4697
 7923SOL    HW235232   0.488   1.374   9.332 -0.8099 -0.1952 -2.3322
 7924SOL     OW35233   0.013   0.369   9.419  0.0175  0.2718  0.6032
 7924SOL    HW135234   0.100   0.394   9.389 -0.4069  0.8102 -0.1991
 7924SOL    HW235235   4.707   0.308   9.349  1.0323 -0.3926  0.8161
 7925SOL     OW35236   0.179   3.736   2.269 -0.3680  0.7783  0.2816
 7925SOL    HW135237   0.185   3.683   2.189 -0.7955  3.1897 -1.3278
 7925SOL    HW235238   0.262   3.784   2.266  0.3121 -0.4002  0.0050
 7926SOL     OW35239   2.615   3.461  16.109 -0.1757 -0.0202  0.5802
 7926SOL    HW135240   2.540   3.480  16.053  0.2802  0.1617  0.0317
 7926SOL    HW235241   2.650   3.546  16.137  1.1820 -0.3207 -0.2196
 7927SOL     OW35242   2.921   2.597   3.295  0.2374 -0.3483  0.4497
 7927SOL    HW135243   2.852   2.653   3.260  0.1096 -1.7369 -1.4762
 7927SOL    HW235244   2.960   2.573   3.211 -1.6932 -3.5828  0.4497
 7928SOL     OW35245   0.729   4.260  16.668 -0.7652 -0.0019 -0.4580
 7928SOL    HW135246   0.654   4.299  16.713 -2.6187 -1.1353 -2.5156
 7928SOL    HW235247   0.749   4.328  16.603  2.7720  1.6231  2.3418
 7929SOL     OW35248   3.767   2.609   7.960 -0.5851  0.4161  0.9452
 7929SOL    HW135249   3.754   2.543   8.028 -0.4577 -0.1293  0.4419
 7929SOL    HW235250   3.717   2.569   7.889 -0.9130  2.0472  0.2386
 7930SOL     OW35251   3.545   2.970   3.570  0.4912 -0.0128  0.2550
 7930SOL    HW135252   3.557   3.058   3.534 -0.5435 -1.2905 -3.2166
 7930SOL    HW235253   3.588   2.992   3.653  1.6411 -1.8042  0.1199
 7931SOL     OW35254   3.340   2.421  11.716  0.0822 -0.2146  0.0590
 7931SOL    HW135255   3.274   2.363  11.679 -1.3052  0.1344  1.9649
 7931SOL    HW235256   3.414   2.369  11.684  0.6233  1.2775 -1.1207
 7932SOL     OW35257   3.314   3.203   5.497  0.6823 -0.3455 -0.2771
 7932SOL    HW135258   3.361   3.134   5.545  0.3036  0.9167  1.9173
 7932SOL    HW235259   3.382   3.268   5.511  0.0527  0.2345  0.1073
 7933SOL     OW35260   1.954   2.978   7.280 -0.1714 -0.1609 -0.2408
 7933SOL    HW135261   2.017   2.911   7.307  0.4503  0.2923 -0.5413
 7933SOL    HW235262   1.903   2.983   7.361  0.9245  2.0169  0.3115
 7934SOL     OW35263   1.130   2.045   4.485 -0.2732  0.3064  0.5597
 7934SOL    HW135264   1.057   1.983   4.490 -0.1753 -0.0301 -1.8179
 7934SOL    HW235265   1.104   2.123   4.533  1.3323  1.7049 -0.7999
 7935SOL     OW35266   3.681   2.716   5.891  0.4886 -0.1896  0.0131
 7935SOL    HW135267   3.759   2.662   5.879  1.2020  1.5716 -3.4017
 7935SOL    HW235268   3.709   2.798   5.849  0.3942  0.8823  2.0732
 7936SOL     OW35269   3.916   1.245   0.775  0.0909  0.7640 -0.0346
 7936SOL    HW135270   3.898   1.261   0.868 -0.7198  1.7466 -0.3579
 7936SOL    HW235271   3.834   1.206   0.745  0.1961 -0.4794  1.3105
 7937SOL     OW35272   4.420   4.471  11.588 -0.1147  0.2742 -0.7742
 7937SOL    HW135273   4.408   4.543  11.527 -1.4680  0.5920 -0.1307
 7937SOL    HW235274   4.381   4.408  11.528  1.7705 -0.2491 -1.4383
 7938SOL     OW35275   1.143   0.101   6.834  0.3678  0.6072 -0.7336
 7938SOL    HW135276   1.201   0.025   6.824  3.5744  3.0461 -0.6585
 7938SOL    HW235277   1.064   0.057   6.803 -0.3051  1.8915 -0.8257
 7939SOL     OW35278   3.017   0.383   8.462 -0.5948  0.0079 -0.6037
 7939SOL    HW135279   2.933   0.359   8.502 -1.1580  1.2899 -0.9848
 7939SOL    HW235280   2.994   0.438   8.387  1.3650 -0.1388 -1.3042
 7940SOL     OW35281   4.021   3.246   6.222 -0.3042 -0.5564 -0.0324
 7940SOL    HW135282   4.082   3.173   6.208  2.4886  1.6545  0.4638
 7940SOL    HW235283   4.061   3.282   6.301  0.0836  2.4349 -1.5830
 7941SOL     OW35284   1.050   3.023   5.065  0.0854  0.2212 -0.7069
 7941SOL    HW135285   1.117   3.059   5.007  1.1314  1.2953  1.1537
 7941SOL    HW235286   0.995   3.099   5.086  2.6994  1.3585  2.0203
 7942SOL     OW35287   1.233   3.471  16.942 -0.4410 -0.4589  0.3474
 7942SOL    HW135288   1.198   3.509  16.861 -1.6941 -1.5028  0.3972
 7942SOL    HW235289   1.154   3.439  16.985 -1.8622  4.1764  1.1884
 7943SOL     OW35290   3.951   3.597   2.391 -0.3061 -0.1772 -0.3821
 7943SOL    HW135291   3.926   3.538   2.462 -3.5806 -1.2850 -2.4380
 7943SOL    HW235292   3.960   3.531   2.323  0.0450 -2.4768  1.8954
 7944SOL     OW35293   4.546   4.467  11.336  0.2814  0.2161  0.3653
 7944SOL    HW135294   4.577   4.396  11.392  0.1782  0.4568  0.7239
 7944SOL    HW235295   4.615   4.532  11.347 -1.1133  1.9125 -0.8300
 7945SOL     OW35296   1.149   1.766  16.176 -0.2881  0.3354 -0.1314
 7945SOL    HW135297   1.194   1.707  16.236  1.3980  1.2273 -0.5178
 7945SOL    HW235298   1.104   1.699  16.123 -1.4794  1.3870 -0.4331
 7946SOL     OW35299   1.717   2.813   5.061  0.5268 -0.3932  0.1660
 7946SOL    HW135300   1.695   2.862   5.141  1.3642  2.0142 -1.0748
 7946SOL    HW235301   1.762   2.745   5.112 -0.9501  0.3750  2.5126
 7947SOL     OW35302   1.447   0.980   5.314  0.9271 -0.2231 -0.9021
 7947SOL    HW135303   1.501   1.056   5.336  1.3729 -0.4679 -1.1548
 7947SOL    HW235304   1.362   1.023   5.326  1.2270  1.0104 -3.2304
 7948SOL     OW35305   0.250   2.625   6.906 -0.2784 -0.3891 -0.1375
 7948SOL    HW135306   0.240   2.560   6.836  0.0491 -0.0998 -0.4558
 7948SOL    HW235307   0.194   2.697   6.877  0.9850  1.3492  1.7425
 7949SOL     OW35308   1.334   4.643   0.390  0.4239 -0.0979 -0.3440
 7949SOL    HW135309   1.259   4.703   0.395  0.7070  0.1927  0.4034
 7949SOL    HW235310   1.407   4.704   0.398 -1.2821  1.7352  1.4316
 7950SOL     OW35311   3.933   1.934   8.407 -0.3396  0.1556 -1.0599
 7950SOL    HW135312   4.023   1.950   8.434 -0.1793 -1.6046 -0.5967
 7950SOL    HW235313   3.914   2.017   8.363 -0.3940 -0.9161 -3.0414
 7951SOL     OW35314   2.735   1.024   2.390 -0.1041 -0.0638 -0.3623
 7951SOL    HW135315   2.692   0.940   2.407  1.3214 -0.5941  0.5489
 7951SOL    HW235316   2.731   1.032   2.295 -0.6870  2.4247 -0.1445
 7952SOL     OW35317   1.893   3.880   1.549  0.0532  0.4726 -0.4547
 7952SOL    HW135318   1.968   3.871   1.490  1.4894  1.5789  1.2165
 7952SOL    HW235319   1.828   3.814   1.524  2.4128 -2.2869  0.7185
 7953SOL     OW35320   3.864   2.362   5.965  0.3032  0.3312  0.3321
 7953SOL    HW135321   3.815   2.305   5.906 -0.0360  1.1392 -0.1716
 7953SOL    HW235322   3.880   2.440   5.912 -2.1450 -0.7082 -1.9017
 7954SOL     OW35323   2.630   1.352   9.239 -0.0660  0.0150  0.4926
 7954SOL    HW135324   2.618   1.386   9.151  1.1977  1.1764  0.7811
 7954SOL    HW235325   2.722   1.373   9.255 -0.4461  4.2610 -3.0545
 7955SOL     OW35326   3.908   0.388   8.370  0.0638  0.0061 -0.2481
 7955SOL    HW135327   3.964   0.463   8.389 -0.0813 -0.0402  0.3573
 7955SOL    HW235328   3.820   0.421   8.389 -0.5263 -0.3148 -2.4826
 7956SOL     OW35329   4.516   2.134  14.877 -0.3425  0.1055  0.4690
 7956SOL    HW135330   4.509   2.058  14.935  0.7992 -0.2916  0.0933
 7956SOL    HW235331   4.493   2.201  14.941 -1.4322 -1.0171  1.2718
 7957SOL     OW35332   4.521   1.802   1.980 -0.7376 -0.6535 -0.5622
 7957SOL    HW135333   4.497   1.891   2.006  2.4968  0.1828 -0.4513
 7957SOL    HW235334   4.504   1.810   1.886 -0.7691  1.3617 -0.4008
 7958SOL     OW35335   2.437   0.528   0.328  0.3776  0.1600  0.1954
 7958SOL    HW135336   2.521   0.573   0.338  0.2676  0.2226  0.8126
 7958SOL    HW235337   2.405   0.576   0.251  0.5105  1.7632  1.1383
 7959SOL     OW35338   1.877   3.707  14.865  0.2734  0.6289  0.8099
 7959SOL    HW135339   1.797   3.703  14.918 -0.3604  1.4131 -0.0771
 7959SOL    HW235340   1.923   3.782  14.902  0.1215  0.5402  1.1725
 7960SOL     OW35341   0.688   2.371   9.833  0.3341 -0.0319 -0.2030
 7960SOL    HW135342   0.722   2.293   9.790 -1.1204 -0.9637  0.3805
 7960SOL    HW235343   0.613   2.397   9.779  0.3278  1.3223  0.4406
 7961SOL     OW35344   3.875   4.468   6.845  0.1851 -0.0852 -0.4152
 7961SOL    HW135345   3.931   4.426   6.910  0.3645  1.0354  0.1641
 7961SOL    HW235346   3.814   4.506   6.909  0.9107  0.3230  0.0400
 7962SOL     OW35347   1.425   3.874  17.342  0.1874 -0.1735  0.3279
 7962SOL    HW135348   1.415   3.783  17.315 -1.1335 -0.3956  1.6135
 7962SOL    HW235349   1.449   3.910  17.256 -3.6206  1.5640  0.0011
 7963SOL     OW35350   3.713   0.760  11.810 -0.3370 -0.5961 -0.1349
 7963SOL    HW135351   3.803   0.761  11.775 -0.3622 -3.2015 -0.2722
 7963SOL    HW235352   3.735   0.748  11.902  0.2754  2.7876  0.1458
 7964SOL     OW35353   1.379   4.653  12.912 -0.3591 -0.2064 -0.0327
 7964SOL    HW135354   1.418   4.566  12.911 -1.6378 -0.7656 -0.6603
 7964SOL    HW235355   1.454   4.711  12.897 -0.5304 -0.2665 -1.0836
 7965SOL     OW35356   3.086   3.180  12.671  0.5483  0.2352 -0.1923
 7965SOL    HW135357   2.998   3.184  12.633  0.1208 -3.5202  0.3886
 7965SOL    HW235358   3.074   3.250  12.735 -1.9161 -1.7591  1.5038
 7966SOL     OW35359   4.101   1.384   4.616 -0.3028 -0.3874 -0.2115
 7966SOL    HW135360   4.116   1.331   4.538  1.6634  2.2203 -1.6272
 7966SOL    HW235361   4.148   1.465   4.595 -2.4331  0.8003 -0.4156
 7967SOL     OW35362   4.093   1.829   1.721 -0.3814 -0.0864 -0.7091
 7967SOL    HW135363   4.029   1.897   1.702 -1.2736 -1.1035 -1.3833
 7967SOL    HW235364   4.124   1.804   1.634 -1.2842  0.1697 -1.1100
 7968SOL     OW35365   2.871   1.885   2.178 -0.3421 -0.5080  0.1722
 7968SOL    HW135366   2.813   1.860   2.107 -1.0175  1.4890  0.0115
 7968SOL    HW235367   2.837   1.972   2.200 -0.7727 -0.1182 -2.0173
 7969SOL     OW35368   0.270   3.771  13.291 -0.6368  0.2538  0.1711
 7969SOL    HW135369   0.304   3.829  13.360 -0.2685  0.5641 -0.2692
 7969SOL    HW235370   0.200   3.726  13.339 -1.2607 -0.7673 -1.7124
 7970SOL     OW35371   2.567   1.133   4.702  0.3440 -0.1827  0.5036
 7970SOL    HW135372   2.557   1.124   4.797  0.6262 -1.1503  0.4489
 7970SOL    HW235373   2.591   1.225   4.697 -2.0884  0.4337  0.2031
 7971SOL     OW35374   4.021   4.209   7.169  0.3152 -0.2284  0.0737
 7971SOL    HW135375   4.073   4.275   7.122 -1.2495  1.1756  0.3116
 7971SOL    HW235376   4.088   4.148   7.200  0.2004 -0.4829 -0.1878
 7972SOL     OW35377   3.996   0.107  13.714  0.9517 -0.1392  0.3588
 7972SOL    HW135378   3.935   0.035  13.699  0.5314  0.4763 -0.9211
 7972SOL    HW235379   4.047   0.077  13.789  1.4259 -2.6400 -0.9913
 7973SOL     OW35380   4.261   3.275  13.649  0.3325  0.6086  0.2132
 7973SOL    HW135381   4.349   3.308  13.633  0.2335  1.0392  0.5572
 7973SOL    HW235382   4.285   3.192  13.690 -0.7277 -0.5444 -1.5049
 7974SOL     OW35383   0.306   2.077   4.018 -0.4566 -0.4405 -0.2639
 7974SOL    HW135384   0.367   2.103   3.949 -0.2214 -0.0365  0.0974
 7974SOL    HW235385   0.260   2.159   4.037  0.7452 -0.6661  3.6953
 7975SOL     OW35386   1.695   3.466   6.158  0.1983 -0.1788  0.6429
 7975SOL    HW135387   1.774   3.520   6.169  0.4664 -0.9147  2.3524
 7975SOL    HW235388   1.636   3.531   6.121  0.6201  0.3436  0.8804
 7976SOL     OW35389   1.102   1.176   0.481  0.2045 -0.4578  0.0290
 7976SOL    HW135390   1.108   1.271   0.472 -1.0691 -0.5747 -1.9259
 7976SOL    HW235391   1.018   1.154   0.441  0.1136 -1.0049  0.5199
 7977SOL     OW35392   4.717   3.224  12.140 -0.0382 -0.2019 -0.4830
 7977SOL    HW135393   0.091   3.236  12.152  0.5211 -3.6316 -1.5409
 7977SOL    HW235394   4.677   3.279  12.207  0.0909 -1.8568  0.9313
 7978SOL     OW35395   1.999   3.729   4.463 -0.3094  0.6324  0.5872
 7978SOL    HW135396   2.058   3.700   4.533  1.5289 -1.1267 -1.7315
 7978SOL    HW235397   2.056   3.783   4.408 -0.2041 -0.9339 -0.8176
 7979SOL     OW35398   1.508   3.165  13.859 -0.1236 -0.4904  0.5970
 7979SOL    HW135399   1.444   3.129  13.920  0.5602 -1.0479  0.9804
 7979SOL    HW235400   1.463   3.243  13.826  0.7419 -0.0156  0.5578
 7980SOL     OW35401   4.029   3.563   0.651 -0.6266  0.2483  0.4274
 7980SOL    HW135402   3.983   3.595   0.573  1.9041  1.6398 -0.4832
 7980SOL    HW235403   4.016   3.469   0.643  0.7515  0.0080  1.1939
 7981SOL     OW35404   1.859   1.241  11.792  0.2950 -0.4867  0.2538
 7981SOL    HW135405   1.858   1.281  11.706  0.1758 -1.5322 -0.2337
 7981SOL    HW235406   1.943   1.274  11.827 -1.1495  4.0485 -0.5602
 7982SOL     OW35407   2.076   0.464   7.905  0.0186 -0.0854 -0.0009
 7982SOL    HW135408   2.053   0.403   7.835  3.4177  0.8594 -1.9358
 7982SOL    HW235409   2.119   0.399   7.961 -2.0602  0.6477  2.4910
 7983SOL     OW35410   2.784   4.032   1.434  0.4663  0.2905 -0.6290
 7983SOL    HW135411   2.872   4.021   1.398  0.9428 -2.7259  1.4587
 7983SOL    HW235412   2.757   3.941   1.447 -2.4011  1.4812  1.6031
 7984SOL     OW35413   4.269   3.131   3.090 -0.5615 -0.1050 -0.0575
 7984SOL    HW135414   4.196   3.072   3.109  0.7877 -0.7238  3.2159
 7984SOL    HW235415   4.317   3.128   3.173 -1.1719  2.5370  0.3969
 7985SOL     OW35416   1.264   1.031   9.041 -0.4056  0.1977  0.0629
 7985SOL    HW135417   1.311   1.003   9.120  2.1246  0.5660 -1.3224
 7985SOL    HW235418   1.175   1.002   9.061 -0.3023 -0.5211 -0.5165
 7986SOL     OW35419   0.530   2.910   7.265 -0.4598  0.1249  0.0183
 7986SOL    HW135420   0.441   2.904   7.231 -0.7864  1.3435  0.6520
 7986SOL    HW235421   0.560   2.835   7.213 -0.2984 -1.1493  1.9417
 7987SOL     OW35422   2.641   2.423   0.775 -0.5061  0.3342  0.3808
 7987SOL    HW135423   2.726   2.453   0.807  0.1530  0.9234 -1.9186
 7987SOL    HW235424   2.630   2.482   0.701  1.7080  1.1344  0.6781
 7988SOL     OW35425   1.892   3.229   4.302 -0.0734  0.5174 -0.1799
 7988SOL    HW135426   1.918   3.173   4.229  1.0774 -1.7281  1.9171
 7988SOL    HW235427   1.866   3.307   4.254 -0.6252  1.3091  1.4089
 7989SOL     OW35428   1.793   2.724   3.976 -0.1278 -0.4323 -0.1512
 7989SOL    HW135429   1.765   2.770   4.056 -0.1114  0.1706 -0.4914
 7989SOL    HW235430   1.862   2.663   4.004 -2.7195 -1.3940  4.1856
 7990SOL     OW35431   0.750   0.151   3.477 -0.4916 -0.8653  0.8803
 7990SOL    HW135432   0.801   0.091   3.532  1.4664  0.0167  0.0116
 7990SOL    HW235433   0.703   0.208   3.537  1.6912  0.4845  1.3066
 7991SOL     OW35434   0.099   1.553   6.459 -0.0716 -0.0405  1.0294
 7991SOL    HW135435   0.073   1.528   6.370 -1.0642  0.3563  1.2109
 7991SOL    HW235436   0.192   1.529   6.463  0.7981  3.7595  3.1249
 7992SOL     OW35437   0.559   0.122   6.401 -0.0487  0.0189  0.1132
 7992SOL    HW135438   0.629   0.184   6.425  3.8447 -3.5206 -2.1353
 7992SOL    HW235439   0.594   0.077   6.324 -0.8046  0.2110 -0.3376
 7993SOL     OW35440   0.807   2.053  15.094 -0.0999 -0.3885  0.2280
 7993SOL    HW135441   0.773   1.968  15.064  0.2491 -0.0598 -1.1268
 7993SOL    HW235442   0.828   2.099  15.013 -0.0146 -0.2445  0.3336
 7994SOL     OW35443   2.908   0.581   6.440 -0.4553 -0.4801  0.0803
 7994SOL    HW135444   2.865   0.563   6.524  1.8575 -2.2617  0.8767
 7994SOL    HW235445   2.849   0.520   6.395 -1.4115 -0.1085  0.8311
 7995SOL     OW35446   4.682   1.514   2.339 -0.4387 -0.4044 -0.3235
 7995SOL    HW135447   4.599   1.533   2.296  0.5599  1.3533 -1.4610
 7995SOL    HW235448   0.022   1.542   2.270  0.8130 -3.0691 -0.3188
 7996SOL     OW35449   1.708   2.924   0.872  0.3162  0.4756  0.1346
 7996SOL    HW135450   1.777   2.930   0.806 -1.2550 -0.0080 -1.5549
 7996SOL    HW235451   1.629   2.941   0.819 -0.0496  0.0554  0.5411
 7997SOL     OW35452   2.739   3.665   2.010  0.0514 -0.0492  0.0417
 7997SOL    HW135453   2.749   3.732   2.078  3.5409 -1.2664  0.7143
 7997SOL    HW235454   2.751   3.590   2.068 -1.5208 -0.0592  0.3606
 7998SOL     OW35455   3.817   0.119   2.560  0.4834  0.3000  0.1986
 7998SOL    HW135456   3.726   0.112   2.533 -0.1551 -1.2111  2.7233
 7998SOL    HW235457   3.844   0.043   2.509 -1.9660  0.1881 -0.9188
 7999SOL     OW35458   0.676   1.300   4.322  0.1933 -0.4570  0.4834
 7999SOL    HW135459   0.763   1.338   4.337  1.4846 -2.1871 -2.5683
 7999SOL    HW235460   0.624   1.368   4.278 -1.6007 -2.0525  0.1530
 8000SOL     OW35461   4.419   1.367   6.543 -0.3558  0.9431 -0.0654
 8000SOL    HW135462   4.353   1.405   6.601  0.1009  3.2011 -1.0152
 8000SOL    HW235463   4.381   1.280   6.527 -0.3815  0.6492  1.6212
 8001SOL     OW35464   3.560   3.719  14.149 -0.3169  0.1300  0.1282
 8001SOL    HW135465   3.483   3.751  14.102 -2.0512 -0.9090  2.2589
 8001SOL    HW235466   3.550   3.781  14.221 -0.1329  1.1078 -0.6870
 8002SOL     OW35467   1.908   0.447  17.414 -0.4740  0.1390 -0.1436
 8002SOL    HW135468   1.839   0.381  17.408  1.6551 -2.1747  0.7346
 8002SOL    HW235469   1.927   0.450  17.320  0.8609 -0.7285  0.1014
 8003SOL     OW35470   2.493   0.773   7.841  0.2385  0.2424  0.2653
 8003SOL    HW135471   2.489   0.714   7.765  0.1105  0.5236  0.0544
 8003SOL    HW235472   2.528   0.716   7.910 -1.1853  1.8174  2.2781
 8004SOL     OW35473   0.114   3.390   6.997  0.3556 -0.0044 -0.2929
 8004SOL    HW135474   0.170   3.456   7.038 -0.4637  0.8159 -0.5030
 8004SOL    HW235475   0.033   3.430   7.028  0.8451  2.2341 -1.9106
 8005SOL     OW35476   0.822   4.627   1.653  0.3831 -0.2798 -0.2354
 8005SOL    HW135477   0.867   4.670   1.726  0.2120 -0.8438  0.1960
 8005SOL    HW235478   0.874   4.668   1.584  0.1626 -1.4719 -1.1030
 8006SOL     OW35479   3.381   4.206  13.187  0.2879  0.8606 -0.7100
 8006SOL    HW135480   3.395   4.138  13.121 -0.4881 -0.1341  0.1401
 8006SOL    HW235481   3.290   4.221  13.161 -0.1225 -0.9170 -0.2807
 8007SOL     OW35482   2.762   0.715   3.921 -0.7613  0.0397 -0.2868
 8007SOL    HW135483   2.787   0.641   3.865  2.6564  1.0747 -0.1295
 8007SOL    HW235484   2.814   0.702   3.999 -1.3852  0.7244  0.2496
 8008SOL     OW35485   0.956   2.948   2.143 -0.2091 -0.1247  0.1292
 8008SOL    HW135486   0.965   2.892   2.066  3.8477  2.4095 -1.2556
 8008SOL    HW235487   1.042   2.991   2.144 -1.4055  2.2445  1.2209
 8009SOL     OW35488   2.195   0.096   8.258  0.2092  0.0692 -0.2068
 8009SOL    HW135489   2.107   0.092   8.296 -0.2633 -1.6766 -1.4790
 8009SOL    HW235490   2.177   0.112   8.166  0.3073  0.5596 -0.1432
 8010SOL     OW35491   4.447   3.168   7.071  0.5412  0.6541 -0.3491
 8010SOL    HW135492   4.431   3.081   7.109  0.2360  0.2650 -1.3635
 8010SOL    HW235493   4.510   3.205   7.133  0.7304  1.2119 -0.8828
 8011SOL     OW35494   3.152   1.896  14.601 -0.1927 -0.2164 -0.1042
 8011SOL    HW135495   3.238   1.934  14.620 -0.2729  0.3519 -0.8854
 8011SOL    HW235496   3.139   1.916  14.508 -0.2939 -0.4327 -0.1375
 8012SOL     OW35497   0.428   0.170  15.004  0.4667  0.0171 -0.1219
 8012SOL    HW135498   0.433   0.214  15.089  1.1790  0.0271 -0.1647
 8012SOL    HW235499   0.414   0.241  14.943 -1.1854 -0.7556 -0.6318
 8013SOL     OW35500   1.436   1.832   6.055  0.1871 -0.4736  0.0902
 8013SOL    HW135501   1.373   1.901   6.037  0.5563 -0.1902 -0.1145
 8013SOL    HW235502   1.400   1.763   5.999 -1.9840  0.8978 -0.2235
 8014SOL     OW35503   0.549   2.761   2.259  0.0083  0.1794 -0.4866
 8014SOL    HW135504   0.543   2.784   2.166 -0.4416 -2.5573 -1.1447
 8014SOL    HW235505   0.473   2.814   2.283 -0.0622  0.3409 -1.0710
 8015SOL     OW35506   1.921   1.238  13.364  0.3064  0.2412  0.6488
 8015SOL    HW135507   1.955   1.316  13.321  1.8098 -0.4474  0.5731
 8015SOL    HW235508   1.903   1.271  13.452  2.4607  0.4020  1.0519
 8016SOL     OW35509   1.190   1.437  15.405 -0.0903 -0.0110  0.1523
 8016SOL    HW135510   1.108   1.483  15.386 -1.0921 -1.2855  1.3769
 8016SOL    HW235511   1.154   1.350  15.422 -0.2807 -0.3078 -1.8521
 8017SOL     OW35512   0.001   3.817   4.235 -0.1896  0.1133 -0.3208
 8017SOL    HW135513   0.023   3.909   4.247 -0.6301  0.0845  0.7044
 8017SOL    HW235514   4.719   3.778   4.323  1.3267  0.7973 -0.0000
 8018SOL     OW35515   1.320   2.069   2.690  0.3653  0.0069 -0.1836
 8018SOL    HW135516   1.270   2.093   2.612 -0.5816 -0.5693  0.2407
 8018SOL    HW235517   1.287   1.979   2.697  0.7350 -0.0701  0.5525
 8019SOL     OW35518   0.421   0.664   4.769 -0.5539 -0.3800 -0.0249
 8019SOL    HW135519   0.370   0.735   4.809  0.0813 -0.2948  0.6338
 8019SOL    HW235520   0.362   0.592   4.790 -1.1325  0.5426  1.4765
 8020SOL     OW35521   4.235   1.983   2.740  0.0253  0.3444 -0.0525
 8020SOL    HW135522   4.320   2.000   2.781 -0.1634  1.6126 -0.1903
 8020SOL    HW235523   4.222   2.061   2.685 -0.4957 -0.0414 -0.4674
 8021SOL     OW35524   0.109   3.065   3.530 -0.3559  0.4419 -0.4715
 8021SOL    HW135525   0.136   3.060   3.622 -1.5155 -0.2460 -0.1713
 8021SOL    HW235526   0.083   2.976   3.507  1.9050 -0.5748  0.8691
 8022SOL     OW35527   4.014   3.222   8.144  0.2743  0.0020 -0.1958
 8022SOL    HW135528   4.069   3.299   8.130  1.8160 -1.2350 -0.9917
 8022SOL    HW235529   3.938   3.241   8.089 -1.3708  0.2879  2.1827
 8023SOL     OW35530   1.631   1.355  10.617  0.6771 -0.2210  0.6257
 8023SOL    HW135531   1.571   1.296  10.572  1.5099 -1.9746  1.8284
 8023SOL    HW235532   1.571   1.415  10.661 -1.0444 -0.7503 -1.0043
 8024SOL     OW35533   3.646   4.452   7.025  0.2261  0.2427  0.4698
 8024SOL    HW135534   3.590   4.437   6.949  0.4549 -0.3152  0.4123
 8024SOL    HW235535   3.665   4.359   7.038 -0.8524 -0.4715 -3.0824
 8025SOL     OW35536   0.844   4.646   5.166 -0.3296 -0.0626  0.2695
 8025SOL    HW135537   0.797   4.682   5.090  1.2204  1.5544  0.0601
 8025SOL    HW235538   0.917   4.708   5.170 -1.3729  1.1350  0.8184
 8026SOL     OW35539   2.867   3.032   5.590  0.3622  0.3963 -0.3135
 8026SOL    HW135540   2.926   3.107   5.601 -1.6749  2.1242 -1.2419
 8026SOL    HW235541   2.834   3.030   5.680  1.9652 -2.3739  0.2048
 8027SOL     OW35542   3.848   2.886   6.809  0.5939 -0.3820  0.0693
 8027SOL    HW135543   3.783   2.894   6.880 -0.1168  0.2656 -0.6459
 8027SOL    HW235544   3.815   2.948   6.744 -0.7895  1.0234  2.0867
 8028SOL     OW35545   4.081   3.717   2.722 -0.1888  0.3116 -0.4659
 8028SOL    HW135546   4.090   3.631   2.682 -1.4557  0.1402 -0.3698
 8028SOL    HW235547   4.063   3.770   2.645  1.2215  1.3891 -0.0633
 8029SOL     OW35548   1.699   0.860   5.467 -0.4880 -0.1417  0.0195
 8029SOL    HW135549   1.630   0.925   5.455 -0.8578 -1.0640 -2.9424
 8029SOL    HW235550   1.651   0.778   5.477 -1.5051  0.5980  1.1909
 8030SOL     OW35551   2.087   1.640   4.928 -0.6910 -0.4506  0.0498
 8030SOL    HW135552   2.059   1.558   4.968  1.2516 -0.6442  0.9997
 8030SOL    HW235553   2.163   1.610   4.878 -1.1939 -0.3436 -0.7802
 8031SOL     OW35554   3.106   2.668   2.821  0.0822 -0.1085 -0.4288
 8031SOL    HW135555   3.053   2.731   2.771 -0.9542 -0.7539 -0.1417
 8031SOL    HW235556   3.089   2.590   2.768  0.8148 -0.9220  0.5412
 8032SOL     OW35557   3.407   1.534   8.681 -0.2272  0.0188 -0.3932
 8032SOL    HW135558   3.358   1.500   8.756  1.2835 -1.1270  0.0814
 8032SOL    HW235559   3.479   1.571   8.733  0.2005 -0.2084 -0.8139
 8033SOL     OW35560   1.193   0.078   7.302  0.1640 -0.2393  0.3804
 8033SOL    HW135561   1.196   0.072   7.397 -0.3130 -0.2388  0.3973
 8033SOL    HW235562   1.120   0.020   7.279 -0.7014  0.5379  1.1185
 8034SOL     OW35563   0.360   2.692   9.057 -0.0326  0.0102  0.2714
 8034SOL    HW135564   0.452   2.674   9.078 -0.9634 -1.2164  3.3314
 8034SOL    HW235565   0.349   2.629   8.986  2.6141 -1.1349  0.8734
 8035SOL     OW35566   3.271   0.722   2.626 -0.2573  0.0272 -0.1787
 8035SOL    HW135567   3.192   0.695   2.579 -2.2917  2.7277  1.6948
 8035SOL    HW235568   3.231   0.778   2.693  0.4130  1.2266 -0.7937
 8036SOL     OW35569   3.542   4.513   5.955  0.6466  0.5243  0.0881
 8036SOL    HW135570   3.474   4.581   5.957  0.8807  0.6953  2.1197
 8036SOL    HW235571   3.509   4.449   5.892  0.2483  1.4681 -0.6687
 8037SOL     OW35572   1.408   3.470   6.384 -0.3926 -0.4115 -0.1215
 8037SOL    HW135573   1.484   3.416   6.364 -0.3006  0.2077 -1.4209
 8037SOL    HW235574   1.463   3.529   6.435  0.9200 -1.1661 -0.6785
 8038SOL     OW35575   1.056   2.777   4.915  0.1234 -0.0304  0.4732
 8038SOL    HW135576   1.069   2.716   4.987 -2.2811  0.1296  1.0595
 8038SOL    HW235577   1.064   2.856   4.967  0.5442  2.7440 -3.8017
 8039SOL     OW35578   0.422   0.056   3.584 -0.6344  0.1690 -0.0601
 8039SOL    HW135579   0.410   0.011   3.501 -0.5729  1.4126 -0.7421
 8039SOL    HW235580   0.513   0.037   3.605 -1.1046  0.8703  2.6340
 8040SOL     OW35581   2.356   2.113  13.655  0.6179 -0.1309 -0.6198
 8040SOL    HW135582   2.378   2.024  13.684 -2.3875 -0.9446 -0.8658
 8040SOL    HW235583   2.315   2.149  13.734 -0.6820 -4.7327  0.8197
 8041SOL     OW35584   4.537   3.877   7.399  0.6739  0.6052 -0.0903
 8041SOL    HW135585   4.538   3.884   7.494 -1.1861  1.6493 -0.1543
 8041SOL    HW235586   4.509   3.963   7.367  2.4220  1.2512  0.0981
 8042SOL     OW35587   3.131   3.667  13.804  0.5456 -0.2433  0.3874
 8042SOL    HW135588   3.125   3.761  13.787 -0.8404 -0.4559 -0.3376
 8042SOL    HW235589   3.194   3.653  13.733  0.2966  1.9119 -0.2436
 8043SOL     OW35590   0.177   1.052   7.350 -0.5331  0.6424  0.0923
 8043SOL    HW135591   0.127   0.998   7.290  2.7088 -2.4944  0.2142
 8043SOL    HW235592   0.108   1.107   7.386  0.2345  0.7644  1.3904
 8044SOL     OW35593   1.296   0.593   9.176 -0.2612 -0.3048 -0.3807
 8044SOL    HW135594   1.254   0.515   9.214 -1.2599  0.5121  0.1743
 8044SOL    HW235595   1.331   0.639   9.252  0.1167 -1.0283 -0.1104
 8045SOL     OW35596   3.332   4.442   1.109 -0.2142  0.4297  0.0083
 8045SOL    HW135597   3.294   4.515   1.159 -0.9019  0.0569  0.0309
 8045SOL    HW235598   3.331   4.392   1.190  1.6360 -0.9776 -0.8420
 8046SOL     OW35599   4.383   0.836   3.353  0.2960  0.3711 -0.2668
 8046SOL    HW135600   4.306   0.835   3.410  0.9782  2.0807  0.6941
 8046SOL    HW235601   4.356   0.771   3.289 -3.3510 -0.6444  2.3169
 8047SOL     OW35602   2.308   3.241   2.455  0.1624 -0.4249 -0.5275
 8047SOL    HW135603   2.223   3.283   2.472  1.0497  0.7030  1.1540
 8047SOL    HW235604   2.316   3.252   2.360 -0.4532  0.4656 -0.4791
 8048SOL     OW35605   1.114   0.983  10.067  0.1738 -0.8524  0.6955
 8048SOL    HW135606   1.190   0.933  10.095  1.2114  1.2382  1.6324
 8048SOL    HW235607   1.119   1.058  10.127 -0.1165 -0.6530  0.4735
 8049SOL     OW35608   3.812   0.931  12.420 -0.0358 -0.5428 -0.1920
 8049SOL    HW135609   3.722   0.928  12.388 -1.3847 -1.0005  3.6789
 8049SOL    HW235610   3.812   0.992  12.494 -2.2038 -0.8197  0.0520
 8050SOL     OW35611   1.803   2.476   8.026 -0.6513  0.7834  0.2636
 8050SOL    HW135612   1.897   2.492   8.032 -0.3397 -2.1896  3.2461
 8050SOL    HW235613   1.775   2.567   8.010 -0.9208  0.4777 -1.0224
 8051SOL     OW35614   0.973   3.998   8.134 -0.1671  0.1189 -0.2250
 8051SOL    HW135615   0.922   4.034   8.207  1.3280  1.3839  0.1978
 8051SOL    HW235616   1.059   3.979   8.172  0.2838  0.0268 -1.2964
 8052SOL     OW35617   1.921   3.710  12.873  0.4096  0.3833  0.5563
 8052SOL    HW135618   1.843   3.715  12.928  0.3627  1.8918  0.3467
 8052SOL    HW235619   1.898   3.780  12.812  3.1727  1.2323  0.4982
 8053SOL     OW35620   2.426   3.408   7.326 -0.7666 -0.1590  0.7700
 8053SOL    HW135621   2.460   3.457   7.401  2.3233 -1.5816  0.2887
 8053SOL    HW235622   2.492   3.339   7.315  1.5914  2.4511 -1.4452
 8054SOL     OW35623   3.817   0.851   4.116  0.3482  0.1326 -0.9978
 8054SOL    HW135624   3.804   0.778   4.056  0.3053 -1.3925  0.8431
 8054SOL    HW235625   3.892   0.896   4.078  0.8653 -0.0692 -0.2188
 8055SOL     OW35626   4.637   3.043   3.154  0.1483  0.0782  0.1071
 8055SOL    HW135627   4.564   3.049   3.216  0.2842  1.1705  0.1700
 8055SOL    HW235628   4.676   3.130   3.161  0.9625 -0.0660 -2.8637
 8056SOL     OW35629   4.151   2.450   6.696 -0.1040 -0.1429  0.2261
 8056SOL    HW135630   4.083   2.395   6.656 -0.1442  1.3265 -1.6860
 8056SOL    HW235631   4.233   2.422   6.656 -0.2680 -1.4789  0.8314
 8057SOL     OW35632   0.768   1.529   5.903  0.0697 -0.2688  0.2834
 8057SOL    HW135633   0.752   1.622   5.919  3.3647  0.3058  0.2324
 8057SOL    HW235634   0.682   1.499   5.934  0.7531 -1.5785  0.9266
 8058SOL     OW35635   3.978   1.102   5.812 -0.1712 -0.1024  0.8455
 8058SOL    HW135636   4.015   1.131   5.729  2.7799 -0.0765  2.1385
 8058SOL    HW235637   3.892   1.068   5.789 -0.6890  1.0428  1.0664
 8059SOL     OW35638   2.488   4.074   8.481 -0.0476  0.0592  0.2045
 8059SOL    HW135639   2.503   3.982   8.503  1.4218 -0.4001 -2.6707
 8059SOL    HW235640   2.455   4.110   8.564  0.0917 -0.0480  0.3068
 8060SOL     OW35641   1.573   0.135  15.009  0.1351 -0.6115 -0.1836
 8060SOL    HW135642   1.493   0.165  14.967 -0.3232 -0.2094  0.9706
 8060SOL    HW235643   1.636   0.188  14.961 -0.5663  0.8812  0.5573
 8061SOL     OW35644   1.339   2.209   5.313 -0.3129 -0.0980 -0.0513
 8061SOL    HW135645   1.308   2.198   5.224 -0.7171  1.9267 -0.1719
 8061SOL    HW235646   1.260   2.243   5.356  0.7189  0.0274  1.7820
 8062SOL     OW35647   1.843   3.096   3.998  0.6467 -0.0164 -0.0549
 8062SOL    HW135648   1.767   3.072   4.050 -0.5460  0.9331 -1.3640
 8062SOL    HW235649   1.901   3.022   4.015  0.1335 -0.2578  0.6084
 8063SOL     OW35650   2.186   3.534  17.262 -0.2786  0.1621 -0.8336
 8063SOL    HW135651   2.276   3.502  17.259 -0.0825  0.5525  1.1402
 8063SOL    HW235652   2.192   3.613  17.208 -1.6459  0.9958  0.2193
 8064SOL     OW35653   2.904   1.887  15.389 -0.2320 -0.1260  0.2012
 8064SOL    HW135654   2.898   1.916  15.298 -1.9780 -2.6624 -0.5171
 8064SOL    HW235655   2.998   1.893  15.401 -0.2695 -0.2093  0.5388
 8065SOL     OW35656   0.223   1.376   0.644 -0.5308  0.2721 -0.1193
 8065SOL    HW135657   0.271   1.435   0.585  2.2153 -0.9651  0.8666
 8065SOL    HW235658   0.189   1.306   0.588 -0.5752 -1.8549  2.5896
 8066SOL     OW35659   3.259   2.536   7.844 -0.5153  0.4481  0.1861
 8066SOL    HW135660   3.321   2.467   7.869 -1.2888 -0.7670 -1.2885
 8066SOL    HW235661   3.175   2.490   7.847  0.0599 -0.6680 -0.7266
 8067SOL     OW35662   1.101   4.331  14.195  0.0846  0.3837 -0.8446
 8067SOL    HW135663   1.090   4.338  14.290  2.2258 -0.9679 -0.4992
 8067SOL    HW235664   1.093   4.425  14.177 -0.9661  0.0836 -1.9004
 8068SOL     OW35665   1.612   4.261  11.200 -0.1667 -0.2184  0.1185
 8068SOL    HW135666   1.657   4.278  11.283  1.6756  0.0584 -0.9223
 8068SOL    HW235667   1.630   4.345  11.158  0.9960 -1.0790 -1.0966
 8069SOL     OW35668   0.997   4.400   2.042 -0.1136 -0.1642  0.0965
 8069SOL    HW135669   0.965   4.339   1.976 -0.9897 -1.2454  1.5381
 8069SOL    HW235670   1.092   4.392   2.034 -0.1690 -1.1925  0.5500
 8070SOL     OW35671   3.703   1.107  10.829 -0.2494 -0.0266 -0.5965
 8070SOL    HW135672   3.798   1.098  10.821 -0.3111 -1.2340  0.0452
 8070SOL    HW235673   3.691   1.200  10.807  0.3146 -0.6985 -3.7048
 8071SOL     OW35674   1.823   2.584   0.125 -0.1746  0.4141 -0.4393
 8071SOL    HW135675   1.883   2.513   0.149  1.3222  1.3814 -1.3264
 8071SOL    HW235676   1.848   2.597   0.033 -0.4764  2.7293 -0.1924
 8072SOL     OW35677   1.823   3.171  10.508  0.9617 -0.1632 -0.0343
 8072SOL    HW135678   1.779   3.241  10.460  1.0377  0.0770  0.2495
 8072SOL    HW235679   1.846   3.217  10.589  3.0587 -0.0546 -0.6751
 8073SOL     OW35680   3.108   2.667   1.823  0.1943 -0.1299  0.3750
 8073SOL    HW135681   3.039   2.601   1.826 -1.2475  1.2803 -2.1555
 8073SOL    HW235682   3.094   2.709   1.738  1.2572  1.1236  0.8280
 8074SOL     OW35683   3.354   2.122   6.422  0.1023  0.7928 -0.0181
 8074SOL    HW135684   3.448   2.108   6.430 -0.3143 -2.0904 -0.0322
 8074SOL    HW235685   3.323   2.032   6.431  0.9962  0.2832 -2.0552
 8075SOL     OW35686   0.277   1.084  11.003  0.0997 -0.0772  0.1715
 8075SOL    HW135687   0.270   1.158  10.943 -0.2798 -0.5911 -0.4121
 8075SOL    HW235688   0.288   1.012  10.941 -1.1733  0.4329 -0.6321
 8076SOL     OW35689   3.631   4.091  11.738  0.0059 -0.2037 -0.8936
 8076SOL    HW135690   3.687   4.127  11.807 -0.3526 -1.9529  0.3229
 8076SOL    HW235691   3.590   4.014  11.778  2.3595 -1.5525 -1.0768
 8077SOL     OW35692   3.714   2.860   2.635  0.6379 -0.4322 -0.3737
 8077SOL    HW135693   3.730   2.845   2.543  1.3347 -1.7554 -0.0225
 8077SOL    HW235694   3.794   2.833   2.679  0.6825 -0.9517 -0.7870
 8078SOL     OW35695   1.888   0.857   6.470 -0.0364  0.8252  0.0468
 8078SOL    HW135696   1.890   0.875   6.377 -3.0066  1.2749  0.0600
 8078SOL    HW235697   1.882   0.944   6.510  2.0262  0.6368  0.7473
 8079SOL     OW35698   0.715   2.887   2.665  0.6754 -0.2823  0.0947
 8079SOL    HW135699   0.693   2.978   2.683  0.8358 -0.4400  1.1178
 8079SOL    HW235700   0.807   2.901   2.690  0.1015  1.6257  1.0695
 8080SOL     OW35701   0.957   0.969   6.939  0.1116  0.2393  0.0749
 8080SOL    HW135702   0.871   0.936   6.968 -0.6539  1.3473 -0.9379
 8080SOL    HW235703   0.999   0.972   7.025 -0.8879  2.2073  0.4800
 8081SOL     OW35704   3.675   2.149   9.101  0.5013  0.2841  0.8933
 8081SOL    HW135705   3.764   2.119   9.119  0.8663  0.4543 -0.5902
 8081SOL    HW235706   3.684   2.237   9.139 -0.2765 -0.1983  2.1777
 8082SOL     OW35707   0.274   3.485   6.340  0.5102  0.1874 -0.4745
 8082SOL    HW135708   0.201   3.545   6.353 -0.0540 -0.9558  1.6035
 8082SOL    HW235709   0.300   3.501   6.249 -2.6662 -0.2641 -1.4946
 8083SOL     OW35710   3.937   3.849   7.509 -0.1589 -0.1167  0.0963
 8083SOL    HW135711   3.841   3.854   7.510 -0.2058 -1.3751  1.4914
 8083SOL    HW235712   3.967   3.768   7.550 -0.8715  0.5496  1.9578
 8084SOL     OW35713   0.753   1.635  13.229  0.4476  0.4031 -0.2703
 8084SOL    HW135714   0.828   1.645  13.170  1.7492  0.1654  1.3510
 8084SOL    HW235715   0.682   1.641  13.166  1.3700  2.0487 -1.1750
 8085SOL     OW35716   2.500   2.286  11.922  0.1934  0.4726  0.0385
 8085SOL    HW135717   2.516   2.222  11.991  0.2915 -0.2898 -0.6951
 8085SOL    HW235718   2.417   2.254  11.886  0.1955 -0.9927  1.3614
 8086SOL     OW35719   2.634   4.373   9.053 -0.4141 -0.3821  0.2146
 8086SOL    HW135720   2.660   4.308   8.988  1.7222  0.6441  0.0167
 8086SOL    HW235721   2.542   4.375   9.030 -0.3159 -3.1676 -0.3828
 8087SOL     OW35722   0.723   1.383  13.628 -0.4866  0.2445  0.0665
 8087SOL    HW135723   0.651   1.326  13.655  1.4474 -3.0683 -1.7139
 8087SOL    HW235724   0.697   1.428  13.548 -1.7039  4.0766  2.6020
 8088SOL     OW35725   0.487   4.132   8.247  0.9112 -0.1044  0.4002
 8088SOL    HW135726   0.422   4.090   8.302 -0.4042 -0.5687 -1.4959
 8088SOL    HW235727   0.534   4.192   8.305  1.3237  0.5943 -0.6620
 8089SOL     OW35728   4.381   0.160   4.556  0.4961 -0.1370 -0.1186
 8089SOL    HW135729   4.358   0.077   4.513  0.3886  1.4677 -3.1802
 8089SOL    HW235730   4.336   0.220   4.496  0.9482 -0.5293 -0.8592
 8090SOL     OW35731   4.099   2.921   3.414 -0.3095 -0.4889  0.7081
 8090SOL    HW135732   4.047   2.842   3.432  3.1350 -3.0597 -0.4672
 8090SOL    HW235733   4.183   2.901   3.455 -0.5182  1.0239  1.8492
 8091SOL     OW35734   3.425   0.321  16.771  0.3164  0.1656  0.0677
 8091SOL    HW135735   3.400   0.251  16.711  1.0704 -0.1329  0.1094
 8091SOL    HW235736   3.358   0.303  16.837 -0.9629  2.1318 -0.6906
 8092SOL     OW35737   1.079   4.333  14.472 -0.2951 -0.2626 -0.0518
 8092SOL    HW135738   1.045   4.381  14.547 -0.9754 -1.0916  0.1704
 8092SOL    HW235739   1.164   4.317  14.514 -0.1446 -1.1440 -0.6898
 8093SOL     OW35740   0.710   3.571   6.595 -0.5443  0.1222 -0.1253
 8093SOL    HW135741   0.794   3.609   6.569  1.1795 -2.7991  1.2368
 8093SOL    HW235742   0.740   3.510   6.661 -0.6581  1.5329  1.2395
 8094SOL     OW35743   0.279   3.259   7.787  0.3461 -0.2086 -0.5157
 8094SOL    HW135744   0.317   3.184   7.741  0.8282 -0.1626 -0.1913
 8094SOL    HW235745   0.340   3.272   7.858  3.6605  0.3308 -3.4708
 8095SOL     OW35746   1.415   3.306   5.517 -0.2775  0.5849  0.1769
 8095SOL    HW135747   1.426   3.401   5.527  0.6510  0.5797 -0.8601
 8095SOL    HW235748   1.319   3.306   5.516 -0.2586  0.6042 -0.9544
 8096SOL     OW35749   0.387   1.142  11.267 -0.7688  0.3435  0.3910
 8096SOL    HW135750   0.332   1.122  11.190  0.2048 -0.5869 -0.0534
 8096SOL    HW235751   0.332   1.118  11.342 -0.5133  0.8311  0.7311
 8097SOL     OW35752   3.423   1.834   8.637 -0.3156 -0.1114  0.9877
 8097SOL    HW135753   3.503   1.827   8.689 -0.1316  3.9616  1.2991
 8097SOL    HW235754   3.455   1.800   8.553  1.4523 -0.0470  1.6348
 8098SOL     OW35755   2.505   1.404  17.647 -0.8480 -0.1540  0.8624
 8098SOL    HW135756   2.492   1.315  17.613  2.8209 -0.2719 -0.1590
 8098SOL    HW235757   2.428   1.409   0.024 -1.3162  1.7605  0.0649
 8099SOL     OW35758   0.477   4.288  14.724 -0.4648  0.2725 -0.1901
 8099SOL    HW135759   0.487   4.269  14.818 -1.9814  1.2582  0.1629
 8099SOL    HW235760   0.420   4.217  14.694 -0.1428  1.3394 -3.2430
 8100SOL     OW35761   4.631   1.862   2.978 -0.3603 -0.4281 -0.1057
 8100SOL    HW135762   4.704   1.899   3.028 -0.7345 -0.3340  0.3628
 8100SOL    HW235763   4.677   1.786   2.942  2.0127  0.1034  1.8017
 8101SOL     OW35764   0.671   1.172   7.389 -0.5958 -0.1880  0.3508
 8101SOL    HW135765   0.668   1.258   7.430  1.9867 -0.6613  1.5565
 8101SOL    HW235766   0.578   1.157   7.373 -1.1346  1.9779  1.5127
 8102SOL     OW35767   3.881   4.465   2.868 -0.7186  0.4601 -0.0575
 8102SOL    HW135768   3.921   4.510   2.794  0.9731  1.7658  1.6245
 8102SOL    HW235769   3.942   4.397   2.896 -0.6349  0.3883 -0.4246
 8103SOL     OW35770   2.485   0.229   5.010  0.1734  0.2840  0.4982
 8103SOL    HW135771   2.548   0.166   5.044 -0.7614  0.2573  2.1820
 8103SOL    HW235772   2.480   0.209   4.916  0.4756 -0.0978  0.5637
 8104SOL     OW35773   2.501   2.710   3.464  0.0819  0.5058  0.3531
 8104SOL    HW135774   2.429   2.680   3.409 -0.2118  0.9026  0.5198
 8104SOL    HW235775   2.511   2.645   3.534  1.6041 -0.4045 -0.7024
 8105SOL     OW35776   1.402   2.760   2.188 -0.3621  0.1220  0.2964
 8105SOL    HW135777   1.382   2.694   2.121 -2.6808  0.4077  0.7033
 8105SOL    HW235778   1.395   2.709   2.268 -0.2493  1.5157  1.1869
 8106SOL     OW35779   1.725   1.073   4.740  0.7009  0.4097 -0.3551
 8106SOL    HW135780   1.661   1.005   4.718  0.5338  0.9500 -1.5714
 8106SOL    HW235781   1.783   1.021   4.796  1.0875  0.9165 -0.2866
 8107SOL     OW35782   3.183   0.138   1.474  0.0113  0.4438 -0.2721
 8107SOL    HW135783   3.204   0.230   1.465  0.8886  0.4272  1.6091
 8107SOL    HW235784   3.092   0.135   1.445 -0.2280 -0.9049  0.5966
 8108SOL     OW35785   2.846   2.086   5.062 -0.2904 -0.0254  0.9319
 8108SOL    HW135786   2.900   2.117   5.136 -3.0621 -2.0085  3.7796
 8108SOL    HW235787   2.904   2.084   4.986 -2.7105  2.0201 -0.9470
 8109SOL     OW35788   4.487   0.569   4.357  0.4657  0.1411  0.2020
 8109SOL    HW135789   4.439   0.578   4.275  2.3465 -0.6602 -0.9956
 8109SOL    HW235790   4.516   0.478   4.347  3.9425  1.4381 -1.6145
 8110SOL     OW35791   0.711   0.247  11.085 -0.2424 -0.8080 -0.5210
 8110SOL    HW135792   0.743   0.277  11.000  0.9086  0.8614  0.5021
 8110SOL    HW235793   0.718   0.332  11.129  0.1838 -0.9683 -0.2730
 8111SOL     OW35794   1.879   3.140   8.326  0.1246 -0.2828 -0.4820
 8111SOL    HW135795   1.901   3.119   8.417 -0.0527 -1.6087 -0.7500
 8111SOL    HW235796   1.832   3.223   8.335  0.5157 -0.1891  0.7764
 8112SOL     OW35797   1.670   2.486   2.158 -0.0414  0.2705  0.7037
 8112SOL    HW135798   1.580   2.465   2.134  0.1725  0.3684 -0.2114
 8112SOL    HW235799   1.712   2.404   2.132 -0.2559  0.2444  0.4453
 8113SOL     OW35800   3.619   0.165   8.516 -0.0963  0.5352  0.0964
 8113SOL    HW135801   3.541   0.221   8.512 -0.1308  0.4902  0.1396
 8113SOL    HW235802   3.576   0.083   8.542 -1.0711  0.9723 -0.1499
 8114SOL     OW35803   1.442   1.041   7.504 -0.1654 -0.0355  0.1164
 8114SOL    HW135804   1.427   0.967   7.563  0.1597 -1.5654 -1.7148
 8114SOL    HW235805   1.459   0.992   7.423  0.2659  0.4113 -0.0567
 8115SOL     OW35806   2.374   3.462   1.906 -0.4430  0.1146  0.2971
 8115SOL    HW135807   2.434   3.500   1.971  0.5351 -0.6992 -0.1198
 8115SOL    HW235808   2.407   3.372   1.917 -0.9707 -0.3072 -1.6062
 8116SOL     OW35809   3.894   1.436   1.280  0.1585  0.4916  0.0187
 8116SOL    HW135810   3.808   1.473   1.262  0.3204  1.0066  0.3293
 8116SOL    HW235811   3.877   1.348   1.315 -1.4199  0.4800 -0.8033
 8117SOL     OW35812   4.516   1.326   4.822  0.2735 -0.0239  0.0248
 8117SOL    HW135813   4.512   1.253   4.883  0.0913  0.6442  0.8194
 8117SOL    HW235814   4.606   1.358   4.813 -0.5396  2.1054 -0.4838
 8118SOL     OW35815   1.548   4.691   5.088 -0.0402 -0.2295 -0.5382
 8118SOL    HW135816   1.476   4.706   5.149  1.8149  1.2739  1.2871
 8118SOL    HW235817   1.614   4.653   5.147 -0.9009 -0.3131  0.3736
 8119SOL     OW35818   1.655   4.082  17.344 -0.3829  0.0737 -0.6693
 8119SOL    HW135819   1.619   3.998  17.314 -0.0262 -0.0780 -0.6643
 8119SOL    HW235820   1.710   4.108  17.270  0.3135 -0.9280 -0.4925
 8120SOL     OW35821   1.293   0.308   0.369  0.1984 -0.1800 -0.1043
 8120SOL    HW135822   1.356   0.352   0.425  0.6104 -1.0548  0.1275
 8120SOL    HW235823   1.248   0.266   0.442 -1.5115  0.5132 -0.7523
 8121SOL     OW35824   1.113   4.626  12.869  0.0275 -0.5300  0.1757
 8121SOL    HW135825   1.162   4.599  12.792 -1.6696 -1.1387 -0.6894
 8121SOL    HW235826   1.186   4.670  12.912 -0.0947  0.9814 -1.1681
 8122SOL     OW35827   1.585   1.132  17.116  0.1264 -0.2815  0.0119
 8122SOL    HW135828   1.593   1.227  17.106  2.8718 -0.5279 -0.0720
 8122SOL    HW235829   1.674   1.118  17.146 -0.2943 -0.6327  1.1027
 8123SOL     OW35830   4.277   1.535   9.944  0.2371  0.5516 -0.4688
 8123SOL    HW135831   4.307   1.470  10.008 -1.2072 -1.6751 -2.0804
 8123SOL    HW235832   4.339   1.521   9.872  1.0513 -0.1137  0.3567
 8124SOL     OW35833   1.002   4.446  15.633 -0.1466 -0.2659  0.0551
 8124SOL    HW135834   1.008   4.394  15.552  0.8621 -1.8873  1.1724
 8124SOL    HW235835   1.095   4.469  15.635 -0.2357  0.0414  0.7571
 8125SOL     OW35836   3.493   3.905   7.021 -0.2903 -0.3600  0.5272
 8125SOL    HW135837   3.455   3.819   7.005 -0.2600  0.0734 -1.8645
 8125SOL    HW235838   3.546   3.921   6.943 -2.6382  1.0264 -0.7577
 8126SOL     OW35839   4.289   0.636   8.923 -0.2822 -0.1048 -0.6583
 8126SOL    HW135840   4.255   0.589   8.998 -1.5440 -0.6726 -1.5881
 8126SOL    HW235841   4.262   0.728   8.930  0.1001 -0.1526  1.3463
 8127SOL     OW35842   1.851   3.896  17.155 -0.2357  0.0352 -0.1349
 8127SOL    HW135843   1.850   3.829  17.224  0.4856  0.6474  0.4788
 8127SOL    HW235844   1.761   3.905  17.125  0.1312  1.0523 -0.9380
 8128SOL     OW35845   4.689   1.070   8.206 -0.3545 -0.0545  0.6632
 8128SOL    HW135846   4.665   1.136   8.270 -0.1087 -0.5945  1.3118
 8128SOL    HW235847   0.062   1.090   8.189 -0.6957  0.7257 -0.3265
 8129SOL     OW35848   2.288   0.361   9.413  0.0025 -0.2310 -0.3499
 8129SOL    HW135849   2.245   0.379   9.329  0.0595  2.0872  0.1206
 8129SOL    HW235850   2.346   0.438   9.419 -2.2247  1.4415 -0.4932
 8130SOL     OW35851   0.892   3.572  13.947 -0.2628  0.3923  0.1321
 8130SOL    HW135852   0.888   3.590  14.041  0.2242 -0.2012  0.2657
 8130SOL    HW235853   0.908   3.477  13.940  0.2044  0.5064 -0.3145
 8131SOL     OW35854   4.687   4.279   3.494  0.1991  0.1732  0.6465
 8131SOL    HW135855   4.653   4.256   3.407 -2.1483  1.4059  1.2525
 8131SOL    HW235856   0.003   4.192   3.515  0.8142  0.2444 -0.0828
 8132SOL     OW35857   1.622   4.698  13.516 -0.9060 -0.0847 -0.6605
 8132SOL    HW135858   1.709   4.695  13.477 -1.0006  0.3986 -0.9089
 8132SOL    HW235859   1.580   4.663  13.438 -0.7976 -0.2375 -0.6491
 8133SOL     OW35860   2.556   2.016   4.896 -0.4887  0.5287  0.3085
 8133SOL    HW135861   2.594   1.999   4.982  1.4252  1.1672 -0.4109
 8133SOL    HW235862   2.619   2.082   4.865  2.1257 -0.4479  3.5707
 8134SOL     OW35863   3.836   3.391   2.594 -0.3850  0.0209  0.2864
 8134SOL    HW135864   3.753   3.440   2.588 -0.7708 -0.6733 -0.0771
 8134SOL    HW235865   3.823   3.346   2.677 -0.4741 -1.9183 -0.7845
 8135SOL     OW35866   0.225   1.062   9.278  0.4319 -0.1800 -0.4822
 8135SOL    HW135867   0.228   1.148   9.236  0.2107 -1.0589 -2.2745
 8135SOL    HW235868   0.141   1.055   9.324 -0.4764  6.1745 -1.1494
 8136SOL     OW35869   4.021   0.449   4.036  0.4335 -0.4763 -0.3397
 8136SOL    HW135870   3.935   0.460   3.995 -0.1676 -3.7867  0.0768
 8136SOL    HW235871   4.079   0.481   3.967 -1.1074 -0.2906 -1.5590
 8137SOL     OW35872   3.427   2.997   5.634  0.8541 -0.3852 -0.4270
 8137SOL    HW135873   3.513   2.987   5.594 -0.0835 -1.5327 -2.1723
 8137SOL    HW235874   3.413   2.916   5.682  0.4115 -0.2753 -0.3708
 8138SOL     OW35875   0.139   0.757  10.259 -0.1298  0.1973 -0.0580
 8138SOL    HW135876   0.112   0.665  10.252 -1.8414  0.8130 -1.5602
 8138SOL    HW235877   0.173   0.780  10.172  0.6143  1.4790  0.5734
 8139SOL     OW35878   1.919   2.677  14.921 -0.6500 -0.0920  0.5383
 8139SOL    HW135879   1.873   2.607  14.874 -0.3623 -0.3965  0.7134
 8139SOL    HW235880   1.974   2.722  14.857 -2.5069  1.9688  0.3593
 8140SOL     OW35881   3.267   0.377   8.387 -0.2018  0.0971 -0.0036
 8140SOL    HW135882   3.300   0.310   8.447 -1.0472 -0.1042  0.2315
 8140SOL    HW235883   3.184   0.397   8.430 -0.3435  1.2776 -0.8268
 8141SOL     OW35884   3.216   2.945  17.277 -0.0388  0.1458  0.1662
 8141SOL    HW135885   3.201   3.027  17.230  0.3821  0.0586 -0.1190
 8141SOL    HW235886   3.162   2.966  17.353  2.0434  0.9936  1.4103
 8142SOL     OW35887   4.501   3.239   6.786 -0.2816 -0.1291  0.1417
 8142SOL    HW135888   4.440   3.185   6.737  1.3142 -1.5002 -0.3446
 8142SOL    HW235889   4.493   3.204   6.874 -0.8897 -0.9873 -0.2552
 8143SOL     OW35890   3.002   2.383   4.970 -0.0879  0.4320 -0.2502
 8143SOL    HW135891   3.038   2.324   4.905 -2.1856  1.8478 -2.6771
 8143SOL    HW235892   3.004   2.342   5.056 -0.3010  0.2056 -0.3528
 8144SOL     OW35893   4.155   0.845   0.135 -0.5593  0.4673 -0.2020
 8144SOL    HW135894   4.161   0.751   0.149 -2.2821  0.5899  1.5022
 8144SOL    HW235895   4.097   0.844   0.059  1.5314 -0.6996 -1.7689
 8145SOL     OW35896   4.663   2.333   3.086  0.0304 -0.1262 -0.0728
 8145SOL    HW135897   0.027   2.291   3.108 -0.6328  0.0549  2.7491
 8145SOL    HW235898   4.613   2.268   3.036 -0.0959  0.6427 -0.9462
 8146SOL     OW35899   3.149   2.453   9.275  0.2158 -0.2597 -0.2624
 8146SOL    HW135900   3.133   2.503   9.195 -0.2376 -0.0498 -0.0349
 8146SOL    HW235901   3.222   2.397   9.248 -0.5975 -1.5945  0.2862
 8147SOL     OW35902   1.034   2.897  13.269 -0.3358  0.7700  0.1888
 8147SOL    HW135903   0.942   2.880  13.247 -1.3981  3.2085  2.7261
 8147SOL    HW235904   1.068   2.818  13.311  0.7825  0.5245 -1.1907
 8148SOL     OW35905   2.811   1.829   4.321 -0.1102  0.0358 -0.4009
 8148SOL    HW135906   2.766   1.795   4.398  0.6864  0.0316  0.0611
 8148SOL    HW235907   2.841   1.913   4.356  2.5617 -0.7397 -0.9009
 8149SOL     OW35908   1.616   1.914   4.991  0.4222 -0.2987  0.1704
 8149SOL    HW135909   1.693   1.868   4.956  1.0308 -1.3652  2.8924
 8149SOL    HW235910   1.561   1.837   5.006  1.3654 -1.0571 -0.3193
 8150SOL     OW35911   1.738   2.659  11.220  0.5458  0.2951  0.4966
 8150SOL    HW135912   1.833   2.675  11.224  0.4116  1.0353  0.6718
 8150SOL    HW235913   1.725   2.717  11.295  1.5543 -2.1951  2.6040
 8151SOL     OW35914   0.462   4.570   0.194 -0.5199  0.2615 -0.0196
 8151SOL    HW135915   0.455   4.476   0.212  1.5615  0.1307  0.0863
 8151SOL    HW235916   0.387   4.588   0.137 -0.2641  3.2517  0.6138
 8152SOL     OW35917   2.395   3.130   9.494 -0.7206  0.3017 -0.2070
 8152SOL    HW135918   2.460   3.061   9.511 -0.7142  0.6666  1.2501
 8152SOL    HW235919   2.386   3.144   9.588 -0.5784  1.9530 -0.4414
 8153SOL     OW35920   1.037   0.361  13.094  0.2029  0.0786 -0.0613
 8153SOL    HW135921   0.943   0.344  13.102 -0.2261  1.8920 -1.0550
 8153SOL    HW235922   1.060   0.288  13.037 -0.0529  0.0622 -0.1416
 8154SOL     OW35923   3.437   3.853   3.628  0.3174 -0.4330  0.0814
 8154SOL    HW135924   3.499   3.806   3.573  1.2126 -0.5096  1.1592
 8154SOL    HW235925   3.502   3.862   3.698 -2.2199 -2.1872  2.6569
 8155SOL     OW35926   3.383   1.650   5.413 -0.6251 -0.3864 -0.0402
 8155SOL    HW135927   3.347   1.717   5.472  0.3638  1.5055 -1.5852
 8155SOL    HW235928   3.453   1.697   5.368  0.2095 -1.5707  0.0391
 8156SOL     OW35929   4.405   4.378   4.884  0.1035  0.2009  0.1656
 8156SOL    HW135930   4.379   4.469   4.875  1.0133  0.6445  2.0218
 8156SOL    HW235931   4.431   4.366   4.793  2.1679  1.8953  0.5493
 8157SOL     OW35932   1.331   3.646   3.923 -0.1467 -0.2446 -0.2139
 8157SOL    HW135933   1.276   3.725   3.922 -0.6764 -0.6057  0.3011
 8157SOL    HW235934   1.408   3.682   3.878 -0.1737 -0.2143 -0.2356
 8158SOL     OW35935   0.531   3.357   0.926  0.0303 -0.2056  0.3753
 8158SOL    HW135936   0.499   3.294   0.861 -1.1510  0.8396 -0.0561
 8158SOL    HW235937   0.574   3.295   0.985 -2.2841 -0.5023  1.7731
 8159SOL     OW35938   3.254   2.409   5.796 -0.3138 -0.0332 -0.1168
 8159SOL    HW135939   3.347   2.424   5.809 -0.4604  0.2411  0.6109
 8159SOL    HW235940   3.220   2.434   5.882  0.0850  0.6515 -0.1522
 8160SOL     OW35941   0.387   3.382   8.037 -0.1545 -0.3497  0.0168
 8160SOL    HW135942   0.333   3.380   8.116 -0.1043 -1.4922  0.0183
 8160SOL    HW235943   0.445   3.309   8.055 -0.7091 -0.5004  1.1803
 8161SOL     OW35944   2.086   0.165   8.015  0.0497 -0.0082  0.3137
 8161SOL    HW135945   1.996   0.135   8.004  0.2804 -0.6210  0.0655
 8161SOL    HW235946   2.112   0.173   7.923  0.0259 -3.7066 -0.0253
 8162SOL     OW35947   1.100   0.914   1.203 -0.2071 -0.0993 -0.2727
 8162SOL    HW135948   1.184   0.909   1.158  1.4233  0.3896  2.6817
 8162SOL    HW235949   1.094   0.829   1.246 -1.4124 -0.1344 -0.5022
 8163SOL     OW35950   2.909   0.146   4.240  0.1986  0.0079 -0.3354
 8163SOL    HW135951   2.834   0.093   4.213 -1.8329  3.0105 -0.5961
 8163SOL    HW235952   2.966   0.074   4.216 -0.2744 -0.6808  0.6260
 8164SOL     OW35953   3.727   2.464  13.031  0.0856 -0.4625  0.6164
 8164SOL    HW135954   3.738   2.388  12.974 -0.9670  0.4001 -0.7249
 8164SOL    HW235955   3.646   2.440  13.076 -1.6929 -0.2190 -2.4504
 8165SOL     OW35956   3.984   2.686  15.350 -0.1866  0.0789  0.1887
 8165SOL    HW135957   4.079   2.688  15.361 -0.2122 -1.7360  0.8684
 8165SOL    HW235958   3.974   2.712  15.259 -2.0220 -1.4029 -0.0407
 8166SOL     OW35959   1.913   0.508   6.623 -0.5261  0.1225  0.1249
 8166SOL    HW135960   1.988   0.548   6.579 -0.1735 -0.1929  0.4419
 8166SOL    HW235961   1.959   0.468   6.697  1.2226  1.9653  0.0192
 8167SOL     OW35962   4.232   4.606   3.336 -0.4981  0.6448  0.1052
 8167SOL    HW135963   4.327   4.611   3.345 -0.4339  0.7809 -0.6803
 8167SOL    HW235964   4.223   4.514   3.362 -1.9890  0.7662 -0.0286
 8168SOL     OW35965   1.373   1.064  15.627  0.0231 -0.3747 -0.0868
 8168SOL    HW135966   1.343   1.062  15.536  1.5423  1.3908 -0.6248
 8168SOL    HW235967   1.462   1.029  15.627 -0.3029 -1.2092 -1.3557
 8169SOL     OW35968   1.659   1.378   5.908 -0.0918  0.1058  0.1388
 8169SOL    HW135969   1.587   1.438   5.929 -0.8547 -0.5714 -0.5048
 8169SOL    HW235970   1.634   1.304   5.964  2.0341 -0.8950 -0.2632
 8170SOL     OW35971   2.602   4.129   2.018 -0.1346 -0.1088 -0.7619
 8170SOL    HW135972   2.660   4.092   1.952  1.1742 -0.0634  0.3757
 8170SOL    HW235973   2.659   4.199   2.050 -2.0676  0.1868  2.0600
 8171SOL     OW35974   4.238   4.363   6.755  0.2518 -0.4910 -0.3888
 8171SOL    HW135975   4.171   4.400   6.697  0.4586  2.9700  1.6165
 8171SOL    HW235976   4.198   4.276   6.753  0.2680 -0.4795 -1.1233
 8172SOL     OW35977   0.736   0.588   8.454  0.0582 -0.9351 -0.1116
 8172SOL    HW135978   0.691   0.581   8.539 -0.5605  2.8027 -0.1304
 8172SOL    HW235979   0.728   0.502   8.412  0.4942 -0.7559 -0.5527
 8173SOL     OW35980   0.897   1.969   4.266 -0.0486  0.1669 -0.1722
 8173SOL    HW135981   0.974   2.023   4.247  0.9914 -1.7898 -1.5595
 8173SOL    HW235982   0.930   1.879   4.270  0.1943  0.2686  0.1489
 8174SOL     OW35983   1.708   4.204   8.444  0.2333 -0.3480 -0.0796
 8174SOL    HW135984   1.784   4.161   8.405  0.5569  0.1514 -0.0060
 8174SOL    HW235985   1.689   4.131   8.502  1.5537  1.6047  2.8332
 8175SOL     OW35986   1.557   0.257  12.451  0.1280 -0.2821 -0.7225
 8175SOL    HW135987   1.634   0.204  12.430 -0.2629 -0.5078 -1.5978
 8175SOL    HW235988   1.490   0.208  12.404 -0.5717 -1.2000  1.2273
 8176SOL     OW35989   3.519   0.630   4.305 -0.1758  0.2996  0.2181
 8176SOL    HW135990   3.504   0.561   4.370 -0.7724  0.4964  0.2941
 8176SOL    HW235991   3.607   0.662   4.323  0.3014 -1.0233  0.2599
 8177SOL     OW35992   1.827   3.503   2.208 -0.2201  1.0325 -0.1570
 8177SOL    HW135993   1.876   3.440   2.157 -0.5195 -0.0449  0.9009
 8177SOL    HW235994   1.775   3.440   2.257  1.2070 -0.2222 -0.2752
 8178SOL     OW35995   1.212   1.754   5.653 -0.5792  0.2224  0.0090
 8178SOL    HW135996   1.304   1.765   5.678 -0.6582 -1.3304  1.0492
 8178SOL    HW235997   1.216   1.696   5.577 -0.9069 -2.0660  1.7135
 8179SOL     OW35998   0.565   2.857   5.970 -0.2111  0.9012  0.3135
 8179SOL    HW135999   0.550   2.813   5.887 -2.2530 -0.2448  1.2805
 8179SOL    HW236000   0.659   2.874   5.970 -0.2590  1.2069  1.2021
 8180SOL     OW36001   4.614   4.111  17.149 -0.3037  0.2919 -0.2174
 8180SOL    HW136002   4.583   4.155  17.228 -0.1364  1.1014 -0.6032
 8180SOL    HW236003   4.535   4.062  17.125  0.8603 -2.1474  0.8608
 8181SOL     OW36004   2.431   2.731  15.216  0.1161  0.6311 -0.5057
 8181SOL    HW136005   2.366   2.801  15.208 -1.5031 -0.6672  1.2054
 8181SOL    HW236006   2.478   2.734  15.132  1.5233 -1.8879  0.2165
 8182SOL     OW36007   3.705   4.036   3.509 -0.1097 -0.0304  0.3417
 8182SOL    HW136008   3.674   3.948   3.489  1.9541 -0.7974  0.4709
 8182SOL    HW236009   3.708   4.084   3.426  1.0637 -0.4186  0.1483
 8183SOL     OW36010   0.858   0.870   9.746 -0.0321  0.3392  0.3177
 8183SOL    HW136011   0.795   0.822   9.800  0.1341 -1.7905 -1.3509
 8183SOL    HW236012   0.886   0.947   9.795 -1.7104  0.8184  0.5256
 8184SOL     OW36013   0.447   4.614   5.417  0.3474 -0.2430  0.0774
 8184SOL    HW136014   0.540   4.595   5.427  0.2374 -0.7669  0.1357
 8184SOL    HW236015   0.427   4.573   5.332  1.1890 -1.0552  0.2722
 8185SOL     OW36016   4.532   0.566   9.389 -0.1812  0.0680  0.4299
 8185SOL    HW136017   4.474   0.587   9.463 -1.5496  2.7680 -1.3858
 8185SOL    HW236018   4.598   0.507   9.426 -1.9627 -1.4984  1.1127
 8186SOL     OW36019   3.494   4.609   9.063 -0.1919  0.1080 -0.2576
 8186SOL    HW136020   3.499   4.587   8.970 -1.1270 -1.0118 -0.0333
 8186SOL    HW236021   3.581   4.576   9.085  1.2072  3.5913 -0.4776
 8187SOL     OW36022   1.797   0.625   3.117 -0.9112  0.6200  0.4223
 8187SOL    HW136023   1.779   0.689   3.048 -0.8731  1.4399  1.1661
 8187SOL    HW236024   1.888   0.654   3.129 -0.5507 -0.3417  0.0182
 8188SOL     OW36025   3.906   1.027   4.632 -0.1351  0.1757  0.0284
 8188SOL    HW136026   3.877   0.989   4.549  1.2735 -1.0593  0.1009
 8188SOL    HW236027   3.999   1.019   4.612 -0.1423 -1.3217  0.5970
 8189SOL     OW36028   0.581   0.912   0.798 -0.2241 -0.1202  0.6428
 8189SOL    HW136029   0.643   0.840   0.789 -1.9780 -1.4165 -1.1985
 8189SOL    HW236030   0.641   0.977   0.762  0.5367 -0.6430  0.9853
 8190SOL     OW36031   0.151   2.337   8.501 -0.2162  0.0974 -0.1959
 8190SOL    HW136032   0.232   2.301   8.466  0.5863  2.2230 -0.5164
 8190SOL    HW236033   0.180   2.368   8.587 -0.0501  1.8225 -0.8746
 8191SOL     OW36034   4.417   3.671   8.304 -0.3601  0.0845 -0.6734
 8191SOL    HW136035   4.499   3.644   8.263  0.5961 -0.9513  1.8944
 8191SOL    HW236036   4.401   3.593   8.357 -3.7219  1.8310  0.9214
 8192SOL     OW36037   1.682   0.698   6.629 -0.0206  0.1248 -0.0718
 8192SOL    HW136038   1.764   0.665   6.665 -0.1409  0.2281  0.2932
 8192SOL    HW236039   1.710   0.735   6.545  1.0378  0.5144  0.4569
 8193SOL     OW36040   4.133   0.747   8.265 -0.2669  0.1342  0.1614
 8193SOL    HW136041   4.152   0.678   8.329  1.6268  2.0261  1.6405
 8193SOL    HW236042   4.104   0.694   8.191 -2.1275  2.5950 -0.8942
 8194SOL     OW36043   1.083   1.577   6.923 -0.6578  0.4138 -0.9522
 8194SOL    HW136044   1.089   1.603   7.015 -3.0206  0.5379 -0.8296
 8194SOL    HW236045   0.995   1.542   6.916 -1.4348  2.1050  0.2261
 8195SOL     OW36046   3.320   3.586   4.229  0.6890  0.4428 -0.4473
 8195SOL    HW136047   3.263   3.510   4.223  0.2217  0.7397  0.2775
 8195SOL    HW236048   3.259   3.655   4.203  1.0186  0.5006 -1.0615
 8196SOL     OW36049   4.061   0.957   7.243 -0.3953  0.0201 -0.1674
 8196SOL    HW136050   3.972   0.981   7.268  0.2746 -0.0026  2.1727
 8196SOL    HW236051   4.066   1.004   7.159 -0.1165  0.2608 -0.0155
 8197SOL     OW36052   4.485   2.651   9.616  0.0740 -0.0836  0.5466
 8197SOL    HW136053   4.550   2.630   9.683  0.0069 -2.6013 -0.1531
 8197SOL    HW236054   4.487   2.746   9.613 -0.7653 -0.1338 -2.0189
 8198SOL     OW36055   2.575   2.386   6.116  0.1672 -0.4204 -0.5075
 8198SOL    HW136056   2.584   2.349   6.204  0.8878  0.4477 -0.2095
 8198SOL    HW236057   2.495   2.435   6.131 -1.1787 -3.1875  1.3357
 8199SOL     OW36058   4.349   0.379  16.115  0.6815  0.0523  0.0685
 8199SOL    HW136059   4.259   0.347  16.116  0.1911  1.4493  0.0803
 8199SOL    HW236060   4.385   0.303  16.069 -0.2047  0.3258 -1.0670
 8200SOL     OW36061   0.656   1.059   9.964 -0.5617  0.2852 -0.0828
 8200SOL    HW136062   0.739   1.020   9.992 -1.4468  0.3134  2.5302
 8200SOL    HW236063   0.660   1.155   9.956 -1.9475  0.3178 -0.2881
 8201SOL     OW36064   2.710   2.663   0.980  0.1101 -0.8069  0.0500
 8201SOL    HW136065   2.717   2.730   0.913 -0.6561  0.1090  0.8810
 8201SOL    HW236066   2.773   2.596   0.953  1.3700  0.0639  0.8004
 8202SOL     OW36067   2.008   0.227  15.346  0.0157  0.1737  0.1505
 8202SOL    HW136068   1.916   0.254  15.347 -0.3144 -0.9702 -0.0279
 8202SOL    HW236069   2.050   0.274  15.418 -0.8529  2.2417 -0.6931
 8203SOL     OW36070   0.998   3.579   6.609  0.4431 -0.2508  0.1836
 8203SOL    HW136071   1.034   3.575   6.698  0.6861  0.9667  0.1428
 8203SOL    HW236072   1.062   3.642   6.577 -0.6263  1.3397  1.1524
 8204SOL     OW36073   3.626   2.844   7.412  0.4309  0.0785  0.1374
 8204SOL    HW136074   3.691   2.783   7.448  0.6701  0.5055  0.4463
 8204SOL    HW236075   3.578   2.792   7.348 -0.7076 -1.8220  2.5315
 8205SOL     OW36076   2.888   2.052  15.797  0.0702  1.0476  0.0031
 8205SOL    HW136077   2.891   2.140  15.834  0.3478  0.4083  1.5120
 8205SOL    HW236078   2.972   2.021  15.830 -0.8315 -3.4502 -1.9003
 8206SOL     OW36079   2.902   2.803   2.639  0.5180  1.0073  0.0903
 8206SOL    HW136080   2.853   2.859   2.699 -0.3130 -0.4192  0.7495
 8206SOL    HW236081   2.934   2.865   2.573  0.8698  0.9121  0.1726
 8207SOL     OW36082   4.093   3.339   3.102  0.7180  0.0422  0.0061
 8207SOL    HW136083   4.157   3.269   3.108  0.1029 -0.3906  1.4040
 8207SOL    HW236084   4.132   3.397   3.036  0.8583 -0.5107 -0.3947
 8208SOL     OW36085   2.415   2.592  13.033  0.4384  0.5188  0.0232
 8208SOL    HW136086   2.397   2.607  12.940  1.5357 -1.6159 -0.5569
 8208SOL    HW236087   2.467   2.670  13.053 -1.2165  2.0794 -1.7219
 8209SOL     OW36088   0.311   1.079   8.779  0.5123  0.3428 -0.4220
 8209SOL    HW136089   0.290   0.991   8.748 -3.5277  0.5916  1.5076
 8209SOL    HW236090   0.230   1.110   8.820  0.2187  2.0275 -2.3011
 8210SOL     OW36091   4.606   0.455  16.632 -0.2534  0.3089  0.4028
 8210SOL    HW136092   4.694   0.490  16.643  0.4127 -1.3274  0.1660
 8210SOL    HW236093   4.612   0.361  16.643  0.7630  0.5319  1.7953
 8211SOL     OW36094   1.544   1.489   2.402 -0.3102  0.4297  0.2947
 8211SOL    HW136095   1.583   1.477   2.488  1.7549 -1.0818 -0.8451
 8211SOL    HW236096   1.573   1.579   2.392  1.1313 -0.0356  0.3711
 8212SOL     OW36097   1.558   4.337  10.795  0.6104  0.7188  0.7780
 8212SOL    HW136098   1.541   4.423  10.834 -0.8549  1.3085 -1.1556
 8212SOL    HW236099   1.603   4.297  10.869 -0.0877  2.0524  1.9335
 8213SOL     OW36100   3.885   1.121   1.793 -1.0762  0.6424  0.4033
 8213SOL    HW136101   3.806   1.174   1.781 -1.2899  0.6072  1.6833
 8213SOL    HW236102   3.958   1.180   1.775  1.6900 -2.9572 -0.1625
 8214SOL     OW36103   0.847   0.601  16.040  0.1859  0.1297  0.0199
 8214SOL    HW136104   0.859   0.569  16.129 -0.8377  0.9252  0.4433
 8214SOL    HW236105   0.831   0.693  16.059 -1.1117 -0.2493  0.7935
 8215SOL     OW36106   3.078   0.886  16.574  0.1334  0.0973  0.6078
 8215SOL    HW136107   3.165   0.850  16.592  1.1786  1.8171 -0.9864
 8215SOL    HW236108   3.028   0.825  16.628  1.5027 -1.9467 -0.4170
 8216SOL     OW36109   1.397   2.702   3.086  0.0405  0.0593  0.0442
 8216SOL    HW136110   1.381   2.629   3.027  0.4871 -0.2195  0.2690
 8216SOL    HW236111   1.419   2.650   3.164  0.5774  1.3945  0.7904
 8217SOL     OW36112   1.365   4.298   8.550 -0.0585 -0.3497  0.0786
 8217SOL    HW136113   1.328   4.342   8.626 -1.9789  0.2615 -1.2034
 8217SOL    HW236114   1.348   4.205   8.565 -1.3513  0.4574  3.4930
 8218SOL     OW36115   0.404   3.804   8.851 -0.5525 -0.4925  0.2841
 8218SOL    HW136116   0.325   3.831   8.804 -1.6196 -2.0961  1.1535
 8218SOL    HW236117   0.410   3.713   8.825 -1.7523 -0.6127  0.4409
 8219SOL     OW36118   0.839   2.081   7.373 -0.2493  0.0661 -0.7739
 8219SOL    HW136119   0.789   2.119   7.300  0.2039  1.2511 -0.4611
 8219SOL    HW236120   0.903   2.151   7.386  0.0775 -0.6515  1.3645
 8220SOL     OW36121   0.626   1.520   7.308 -0.0295  0.5188  0.0225
 8220SOL    HW136122   0.708   1.472   7.317  0.3998  0.9686 -1.4825
 8220SOL    HW236123   0.636   1.583   7.380  2.5704  0.6901 -0.4841
 8221SOL     OW36124   1.038   4.133   6.015 -0.7321  0.6961  0.1937
 8221SOL    HW136125   1.023   4.223   6.043 -0.9940  0.1495  1.7667
 8221SOL    HW236126   0.946   4.109   6.008 -0.3987  0.2350 -2.7715
 8222SOL     OW36127   0.545   1.432   4.101  0.5430 -0.6703 -0.1887
 8222SOL    HW136128   0.609   1.504   4.097  1.2473 -1.3909 -1.8088
 8222SOL    HW236129   0.470   1.478   4.064  0.3519 -1.6941 -1.0580
 8223SOL     OW36130   2.264   1.209   7.144  0.5262 -0.1224  0.5984
 8223SOL    HW136131   2.312   1.142   7.193  2.6050  0.2611 -0.9047
 8223SOL    HW236132   2.337   1.237   7.088  0.5539  1.6349  1.5238
 8224SOL     OW36133   1.849   3.763   3.437  0.1291 -0.2205  1.0796
 8224SOL    HW136134   1.934   3.759   3.393  0.6735  1.1136  2.0343
 8224SOL    HW236135   1.807   3.824   3.377  2.2125 -1.3203 -1.4925
 8225SOL     OW36136   3.264   2.755   3.234 -0.1703  0.6877  0.6667
 8225SOL    HW136137   3.171   2.746   3.213 -0.1212  1.9534 -0.0896
 8225SOL    HW236138   3.299   2.762   3.146 -0.3070 -1.1965  0.4619
 8226SOL     OW36139   3.624   1.142  15.808 -0.4265 -0.0240  0.8492
 8226SOL    HW136140   3.617   1.055  15.770  1.8034  0.2441 -0.1521
 8226SOL    HW236141   3.567   1.191  15.748  1.1069  0.2622 -0.3585
 8227SOL     OW36142   0.944   0.998  15.086 -0.0835 -0.0118  0.5622
 8227SOL    HW136143   0.871   1.048  15.050 -0.2240  1.3667  2.7642
 8227SOL    HW236144   1.001   1.063  15.128 -1.4911  1.6400 -0.1056
 8228SOL     OW36145   4.316   1.671   0.497  1.2133 -0.2652 -0.3474
 8228SOL    HW136146   4.268   1.667   0.580 -1.4435 -0.5852 -1.8751
 8228SOL    HW236147   4.408   1.667   0.521  0.6259 -1.0308  1.7737
 8229SOL     OW36148   0.567   0.015  11.147 -0.1122  0.1818 -0.2324
 8229SOL    HW136149   0.483   0.032  11.189  0.5790 -1.3315  1.7527
 8229SOL    HW236150   0.617   0.096  11.139  1.3527 -0.8429 -1.4831
 8230SOL     OW36151   2.110   0.866   2.621  0.0776 -0.3479 -0.0964
 8230SOL    HW136152   2.192   0.851   2.574  0.1421  3.3861 -1.1788
 8230SOL    HW236153   2.128   0.946   2.670  2.4630 -1.7285  1.2824
 8231SOL     OW36154   2.723   2.381   2.552  0.8335  0.2244 -0.4056
 8231SOL    HW136155   2.631   2.391   2.578  0.8800  0.6487 -0.3993
 8231SOL    HW236156   2.728   2.463   2.502 -1.5010  0.7700  0.2715
 8232SOL     OW36157   1.521   3.983  12.851  0.8184  0.6564  0.4906
 8232SOL    HW136158   1.486   4.042  12.785 -1.2284  1.5825  2.3983
 8232SOL    HW236159   1.558   3.921  12.789  1.1926  1.9104 -0.5291
 8233SOL     OW36160   2.348   3.937  11.214  0.0711 -0.1799 -0.8114
 8233SOL    HW136161   2.416   3.870  11.223 -0.6968 -0.8169  0.2027
 8233SOL    HW236162   2.353   3.943  11.119 -0.5237 -0.5205 -0.8666
 8234SOL     OW36163   0.184   1.225   4.822 -0.7391  0.1995  0.4246
 8234SOL    HW136164   0.165   1.142   4.867  0.5003 -0.4238 -0.2226
 8234SOL    HW236165   0.205   1.195   4.734  0.0370 -1.1191  1.0723
 8235SOL     OW36166   0.438   4.080   3.948  0.6359 -0.2674 -0.1608
 8235SOL    HW136167   0.356   4.058   3.906 -0.2934 -0.6026  1.8296
 8235SOL    HW236168   0.428   4.174   3.961  0.1495 -0.6319  2.0049
 8236SOL     OW36169   4.542   1.628   8.839 -0.1573 -0.0012 -0.1219
 8236SOL    HW136170   4.530   1.607   8.746  1.3899 -1.8199  0.0797
 8236SOL    HW236171   4.636   1.647   8.833 -0.0855 -0.5118 -0.7124
 8237SOL     OW36172   3.430   0.153   8.976 -0.2698 -0.2712 -0.2344
 8237SOL    HW136173   3.473   0.078   9.017  0.6090  1.2249  1.5674
 8237SOL    HW236174   3.356   0.103   8.941  0.1533 -1.6344  0.8308
 8238SOL     OW36175   0.286   4.171   6.146  0.1766  0.4221  0.4833
 8238SOL    HW136176   0.288   4.133   6.234  0.4407  1.9361  1.1411
 8238SOL    HW236177   0.375   4.206   6.144  0.9369 -1.3590  2.7353
 8239SOL     OW36178   1.710   1.646   7.374  0.5399  0.1827 -0.1346
 8239SOL    HW136179   1.637   1.606   7.422  0.6030  0.4091  0.1490
 8239SOL    HW236180   1.683   1.738   7.380  1.8326  0.4768  1.1656
 8240SOL     OW36181   1.753   1.392  17.353  0.0077 -0.6047 -0.6489
 8240SOL    HW136182   1.667   1.412  17.314  0.3255  2.3480  0.1813
 8240SOL    HW236183   1.809   1.432  17.286  1.6630  0.4222  1.3452
 8241SOL     OW36184   2.766   1.227   2.057 -0.2515 -0.0690  0.1557
 8241SOL    HW136185   2.783   1.133   2.049 -0.3693 -0.0752 -0.0123
 8241SOL    HW236186   2.845   1.259   2.102  0.4497 -0.2541 -0.9326
 8242SOL     OW36187   3.008   2.146   7.003  0.2745  0.0372  0.3188
 8242SOL    HW136188   3.045   2.110   7.083  1.3874  2.3092  0.8043
 8242SOL    HW236189   2.918   2.113   7.005  0.6374 -1.0814 -1.9394
 8243SOL     OW36190   0.539   0.172   2.690 -0.4456  0.0167  0.3935
 8243SOL    HW136191   0.557   0.116   2.766 -0.0616 -0.0659  0.2416
 8243SOL    HW236192   0.576   0.119   2.620  1.6362  1.3863  0.4460
 8244SOL     OW36193   2.020   0.558   6.289  0.4442  0.4310  0.6756
 8244SOL    HW136194   2.071   0.576   6.368  3.0508 -3.1095 -0.1801
 8244SOL    HW236195   2.008   0.648   6.259  1.3935 -0.0509 -1.1419
 8245SOL     OW36196   2.674   4.532   7.945 -0.7888 -0.5887 -0.5228
 8245SOL    HW136197   2.661   4.441   7.918  1.0651 -1.0505  0.1265
 8245SOL    HW236198   2.749   4.561   7.893  2.0861 -3.0752  2.1651
 8246SOL     OW36199   1.600   3.837  12.571 -0.0673  0.2066  0.3772
 8246SOL    HW136200   1.685   3.816  12.609 -0.2663 -0.7342  0.2978
 8246SOL    HW236201   1.613   3.930  12.550 -3.0976  0.7512  0.9420
 8247SOL     OW36202   2.085   1.100   9.799 -0.6610  0.3915  0.4081
 8247SOL    HW136203   2.052   1.010   9.798  0.5243 -0.0501  1.2198
 8247SOL    HW236204   2.024   1.143   9.858 -0.5454  0.9280  0.1309
 8248SOL     OW36205   2.639   0.136   6.284  0.8757  0.0893  0.3877
 8248SOL    HW136206   2.666   0.082   6.210  0.4798 -0.6733  0.8057
 8248SOL    HW236207   2.559   0.177   6.250  0.6290 -0.2024  0.6217
 8249SOL     OW36208   2.104   3.389   4.604 -0.0914  0.1070  0.4482
 8249SOL    HW136209   2.146   3.464   4.646 -1.1996  0.2556  1.2841
 8249SOL    HW236210   2.037   3.429   4.549 -0.7710 -2.4471 -0.5539
 8250SOL     OW36211   0.894   0.184   3.951  0.6652 -0.8438 -0.0753
 8250SOL    HW136212   0.911   0.276   3.969 -0.9792 -0.4627 -0.4766
 8250SOL    HW236213   0.799   0.173   3.947  0.5528  1.1154 -2.5078
 8251SOL     OW36214   0.819   1.519   6.801 -0.2056  0.4284  0.6398
 8251SOL    HW136215   0.757   1.510   6.873  1.8049  1.0783  2.4430
 8251SOL    HW236216   0.775   1.473   6.730  2.5868  2.4551 -2.3725
 8252SOL     OW36217   0.811   2.806   8.676 -0.6270 -0.0613  0.2453
 8252SOL    HW136218   0.754   2.773   8.746 -0.4188  2.1223  1.4226
 8252SOL    HW236219   0.753   2.847   8.612 -2.0120  1.8589  2.7588
 8253SOL     OW36220   3.938   3.073  12.390  0.0761 -0.1432  0.0860
 8253SOL    HW136221   4.033   3.069  12.398 -0.0383 -0.3738  1.4565
 8253SOL    HW236222   3.910   3.053  12.480  0.2899 -0.0027  0.1843
 8254SOL     OW36223   3.085   2.635   6.610  0.4858  0.3840 -0.1536
 8254SOL    HW136224   3.082   2.729   6.592 -0.2649  0.1643 -1.1691
 8254SOL    HW236225   3.173   2.638   6.648  0.0340  4.1585  0.6321
 8255SOL     OW36226   0.298   0.284   6.713 -0.5559 -0.3289 -0.3644
 8255SOL    HW136227   0.215   0.251   6.748  1.1447 -2.7011  1.3707
 8255SOL    HW236228   0.298   0.371   6.753  2.5527  0.3290 -1.7778
 8256SOL     OW36229   3.552   1.983  13.628  0.0503 -0.1746 -0.2340
 8256SOL    HW136230   3.538   1.891  13.654  0.6928 -0.1027  0.3799
 8256SOL    HW236231   3.465   2.021  13.621  0.0733 -0.2658 -0.9779
 8257SOL     OW36232   2.808   3.191   6.055  0.4666  0.1357  0.0967
 8257SOL    HW136233   2.764   3.229   6.131 -0.3437 -0.6654  0.0382
 8257SOL    HW236234   2.835   3.104   6.085  1.9274  0.2560 -0.8771
 8258SOL     OW36235   1.523   0.259   9.727  0.5292  0.0115 -0.5374
 8258SOL    HW136236   1.617   0.258   9.707  0.6955  0.5995  0.2228
 8258SOL    HW236237   1.526   0.325   9.795 -0.6770  0.4523 -0.9132
 8259SOL     OW36238   1.650   0.325  17.272  0.5291  0.1571 -0.1597
 8259SOL    HW136239   1.567   0.307  17.228  0.7585 -1.3680  0.0262
 8259SOL    HW236240   1.712   0.297  17.204  0.0785 -2.7220  0.6034
 8260SOL     OW36241   3.487   3.922   2.112  0.3485  0.3330  0.5383
 8260SOL    HW136242   3.422   3.973   2.160  0.2309  1.1730 -0.5059
 8260SOL    HW236243   3.461   3.836   2.145  1.6593  0.3790  1.6461
 8261SOL     OW36244   3.898   2.707   2.201  0.3255 -0.0827  0.2665
 8261SOL    HW136245   3.934   2.737   2.118  0.7427  1.1614  0.8882
 8261SOL    HW236246   3.976   2.671   2.243  0.0739  1.6779  2.2614
 8262SOL     OW36247   3.078   4.419   2.889 -0.1905  0.5025  0.4652
 8262SOL    HW136248   3.139   4.493   2.889  3.0359 -2.1608 -0.8199
 8262SOL    HW236249   3.127   4.338   2.902  1.2088  1.3605  0.5094
 8263SOL     OW36250   2.462   4.531   3.863  0.2254 -0.3321  0.0016
 8263SOL    HW136251   2.500   4.577   3.788 -2.4019 -0.1525 -1.2299
 8263SOL    HW236252   2.501   4.445   3.846  0.3815  0.2022 -2.2204
 8264SOL     OW36253   4.435   1.160   8.487 -0.1919 -0.1742 -0.2512
 8264SOL    HW136254   4.406   1.123   8.571  0.3806 -1.4503 -0.6257
 8264SOL    HW236255   4.468   1.085   8.438 -0.3076  0.7606 -1.7738
 8265SOL     OW36256   1.917   3.040   9.008 -0.7994 -0.6476  0.0445
 8265SOL    HW136257   1.951   3.007   9.091 -1.6714 -1.5763  0.0284
 8265SOL    HW236258   1.925   3.133   9.029  1.0332 -0.6757 -0.5001
 8266SOL     OW36259   1.476   3.912  12.187  0.5154 -0.4741  0.2287
 8266SOL    HW136260   1.536   3.954  12.126 -0.8770  0.8522 -0.2223
 8266SOL    HW236261   1.400   3.971  12.187  1.3002  0.5354  0.6235
 8267SOL     OW36262   4.382   2.982   2.872 -0.2832 -0.2032 -0.2716
 8267SOL    HW136263   4.329   3.048   2.917  0.9603  0.9387 -0.5001
 8267SOL    HW236264   4.389   2.917   2.942  1.1004 -0.0368 -0.2607
 8268SOL     OW36265   3.295   0.702  16.056  0.0506  0.5116  0.0907
 8268SOL    HW136266   3.275   0.743  15.972 -1.5532  0.7984  0.6251
 8268SOL    HW236267   3.324   0.776  16.109 -0.0302  0.2272  0.5313
 8269SOL     OW36268   0.295   2.363   5.650 -0.1573 -0.3315  0.3008
 8269SOL    HW136269   0.388   2.380   5.633 -0.2217 -0.0163  0.2661
 8269SOL    HW236270   0.257   2.447   5.626  0.5828  0.0781  0.5637
 8270SOL     OW36271   2.162   4.160  11.856  0.2881  0.3664 -0.6275
 8270SOL    HW136272   2.140   4.236  11.910  1.2199 -0.5519  1.0136
 8270SOL    HW236273   2.147   4.187  11.765  0.8239  2.1892 -0.1674
 8271SOL     OW36274   0.595   3.645   5.352 -0.2762  0.1824  0.4954
 8271SOL    HW136275   0.528   3.709   5.326 -0.2666 -0.7577 -1.7820
 8271SOL    HW236276   0.675   3.694   5.371  0.1046 -1.2713  2.6641
 8272SOL     OW36277   4.094   2.095   4.807  0.5134  0.2719  0.3827
 8272SOL    HW136278   4.177   2.111   4.853  0.0994 -0.3402  1.3513
 8272SOL    HW236279   4.041   2.167   4.841  0.9860  0.5756  0.4911
 8273SOL     OW36280   1.243   0.144   4.109 -0.0530  0.0114 -0.3484
 8273SOL    HW136281   1.149   0.138   4.126  0.3615 -1.4321  1.2940
 8273SOL    HW236282   1.234   0.200   4.031 -1.3919 -0.3405 -0.4519
 8274SOL     OW36283   4.362   0.567   4.128 -0.2039  0.1109  0.1143
 8274SOL    HW136284   4.285   0.511   4.132  1.0236 -1.4640  1.8972
 8274SOL    HW236285   4.365   0.602   4.039 -0.3836  1.0046  0.4639
 8275SOL     OW36286   4.146   4.663   9.104  0.4529  0.1690  0.2885
 8275SOL    HW136287   4.177   4.693   9.018 -0.4908  0.8428  0.1807
 8275SOL    HW236288   4.204   0.006   9.149 -2.2808  2.3772  0.7118
 8276SOL     OW36289   2.833   2.244   4.318  0.1276  0.1663 -0.3754
 8276SOL    HW136290   2.841   2.187   4.394  0.1530 -0.7023 -1.0323
 8276SOL    HW236291   2.926   2.246   4.295 -0.1006  1.3330 -1.2182
 8277SOL     OW36292   3.632   2.722   8.413  0.1195  0.2472 -0.6697
 8277SOL    HW136293   3.656   2.655   8.476  0.4194 -0.1014 -1.1555
 8277SOL    HW236294   3.628   2.662   8.338  2.2282  0.3188 -0.8214
 8278SOL     OW36295   3.885   1.858   8.863  0.3197 -0.5380 -0.2587
 8278SOL    HW136296   3.800   1.851   8.821 -0.6522  1.5547  1.3489
 8278SOL    HW236297   3.929   1.788   8.815  0.4091 -1.0316  0.5319
 8279SOL     OW36298   4.250   2.221   2.199  0.0412  0.2194  0.1397
 8279SOL    HW136299   4.322   2.281   2.179  1.0570 -0.2150  2.4529
 8279SOL    HW236300   4.180   2.282   2.174 -1.7588 -1.8060  0.2255
 8280SOL     OW36301   3.489   0.722   8.783  0.2868  0.1481 -0.3269
 8280SOL    HW136302   3.437   0.782   8.730  0.7289 -0.9583 -2.0206
 8280SOL    HW236303   3.493   0.758   8.871 -2.2627 -2.0352  0.6488
 8281SOL     OW36304   2.939   1.077   4.145 -0.6300 -0.4231  0.3961
 8281SOL    HW136305   2.893   1.018   4.085 -3.4066  1.1737  0.9757
 8281SOL    HW236306   2.931   1.033   4.229  0.1999  1.0752  1.2516
 8282SOL     OW36307   1.511   2.812   6.195 -0.3848 -0.4018 -0.5472
 8282SOL    HW136308   1.529   2.820   6.101 -1.0052  2.7934 -0.3953
 8282SOL    HW236309   1.601   2.817   6.227 -0.5538  2.5431 -0.5046
 8283SOL     OW36310   4.104   2.471   7.963  0.4082  0.0384  0.6780
 8283SOL    HW136311   4.038   2.512   8.019 -1.8037 -1.4641 -0.7892
 8283SOL    HW236312   4.060   2.387   7.948 -1.5926  0.8508  1.8794
 8284SOL     OW36313   4.396   3.540   5.386  0.4814  0.2447 -0.2922
 8284SOL    HW136314   4.386   3.594   5.308 -3.0121  0.3630  0.2157
 8284SOL    HW236315   4.336   3.586   5.446  0.2040  1.6500 -1.6599
 8285SOL     OW36316   1.876   1.312   2.434 -0.2196  0.1215  0.0689
 8285SOL    HW136317   1.912   1.246   2.493 -0.8481  0.3356  0.6850
 8285SOL    HW236318   1.790   1.326   2.473  0.6632 -1.3386  2.5336
 8286SOL     OW36319   4.564   2.110   6.755 -0.2368 -0.2379  0.2862
 8286SOL    HW136320   4.584   2.024   6.794 -3.2301 -0.2287  1.8206
 8286SOL    HW236321   4.629   2.164   6.800 -0.7324  0.9944 -0.5094
 8287SOL     OW36322   0.566   4.526   6.718 -0.5915  0.1344  0.0287
 8287SOL    HW136323   0.472   4.537   6.727 -0.7111 -0.4886 -0.5118
 8287SOL    HW236324   0.588   4.611   6.680  1.5811 -1.8379 -3.1497
 8288SOL     OW36325   0.017   0.894   3.421 -0.5233 -0.2558 -0.3073
 8288SOL    HW136326   4.711   0.856   3.337 -0.6905  0.0982 -0.4177
 8288SOL    HW236327   0.017   0.984   3.390  2.1725  0.7824  2.6965
 8289SOL     OW36328   4.687   0.432   3.632 -0.2074  0.6182 -0.3534
 8289SOL    HW136329   4.623   0.442   3.703  0.2809 -0.0509  0.1709
 8289SOL    HW236330   4.647   0.474   3.555  0.5109  1.3150 -0.3457
 8290SOL     OW36331   2.622   3.834   8.205  0.1999 -0.0043 -0.0992
 8290SOL    HW136332   2.603   3.773   8.276 -0.1825  0.1896 -0.0351
 8290SOL    HW236333   2.716   3.836   8.219  0.2663  0.5884 -0.6771
 8291SOL     OW36334   3.262   3.243   5.003  0.1907  0.0453 -0.2073
 8291SOL    HW136335   3.181   3.229   4.954 -0.7745  2.2167  0.7985
 8291SOL    HW236336   3.233   3.203   5.085  1.4240 -0.3568  0.0378
 8292SOL     OW36337   2.162   1.101  14.763  0.1276  0.2734 -0.3348
 8292SOL    HW136338   2.127   1.145  14.840 -2.4085 -1.5158 -0.4509
 8292SOL    HW236339   2.214   1.170  14.721  1.5359 -0.7427 -0.2434
 8293SOL     OW36340   3.028   3.651  14.521 -0.5517  0.3305  0.2609
 8293SOL    HW136341   2.992   3.563  14.514 -0.6036  0.6454 -3.3810
 8293SOL    HW236342   2.949   3.697  14.492 -0.9917 -1.1003 -0.8013
 8294SOL     OW36343   3.070   3.779   9.486 -0.5967 -0.2728 -0.2374
 8294SOL    HW136344   3.053   3.770   9.580 -1.0583  0.3902 -0.2613
 8294SOL    HW236345   3.017   3.854   9.462  3.0237  2.4317  0.1215
 8295SOL     OW36346   2.813   1.016  17.457  0.8710 -0.1082 -0.2644
 8295SOL    HW136347   2.854   1.023  17.371  1.6298 -1.9706 -0.0592
 8295SOL    HW236348   2.869   1.080  17.501  0.1580 -0.6649  1.5008
 8296SOL     OW36349   2.467   1.988   8.988 -0.1984  0.7532 -0.5164
 8296SOL    HW136350   2.456   2.029   8.902  0.7392  1.2811 -0.3811
 8296SOL    HW236351   2.386   1.939   9.002  0.1724  0.3731  0.2769
 8297SOL     OW36352   4.356   2.567   6.075 -0.1951  0.3051  0.0952
 8297SOL    HW136353   4.439   2.553   6.121  0.0622 -0.9269 -0.7374
 8297SOL    HW236354   4.352   2.489   6.019  0.0266  0.5801 -0.3080
 8298SOL     OW36355   2.628   3.594   9.519 -0.1196  0.0123  0.1293
 8298SOL    HW136356   2.696   3.543   9.563 -0.1063 -0.1237 -0.0510
 8298SOL    HW236357   2.676   3.676   9.506 -0.7569  0.5250  0.9935
 8299SOL     OW36358   2.746   3.996   5.053  0.1545  0.1415 -0.0026
 8299SOL    HW136359   2.706   3.976   4.968  2.8412  0.2382 -1.2863
 8299SOL    HW236360   2.744   4.092   5.047  1.1187  0.3176  2.2355
 8300SOL     OW36361   3.160   1.474   6.238  0.1424  0.4649  0.3742
 8300SOL    HW136362   3.220   1.402   6.221  0.2853  0.3338  1.4087
 8300SOL    HW236363   3.140   1.472   6.332 -0.5636 -1.2347  0.1826
 8301SOL     OW36364   4.612   3.024  13.249 -0.6057 -0.1626  0.1497
 8301SOL    HW136365   4.600   3.039  13.155  1.1162 -2.4819 -0.4647
 8301SOL    HW236366   4.673   3.089  13.282 -2.8723  2.8964 -1.7414
 8302SOL     OW36367   2.393   0.182  10.668  0.3468  0.3185  0.1104
 8302SOL    HW136368   2.487   0.188  10.685  0.3449  2.6590 -0.7532
 8302SOL    HW236369   2.376   0.257  10.611 -0.4145  0.7931  0.9600
 8303SOL     OW36370   1.717   2.701  16.380 -0.1140 -0.5141  0.3987
 8303SOL    HW136371   1.686   2.610  16.387  1.3207 -0.9851  0.7195
 8303SOL    HW236372   1.799   2.691  16.429  0.1884 -0.4362 -0.0843
 8304SOL     OW36373   1.853   4.659   1.366 -0.3319  0.3708  0.0970
 8304SOL    HW136374   1.760   4.672   1.346 -0.4268 -1.2661 -0.5736
 8304SOL    HW236375   1.882   4.588   1.308  0.5529 -0.7727  1.9202
 8305SOL     OW36376   3.865   1.283  13.036 -0.4495 -0.3202 -1.0492
 8305SOL    HW136377   3.807   1.287  13.112 -0.6614 -0.5206 -1.1985
 8305SOL    HW236378   3.927   1.231  13.086 -0.0227  1.1746 -0.0130
 8306SOL     OW36379   0.330   2.217   6.926  0.3386 -0.2958 -0.2806
 8306SOL    HW136380   0.426   2.211   6.927  0.2912 -1.0822  0.9963
 8306SOL    HW236381   0.325   2.288   6.990  0.7967 -2.2160  1.9314
 8307SOL     OW36382   4.478   2.246   8.142  0.4717  0.1439  0.3409
 8307SOL    HW136383   4.399   2.248   8.196  1.5758  1.5625  1.8985
 8307SOL    HW236384   4.525   2.320   8.180 -1.2099  0.6112  1.5015
 8308SOL     OW36385   0.859   0.775  15.203 -0.0559  0.2105 -0.4885
 8308SOL    HW136386   0.862   0.811  15.292  0.1271  0.1868 -0.4838
 8308SOL    HW236387   0.916   0.842  15.164  1.4795 -0.1175  1.1452
 8309SOL     OW36388   0.417   3.964   1.254 -0.1909 -0.1200  0.4077
 8309SOL    HW136389   0.443   4.046   1.296 -2.1190 -0.0845  1.5312
 8309SOL    HW236390   0.357   4.005   1.192 -1.0675  0.7907  1.8612
 8310SOL     OW36391   2.062   3.428   1.796 -0.5051 -0.3901  1.1024
 8310SOL    HW136392   2.113   3.506   1.774  2.1368 -3.0982 -2.5410
 8310SOL    HW236393   2.135   3.369   1.814 -0.3539 -0.2924  0.8205
 8311SOL     OW36394   0.120   2.747   3.547  0.3907 -0.4720  0.1462
 8311SOL    HW136395   0.140   2.654   3.563 -0.0381 -0.7102 -0.6684
 8311SOL    HW236396   0.139   2.777   3.636 -2.5287  0.5624  0.4368
 8312SOL     OW36397   2.612   0.600   8.003 -0.2471 -0.7424  0.2219
 8312SOL    HW136398   2.556   0.537   8.049  0.6329 -0.1362  2.1273
 8312SOL    HW236399   2.684   0.537   7.995 -0.9373 -1.7879  2.3280
 8313SOL     OW36400   1.017   4.603  12.211 -0.0844  0.5031 -0.4862
 8313SOL    HW136401   1.046   4.694  12.220 -0.4064  0.4297  1.2198
 8313SOL    HW236402   1.068   4.582  12.132  0.3643 -2.7213  0.6461
 8314SOL     OW36403   1.679   3.375   1.579  0.6830  0.3823  0.0576
 8314SOL    HW136404   1.586   3.362   1.598  0.1323  2.1733 -1.3546
 8314SOL    HW236405   1.671   3.397   1.486  0.3072  0.2612  0.0598
 8315SOL     OW36406   2.346   1.495   6.859 -0.5463  0.2736 -0.1028
 8315SOL    HW136407   2.407   1.524   6.790 -0.4461 -0.6640 -0.4182
 8315SOL    HW236408   2.384   1.407   6.861 -3.2935 -0.9020  0.4634
 8316SOL     OW36409   1.558   3.349  12.813 -0.2422 -0.0410  0.0514
 8316SOL    HW136410   1.595   3.341  12.901  0.1544 -0.8222 -0.1873
 8316SOL    HW236411   1.467   3.336  12.841  0.0544 -1.1092  0.5237
 8317SOL     OW36412   3.952   2.410  17.215 -0.6051  0.3283  0.3197
 8317SOL    HW136413   3.948   2.350  17.141  1.4854  0.1147  0.3847
 8317SOL    HW236414   3.915   2.489  17.175  1.2813  0.2529 -1.5135
 8318SOL     OW36415   1.106   2.706   2.569 -0.3252  0.3749  0.1687
 8318SOL    HW136416   1.196   2.732   2.550 -0.2448 -0.5307 -0.6374
 8318SOL    HW236417   1.063   2.740   2.491 -0.6379 -0.7953 -0.1767
 8319SOL     OW36418   1.374   2.972   4.308 -0.0865 -0.0806  0.7133
 8319SOL    HW136419   1.325   3.033   4.363 -0.9814 -0.4272  0.3017
 8319SOL    HW236420   1.310   2.905   4.286  0.1113  0.1131 -0.4493
 8320SOL     OW36421   1.349   0.298  17.264  0.1038 -0.1651  0.1082
 8320SOL    HW136422   1.255   0.294  17.282  0.4913  0.3662  2.2297
 8320SOL    HW236423   1.347   0.226  17.200  1.3652  0.7033 -0.9025
 8321SOL     OW36424   3.630   2.913   4.753 -0.2310 -0.3193  0.4828
 8321SOL    HW136425   3.582   2.901   4.835  1.5438 -1.3361  1.3665
 8321SOL    HW236426   3.554   2.942   4.703  0.5847  0.9339 -0.0156
 8322SOL     OW36427   0.824   1.190  13.040  0.1206 -0.8184  0.2932
 8322SOL    HW136428   0.911   1.156  13.019  0.3132 -0.9533  1.2946
 8322SOL    HW236429   0.763   1.165  12.970  1.8760  1.5105 -2.0207
 8323SOL     OW36430   3.031   4.056   4.527  0.3362  0.0970  0.4832
 8323SOL    HW136431   3.121   4.042   4.497  0.3244  2.7025 -0.7338
 8323SOL    HW236432   2.987   4.083   4.447 -0.4690  0.5487  1.0790
 8324SOL     OW36433   2.662   3.970   2.889 -0.5870 -0.5113 -0.0073
 8324SOL    HW136434   2.660   4.063   2.868  0.8393 -0.8386 -1.5591
 8324SOL    HW236435   2.756   3.957   2.877 -0.3867 -0.1257  1.1083
 8325SOL     OW36436   4.401   3.399   8.741  0.1638  0.4021 -0.5750
 8325SOL    HW136437   4.327   3.342   8.766  0.4759 -0.3024 -1.2380
 8325SOL    HW236438   4.471   3.393   8.806 -1.7668  0.4431  1.5044
 8326SOL     OW36439   0.730   0.341   6.476 -0.1097  0.3520 -0.5653
 8326SOL    HW136440   0.746   0.428   6.512  1.1355 -0.2487  0.3769
 8326SOL    HW236441   0.822   0.313   6.476  0.1222  1.0570  1.5797
 8327SOL     OW36442   0.333   2.127   5.755 -0.4508  0.3367 -0.1004
 8327SOL    HW136443   0.405   2.135   5.817 -0.2828 -0.3226 -0.2098
 8327SOL    HW236444   0.335   2.215   5.719 -0.9791  0.8476  1.1088
 8328SOL     OW36445   2.681   3.945   7.878 -0.0001 -0.2094  0.4323
 8328SOL    HW136446   2.733   3.995   7.940  2.4880  0.4244 -2.1860
 8328SOL    HW236447   2.750   3.921   7.817  0.5442  1.1757  0.5252
 8329SOL     OW36448   3.840   0.237  17.562 -0.8426 -0.5507  0.1112
 8329SOL    HW136449   3.832   0.259  17.655  0.3682 -0.9539  0.3140
 8329SOL    HW236450   3.788   0.312  17.535 -1.7777 -0.4482  2.2076
 8330SOL     OW36451   3.403   4.078  11.533  0.2578 -0.3219 -0.1736
 8330SOL    HW136452   3.447   4.049  11.453  1.2550 -0.5034  0.4361
 8330SOL    HW236453   3.345   4.002  11.536 -0.7107  0.4326  0.4644
 8331SOL     OW36454   3.040   2.272   5.230 -0.2187 -0.1538  0.5269
 8331SOL    HW136455   3.129   2.253   5.260 -0.0374  0.2668  0.2579
 8331SOL    HW236456   3.005   2.340   5.288  0.0521 -0.0693  0.5942
 8332SOL     OW36457   4.527   1.377   0.599 -0.0199  0.6919  0.0691
 8332SOL    HW136458   4.463   1.410   0.662  2.5756  1.8501  2.0972
 8332SOL    HW236459   4.583   1.454   0.601  0.6881  0.1955 -0.2997
 8333SOL     OW36460   0.679   4.625  10.910 -0.7568  0.1951  0.5176
 8333SOL    HW136461   0.662   4.699  10.967 -0.3554  2.6680 -2.5714
 8333SOL    HW236462   0.702   4.558  10.975 -0.5723 -0.5190 -0.2796
 8334SOL     OW36463   0.646   4.531   2.044 -0.4510 -0.3478  0.4480
 8334SOL    HW136464   0.727   4.498   2.083 -1.1464 -1.4365  0.9774
 8334SOL    HW236465   0.590   4.565   2.114 -1.3230 -1.3662  0.2555
 8335SOL     OW36466   4.517   2.308   1.855  0.1610  0.0009 -0.0964
 8335SOL    HW136467   4.495   2.226   1.900 -0.7383  0.7602  0.8281
 8335SOL    HW236468   4.520   2.259   1.773  1.6090  0.9258 -0.5940
 8336SOL     OW36469   2.176   1.744   9.944  0.3454 -0.5759  0.3415
 8336SOL    HW136470   2.191   1.690  10.022 -0.8461  0.5918  1.3943
 8336SOL    HW236471   2.185   1.831   9.983  0.6282  1.0130 -3.2194
 8337SOL     OW36472   1.049   1.760  17.068  0.1291  0.3617  0.0815
 8337SOL    HW136473   1.139   1.747  17.098  0.0853 -2.5767 -1.0281
 8337SOL    HW236474   0.995   1.703  17.123  0.0208 -0.9141 -1.3367
 8338SOL     OW36475   1.225   0.926   0.827  0.1822  0.3405 -0.1452
 8338SOL    HW136476   1.208   0.834   0.847  0.8183  0.1964 -0.2733
 8338SOL    HW236477   1.298   0.943   0.885  0.7675 -0.5088 -0.6344
 8339SOL     OW36478   3.974   0.980   9.373 -0.1917 -0.2174  0.4133
 8339SOL    HW136479   4.038   1.036   9.329  1.1433 -2.4864 -0.5651
 8339SOL    HW236480   3.976   0.913   9.304 -0.1621  0.1488  0.0561
 8340SOL     OW36481   4.483   4.315  11.115  0.3583 -0.4498  0.0345
 8340SOL    HW136482   4.500   4.378  11.185  0.0093 -0.5080  0.1709
 8340SOL    HW236483   4.525   4.231  11.135  1.9836  0.4117  0.2976
 8341SOL     OW36484   4.718   3.937   1.283  0.6527 -0.1735  0.6422
 8341SOL    HW136485   4.679   3.985   1.211 -2.8407 -3.1143  0.5366
 8341SOL    HW236486   4.700   3.849   1.249 -1.7236  0.9715 -1.0051
 8342SOL     OW36487   1.907   0.356   8.762 -0.2284 -1.2637  0.4054
 8342SOL    HW136488   1.966   0.368   8.687  0.0042 -0.7075  0.6841
 8342SOL    HW236489   1.827   0.332   8.715 -0.1541 -0.5962 -0.0520
 8343SOL     OW36490   1.871   1.721   4.572 -0.0350 -0.0763  0.5162
 8343SOL    HW136491   1.832   1.730   4.658  0.3928 -0.9877  0.8032
 8343SOL    HW236492   1.893   1.628   4.568 -0.9590 -0.2870  0.3948
 8344SOL     OW36493   0.219   1.502   6.001 -0.6604  0.5975 -0.3764
 8344SOL    HW136494   0.210   1.597   6.008  0.1200  0.7227 -1.1506
 8344SOL    HW236495   0.239   1.487   6.094  0.0645  1.1771 -0.4443
 8345SOL     OW36496   0.333   2.759   4.240  0.0105 -0.1965  0.2384
 8345SOL    HW136497   0.332   2.828   4.173  1.2303 -0.2494  0.1603
 8345SOL    HW236498   0.421   2.723   4.228 -0.0838 -0.1951 -0.4931
 8346SOL     OW36499   1.435   0.542   0.229  0.5711  0.0316 -0.2204
 8346SOL    HW136500   1.508   0.480   0.222  0.2508 -0.3107 -0.5591
 8346SOL    HW236501   1.368   0.488   0.272 -0.2764  1.5956  0.4002
 8347SOL     OW36502   3.991   0.953  14.029  0.0883  0.0789 -0.3785
 8347SOL    HW136503   3.928   0.968  14.100  1.2114 -0.4472  0.7227
 8347SOL    HW236504   3.978   0.861  14.005 -0.2593  0.5525 -1.9774
 8348SOL     OW36505   3.048   0.129   8.720 -1.0158 -0.4017  0.1247
 8348SOL    HW136506   3.111   0.092   8.782 -0.0023  0.7807 -0.1908
 8348SOL    HW236507   3.055   0.222   8.744 -0.1357 -0.5322  0.3623
 8349SOL     OW36508   4.275   1.360  12.459  0.4846  0.0294 -0.2236
 8349SOL    HW136509   4.277   1.328  12.369  2.1667 -1.3160  0.3075
 8349SOL    HW236510   4.230   1.287  12.502  3.0029 -0.2449  1.8715
 8350SOL     OW36511   0.917   2.215   0.242 -0.2453 -0.2188  0.3668
 8350SOL    HW136512   0.900   2.245   0.331 -1.6130 -2.2942  0.8094
 8350SOL    HW236513   1.010   2.235   0.229 -0.0736  0.1465  2.1112
 8351SOL     OW36514   1.098   4.202   6.811 -0.0799  0.0684 -0.0976
 8351SOL    HW136515   1.150   4.212   6.731  1.5031 -1.4608  0.7316
 8351SOL    HW236516   1.165   4.189   6.879 -1.2559 -1.1243  0.8325
 8352SOL     OW36517   1.217   3.305   4.668  0.2305 -0.1152 -0.3316
 8352SOL    HW136518   1.223   3.393   4.704 -2.4805 -0.1990  0.3340
 8352SOL    HW236519   1.138   3.317   4.616 -1.6200  1.0987  2.7570
 8353SOL     OW36520   0.251   4.192   9.298  0.1021  0.1380 -0.2094
 8353SOL    HW136521   0.199   4.212   9.376  0.4906  0.5099 -0.0477
 8353SOL    HW236522   0.225   4.264   9.240 -0.3554  1.2867  1.4132
 8354SOL     OW36523   0.707   4.481  11.142  0.6228  0.1600  0.0586
 8354SOL    HW136524   0.626   4.498  11.191  0.1869  0.1930 -0.6680
 8354SOL    HW236525   0.727   4.391  11.167  0.4089  0.6747  2.0505
 8355SOL     OW36526   2.074   2.180   3.679 -0.2711 -0.1740  0.0795
 8355SOL    HW136527   2.133   2.108   3.655 -0.7636 -0.1499 -1.2071
 8355SOL    HW236528   2.107   2.252   3.625  1.2829 -0.2349  0.9248
 8356SOL     OW36529   3.812   3.488  12.720  0.4256 -0.3019  0.1812
 8356SOL    HW136530   3.745   3.428  12.752  0.8431  0.8267  3.2383
 8356SOL    HW236531   3.893   3.443  12.746 -0.1912 -0.0990  2.5141
 8357SOL     OW36532   1.591   3.100   6.010 -0.3129  0.0390  0.2199
 8357SOL    HW136533   1.557   3.096   5.921  0.6619  0.6829 -0.1764
 8357SOL    HW236534   1.626   3.012   6.025  0.6794  0.0364 -2.0487
 8358SOL     OW36535   0.245   1.939   5.216 -0.3519  0.0100  0.0079
 8358SOL    HW136536   0.314   1.893   5.168 -0.3839  1.1368 -1.1084
 8358SOL    HW236537   0.186   1.956   5.144 -2.0072 -1.4054  1.0332
 8359SOL     OW36538   2.950   3.788  11.942 -0.2970 -0.3891 -0.3737
 8359SOL    HW136539   2.859   3.769  11.922  0.4788 -1.7730 -2.6240
 8359SOL    HW236540   2.929   3.792  12.035 -1.2892  2.0911 -0.6804
 8360SOL     OW36541   1.361   3.395   3.811  0.5978 -0.8114  0.7053
 8360SOL    HW136542   1.391   3.353   3.891  1.9964 -0.3928  0.4122
 8360SOL    HW236543   1.329   3.480   3.842  0.2337 -1.1817  1.3457
 8361SOL     OW36544   3.329   0.499   4.758  0.4409 -0.1994 -0.3272
 8361SOL    HW136545   3.346   0.439   4.830 -1.0997 -0.6758 -0.3645
 8361SOL    HW236546   3.269   0.566   4.793  0.1981 -0.8019  0.4119
 8362SOL     OW36547   4.636   1.039   5.943 -0.3577  0.4002  0.0974
 8362SOL    HW136548   4.561   1.098   5.939 -0.2215  0.4741 -1.1270
 8362SOL    HW236549   4.682   1.096   6.005  2.5085  0.5419 -2.1591
 8363SOL     OW36550   2.792   1.969   6.382 -0.8810  0.1398  0.2843
 8363SOL    HW136551   2.719   2.013   6.339 -0.6369 -1.0620 -1.3340
 8363SOL    HW236552   2.742   1.931   6.454  1.0195 -0.4435  1.3104
 8364SOL     OW36553   3.956   0.225   1.013  0.2724  0.0436 -0.1704
 8364SOL    HW136554   3.909   0.152   1.054  0.0658  0.6869  0.7447
 8364SOL    HW236555   3.914   0.301   1.053 -0.5439 -1.3898  1.6999
 8365SOL     OW36556   1.750   3.488   6.801 -0.1849 -0.2665 -0.3566
 8365SOL    HW136557   1.793   3.457   6.881 -0.0662  1.6795  0.3414
 8365SOL    HW236558   1.815   3.557   6.786 -0.7050  0.9066  2.8676
 8366SOL     OW36559   3.786   0.999   1.316  0.1083  0.1091  0.1372
 8366SOL    HW136560   3.804   0.951   1.397  2.8769 -1.3317 -1.3365
 8366SOL    HW236561   3.713   1.056   1.342 -0.0775  0.0227 -0.1928
 8367SOL     OW36562   2.521   1.279  12.939 -0.1016  0.2720  0.1228
 8367SOL    HW136563   2.556   1.330  12.865 -1.3011  0.1741 -0.5184
 8367SOL    HW236564   2.602   1.231  12.956  0.7195  1.8190  0.5643
 8368SOL     OW36565   0.332   1.067   6.830 -0.3836  0.1620  0.0471
 8368SOL    HW136566   0.258   1.008   6.848 -0.0695  0.2754  1.6741
 8368SOL    HW236567   0.333   1.124   6.907  0.6789 -0.9998  0.9039
 8369SOL     OW36568   0.128   0.462   5.148 -0.3355 -0.9825 -0.1349
 8369SOL    HW136569   0.063   0.391   5.153  0.7424 -2.0112 -0.7124
 8369SOL    HW236570   0.077   0.536   5.181  1.1487 -0.6659  1.4512
 8370SOL     OW36571   1.125   0.867   4.415 -0.3915  0.1749 -1.0555
 8370SOL    HW136572   1.153   0.955   4.391  1.0371  1.1012  3.8892
 8370SOL    HW236573   1.089   0.884   4.502 -0.0876  1.4489 -1.1818
 8371SOL     OW36574   3.827   1.230   7.031 -0.1730  0.4793 -0.6759
 8371SOL    HW136575   3.898   1.165   7.036 -0.8180  0.0120  2.6728
 8371SOL    HW236576   3.872   1.306   7.069 -0.6972  0.6067 -0.3159
 8372SOL     OW36577   2.911   1.324   7.895  0.0351 -0.1165 -0.2461
 8372SOL    HW136578   2.885   1.380   7.821 -1.3747 -2.3203 -1.4443
 8372SOL    HW236579   2.868   1.240   7.877  2.4207 -1.3801  0.0256
 8373SOL     OW36580   0.611   4.618  12.720 -0.1357  0.4312  0.8074
 8373SOL    HW136581   0.653   4.532  12.723  0.5859  0.7705  0.2312
 8373SOL    HW236582   0.670   4.657  12.784  0.8072  0.0286  0.1882
 8374SOL     OW36583   4.195   1.418   0.462 -0.2012  0.0888  0.3728
 8374SOL    HW136584   4.227   1.506   0.441  1.1541 -0.5981 -0.4346
 8374SOL    HW236585   4.265   1.361   0.431  0.5069 -1.0069  3.9406
 8375SOL     OW36586   0.405   3.927  12.791 -0.0055 -0.4763 -0.2379
 8375SOL    HW136587   0.489   3.973  12.793  0.6329 -1.6844  0.5136
 8375SOL    HW236588   0.438   3.852  12.841  0.6131  0.0028  0.0745
 8376SOL     OW36589   3.181   3.609   3.014  0.3010  0.7162  0.2161
 8376SOL    HW136590   3.249   3.627   3.079  3.2019  1.5213 -3.0092
 8376SOL    HW236591   3.173   3.514   3.017  3.1063  0.4644  0.1255
 8377SOL     OW36592   1.962   2.466   3.503  0.0213 -0.0934  0.3239
 8377SOL    HW136593   2.057   2.459   3.493  0.1256  1.9894 -0.2184
 8377SOL    HW236594   1.944   2.486   3.594 -2.0596 -1.8255  0.2845
 8378SOL     OW36595   3.672   0.440   5.131 -0.0141  0.3685  0.4593
 8378SOL    HW136596   3.594   0.493   5.117 -1.5887 -1.8108  1.1040
 8378SOL    HW236597   3.732   0.487   5.072  0.1880 -0.9487 -0.3843
 8379SOL     OW36598   4.145   2.116   5.250  0.1230  0.0956  0.6540
 8379SOL    HW136599   4.053   2.129   5.226 -0.1285  0.2540  1.7070
 8379SOL    HW236600   4.196   2.151   5.178  0.9819 -2.2353  0.1190
 8380SOL     OW36601   1.166   0.816  10.625  0.3162 -0.0875  0.2590
 8380SOL    HW136602   1.211   0.780  10.548  0.8026 -2.2567  1.5265
 8380SOL    HW236603   1.107   0.741  10.628  1.6303 -1.1697 -0.9254
 8381SOL     OW36604   1.506   2.877   7.053 -0.5049  0.7567  0.3633
 8381SOL    HW136605   1.577   2.822   7.086 -1.1190 -0.2805 -0.0345
 8381SOL    HW236606   1.552   2.908   6.974 -0.3789 -2.0754 -0.6714
 8382SOL     OW36607   2.358   1.125  13.125  0.1890  0.3651  0.0308
 8382SOL    HW136608   2.412   1.103  13.200 -0.5606 -1.0637  0.1575
 8382SOL    HW236609   2.407   1.199  13.089 -0.3787  0.8361  0.2166
 8383SOL     OW36610   0.903   1.280  13.855  0.0849  0.2638  0.5871
 8383SOL    HW136611   0.900   1.357  13.913  1.9860 -0.5284  1.6981
 8383SOL    HW236612   0.818   1.295  13.813  1.1032  0.3149 -1.4815
 8384SOL     OW36613   0.727   3.268  11.061 -0.7782 -0.3062  0.7489
 8384SOL    HW136614   0.730   3.173  11.050 -0.8576 -0.1269 -0.9081
 8384SOL    HW236615   0.817   3.269  11.093 -0.6912 -1.5976  0.5478
 8385SOL     OW36616   4.389   0.692   0.860  0.2128  0.0390 -0.0364
 8385SOL    HW136617   4.461   0.681   0.798 -0.4508  0.1146 -0.8081
 8385SOL    HW236618   4.351   0.605   0.845  0.3249  0.0409 -0.3228
 8386SOL     OW36619   2.551   1.593   2.598  0.0315 -0.0579 -0.0515
 8386SOL    HW136620   2.624   1.652   2.615 -0.4417  0.3915  0.4024
 8386SOL    HW236621   2.515   1.617   2.513 -1.5909  0.1362  0.6799
 8387SOL     OW36622   4.354   4.525   3.751  0.1364 -0.1436 -0.1443
 8387SOL    HW136623   4.287   4.537   3.819 -1.2080 -0.8155 -1.3429
 8387SOL    HW236624   4.339   4.431   3.741  0.7926 -0.0087 -2.1897
 8388SOL     OW36625   1.531   2.690  12.241  0.8489  0.3904  0.7056
 8388SOL    HW136626   1.627   2.682  12.247  0.7140 -2.9104 -1.9080
 8388SOL    HW236627   1.498   2.698  12.330 -2.2540 -3.5720 -0.1035
 8389SOL     OW36628   1.185   2.375  15.151 -0.1926  0.3692  0.6179
 8389SOL    HW136629   1.182   2.388  15.246 -0.9846  3.9763  0.1061
 8389SOL    HW236630   1.271   2.413  15.135 -0.0293  0.9678  2.8574
 8390SOL     OW36631   4.052   1.338   2.756  1.0299 -0.3988 -0.1150
 8390SOL    HW136632   4.033   1.261   2.704  4.0122  0.0932 -1.9886
 8390SOL    HW236633   4.094   1.389   2.686 -0.0084  2.9798  1.7392
 8391SOL     OW36634   0.601   2.724   4.170 -0.1220 -0.4569  0.1225
 8391SOL    HW136635   0.624   2.778   4.245  1.4574  1.2589 -1.5923
 8391SOL    HW236636   0.684   2.697   4.131  1.8458  0.3401  3.7862
 8392SOL     OW36637   3.239   4.146  16.572 -0.1327 -0.1607 -0.1703
 8392SOL    HW136638   3.320   4.181  16.608  0.8919 -2.4167 -0.2864
 8392SOL    HW236639   3.218   4.073  16.630 -2.2073  0.2319 -0.4178
 8393SOL     OW36640   3.973   0.552   1.045  0.2181 -0.4254 -0.4265
 8393SOL    HW136641   3.896   0.606   1.059 -1.9341 -3.6541  0.1907
 8393SOL    HW236642   3.945   0.483   1.106 -0.6532 -0.5087 -0.9245
 8394SOL     OW36643   4.610   2.463   7.804  0.0373  0.3510 -0.5873
 8394SOL    HW136644   4.677   2.424   7.748 -1.6255 -0.6000 -1.9163
 8394SOL    HW236645   4.543   2.394   7.800  0.1022  0.4224 -2.9209
 8395SOL     OW36646   4.159   3.465   6.925 -0.1575 -0.2893  0.0160
 8395SOL    HW136647   4.186   3.547   6.966  0.0186  0.7322 -2.1576
 8395SOL    HW236648   4.070   3.457   6.960  0.1043  0.3867  0.8342
 8396SOL     OW36649   4.200   0.398   9.607  0.2979  0.1122  0.0288
 8396SOL    HW136650   4.206   0.470   9.545  0.4183  0.8413  0.8871
 8396SOL    HW236651   4.264   0.440   9.665  0.6729  1.3285 -1.2783
 8397SOL     OW36652   0.639   4.474   2.411  1.0128  0.2128  0.4462
 8397SOL    HW136653   0.552   4.443   2.386  1.4329  0.4180 -1.2501
 8397SOL    HW236654   0.690   4.442   2.337  0.8158  1.2161 -0.1149
 8398SOL     OW36655   3.312   3.771   8.338  0.7706  0.0123  0.1451
 8398SOL    HW136656   3.355   3.847   8.298  1.2499  0.0418  0.7126
 8398SOL    HW236657   3.379   3.709   8.311 -0.2736 -0.3954 -1.5013
 8399SOL     OW36658   1.671   2.318   9.601 -0.2945 -0.0622 -0.6461
 8399SOL    HW136659   1.713   2.387   9.550 -1.8251 -0.2630 -2.1528
 8399SOL    HW236660   1.733   2.245   9.592 -0.2644 -0.3280  1.6570
 8400SOL     OW36661   2.666   0.652   8.710  0.1677  0.0471  0.1103
 8400SOL    HW136662   2.709   0.656   8.625 -0.8891  1.1905 -0.3638
 8400SOL    HW236663   2.678   0.561   8.738  1.2813  0.2568  0.3330
 8401SOL     OW36664   0.499   2.114   8.674 -0.3036  0.0315 -0.1977
 8401SOL    HW136665   0.579   2.143   8.719  0.4548  0.4556 -1.8424
 8401SOL    HW236666   0.432   2.173   8.709  0.4295  0.7104  0.0437
 8402SOL     OW36667   3.030   2.263   2.949 -0.2676 -0.1568  0.7357
 8402SOL    HW136668   3.068   2.327   3.010 -0.2933  0.2879  0.2845
 8402SOL    HW236669   3.021   2.308   2.865  1.0966 -3.3104 -1.0819
 8403SOL     OW36670   1.399   2.452  11.848  0.0321 -0.3670 -0.2677
 8403SOL    HW136671   1.456   2.477  11.920 -1.4480 -0.5064  0.9549
 8403SOL    HW236672   1.319   2.420  11.890 -0.3964  1.1067  0.0437
 8404SOL     OW36673   1.617   1.779   8.836 -0.6088  0.2775  0.5298
 8404SOL    HW136674   1.689   1.842   8.834  1.4637 -2.0757  1.0329
 8404SOL    HW236675   1.540   1.821   8.797  0.9179  2.6646  0.0343
 8405SOL     OW36676   0.169   1.686  11.217 -0.1189  0.1374  0.1013
 8405SOL    HW136677   0.155   1.642  11.301  1.1630 -3.7198 -1.6884
 8405SOL    HW236678   0.134   1.623  11.154 -0.3605 -0.0478  0.4180
 8406SOL     OW36679   3.188   0.287   7.093  0.1849 -0.3102 -0.6470
 8406SOL    HW136680   3.129   0.218   7.061 -0.2599 -1.6284  3.0750
 8406SOL    HW236681   3.124   0.358   7.092 -0.4633 -0.8717  0.2620
 8407SOL     OW36682   0.954   1.770   3.135 -0.2501 -0.6000 -0.1329
 8407SOL    HW136683   0.872   1.801   3.097 -1.0968 -0.2559  1.9393
 8407SOL    HW236684   1.017   1.837   3.109 -0.6272  0.1120  0.7975
 8408SOL     OW36685   1.250   4.267   5.233 -0.0131 -0.0620 -0.3585
 8408SOL    HW136686   1.165   4.288   5.271  0.3782  1.1084 -0.1113
 8408SOL    HW236687   1.242   4.300   5.143  2.4086 -0.1531 -0.6060
 8409SOL     OW36688   3.029   4.456  17.411 -0.0253 -0.9119  0.2471
 8409SOL    HW136689   3.106   4.510  17.394 -1.7903  1.1190 -1.4029
 8409SOL    HW236690   2.983   4.462  17.327  1.0249 -0.3638 -0.2812
 8410SOL     OW36691   3.911   3.276  16.116  0.1693  0.1246 -0.3397
 8410SOL    HW136692   3.917   3.207  16.182  1.0097  1.2791  0.8043
 8410SOL    HW236693   3.887   3.225  16.038 -0.6952  0.0557 -0.0278
 8411SOL     OW36694   0.634   1.317   6.846  0.1649  0.1240  0.3637
 8411SOL    HW136695   0.718   1.272   6.832 -0.3972 -1.7264  2.9907
 8411SOL    HW236696   0.636   1.301   6.940  0.9505  3.0286  0.8603
 8412SOL     OW36697   2.014   2.486   1.599  0.0884 -0.3809 -0.2012
 8412SOL    HW136698   1.984   2.397   1.580 -1.1107  0.2050 -1.0737
 8412SOL    HW236699   1.961   2.537   1.537 -0.5153 -1.3197 -0.4587
 8413SOL     OW36700   3.908   3.938  14.231  0.7106  0.2229  0.4281
 8413SOL    HW136701   3.854   3.950  14.309  0.1142  1.6513 -0.2142
 8413SOL    HW236702   3.892   3.846  14.209 -1.6665  0.9840 -1.0903
 8414SOL     OW36703   2.530   1.755   3.397 -0.1178 -0.2974 -0.1405
 8414SOL    HW136704   2.560   1.671   3.363  2.0928  1.1337 -1.7268
 8414SOL    HW236705   2.585   1.764   3.475 -1.4888  2.3710  0.5211
 8415SOL     OW36706   4.123   3.977   0.124 -0.2148  0.1205  0.2727
 8415SOL    HW136707   4.087   4.031   0.054  0.7752  0.3563 -0.0471
 8415SOL    HW236708   4.153   4.046   0.184 -1.6452 -0.3283  1.5078
 8416SOL     OW36709   1.088   1.219   0.012  0.0570 -0.5258 -0.5655
 8416SOL    HW136710   1.085   1.299   0.064  4.3041  0.3885 -1.7435
 8416SOL    HW236711   1.106   1.260  17.608 -1.5078  3.6170  1.1182
 8417SOL     OW36712   1.430   2.062   8.191 -0.0982  0.3505 -0.1181
 8417SOL    HW136713   1.478   2.131   8.146 -2.2029  3.0938  1.8699
 8417SOL    HW236714   1.480   1.983   8.169  0.5111  0.2355  1.6521
 8418SOL     OW36715   4.577   1.929   1.561 -0.0385 -0.4333  0.9750
 8418SOL    HW136716   4.525   2.001   1.523 -1.8047 -1.9630  0.5041
 8418SOL    HW236717   4.511   1.892   1.620  1.0029 -2.6874  0.7181
 8419SOL     OW36718   2.850   2.366  12.151  0.0262  0.2823  0.2848
 8419SOL    HW136719   2.755   2.371  12.163 -0.2684 -1.4075 -1.3086
 8419SOL    HW236720   2.868   2.427  12.080 -2.2004  0.9763  0.3162
 8420SOL     OW36721   0.251   1.843   2.104  0.2015 -0.6354 -0.0153
 8420SOL    HW136722   0.297   1.909   2.156 -1.7028  0.7332 -0.0640
 8420SOL    HW236723   0.317   1.838   2.035 -1.5144  1.6855 -1.8128
 8421SOL     OW36724   2.986   2.467   2.681  0.3439 -0.2672  0.3322
 8421SOL    HW136725   2.963   2.376   2.703  2.6843 -0.8172  0.4857
 8421SOL    HW236726   3.007   2.467   2.588  0.8425 -2.1974  0.4426
 8422SOL     OW36727   4.225   0.909  13.858 -0.0208 -0.7269 -0.4247
 8422SOL    HW136728   4.309   0.952  13.872 -0.4962  0.3338 -0.8202
 8422SOL    HW236729   4.162   0.959  13.910 -0.8569 -2.4245  0.1821
 8423SOL     OW36730   4.322   1.555   1.428 -0.1121 -0.1451 -0.0700
 8423SOL    HW136731   4.271   1.534   1.349  1.3480  1.2885 -1.4186
 8423SOL    HW236732   4.410   1.548   1.390  0.2651  0.6056  0.6774
 8424SOL     OW36733   0.509   3.866   2.512 -0.8736  0.4202 -0.4407
 8424SOL    HW136734   0.555   3.880   2.429  0.1569 -0.2704  0.0104
 8424SOL    HW236735   0.462   3.949   2.512 -0.8208  0.4698  1.2529
 8425SOL     OW36736   1.113   0.829   6.033 -0.2810 -0.2948 -0.0734
 8425SOL    HW136737   1.098   0.741   6.067 -1.8640 -0.3008 -0.7913
 8425SOL    HW236738   1.041   0.875   6.076 -0.1717  1.4270 -1.7485
 8426SOL     OW36739   4.096   4.343   3.046 -0.2529 -0.0451  0.1095
 8426SOL    HW136740   4.156   4.270   3.028 -1.0022 -0.8054  0.6436
 8426SOL    HW236741   4.086   4.341   3.141  4.1397 -0.3548  0.5802
 8427SOL     OW36742   4.476   0.731   5.444  0.3898  0.8645  0.9043
 8427SOL    HW136743   4.519   0.695   5.521 -1.5539 -1.4702  0.9128
 8427SOL    HW236744   4.387   0.747   5.476 -0.7634 -0.4355 -1.6259
 8428SOL     OW36745   1.726   3.120   5.713 -0.2115  0.2664  0.2828
 8428SOL    HW136746   1.682   3.035   5.705 -1.6760  1.1873 -1.5492
 8428SOL    HW236747   1.815   3.093   5.691  0.7231  4.0077 -0.4911
 8429SOL     OW36748   3.456   1.616   5.034 -0.1673  0.1013  0.2436
 8429SOL    HW136749   3.475   1.703   5.070 -1.1363  0.5556 -0.3435
 8429SOL    HW236750   3.402   1.580   5.104  0.8147  0.4758  1.1902
 8430SOL     OW36751   0.361   0.544  12.396  0.1683  0.6719  0.3871
 8430SOL    HW136752   0.398   0.586  12.473 -0.1144 -0.7159  1.2684
 8430SOL    HW236753   0.380   0.451  12.406  0.7604  1.2322  4.3259
 8431SOL     OW36754   3.903   2.628  10.899  0.2662  0.3033 -0.5495
 8431SOL    HW136755   3.953   2.549  10.917  2.0463  1.1288 -1.9486
 8431SOL    HW236756   3.917   2.673  10.983 -1.7758 -0.4080  0.1743
 8432SOL     OW36757   0.903   4.695   7.722  0.0490  0.0910 -0.0514
 8432SOL    HW136758   0.839   4.692   7.793 -0.5567 -0.5856 -0.6339
 8432SOL    HW236759   0.854   4.640   7.661  3.2248 -1.5645 -1.1094
 8433SOL     OW36760   2.801   1.668   8.319  0.3070 -0.1530  0.8167
 8433SOL    HW136761   2.720   1.622   8.341  0.7275  0.1067  2.8701
 8433SOL    HW236762   2.777   1.756   8.347 -3.5679 -0.8977 -0.0704
 8434SOL     OW36763   1.786   4.420  10.643 -0.2565 -0.0220 -0.3161
 8434SOL    HW136764   1.699   4.400  10.678 -0.1562 -1.2348 -0.7489
 8434SOL    HW236765   1.763   4.426  10.551  3.4803 -3.7921 -1.5181
 8435SOL     OW36766   4.053   3.402   3.670  0.0409  0.3066  0.4880
 8435SOL    HW136767   4.054   3.409   3.766  0.4438  1.4064  0.4002
 8435SOL    HW236768   4.013   3.315   3.661 -0.2290  0.7628 -2.8051
 8436SOL     OW36769   0.041   4.032   3.496 -0.1150  0.0532 -0.0765
 8436SOL    HW136770   4.677   3.986   3.486 -0.2451  0.1560  0.5369
 8436SOL    HW236771   0.093   3.952   3.503 -0.0132  0.1334  0.0853
 8437SOL     OW36772   1.520   2.806   6.671  0.0379 -0.2215  0.0369
 8437SOL    HW136773   1.444   2.864   6.679  0.7752  0.6398  0.8485
 8437SOL    HW236774   1.542   2.825   6.580 -0.4327 -1.6075 -0.3736
 8438SOL     OW36775   0.664   4.496  13.983  0.5900 -0.1063  0.4945
 8438SOL    HW136776   0.614   4.427  14.026 -2.0760  1.0554 -0.7271
 8438SOL    HW236777   0.614   4.570  14.017  1.3453 -0.9758  3.5312
 8439SOL     OW36778   1.622   1.848   5.274 -0.4076 -0.1926  0.6943
 8439SOL    HW136779   1.536   1.848   5.232  0.1570 -1.1967 -0.4305
 8439SOL    HW236780   1.654   1.932   5.241 -2.1536 -0.5839 -1.9295
 8440SOL     OW36781   0.329   4.219   4.946  0.8835 -0.2580 -0.3311
 8440SOL    HW136782   0.366   4.156   4.884 -0.7205 -0.3751 -1.1865
 8440SOL    HW236783   0.259   4.162   4.976  0.9376 -0.2239 -0.1425
 8441SOL     OW36784   3.159   0.723   9.504  0.2738  0.0115 -0.8525
 8441SOL    HW136785   3.114   0.725   9.419  1.4015 -0.8277 -1.4739
 8441SOL    HW236786   3.138   0.636   9.537  0.4597  0.1751 -0.3048
 8442SOL     OW36787   2.238   3.201  14.795  0.1477 -0.0216  0.5435
 8442SOL    HW136788   2.277   3.207  14.707 -1.6668 -1.5003 -0.3396
 8442SOL    HW236789   2.289   3.127  14.828  0.8137  1.1060  2.0175
 8443SOL     OW36790   1.527   0.461   8.453  0.3345 -0.2292 -0.0247
 8443SOL    HW136791   1.457   0.411   8.495  2.2872 -0.5145  2.9325
 8443SOL    HW236792   1.536   0.418   8.368 -1.9523 -2.5794  0.9353
 8444SOL     OW36793   3.773   1.790   6.165 -0.2356 -0.0473 -1.0836
 8444SOL    HW136794   3.679   1.777   6.161 -0.3168  0.6821 -1.7462
 8444SOL    HW236795   3.793   1.849   6.237 -0.5530 -0.2609 -0.8219
 8445SOL     OW36796   0.881   2.800   7.084  0.1275 -0.4909  0.6383
 8445SOL    HW136797   0.826   2.783   7.007  0.2480  0.7923  0.2659
 8445SOL    HW236798   0.899   2.894   7.075 -0.5133 -0.4572 -0.3184
 8446SOL     OW36799   3.892   0.337   7.667 -0.2686  0.3252  0.6129
 8446SOL    HW136800   3.961   0.400   7.685  0.5941 -0.2337 -0.7707
 8446SOL    HW236801   3.939   0.260   7.700 -0.9940 -0.4142 -0.0803
 8447SOL     OW36802   0.700   2.848   8.422 -0.5035  0.1451 -0.3523
 8447SOL    HW136803   0.785   2.843   8.377 -0.3199 -1.2638  0.1570
 8447SOL    HW236804   0.641   2.856   8.347 -0.9277  0.0113 -0.0309
 8448SOL     OW36805   1.309   2.757   7.415  0.4142  0.2202 -0.4865
 8448SOL    HW136806   1.266   2.812   7.350  1.5260 -0.1948 -1.5725
 8448SOL    HW236807   1.241   2.698   7.447 -0.0110  0.7418 -0.4101
 8449SOL     OW36808   3.592   2.752   3.981  0.3722  0.0646 -0.4721
 8449SOL    HW136809   3.623   2.724   3.895 -0.5459 -2.6200  0.0724
 8449SOL    HW236810   3.508   2.792   3.958 -0.5706 -1.9737 -0.5720
 8450SOL     OW36811   0.680   4.454   7.321  0.1105  0.2200 -0.6062
 8450SOL    HW136812   0.717   4.366   7.317 -2.5558 -0.9291 -0.4838
 8450SOL    HW236813   0.620   4.457   7.246 -2.7465 -1.7843  1.5526
 8451SOL     OW36814   2.720   4.588  16.167  0.3017 -0.3195 -0.0754
 8451SOL    HW136815   2.778   4.512  16.171  1.4621  0.5797  0.0336
 8451SOL    HW236816   2.775   4.651  16.120  0.2548 -1.1129 -1.1775
 8452SOL     OW36817   0.255   0.174   7.056  0.3355 -0.2566 -0.0760
 8452SOL    HW136818   0.190   0.194   6.988 -2.2467 -1.3139  2.0822
 8452SOL    HW236819   0.208   0.106   7.104 -0.0476 -0.7493 -1.1522
 8453SOL     OW36820   4.093   1.085   0.556  0.1002 -0.0310  0.0041
 8453SOL    HW136821   4.057   1.026   0.490 -1.1453  0.3156  0.3772
 8453SOL    HW236822   4.106   1.026   0.630 -0.2166 -2.6214 -2.0435
 8454SOL     OW36823   1.753   2.727   7.943  0.5396  0.5185 -0.6991
 8454SOL    HW136824   1.666   2.766   7.930 -0.1640 -0.2663  1.5674
 8454SOL    HW236825   1.776   2.769   8.026  0.7189  1.1839 -1.0810
 8455SOL     OW36826   0.004   1.478   3.010  0.1533  0.8945  0.2980
 8455SOL    HW136827   4.708   1.545   3.076  2.0509  1.5852  0.0305
 8455SOL    HW236828   0.045   1.411   3.065 -1.9390 -0.6814 -0.0354
 8456SOL     OW36829   2.147   2.701  17.617 -0.2348  0.4237 -0.4360
 8456SOL    HW136830   2.160   2.617  17.660  1.0691  0.0026 -1.6283
 8456SOL    HW236831   2.066   2.685  17.569 -0.2912 -0.2005 -0.1244
 8457SOL     OW36832   1.325   2.149   5.635 -0.3185 -0.0664 -0.2510
 8457SOL    HW136833   1.350   2.169   5.545  2.4286 -0.9226  0.3388
 8457SOL    HW236834   1.356   2.223   5.685 -0.6540 -0.0768 -0.0264
 8458SOL     OW36835   3.190   1.633   1.613 -0.6737  0.0070 -0.0349
 8458SOL    HW136836   3.126   1.567   1.586 -0.2662 -1.2435  2.1036
 8458SOL    HW236837   3.182   1.626   1.708 -1.2518 -0.3356 -0.1073
 8459SOL     OW36838   1.289   3.672   4.929 -0.0033  0.2237 -0.2293
 8459SOL    HW136839   1.374   3.716   4.922 -0.3456  1.1750  1.6503
 8459SOL    HW236840   1.239   3.735   4.981 -0.4508  0.5621 -1.0735
 8460SOL     OW36841   2.124   4.485  14.657 -0.1892  0.5350 -0.3548
 8460SOL    HW136842   2.101   4.511  14.746  1.1825  1.5026 -0.2893
 8460SOL    HW236843   2.090   4.553  14.598 -0.2603  0.7808 -0.0331
 8461SOL     OW36844   0.333   3.005   4.090  0.5133  0.4905 -0.3196
 8461SOL    HW136845   0.279   3.079   4.117 -1.2853 -1.5340  1.5642
 8461SOL    HW236846   0.385   3.035   4.015  0.7007  1.0396  0.0260
 8462SOL     OW36847   2.953   1.620   0.457 -0.1126 -0.1428 -0.1572
 8462SOL    HW136848   2.906   1.693   0.418 -0.5829  0.2300  1.0909
 8462SOL    HW236849   2.880   1.564   0.483  0.9260 -0.7760  1.4147
 8463SOL     OW36850   2.563   3.596   8.385  0.3783  0.0529  0.2966
 8463SOL    HW136851   2.570   3.518   8.439  0.3120 -1.6648 -2.2184
 8463SOL    HW236852   2.494   3.565   8.327 -0.5425  1.7669  0.4627
 8464SOL     OW36853   0.389   3.295   6.527  0.2590 -0.1761 -0.3201
 8464SOL    HW136854   0.361   3.369   6.473  2.9569  1.0422 -0.0419
 8464SOL    HW236855   0.309   3.252   6.556  0.2205  0.4626  0.5283
 8465SOL     OW36856   1.756   1.332   4.738 -0.1919 -0.1963  0.0538
 8465SOL    HW136857   1.749   1.335   4.834 -1.4527  0.8204 -0.0747
 8465SOL    HW236858   1.748   1.237   4.729  0.3417 -0.6282  3.8589
 8466SOL     OW36859   1.363   0.802   7.687 -0.1519 -0.0426  0.4071
 8466SOL    HW136860   1.333   0.725   7.638 -1.5731  0.8157 -0.0524
 8466SOL    HW236861   1.363   0.774   7.778  1.3874 -0.7788  0.1901
 8467SOL     OW36862   0.905   1.786   5.588 -0.2146 -0.0700  0.2052
 8467SOL    HW136863   0.965   1.780   5.661  0.0482 -0.5454 -0.0493
 8467SOL    HW236864   0.961   1.831   5.525  1.8801 -2.4737  0.3929
 8468SOL     OW36865   0.814   0.634   2.121 -0.0928 -0.2693  0.3073
 8468SOL    HW136866   0.726   0.671   2.117  0.8420  1.8938  0.2185
 8468SOL    HW236867   0.787   0.562   2.064 -0.3663  0.3481 -0.3409
 8469SOL     OW36868   3.072   0.449   2.654  0.2846 -0.5875  0.1419
 8469SOL    HW136869   3.043   0.459   2.745 -0.1417 -2.4444  0.2211
 8469SOL    HW236870   3.067   0.541   2.630 -1.3401 -0.9297 -0.8364
 8470SOL     OW36871   0.465   0.335  12.837 -0.5439  0.4328  0.3116
 8470SOL    HW136872   0.548   0.287  12.847 -0.8444 -0.4542 -1.5670
 8470SOL    HW236873   0.410   0.284  12.779  0.2642  0.4805 -0.4976
 8471SOL     OW36874   3.748   1.744   1.753 -0.2555 -0.2829 -0.2169
 8471SOL    HW136875   3.762   1.683   1.826 -3.9106  1.4733  1.9240
 8471SOL    HW236876   3.737   1.679   1.683  0.7478  1.3066 -1.8438
 8472SOL     OW36877   3.059   3.173   2.719 -0.2497 -0.1357 -0.1325
 8472SOL    HW136878   3.083   3.140   2.806  0.6341 -0.4423 -0.4909
 8472SOL    HW236879   2.980   3.225   2.731 -0.1570  0.2833 -1.3505
 8473SOL     OW36880   4.377   3.128   7.416  0.2156 -0.0051 -0.0854
 8473SOL    HW136881   4.404   3.143   7.507  2.9635  1.3802 -1.1229
 8473SOL    HW236882   4.434   3.196   7.378  1.6701 -1.4033 -0.4135
 8474SOL     OW36883   1.901   0.113  16.884  0.0795 -0.4723 -0.0443
 8474SOL    HW136884   1.860   0.178  16.941  2.0907 -0.7488  1.6735
 8474SOL    HW236885   1.937   0.045  16.940  1.3957  0.8241  0.6545
 8475SOL     OW36886   1.352   1.768   8.072 -0.1419  0.0362  0.0707
 8475SOL    HW136887   1.273   1.731   8.032  0.6547 -2.1678  0.5135
 8475SOL    HW236888   1.353   1.732   8.161 -0.7482 -1.3529 -0.4907
 8476SOL     OW36889   4.143   2.691   3.043  0.6470 -0.3199 -0.1471
 8476SOL    HW136890   4.207   2.648   2.986 -1.0545 -1.2884 -1.3239
 8476SOL    HW236891   4.085   2.616   3.053  0.5759 -0.3961 -1.0987
 8477SOL     OW36892   1.844   0.925   4.165  0.2306  1.3538  0.0833
 8477SOL    HW136893   1.897   0.974   4.102  0.3590 -0.0018 -0.8719
 8477SOL    HW236894   1.764   0.904   4.117  0.0582  2.5108 -0.1248
 8478SOL     OW36895   3.999   1.713   4.874  0.2442  0.2520 -0.2238
 8478SOL    HW136896   3.924   1.657   4.854 -0.4451  1.3698 -0.7275
 8478SOL    HW236897   3.963   1.763   4.946 -0.2987 -0.2881 -0.1169
 8479SOL     OW36898   1.564   4.388   6.265 -0.1785 -0.8377 -0.9932
 8479SOL    HW136899   1.616   4.354   6.337 -0.1865  1.1197 -0.0694
 8479SOL    HW236900   1.505   4.319   6.234 -0.8396 -0.4798 -0.5241
 8480SOL     OW36901   0.029   2.623   1.587 -0.0324  0.3735  0.0331
 8480SOL    HW136902   0.117   2.658   1.597 -0.6378  2.0267 -0.2976
 8480SOL    HW236903   4.700   2.691   1.540 -1.7177 -0.5185  0.4678
 8481SOL     OW36904   1.106   3.073   1.832  0.3811 -0.4716 -0.5980
 8481SOL    HW136905   1.075   2.989   1.797  1.3952 -1.1399  0.0698
 8481SOL    HW236906   1.182   3.038   1.879  1.8947 -0.0197 -2.7695
 8482SOL     OW36907   3.665   3.773   2.722 -0.1715 -0.5187  0.6003
 8482SOL    HW136908   3.634   3.701   2.667  1.1567 -2.3374  2.2366
 8482SOL    HW236909   3.709   3.837   2.666 -0.2362 -1.2360 -0.2715
 8483SOL     OW36910   4.374   3.960  11.978  0.4014 -0.4221 -0.1344
 8483SOL    HW136911   4.402   3.870  11.991  0.7632 -0.0683  1.5645
 8483SOL    HW236912   4.338   3.990  12.062  0.2147 -1.0099 -0.0028
 8484SOL     OW36913   1.900   4.623   2.303  0.8345 -0.2932 -0.1989
 8484SOL    HW136914   1.956   4.698   2.321  2.3998 -1.3529 -0.7280
 8484SOL    HW236915   1.949   4.583   2.232 -1.8760  1.8824 -3.2845
 8485SOL     OW36916   2.196   2.273   9.459  0.0751  0.2111 -0.1504
 8485SOL    HW136917   2.241   2.306   9.537 -0.4750 -0.0661  0.2860
 8485SOL    HW236918   2.114   2.321   9.466  0.4231  0.5708  1.4721
 8486SOL     OW36919   1.290   0.472   5.120 -0.0031  0.0828 -0.1971
 8486SOL    HW136920   1.344   0.545   5.153  1.9479 -2.0222  1.2673
 8486SOL    HW236921   1.272   0.496   5.029  0.0909 -1.6308 -0.6666
 8487SOL     OW36922   3.116   2.927  11.857 -0.2670 -0.3958  0.8200
 8487SOL    HW136923   3.082   2.893  11.940 -0.7284  1.3326  1.3475
 8487SOL    HW236924   3.117   2.844  11.809  1.6512  1.1232 -1.7367
 8488SOL     OW36925   0.985   0.481  11.527  0.3514  0.0327 -0.2347
 8488SOL    HW136926   0.897   0.518  11.525 -0.3813 -1.8496 -2.7314
 8488SOL    HW236927   1.014   0.521  11.609 -0.7513  0.0303  0.1546
 8489SOL     OW36928   0.070   0.963   2.185 -0.1629 -0.0010  0.3258
 8489SOL    HW136929   0.158   0.949   2.149 -0.0307  2.4457 -0.2931
 8489SOL    HW236930   0.045   1.036   2.128 -0.3778 -0.4483 -0.1501
 8490SOL     OW36931   0.315   1.832   4.684  0.2943 -0.8929  0.5398
 8490SOL    HW136932   0.242   1.843   4.745 -1.1483  2.3816 -1.7981
 8490SOL    HW236933   0.259   1.813   4.609  0.7888  1.0155 -0.3209
 8491SOL     OW36934   4.268   2.048   5.768 -0.0307 -0.3668 -0.2167
 8491SOL    HW136935   4.228   2.110   5.708 -1.1239 -1.3040 -0.4603
 8491SOL    HW236936   4.356   2.085   5.778 -0.0052  0.2756 -2.9950
 8492SOL     OW36937   0.552   2.349   2.090  0.2815 -0.5991 -0.4298
 8492SOL    HW136938   0.544   2.269   2.039 -0.1214 -1.5755  1.1547
 8492SOL    HW236939   0.637   2.383   2.063  0.3635 -0.1992  0.3194
 8493SOL     OW36940   0.539   2.696   3.180 -0.0028 -0.6227  0.0024
 8493SOL    HW136941   0.557   2.748   3.258  0.4386  0.1206 -0.5973
 8493SOL    HW236942   0.577   2.759   3.119 -0.3553 -0.3061  0.1120
 8494SOL     OW36943   3.911   4.499   7.350 -0.4928  0.5072 -0.2712
 8494SOL    HW136944   3.957   4.575   7.385  1.1925 -0.1780 -1.0210
 8494SOL    HW236945   3.843   4.543   7.300 -1.2866  0.2202  0.5339
 8495SOL     OW36946   2.375   2.016  13.332 -0.0378 -0.3883 -0.0533
 8495SOL    HW136947   2.466   1.992  13.317  0.9272  2.6888  0.9008
 8495SOL    HW236948   2.328   1.955  13.276 -1.3242  1.8949 -1.4476
 8496SOL     OW36949   3.624   0.186   0.217 -0.0772  0.1950 -0.2547
 8496SOL    HW136950   3.622   0.197   0.312  0.5241  1.9769 -0.4534
 8496SOL    HW236951   3.670   0.266   0.192  2.7476 -1.3976 -0.1832
 8497SOL     OW36952   1.095   1.032   2.189  0.2896  0.2737  0.0285
 8497SOL    HW136953   1.001   1.034   2.173  0.0871 -0.0384  1.1583
 8497SOL    HW236954   1.135   1.087   2.122  0.8541 -0.7504 -0.4842
 8498SOL     OW36955   0.705   0.113  12.370  0.0163  0.1632 -0.6578
 8498SOL    HW136956   0.697   0.029  12.416  0.6094  0.3351 -0.2533
 8498SOL    HW236957   0.796   0.133  12.391 -0.9033  1.7234  1.8212
 8499SOL     OW36958   1.930   0.049   8.667  0.6973 -0.5536 -0.0650
 8499SOL    HW136959   1.852   0.103   8.657  1.4215  0.4263 -0.3656
 8499SOL    HW236960   1.893   4.685   8.697 -0.2719  0.7348  2.2658
 8500SOL     OW36961   0.778   1.908   8.424 -0.1573  0.3406 -0.0082
 8500SOL    HW136962   0.834   1.862   8.487  0.4293 -0.7689 -1.3276
 8500SOL    HW236963   0.836   1.977   8.393  0.4256  0.4537  1.3399
 8501SOL     OW36964   1.285   4.265   3.824  0.4095 -0.0671 -0.2030
 8501SOL    HW136965   1.294   4.171   3.812 -1.3005 -0.3053  0.4531
 8501SOL    HW236966   1.239   4.259   3.907 -2.1213  2.7190 -1.3623
 8502SOL     OW36967   4.226   2.668  10.916  0.3371  0.0761  0.3546
 8502SOL    HW136968   4.170   2.742  10.895  2.5574  1.3396 -1.1023
 8502SOL    HW236969   4.225   2.666  11.012 -1.8417 -0.9772  0.3094
 8503SOL     OW36970   0.879   3.329   1.139  0.1259 -0.2497  0.2852
 8503SOL    HW136971   0.818   3.271   1.184 -0.2724  0.1016  0.1976
 8503SOL    HW236972   0.934   3.354   1.213 -1.2728  2.3518  0.4452
 8504SOL     OW36973   1.132   3.331   0.254 -0.4966  0.1977 -0.4987
 8504SOL    HW136974   1.089   3.247   0.273 -0.6430  0.6789  1.3504
 8504SOL    HW236975   1.214   3.308   0.212 -0.8571  0.9896 -1.6437
 8505SOL     OW36976   0.798   1.481  15.912 -0.2052 -0.2030  0.2763
 8505SOL    HW136977   0.715   1.495  15.866  0.2386  0.7977 -0.2191
 8505SOL    HW236978   0.759   1.467  15.998  0.1148  0.1633  0.4761
 8506SOL     OW36979   3.745   4.510   5.365 -0.0333 -0.0701 -0.1152
 8506SOL    HW136980   3.794   4.570   5.421 -1.2143  1.3249 -0.5678
 8506SOL    HW236981   3.815   4.445   5.355  0.7144  0.2618  2.9412
 8507SOL     OW36982   3.569   1.026   6.625 -0.2563 -0.7930 -0.1608
 8507SOL    HW136983   3.633   1.036   6.555 -1.2667 -1.1960 -1.1389
 8507SOL    HW236984   3.504   0.972   6.581  1.0963 -1.5827 -1.1910
 8508SOL     OW36985   3.775   1.778   5.477 -0.2585 -0.7054  0.4495
 8508SOL    HW136986   3.741   1.763   5.389 -2.6641 -0.7477  1.3962
 8508SOL    HW236987   3.810   1.691   5.496  0.3403  0.0692  2.7857
 8509SOL     OW36988   3.970   0.222   5.591  0.1233  0.2636 -0.1555
 8509SOL    HW136989   3.914   0.293   5.623  0.9154  0.2027  1.3868
 8509SOL    HW236990   4.019   0.197   5.670  1.8798  0.5126 -1.1553
 8510SOL     OW36991   1.456   4.539   7.590  0.2426  0.8257 -0.5596
 8510SOL    HW136992   1.374   4.590   7.595 -0.9801 -1.4086  1.7684
 8510SOL    HW236993   1.517   4.600   7.631  0.6566  0.0772 -0.0635
 8511SOL     OW36994   4.051   0.469  17.587  0.1744 -0.4833 -0.5967
 8511SOL    HW136995   4.070   0.391  17.639  2.0107  0.8390  0.7639
 8511SOL    HW236996   3.980   0.509  17.637  3.4612  4.1227  0.4112
 8512SOL     OW36997   1.895   3.133   3.066  0.5158  0.0130  0.0007
 8512SOL    HW136998   1.869   3.141   3.157 -1.3211 -2.9512 -0.2456
 8512SOL    HW236999   1.810   3.133   3.022  1.0058 -3.3717 -1.0184
 8513SOL     OW37000   2.640   1.984  16.063  0.0567 -0.3307  0.2622
 8513SOL    HW137001   2.671   2.057  16.116 -0.9088 -0.9038  1.6102
 8513SOL    HW237002   2.632   2.031  15.980  1.8417  2.0587  1.4383
 8514SOL     OW37003   0.678   3.722   2.126  0.4535 -0.6805 -0.0948
 8514SOL    HW137004   0.633   3.659   2.182 -1.1465  0.0241 -0.6087
 8514SOL    HW237005   0.613   3.791   2.132  0.3515 -0.4646 -3.7929
 8515SOL     OW37006   4.342   2.662   2.855 -0.0421  0.8588  1.0440
 8515SOL    HW137007   4.407   2.728   2.880  1.9524 -1.3445  1.7696
 8515SOL    HW237008   4.391   2.582   2.835 -0.5314  0.4436  1.5128
 8516SOL     OW37009   3.296   1.396  13.537 -0.7354  0.4549  0.5596
 8516SOL    HW137010   3.293   1.483  13.577 -0.3759  0.5689  0.3398
 8516SOL    HW237011   3.341   1.345  13.605 -0.8883  0.5764  0.7512
 8517SOL     OW37012   1.809   1.507  16.842  0.2548  0.4318 -0.6407
 8517SOL    HW137013   1.735   1.529  16.785 -0.9946 -0.7713  0.4958
 8517SOL    HW237014   1.854   1.591  16.837 -1.1735  1.2258 -0.3445
 8518SOL     OW37015   2.400   1.198   0.154  0.1894  0.0442 -0.9785
 8518SOL    HW137016   2.388   1.110   0.118  2.8936 -0.4430 -0.6664
 8518SOL    HW237017   2.459   1.195   0.229 -1.1493  1.1132  0.1283
 8519SOL     OW37018   0.324   3.858  10.828 -0.3084 -0.8904  0.0965
 8519SOL    HW137019   0.367   3.893  10.750 -2.1476  1.1999  0.0082
 8519SOL    HW237020   0.396   3.873  10.889  0.0397 -0.2383 -0.4693
 8520SOL     OW37021   1.929   1.719   9.564 -0.5695 -0.0052 -0.5191
 8520SOL    HW137022   1.867   1.658   9.523 -2.2070  0.0390  1.8812
 8520SOL    HW237023   1.877   1.793   9.594 -0.7538  1.0811 -3.6072
 8521SOL     OW37024   2.576   4.664   3.243 -0.3694  0.2582 -0.1289
 8521SOL    HW137025   2.549   0.023   3.195  1.1101  0.9218  0.1109
 8521SOL    HW237026   2.659   4.639   3.201 -0.3840  3.8962 -2.2904
 8522SOL     OW37027   1.322   3.403   2.428  0.0293 -0.2430 -0.1326
 8522SOL    HW137028   1.277   3.420   2.346  0.2351 -0.8042 -0.3657
 8522SOL    HW237029   1.276   3.463   2.486 -0.3777  0.2067 -0.9265
 8523SOL     OW37030   2.624   4.200  12.733  0.7198  0.1269 -0.1506
 8523SOL    HW137031   2.648   4.208  12.826 -0.1639  0.1625  0.0713
 8523SOL    HW237032   2.712   4.207  12.695 -0.6073  1.9023 -2.8784
 8524SOL     OW37033   3.633   0.670  14.188  0.6163  0.1146  0.2145
 8524SOL    HW137034   3.591   0.707  14.266  2.2272  0.2115  1.0351
 8524SOL    HW237035   3.635   0.578  14.213 -0.1217  0.2122  0.6260
 8525SOL     OW37036   4.525   0.691   2.480  0.0029 -0.0768  0.0296
 8525SOL    HW137037   4.444   0.649   2.449 -0.9566  0.9524  1.1186
 8525SOL    HW237038   4.553   0.735   2.399 -0.1449 -0.8102 -0.4225
 8526SOL     OW37039   3.141   3.404   9.572  0.6005  0.0688 -0.2282
 8526SOL    HW137040   3.131   3.315   9.539  1.4059 -0.4643  0.9484
 8526SOL    HW237041   3.064   3.446   9.534  0.9714  1.4234  0.5289
 8527SOL     OW37042   1.615   1.762   2.330 -0.5031 -0.0979 -0.0103
 8527SOL    HW137043   1.701   1.802   2.320 -2.5183  3.9242 -1.2687
 8527SOL    HW237044   1.564   1.792   2.255  0.1225 -1.0244 -0.8102
 8528SOL     OW37045   1.518   1.677  15.752  0.5722  0.7204 -0.3736
 8528SOL    HW137046   1.504   1.697  15.845 -0.4237  1.5821 -0.7129
 8528SOL    HW237047   1.537   1.768  15.731  0.2984  1.6227  3.2993
 8529SOL     OW37048   3.176   4.194  13.780 -0.1611 -0.0391  0.2363
 8529SOL    HW137049   3.190   4.240  13.863 -2.9059  3.0646 -1.0251
 8529SOL    HW237050   3.120   4.260  13.739  2.0885  1.5292 -0.3209
 8530SOL     OW37051   1.098   2.172   7.825  0.2176  0.2643  0.3275
 8530SOL    HW137052   1.082   2.079   7.841  2.0417  0.0888  1.1114
 8530SOL    HW237053   1.145   2.190   7.906  0.9127  1.0978 -0.2611
 8531SOL     OW37054   0.283   0.649   7.298 -0.0512 -0.3489 -0.1894
 8531SOL    HW137055   0.309   0.707   7.369 -1.0153  0.3952 -0.4471
 8531SOL    HW237056   0.353   0.584   7.304 -0.8996 -1.1947  0.6792
 8532SOL     OW37057   1.187   3.406   2.824 -0.5058  0.4953  0.1863
 8532SOL    HW137058   1.183   3.335   2.888 -4.0823  0.4200 -0.1226
 8532SOL    HW237059   1.113   3.389   2.765  0.3138  0.6578 -0.9025
 8533SOL     OW37060   3.897   1.966   2.147  0.1871  0.5305  0.0742
 8533SOL    HW137061   3.980   1.984   2.191  0.5740 -0.2756 -0.3413
 8533SOL    HW237062   3.867   1.884   2.185  2.5094 -0.1921  0.3428
 8534SOL     OW37063   3.026   4.030  11.464 -0.3741 -0.3335  0.0808
 8534SOL    HW137064   3.044   4.105  11.521  1.2868 -1.7922  1.5010
 8534SOL    HW237065   2.949   3.998  11.510  0.7864 -0.7727  1.7462
 8535SOL     OW37066   1.257   0.210   4.452  1.0575 -0.7064  0.0772
 8535SOL    HW137067   1.187   0.224   4.515  2.0169 -3.6634  1.8015
 8535SOL    HW237068   1.254   0.294   4.407 -0.1484 -0.2483  1.0324
 8536SOL     OW37069   2.008   2.905   8.801 -0.3806  0.2421  0.9893
 8536SOL    HW137070   1.963   2.827   8.833  0.3052 -0.2334  0.8045
 8536SOL    HW237071   1.973   2.972   8.859  1.2150  0.5832  1.5609
 8537SOL     OW37072   3.266   2.259   2.579 -0.8933 -0.6530 -0.3247
 8537SOL    HW137073   3.221   2.250   2.495 -1.0397 -2.0685 -0.0796
 8537SOL    HW237074   3.338   2.317   2.556 -0.3452 -1.4207 -0.5127
 8538SOL     OW37075   0.694   3.857   2.723  0.0620 -0.4259 -0.9740
 8538SOL    HW137076   0.634   3.894   2.788  0.8045 -0.9233 -0.0031
 8538SOL    HW237077   0.640   3.852   2.645 -0.1949  1.8421 -0.9437
 8539SOL     OW37078   0.676   4.173   1.816  0.0705  0.1318 -0.5707
 8539SOL    HW137079   0.720   4.132   1.890  0.0239 -0.2812 -0.7717
 8539SOL    HW237080   0.727   4.254   1.806  0.2340  0.4276  2.5786
 8540SOL     OW37081   2.766   2.886  10.563  0.7054 -0.0960  0.3334
 8540SOL    HW137082   2.692   2.945  10.560 -0.5043 -1.4493  2.9703
 8540SOL    HW237083   2.741   2.831  10.638 -0.4367  1.4707  1.0914
 8541SOL     OW37084   3.185   0.647   3.489  0.3887 -0.6795 -0.6009
 8541SOL    HW137085   3.205   0.729   3.445  0.5796 -1.0893 -1.2920
 8541SOL    HW237086   3.096   0.667   3.517  1.2860  0.7967  1.1938
 8542SOL     OW37087   1.215   4.101   0.211  0.7200 -0.1453 -0.2135
 8542SOL    HW137088   1.232   4.105   0.305  0.5573 -0.9216 -0.1514
 8542SOL    HW237089   1.201   4.007   0.211  2.7106 -0.4330  0.3100
 8543SOL     OW37090   0.225   1.757   1.386 -0.1674  0.2535  0.0189
 8543SOL    HW137091   0.286   1.830   1.375  0.0854  0.2046  1.1383
 8543SOL    HW237092   0.172   1.786   1.460 -0.8911 -0.6130 -0.1658
 8544SOL     OW37093   4.444   0.176   7.292 -0.2512 -0.4346 -0.7245
 8544SOL    HW137094   4.494   0.257   7.290 -2.6535  1.0195 -2.1510
 8544SOL    HW237095   4.469   0.149   7.204  0.6002 -0.7307 -0.3880
 8545SOL     OW37096   3.346   2.329   4.793  0.0103 -0.2452  0.1090
 8545SOL    HW137097   3.380   2.403   4.843 -0.8505 -0.0229  0.3754
 8545SOL    HW237098   3.391   2.254   4.831  3.9749  0.6154 -2.9357
 8546SOL     OW37099   4.636   0.393   8.952  0.2756 -0.0107 -0.4175
 8546SOL    HW137100   4.596   0.479   8.968 -1.9352 -1.0469 -0.2528
 8546SOL    HW237101   4.702   0.416   8.887  0.3526 -0.6847 -0.5774
 8547SOL     OW37102   3.489   3.857  16.992 -0.1562  0.0328 -0.1393
 8547SOL    HW137103   3.519   3.947  16.977 -1.5069  0.5553  0.3226
 8547SOL    HW237104   3.409   3.867  17.044  1.6453 -0.3029  2.7303
 8548SOL     OW37105   2.060   2.359   4.589  0.1208  0.4178 -0.2115
 8548SOL    HW137106   2.028   2.274   4.559  1.2286 -0.6062  1.5192
 8548SOL    HW237107   1.975   2.404   4.587  0.2416  0.6361 -0.5870
 8549SOL     OW37108   1.442   0.597   6.599  0.2296  0.6258  0.4852
 8549SOL    HW137109   1.527   0.634   6.623 -0.0493  0.4528  1.7204
 8549SOL    HW237110   1.464   0.505   6.588  0.1434  0.4448  1.8537
 8550SOL     OW37111   1.658   2.785   9.138  0.3571 -0.1314 -0.9699
 8550SOL    HW137112   1.640   2.813   9.049 -0.4677  2.8783  0.1360
 8550SOL    HW237113   1.602   2.708   9.145 -2.6593  2.1722  0.3822
 8551SOL     OW37114   2.412   3.447  14.875  0.6606  0.5912 -0.1405
 8551SOL    HW137115   2.454   3.532  14.887  4.3223 -1.0668 -1.0994
 8551SOL    HW237116   2.483   3.384  14.863 -1.3887 -2.0647  1.6266
 8552SOL     OW37117   3.625   1.434  14.652 -0.5118 -0.2230 -0.2927
 8552SOL    HW137118   3.641   1.440  14.558 -1.9411  1.1390 -0.4548
 8552SOL    HW237119   3.630   1.340  14.671 -0.1165  0.0582  1.0148
 8553SOL     OW37120   4.547   4.118   5.276  0.0971  0.1066  0.1887
 8553SOL    HW137121   4.489   4.193   5.263 -1.5804 -1.3393 -0.6054
 8553SOL    HW237122   4.572   4.125   5.368 -0.3993 -0.0433  0.3347
 8554SOL     OW37123   2.519   4.411   4.415 -0.7683 -0.5325 -0.2875
 8554SOL    HW137124   2.608   4.442   4.400 -1.6431  1.8806 -0.5190
 8554SOL    HW237125   2.475   4.487   4.454 -3.8239 -0.6689 -3.5037
 8555SOL     OW37126   3.345   1.657   1.217  0.2996  0.5351 -0.0723
 8555SOL    HW137127   3.325   1.617   1.133 -1.4480 -0.5491  0.8416
 8555SOL    HW237128   3.379   1.744   1.197 -0.4699  0.4132 -1.8969
 8556SOL     OW37129   3.414   0.333   0.529 -0.5479  0.4178  0.1565
 8556SOL    HW137130   3.378   0.295   0.610  1.7447 -1.1668  0.4447
 8556SOL    HW237131   3.507   0.321   0.547 -0.1523 -1.0291 -2.8181
 8557SOL     OW37132   4.697   3.153  10.282  0.5052  0.6556  0.5262
 8557SOL    HW137133   4.648   3.072  10.263  1.1983  0.0032  1.5077
 8557SOL    HW237134   4.687   3.203  10.202  0.6276  1.7370  1.1923
 8558SOL     OW37135   2.026   4.137  15.143  0.0602  0.7469  0.0747
 8558SOL    HW137136   2.056   4.190  15.218 -1.0669 -0.3426  1.2936
 8558SOL    HW237137   1.931   4.149  15.142 -0.0276 -0.1899 -1.5918
 8559SOL     OW37138   3.132   4.057   7.986 -0.2835  0.4004 -0.4474
 8559SOL    HW137139   3.183   4.044   7.905  0.9771  1.1192  0.2342
 8559SOL    HW237140   3.175   4.136   8.019 -3.6399  1.5690  1.0828
 8560SOL     OW37141   4.088   3.928   5.428 -0.3200 -0.4810  0.4840
 8560SOL    HW137142   4.029   3.938   5.354 -0.9036 -2.1868  0.7078
 8560SOL    HW237143   4.031   3.912   5.504 -0.6805  0.7756  0.4714
 8561SOL     OW37144   4.710   4.512   8.411 -0.1332 -0.0600 -0.6148
 8561SOL    HW137145   0.038   4.430   8.392 -1.1078 -0.0319 -3.2000
 8561SOL    HW237146   4.666   4.496   8.494  1.4116 -2.6348 -0.2745
 8562SOL     OW37147   0.773   1.150   3.520 -0.1740  0.8871 -0.6889
 8562SOL    HW137148   0.781   1.135   3.426 -0.3656 -2.5220 -0.1966
 8562SOL    HW237149   0.687   1.106   3.523 -0.3390  1.2939  0.8411
 8563SOL     OW37150   3.599   0.020   5.617 -0.0822  0.2882  0.0707
 8563SOL    HW137151   3.644   0.004   5.700 -2.1225 -2.9142  0.5547
 8563SOL    HW237152   3.553   0.103   5.626 -1.5207 -0.8436  3.0414
 8564SOL     OW37153   3.637   4.332   3.705  0.3191 -0.2183  0.4609
 8564SOL    HW137154   3.623   4.352   3.612  0.9114  0.5736  0.5346
 8564SOL    HW237155   3.556   4.377   3.731  0.7288  0.4793  0.5287
 8565SOL     OW37156   2.903   4.628   7.705  0.4502 -0.6488  0.1275
 8565SOL    HW137157   2.942   4.541   7.703 -0.3434 -0.9978  0.1811
 8565SOL    HW237158   2.881   4.651   7.614 -0.1611 -1.0026  0.1865
 8566SOL     OW37159   3.323   3.662   2.220 -0.1112  0.0736  0.3160
 8566SOL    HW137160   3.231   3.691   2.221 -0.3422 -0.6811  1.3782
 8566SOL    HW237161   3.314   3.572   2.188 -0.4061  0.7181 -1.4016
 8567SOL     OW37162   3.531   3.075   6.060 -0.0077  0.2756  0.3566
 8567SOL    HW137163   3.618   3.052   6.027  0.2359  1.6625  0.0103
 8567SOL    HW237164   3.472   3.020   6.008 -1.3994  0.8817  1.2923
 8568SOL     OW37165   1.456   1.997   2.263  0.0919  0.5251 -0.0318
 8568SOL    HW137166   1.378   1.942   2.264  0.4829 -0.0194  1.3412
 8568SOL    HW237167   1.491   1.991   2.353  0.7160 -1.1032 -0.3848
 8569SOL     OW37168   3.479   1.864   1.764 -0.1827  0.6377  0.2429
 8569SOL    HW137169   3.433   1.869   1.680  0.2862 -2.4557 -0.1939
 8569SOL    HW237170   3.569   1.841   1.738 -0.9118 -1.1170 -0.7301
 8570SOL     OW37171   3.242   2.261   6.848 -0.4282 -0.2402 -0.6089
 8570SOL    HW137172   3.162   2.220   6.882 -1.0356  0.6869 -0.9125
 8570SOL    HW237173   3.216   2.271   6.756  1.1233 -3.2202 -1.3797
 8571SOL     OW37174   0.002   0.270  17.453  0.0079  0.2430 -0.3702
 8571SOL    HW137175   0.061   0.276  17.378 -1.2088 -1.2081 -1.4371
 8571SOL    HW237176   4.659   0.341  17.437  0.0331  0.0063 -1.5695
 8572SOL     OW37177   0.751   1.105   3.119 -0.4271 -0.3156  0.4689
 8572SOL    HW137178   0.706   1.102   3.034  0.0102 -1.5012  0.2796
 8572SOL    HW237179   0.813   1.177   3.107 -0.3427 -0.3880  0.4719
 8573SOL     OW37180   0.396   0.450  17.054  0.2980  0.3803  0.0916
 8573SOL    HW137181   0.422   0.398  16.978  1.6218  1.3420 -0.1022
 8573SOL    HW237182   0.467   0.448  17.118  0.2487 -0.5076  0.1127
 8574SOL     OW37183   3.442   0.055   7.173  0.2357  0.3505  0.1566
 8574SOL    HW137184   3.363   0.004   7.157  0.4386  0.5878 -1.6110
 8574SOL    HW237185   3.485   0.024   7.093 -0.2859 -2.2209  0.8881
 8575SOL     OW37186   0.759   0.187  15.343 -0.1739 -0.2472  0.0540
 8575SOL    HW137187   0.676   0.223  15.375  0.1653  1.5140 -1.0186
 8575SOL    HW237188   0.794   0.145  15.422 -1.3477 -0.6276  0.3692
 8576SOL     OW37189   3.043   0.664  17.137  0.4408  0.0228 -0.3837
 8576SOL    HW137190   3.110   0.605  17.103  0.5684 -0.1358  0.1495
 8576SOL    HW237191   3.091   0.708  17.208 -0.7558  0.3957  0.1953
 8577SOL     OW37192   1.064   0.079   3.334 -0.4524 -0.3864  0.9760
 8577SOL    HW137193   1.154   0.113   3.338 -0.3916 -0.7045  2.3091
 8577SOL    HW237194   1.067   4.711   3.371 -0.6926 -0.0784  1.7125
 8578SOL     OW37195   2.216   1.355   2.817 -0.6962 -0.6461 -0.0988
 8578SOL    HW137196   2.204   1.390   2.729 -0.8512  1.0372  0.6043
 8578SOL    HW237197   2.210   1.430   2.876 -1.9688 -0.4024 -0.5261
 8579SOL     OW37198   2.048   0.937  16.406 -1.0794  0.0758 -0.2879
 8579SOL    HW137199   1.984   0.880  16.448 -0.5888 -0.8640 -0.8096
 8579SOL    HW237200   2.106   0.881  16.354 -1.9913 -1.3509  0.2257
 8580SOL     OW37201   2.487   0.680   5.891 -0.1055  0.5585 -0.4023
 8580SOL    HW137202   2.487   0.620   5.816  1.2879 -1.1062  0.9479
 8580SOL    HW237203   2.481   0.770   5.858 -2.3225 -0.1752 -2.0328
 8581SOL     OW37204   3.803   3.333  12.440  0.3108 -0.0627 -0.1122
 8581SOL    HW137205   3.847   3.250  12.425 -1.4674 -0.1653 -4.8760
 8581SOL    HW237206   3.753   3.322  12.521 -0.8680 -2.4479 -1.1594
 8582SOL     OW37207   0.783   0.100  11.754 -0.2943  0.0001 -0.6189
 8582SOL    HW137208   0.856   0.063  11.803 -1.1050  1.2228  1.5090
 8582SOL    HW237209   0.823   0.136  11.675  0.2487  1.6212  0.4117
 8583SOL     OW37210   4.624   0.865   9.662 -0.1593 -0.2004  0.0594
 8583SOL    HW137211   4.610   0.794   9.725  1.3574 -0.8623 -0.3523
 8583SOL    HW237212   4.666   0.814   9.593  1.1460  1.4530 -0.3756
 8584SOL     OW37213   4.371   3.050   4.912  0.2391 -0.2881 -0.1744
 8584SOL    HW137214   4.280   3.045   4.942  0.4561 -0.7998  0.4000
 8584SOL    HW237215   4.408   2.967   4.943  1.4157  0.5648  0.6966
 8585SOL     OW37216   2.135   0.626  15.016 -0.2536  0.0997 -0.0227
 8585SOL    HW137217   2.056   0.650  14.968  0.1601 -4.5392 -3.0962
 8585SOL    HW237218   2.160   0.717  15.031  2.3974 -0.3449 -1.8091
 8586SOL     OW37219   1.749   3.239   2.642  0.7604 -0.1850  0.3553
 8586SOL    HW137220   1.677   3.292   2.676  0.4386 -1.3708  1.5244
 8586SOL    HW237221   1.740   3.245   2.547 -1.1331 -1.3116  0.4799
 8587SOL     OW37222   1.907   0.744   2.300 -0.0844  0.3324 -0.1656
 8587SOL    HW137223   1.951   0.669   2.259 -1.5050 -0.2249 -0.6921
 8587SOL    HW237224   1.820   0.705   2.310  1.0627 -1.6990  2.0479
 8588SOL     OW37225   4.427   1.741   1.155 -0.2872  0.9255  0.1939
 8588SOL    HW137226   4.453   1.703   1.071  0.5557  2.8686 -0.4320
 8588SOL    HW237227   4.347   1.691   1.168 -0.7784  1.4341 -0.8717
 8589SOL     OW37228   1.304   0.064  15.176 -0.3472  0.1900 -0.0540
 8589SOL    HW137229   1.351   0.054  15.093  0.0037  2.6629 -0.1553
 8589SOL    HW237230   1.269   4.697  15.196  0.6204 -0.6970 -2.1004
 8590SOL     OW37231   1.624   0.691   8.061 -0.8778  0.5642  0.1854
 8590SOL    HW137232   1.693   0.746   8.024 -2.2289  2.0591 -0.1042
 8590SOL    HW237233   1.676   0.657   8.134  0.8664  1.5668 -0.5945
 8591SOL     OW37234   1.748   4.681   4.387  0.6432 -0.0152 -0.1140
 8591SOL    HW137235   1.806   0.031   4.416  1.7549  0.2076 -2.8775
 8591SOL    HW237236   1.665   4.712   4.424  0.1266 -0.6108 -0.7678
 8592SOL     OW37237   2.154   0.552  14.660  0.0187  0.2540  0.0220
 8592SOL    HW137238   2.204   0.633  14.648  0.4622 -0.1425 -0.7929
 8592SOL    HW237239   2.146   0.539  14.755 -0.6307 -1.4313 -0.2583
 8593SOL     OW37240   1.232   2.213   8.065  0.1756 -0.0235 -0.1164
 8593SOL    HW137241   1.292   2.161   8.119  0.5139  0.3283 -0.1474
 8593SOL    HW237242   1.287   2.290   8.047  2.0567 -1.0972  1.0608
 8594SOL     OW37243   2.439   2.987   9.840 -0.5747 -0.3385 -0.7444
 8594SOL    HW137244   2.502   3.038   9.788  0.0256  0.5048  0.7803
 8594SOL    HW237245   2.359   3.039   9.834  1.1128  2.1001 -2.3075
 8595SOL     OW37246   2.994   4.383  13.688 -0.3548  0.2057  0.1190
 8595SOL    HW137247   2.953   4.423  13.612  0.8658 -0.6221 -0.9733
 8595SOL    HW237248   2.966   4.441  13.759 -1.6980 -0.6715  0.3030
 8596SOL     OW37249   1.171   4.512   6.359  0.1681 -0.0215 -0.1483
 8596SOL    HW137250   1.202   4.457   6.431 -0.7069 -1.1926 -0.6757
 8596SOL    HW237251   1.117   4.571   6.412 -0.1138  0.1952 -0.6758
 8597SOL     OW37252   0.371   3.638   2.633  0.4499  0.0296 -0.4418
 8597SOL    HW137253   0.298   3.699   2.621  0.1840 -0.2285 -0.0944
 8597SOL    HW237254   0.443   3.686   2.592  1.2582 -1.7885 -1.1489
 8598SOL     OW37255   2.559   0.428  13.844 -0.1572 -0.4243  0.0931
 8598SOL    HW137256   2.655   0.430  13.851 -0.2412  0.5441  0.9298
 8598SOL    HW237257   2.544   0.379  13.925 -0.4815  1.3582  1.1188
 8599SOL     OW37258   4.527   1.087  14.855  0.6315  0.0829  0.9688
 8599SOL    HW137259   4.553   1.094  14.947 -0.0473  1.1409  1.0762
 8599SOL    HW237260   4.513   0.992  14.848 -1.1560  0.2508  2.3820
 8600SOL     OW37261   3.884   1.999   9.383  0.0328 -0.5295  0.7047
 8600SOL    HW137262   3.892   2.005   9.288 -2.0794 -0.9035  0.5100
 8600SOL    HW237263   3.955   2.054   9.417 -1.0821  1.0918  0.3861
 8601SOL     OW37264   1.369   3.373   7.852 -0.1101  0.5124  0.2579
 8601SOL    HW137265   1.423   3.424   7.792  1.4566  1.4838  2.5073
 8601SOL    HW237266   1.282   3.407   7.836 -0.9873 -1.7927  0.1615
 8602SOL     OW37267   1.823   4.274   1.998 -0.2905  0.0046  0.3968
 8602SOL    HW137268   1.765   4.327   1.944  0.2766  0.9100  0.6783
 8602SOL    HW237269   1.842   4.185   1.968 -1.1271 -0.6098  1.7149
 8603SOL     OW37270   1.924   1.031  10.375  0.4158 -0.2408 -0.0556
 8603SOL    HW137271   1.872   1.045  10.455  0.1869  2.0542 -0.5964
 8603SOL    HW237272   1.935   1.123  10.349 -0.2751 -0.4242 -0.9932
 8604SOL     OW37273   1.766   1.820   9.244 -0.1420  0.4491 -0.1684
 8604SOL    HW137274   1.797   1.854   9.328 -0.0027 -1.6769  0.6604
 8604SOL    HW237275   1.791   1.889   9.182 -1.5155  0.0737 -1.1365
 8605SOL     OW37276   0.326   4.660   9.102  0.1934 -0.0555  0.8287
 8605SOL    HW137277   0.419   4.677   9.088 -0.2097  1.8390  0.3716
 8605SOL    HW237278   0.294   4.717   9.032 -0.4088 -2.1330 -0.5977
 8606SOL     OW37279   2.598   1.638   6.432  0.6191  0.0177 -0.8919
 8606SOL    HW137280   2.633   1.637   6.342  0.9685  0.2901 -0.7605
 8606SOL    HW237281   2.543   1.716   6.427 -1.7221 -1.5040  1.4365
 8607SOL     OW37282   0.370   2.125   7.620  0.2146  0.6125 -0.3987
 8607SOL    HW137283   0.390   2.181   7.544  1.2269 -0.7143 -1.1125
 8607SOL    HW237284   0.400   2.185   7.688 -0.2567  0.0000  0.3473
 8608SOL     OW37285   3.838   0.472   3.377 -0.1054  0.3435 -0.5381
 8608SOL    HW137286   3.845   0.535   3.306  0.1032  1.8997  0.8607
 8608SOL    HW237287   3.842   0.386   3.334 -0.4786 -0.4065  0.8980
 8609SOL     OW37288   4.374   2.844   5.981 -0.1359 -0.0104  0.5820
 8609SOL    HW137289   4.374   2.760   6.026  1.2935 -0.6977 -0.6931
 8609SOL    HW237290   4.338   2.809   5.899 -0.6501  0.8504  0.4392
 8610SOL     OW37291   0.861   0.317   0.689  0.0717  0.4562 -0.2275
 8610SOL    HW137292   0.809   0.282   0.761  0.0371  2.3908  0.6813
 8610SOL    HW237293   0.808   0.300   0.610  0.5561  1.6882 -0.8209
 8611SOL     OW37294   2.822   3.609   7.285 -0.1798 -0.0672  0.8521
 8611SOL    HW137295   2.773   3.580   7.208  0.0565  3.1084 -0.4527
 8611SOL    HW237296   2.909   3.613   7.247 -0.3933 -1.4123  0.2169
 8612SOL     OW37297   4.511   3.075   2.069 -0.0227  0.7411  0.5505
 8612SOL    HW137298   4.567   3.000   2.087 -1.0395 -0.2512 -0.4513
 8612SOL    HW237299   4.590   3.127   2.052  1.0281 -0.6491  1.1825
 8613SOL     OW37300   0.127   0.512   4.174  0.7919 -0.3813  0.0539
 8613SOL    HW137301   0.122   0.437   4.234 -1.6370  0.8547  1.3816
 8613SOL    HW237302   0.218   0.505   4.146  0.0346 -3.1479 -1.7435
 8614SOL     OW37303   2.568   0.235   2.831  0.1788  0.6958  0.3603
 8614SOL    HW137304   2.553   0.164   2.768  1.1477  2.7126 -2.1094
 8614SOL    HW237305   2.652   0.270   2.802 -0.4187  0.6347 -1.3924
 8615SOL     OW37306   3.257   4.562  13.379  0.2075  0.3642  0.0874
 8615SOL    HW137307   3.316   4.568  13.454  0.1466  0.1988  0.1479
 8615SOL    HW237308   3.240   4.469  13.364 -0.0834  0.5636 -0.8120
 8616SOL     OW37309   1.475   0.274   5.548 -0.6099  0.1245  0.2456
 8616SOL    HW137310   1.515   0.187   5.557 -1.8014 -0.4993 -0.5155
 8616SOL    HW237311   1.446   0.266   5.457 -0.9542 -1.1551  0.4671
 8617SOL     OW37312   0.551   0.084  11.936  0.2805  0.0320 -0.2919
 8617SOL    HW137313   0.641   0.090  11.904 -0.2628  0.8199 -1.6569
 8617SOL    HW237314   0.517   0.154  11.881  1.4755  0.7995 -0.0545
 8618SOL     OW37315   3.530   2.361  10.100  0.0113 -0.2381 -0.1365
 8618SOL    HW137316   3.545   2.276  10.140 -1.0170  0.8310  2.5386
 8618SOL    HW237317   3.444   2.346  10.062  0.9422 -0.8440 -1.9868
 8619SOL     OW37318   2.414   0.458  12.786 -0.0386  0.1182  0.8922
 8619SOL    HW137319   2.319   0.463  12.777  0.1034  1.4599  0.1083
 8619SOL    HW237320   2.430   0.505  12.868 -0.8735  0.6424  0.7598
 8620SOL     OW37321   1.317   1.180  16.214  0.4440 -0.1264 -0.1551
 8620SOL    HW137322   1.248   1.137  16.265 -0.2931 -1.7429 -2.4910
 8620SOL    HW237323   1.397   1.147  16.256 -1.2571  1.5945  4.3766
 8621SOL     OW37324   1.912   3.998   8.338  0.2029 -0.3675  0.1497
 8621SOL    HW137325   1.977   3.999   8.409  1.6583  1.1456 -1.2179
 8621SOL    HW237326   1.863   3.920   8.362  0.8421 -1.5533 -2.5091
 8622SOL     OW37327   3.549   1.518   3.649  0.3358 -1.2091  0.6491
 8622SOL    HW137328   3.612   1.489   3.715 -0.6367 -2.7391  0.9007
 8622SOL    HW237329   3.468   1.526   3.699  0.5543  1.6835  0.5376
 8623SOL     OW37330   3.429   2.726  10.794  0.4456 -0.5107 -0.0349
 8623SOL    HW137331   3.524   2.712  10.800  0.3489 -2.0356 -1.8213
 8623SOL    HW237332   3.422   2.747  10.700  0.6506  1.0456  0.2960
 8624SOL     OW37333   2.540   0.550   5.612 -0.2251 -0.0176  0.0684
 8624SOL    HW137334   2.621   0.597   5.595 -1.1711  1.7848  0.4716
 8624SOL    HW237335   2.517   0.546   5.519 -0.4558 -1.4110  0.1824
 8625SOL     OW37336   4.311   3.877   2.364 -0.2582 -0.2514  0.5341
 8625SOL    HW137337   4.222   3.852   2.389 -1.1455  1.2726 -1.0599
 8625SOL    HW237338   4.355   3.792   2.357 -0.2526 -0.2358  0.3829
 8626SOL     OW37339   2.404   2.627   8.622 -0.3309  0.1120 -0.4608
 8626SOL    HW137340   2.489   2.639   8.665 -0.0246  1.3092 -1.3767
 8626SOL    HW237341   2.357   2.702   8.658 -1.4986  0.5493 -2.8958
 8627SOL     OW37342   1.281   2.427   5.584 -0.5708 -0.2689 -0.0125
 8627SOL    HW137343   1.251   2.498   5.526  1.0284  1.5302  1.3491
 8627SOL    HW237344   1.375   2.433   5.565 -0.8889  2.8080 -0.7680
 8628SOL     OW37345   4.524   0.292   4.723 -0.1555  0.1067 -0.4823
 8628SOL    HW137346   4.447   0.315   4.774  0.1761 -0.9199  0.4940
 8628SOL    HW237347   4.489   0.232   4.658  0.6495 -0.2009 -0.6337
 8629SOL     OW37348   0.997   0.016  10.607 -0.3841 -0.0441  0.2353
 8629SOL    HW137349   0.905   0.042  10.604 -0.0621  0.5729 -4.0951
 8629SOL    HW237350   1.030   0.060  10.529 -0.4799 -0.3676  0.0131
 8630SOL     OW37351   0.939   1.578   4.009  0.0621  0.0572  0.2370
 8630SOL    HW137352   1.020   1.625   4.030  0.6324 -0.0068 -1.8717
 8630SOL    HW237353   0.968   1.487   4.014  0.3752  0.1802  0.6547
 8631SOL     OW37354   0.077   4.717   9.244  0.0336  0.0315 -0.2731
 8631SOL    HW137355   0.037   0.078   9.213  0.4736  0.3287 -0.0741
 8631SOL    HW237356   0.143   4.701   9.177  1.2073  1.8043  0.4306
 8632SOL     OW37357   2.109   3.211  11.228 -0.2991 -0.0296 -0.2876
 8632SOL    HW137358   2.072   3.123  11.236  1.2461 -0.3865  2.9626
 8632SOL    HW237359   2.178   3.191  11.165  0.5795 -4.1899  1.9553
 8633SOL     OW37360   4.678   1.478   6.244 -0.4831 -0.0423 -0.5335
 8633SOL    HW137361   4.630   1.463   6.163 -1.4880  0.6620 -0.0866
 8633SOL    HW237362   4.617   1.534   6.293  0.5547  1.3716 -0.8518
 8634SOL     OW37363   3.713   3.631   6.156 -0.3746 -0.0234  0.4957
 8634SOL    HW137364   3.808   3.627   6.148 -0.3548  0.2999  0.5749
 8634SOL    HW237365   3.696   3.543   6.191  1.1380 -0.1670  0.8778
 8635SOL     OW37366   3.524   1.333   8.923  0.3749 -0.1551  0.3092
 8635SOL    HW137367   3.462   1.280   8.973  0.2582 -0.9207 -0.6634
 8635SOL    HW237368   3.545   1.399   8.989  1.1127 -0.3562  0.2727
 8636SOL     OW37369   1.748   2.597   2.731  0.1861  0.1142  0.2443
 8636SOL    HW137370   1.776   2.554   2.811 -1.2598 -1.5359 -0.1423
 8636SOL    HW237371   1.655   2.608   2.749  0.2814  0.2103  0.6798
 8637SOL     OW37372   2.102   4.428   1.804  0.1376 -0.3304 -0.3991
 8637SOL    HW137373   2.058   4.348   1.832 -0.7811  0.4906  0.5035
 8637SOL    HW237374   2.068   4.442   1.716  1.4914 -3.2522 -1.3680
 8638SOL     OW37375   1.000   1.945   2.695 -0.1896  0.4087  0.2338
 8638SOL    HW137376   0.941   2.014   2.727  0.9700  1.1612  0.7369
 8638SOL    HW237377   1.032   1.996   2.621 -0.6052  2.4718  1.4827
 8639SOL     OW37378   0.950   3.536   5.330  0.4181  0.0728 -0.1101
 8639SOL    HW137379   0.998   3.617   5.345  1.7528 -1.0209  1.5067
 8639SOL    HW237380   1.020   3.497   5.278 -2.2842 -1.2911 -2.7361
 8640SOL     OW37381   4.330   4.210  16.861 -0.1651  0.1650 -0.2461
 8640SOL    HW137382   4.258   4.265  16.892 -0.4378  0.4145 -1.3430
 8640SOL    HW237383   4.303   4.126  16.899 -1.1318  0.1552 -0.9684
 8641SOL     OW37384   3.189   3.769  15.914 -0.1994  0.0727  0.0440
 8641SOL    HW137385   3.210   3.827  15.988  1.1359 -0.0857 -0.2025
 8641SOL    HW237386   3.276   3.767  15.874  0.0031 -0.2786  0.5025
 8642SOL     OW37387   0.350   2.182   4.921  0.2622 -0.3365  0.2645
 8642SOL    HW137388   0.366   2.255   4.861  0.1800 -0.7009 -0.1998
 8642SOL    HW237389   0.277   2.217   4.972  1.1858  0.9926  0.6636
 8643SOL     OW37390   0.620   2.227   0.995 -0.1924 -0.2195  0.0849
 8643SOL    HW137391   0.564   2.159   1.032 -0.3810 -0.4582 -0.6393
 8643SOL    HW237392   0.711   2.198   0.982 -0.8097 -1.5377 -1.3596
 8644SOL     OW37393   2.637   3.317   3.818  0.1965  0.0190 -0.0240
 8644SOL    HW137394   2.575   3.273   3.877  0.9508  1.0991  1.5892
 8644SOL    HW237395   2.564   3.358   3.772  0.1706  2.3985  2.1474
 8645SOL     OW37396   4.714   2.479   4.691 -0.4326 -0.2005  1.0340
 8645SOL    HW137397   0.088   2.478   4.668 -0.1984  0.6726  1.9602
 8645SOL    HW237398   4.671   2.517   4.614  0.4834 -0.7451  0.2504
 8646SOL     OW37399   1.632   0.244   0.584 -1.3215  0.3027  0.1734
 8646SOL    HW137400   1.629   0.260   0.678  1.5270  2.4096 -0.0703
 8646SOL    HW237401   1.599   0.325   0.545  0.3108 -0.4943 -2.8371
 8647SOL     OW37402   2.006   4.476   6.078  0.1843 -0.5337 -0.3676
 8647SOL    HW137403   1.952   4.540   6.123  0.8800 -0.6033  0.5540
 8647SOL    HW237404   2.090   4.521   6.075  0.2579 -0.5311  1.6433
 8648SOL     OW37405   1.892   1.163   5.089 -0.0085 -0.3129 -0.1950
 8648SOL    HW137406   1.831   1.106   5.136 -1.2383 -0.2309 -1.6923
 8648SOL    HW237407   1.963   1.104   5.065  0.9902 -0.0672  2.1207
 8649SOL     OW37408   3.641   2.219  13.743  0.1368  0.1601 -0.2775
 8649SOL    HW137409   3.554   2.255  13.764 -0.3696 -1.3205  0.1598
 8649SOL    HW237410   3.614   2.135  13.705  1.3856 -0.9520  1.3122
 8650SOL     OW37411   3.078   1.121   2.692  0.5165  0.5014  0.3133
 8650SOL    HW137412   3.050   1.084   2.608 -0.8031 -0.9491  1.4112
 8650SOL    HW237413   3.033   1.205   2.703 -0.8151  0.1665 -2.6160
 8651SOL     OW37414   0.701   3.735  16.637 -1.2492  0.8510  0.0597
 8651SOL    HW137415   0.755   3.807  16.671 -0.7433 -0.0765  1.1986
 8651SOL    HW237416   0.678   3.768  16.550  2.4694  2.3297 -0.3635
 8652SOL     OW37417   1.299   4.531  14.550  0.3433 -0.6488  0.4934
 8652SOL    HW137418   1.301   4.530  14.454  1.0628  0.7440  0.4793
 8652SOL    HW237419   1.320   4.440  14.566  1.3436 -0.1655  1.8812
 8653SOL     OW37420   2.080   1.389  16.062 -0.7039  0.2462  0.3884
 8653SOL    HW137421   2.059   1.482  16.070 -0.2550  0.2792  1.1382
 8653SOL    HW237422   1.997   1.355  16.027 -1.0837  1.3505  0.2150
 8654SOL     OW37423   3.739   1.476   8.435  0.4323 -0.5433  0.0328
 8654SOL    HW137424   3.831   1.499   8.421 -0.1569  2.2122  0.6551
 8654SOL    HW237425   3.723   1.493   8.528 -1.6342  0.1428 -0.4517
 8655SOL     OW37426   1.880   0.497   5.313 -0.3788  0.5737  0.3181
 8655SOL    HW137427   1.791   0.463   5.315 -0.7262  1.3880 -1.4622
 8655SOL    HW237428   1.889   0.524   5.221  0.7419 -3.6927 -0.8293
 8656SOL     OW37429   3.894   1.473  14.009  0.3448  0.5213 -0.1554
 8656SOL    HW137430   3.916   1.382  14.029  0.6707  0.8641  1.0484
 8656SOL    HW237431   3.985   1.498  13.992  0.0443  1.9393  0.3261
 8657SOL     OW37432   4.078   4.283   6.507 -0.5392 -0.0401  0.2709
 8657SOL    HW137433   4.147   4.342   6.476  0.2803 -1.3045 -0.2957
 8657SOL    HW237434   4.127   4.208   6.473  1.1043  1.2342 -0.2094
 8658SOL     OW37435   3.488   3.944   1.641  0.4891 -0.8918 -0.0535
 8658SOL    HW137436   3.466   3.881   1.572  1.2561 -1.7807  0.5182
 8658SOL    HW237437   3.566   3.897   1.669  0.8894 -0.1833  0.0308
 8659SOL     OW37438   2.199   2.360   4.052 -0.0856  0.0008 -0.3425
 8659SOL    HW137439   2.267   2.351   4.119  0.6579  2.4782 -0.7832
 8659SOL    HW237440   2.187   2.268   4.027  2.6320 -0.9780  1.8842
 8660SOL     OW37441   1.632   1.108  11.880  0.0128  0.0147  0.0725
 8660SOL    HW137442   1.713   1.152  11.854 -1.0906  1.3781 -1.0744
 8660SOL    HW237443   1.557   1.165  11.861  1.0522  1.8354  1.4247
 8661SOL     OW37444   1.242   2.605   5.373 -0.7136  0.7624  0.3172
 8661SOL    HW137445   1.316   2.663   5.355  1.5476 -3.1096 -2.7207
 8661SOL    HW237446   1.211   2.589   5.284 -1.3211 -1.2372  0.8775
 8662SOL     OW37447   1.307   2.017   8.575 -0.1156 -0.3881  0.1556
 8662SOL    HW137448   1.274   2.107   8.577 -0.0070 -0.3754  1.1693
 8662SOL    HW237449   1.401   2.037   8.572 -0.2384  0.1708 -0.0740
 8663SOL     OW37450   1.626   4.253   4.335  0.5345 -0.1648 -0.4205
 8663SOL    HW137451   1.709   4.299   4.329  0.1543  0.6019  0.1279
 8663SOL    HW237452   1.586   4.309   4.403 -0.4158  0.5916 -1.5926
 8664SOL     OW37453   4.683   0.910   3.153 -0.0259 -0.1297 -0.3766
 8664SOL    HW137454   4.604   0.942   3.110  0.6828  1.0708 -0.7967
 8664SOL    HW237455   0.032   0.927   3.089  1.8062 -0.8591  1.3871
 8665SOL     OW37456   2.128   0.195   4.237  0.0142 -0.1333 -0.2884
 8665SOL    HW137457   2.150   0.281   4.200 -1.0176 -0.0497 -0.7151
 8665SOL    HW237458   2.075   0.145   4.175 -0.6508  0.5664 -0.2896
 8666SOL     OW37459   3.813   0.824   6.238  0.1365  0.0707 -0.0776
 8666SOL    HW137460   3.739   0.764   6.233  1.9534 -2.1612 -0.2322
 8666SOL    HW237461   3.832   0.805   6.329  2.0921  0.5643 -0.3787
 8667SOL     OW37462   3.750   0.660  16.511 -0.4797  0.1138  0.1026
 8667SOL    HW137463   3.832   0.683  16.468 -0.0974  0.9312  1.2651
 8667SOL    HW237464   3.753   0.732  16.574 -2.2862  1.2795 -1.1424
 8668SOL     OW37465   4.260   4.719   8.251  0.1836  0.3770  0.8189
 8668SOL    HW137466   4.348   0.037   8.245  0.0090  1.2972  3.6527
 8668SOL    HW237467   4.214   0.076   8.287 -0.4866 -0.7097  2.2769
 8669SOL     OW37468   4.424   1.199  17.243 -0.5547  0.4996  0.0591
 8669SOL    HW137469   4.345   1.250  17.226 -1.5489 -1.1566 -0.2360
 8669SOL    HW237470   4.475   1.280  17.249  0.1768  0.2417 -2.6590
 8670SOL     OW37471   0.399   3.046   6.856 -0.0566 -0.2228 -0.0409
 8670SOL    HW137472   0.379   3.063   6.948 -1.6149  1.5653 -0.7134
 8670SOL    HW237473   0.471   3.108   6.842 -0.0878  0.1218  1.3559
 8671SOL     OW37474   1.647   3.935   1.238 -0.4680  0.1312  0.2431
 8671SOL    HW137475   1.667   4.019   1.197  0.2232 -0.9150 -1.5440
 8671SOL    HW237476   1.581   3.909   1.174 -1.3220  0.0767  1.1423
 8672SOL     OW37477   3.496   1.176   7.362 -0.7583  0.6459  0.6812
 8672SOL    HW137478   3.511   1.270   7.359  0.7282  0.4435  1.3786
 8672SOL    HW237479   3.405   1.182   7.334 -0.2450  0.9966 -0.9378
 8673SOL     OW37480   0.310   0.119   5.169 -0.3108  0.3181  0.4352
 8673SOL    HW137481   0.339   0.028   5.164  0.6974  0.6117  0.9536
 8673SOL    HW237482   0.346   0.154   5.088  1.0031 -1.9958  0.0523
 8674SOL     OW37483   4.663   2.940   7.680  0.4633  0.4058 -0.1178
 8674SOL    HW137484   4.706   2.889   7.748  0.0671 -1.7522 -1.4705
 8674SOL    HW237485   4.621   2.874   7.625 -1.2919  1.5461 -0.1709
 8675SOL     OW37486   3.391   2.627   3.421 -0.0815  0.2269  0.1302
 8675SOL    HW137487   3.455   2.697   3.435  0.9632  0.0072 -3.4077
 8675SOL    HW237488   3.343   2.672   3.351 -0.9870  0.3644  0.8508
 8676SOL     OW37489   4.421   4.097  11.595 -0.3129  0.6415  0.1768
 8676SOL    HW137490   4.341   4.059  11.559 -0.7036  0.9505  0.7264
 8676SOL    HW237491   4.389   4.166  11.652 -0.9821 -0.8106  1.5660
 8677SOL     OW37492   0.113   2.788  10.129  0.7006  0.5386 -0.1236
 8677SOL    HW137493   0.141   2.855  10.066  0.7441 -0.4309 -1.1462
 8677SOL    HW237494   0.054   2.739  10.072 -0.8531  2.5006 -0.1801
 8678SOL     OW37495   2.835   2.382   5.462 -0.0167  0.3077  0.3194
 8678SOL    HW137496   2.787   2.300   5.453 -1.5005  1.0832  1.2156
 8678SOL    HW237497   2.848   2.375   5.557  2.3022 -0.6411 -0.0547
 8679SOL     OW37498   0.950   3.650   5.063 -0.3193  0.0093 -0.1985
 8679SOL    HW137499   1.002   3.727   5.042  0.1628 -0.4994 -0.8410
 8679SOL    HW237500   0.879   3.650   4.998  1.7234 -0.0350 -2.4057
 8680SOL     OW37501   3.959   3.539   5.684  0.0578  0.0430 -0.3463
 8680SOL    HW137502   3.992   3.595   5.614 -1.2568 -0.6140 -1.4947
 8680SOL    HW237503   4.005   3.459   5.660  0.1037  0.2077 -0.8113
 8681SOL     OW37504   2.281   2.298  11.107 -0.0738  0.7445  0.1228
 8681SOL    HW137505   2.371   2.265  11.102  0.4104  2.5340 -2.9749
 8681SOL    HW237506   2.220   2.224  11.100  1.3194 -0.2442 -1.5371
 8682SOL     OW37507   4.661   3.586  15.253 -0.0490 -0.2499 -0.1644
 8682SOL    HW137508   4.597   3.574  15.323 -0.1265 -0.3509 -0.2537
 8682SOL    HW237509   4.711   3.658  15.293 -2.1498  0.7208  0.7219
 8683SOL     OW37510   3.303   1.520   3.802 -0.0271 -0.7646  0.4740
 8683SOL    HW137511   3.218   1.523   3.846  0.5466  0.8108  1.5016
 8683SOL    HW237512   3.320   1.613   3.820 -1.3136 -0.4310 -0.0402
 8684SOL     OW37513   3.111   3.547   8.482  0.0488  0.6946  0.7030
 8684SOL    HW137514   3.151   3.633   8.471  0.0680  0.5067 -0.6279
 8684SOL    HW237515   3.023   3.548   8.443  1.3023  0.8730 -2.0893
 8685SOL     OW37516   2.221   0.418  17.494  0.3205 -0.6607 -0.2585
 8685SOL    HW137517   2.134   0.442  17.462 -0.1663 -1.0126  0.8201
 8685SOL    HW237518   2.230   0.341  17.438 -2.0930 -1.8778  1.0204
 8686SOL     OW37519   3.249   3.429   9.823 -0.5743  0.1034  0.2366
 8686SOL    HW137520   3.213   3.406   9.737  1.9550  0.5198 -0.9196
 8686SOL    HW237521   3.256   3.523   9.809 -2.2221  0.1716 -0.2038
 8687SOL     OW37522   4.576   3.704  13.681  0.2153 -0.1709  0.2272
 8687SOL    HW137523   4.630   3.757  13.739  0.2934 -2.3761  2.1631
 8687SOL    HW237524   4.586   3.612  13.706 -2.9796 -0.7951 -0.7641
 8688SOL     OW37525   2.005   4.622  11.410  0.2186  0.1962 -0.3090
 8688SOL    HW137526   1.958   4.628  11.327 -2.2615  1.1801  1.1627
 8688SOL    HW237527   2.038   4.711  11.425 -0.9035  1.0500 -2.9101
 8689SOL     OW37528   1.069   4.257   4.551  0.7604 -0.4016  0.2358
 8689SOL    HW137529   1.094   4.349   4.540  0.8975 -0.3037  1.4091
 8689SOL    HW237530   1.067   4.239   4.645  0.5346  0.1763  0.3437
 8690SOL     OW37531   1.319   1.385  17.639  0.0839  0.2465  0.0848
 8690SOL    HW137532   1.333   1.480  17.645  0.2979  0.0766  2.3212
 8690SOL    HW237533   1.250   1.377  17.573  0.4400 -0.4905 -0.1967
 8691SOL     OW37534   3.454   4.717   6.467 -0.5754  0.5647  1.0592
 8691SOL    HW137535   3.360   4.710   6.449 -0.3999  1.4154 -0.1808
 8691SOL    HW237536   3.461   0.054   6.544 -2.0892  1.4273  0.5740
 8692SOL     OW37537   2.020   4.601  12.154 -0.3355  0.1067  0.2145
 8692SOL    HW137538   1.999   4.682  12.200  0.6012  0.5159 -0.0630
 8692SOL    HW237539   1.955   4.542  12.192 -0.1753 -0.4064 -0.3098
 8693SOL     OW37540   1.461   1.174   3.904 -0.0476  0.5563 -0.5267
 8693SOL    HW137541   1.478   1.159   3.997  0.1749  0.7527 -0.5335
 8693SOL    HW237542   1.543   1.216   3.877  2.3059 -2.6556  1.6748
 8694SOL     OW37543   4.398   1.826   6.553 -0.2247 -0.0241  0.0798
 8694SOL    HW137544   4.444   1.900   6.512  0.8284 -0.1878  0.9607
 8694SOL    HW237545   4.436   1.753   6.504 -3.0270  0.0898 -2.3129
 8695SOL     OW37546   0.675   1.673   7.560  0.0155  0.2523 -0.4606
 8695SOL    HW137547   0.667   1.762   7.595  2.1186 -0.7025  2.5153
 8695SOL    HW237548   0.736   1.627   7.619 -1.5505 -1.0919  0.0988
 8696SOL     OW37549   4.455   0.899   8.333 -0.6182  0.5240  0.2909
 8696SOL    HW137550   4.536   0.909   8.383 -0.5042  2.7164 -0.3368
 8696SOL    HW237551   4.391   0.883   8.402 -1.0650  2.2620  0.2889
 8697SOL     OW37552   1.202   2.602   1.932 -0.2237 -0.2285  0.4023
 8697SOL    HW137553   1.111   2.572   1.929 -0.7734  1.2517  2.2138
 8697SOL    HW237554   1.234   2.582   2.020  2.0138 -0.6763 -0.5209
 8698SOL     OW37555   0.919   2.214   2.682  0.2785 -0.4540 -0.0293
 8698SOL    HW137556   0.960   2.301   2.679 -1.5918  0.3656 -1.3555
 8698SOL    HW237557   0.916   2.189   2.590  0.0622  1.1912 -0.4649
 8699SOL     OW37558   1.447   0.459   0.529  0.1500  0.4902  0.0223
 8699SOL    HW137559   1.426   0.549   0.503 -0.7464 -0.6803 -3.3743
 8699SOL    HW237560   1.403   0.444   0.612 -0.9194  1.8705 -0.2851
 8700SOL     OW37561   3.420   1.966  12.802 -0.4263 -0.4131 -0.5851
 8700SOL    HW137562   3.418   2.058  12.829 -2.1346 -0.7776  0.5011
 8700SOL    HW237563   3.377   1.970  12.717  2.4210  2.5041 -1.8954
 8701SOL     OW37564   0.780   4.502   1.273  0.3620 -0.5820  0.5649
 8701SOL    HW137565   0.786   4.596   1.254 -1.4952 -0.6480 -0.3252
 8701SOL    HW237566   0.690   4.496   1.242  0.5962  0.6076 -0.3243
 8702SOL     OW37567   3.048   3.756   4.395  0.0715 -0.5450 -0.0224
 8702SOL    HW137568   3.099   3.814   4.338 -2.1618  0.2899 -1.1709
 8702SOL    HW237569   2.963   3.798   4.383  0.9992  0.9063 -1.4745
 8703SOL     OW37570   1.087   4.268   7.698  0.3291  0.0685 -0.1915
 8703SOL    HW137571   1.144   4.305   7.765  0.4757  0.5490 -0.5786
 8703SOL    HW237572   1.140   4.272   7.618  2.3509 -1.2425  1.0919
 8704SOL     OW37573   0.837   0.240   0.026 -0.6204 -0.4540  0.0001
 8704SOL    HW137574   0.902   0.171   0.041 -0.2772 -0.1746 -0.2140
 8704SOL    HW237575   0.892   0.309  17.670 -2.0873  0.9605  0.4802
 8705SOL     OW37576   2.341   0.596   3.512 -0.1002  0.1248 -0.3720
 8705SOL    HW137577   2.284   0.547   3.571  0.6886  1.4549  1.5007
 8705SOL    HW237578   2.392   0.646   3.576  0.8316 -0.0744 -0.9642
 8706SOL     OW37579   3.153   4.119   0.375 -0.3336  0.1405 -0.0801
 8706SOL    HW137580   3.178   4.028   0.393  2.1083  1.0814  1.3484
 8706SOL    HW237581   3.071   4.106   0.328  0.3038 -4.7228  0.1297
 8707SOL     OW37582   1.074   2.121   6.684  0.4272 -0.0408 -0.1244
 8707SOL    HW137583   1.132   2.127   6.760 -1.6466  0.3982  1.4498
 8707SOL    HW237584   1.088   2.029   6.662 -1.5199  0.1947 -2.3451
 8708SOL     OW37585   1.678   0.874   3.626 -0.0175 -0.0564 -0.1055
 8708SOL    HW137586   1.706   0.795   3.580  0.0499  0.3584 -0.7736
 8708SOL    HW237587   1.611   0.918   3.572 -0.1033 -1.0616 -0.8076
 8709SOL     OW37588   2.176   3.451  15.275 -0.0364  0.2483 -0.3339
 8709SOL    HW137589   2.130   3.481  15.353 -1.4186 -2.1615 -0.2281
 8709SOL    HW237590   2.257   3.500  15.285 -0.2417  0.3326  0.8581
 8710SOL     OW37591   0.944   1.924  16.675 -0.3316  0.3216  0.2076
 8710SOL    HW137592   0.920   1.919  16.768  0.5836  0.8700  0.4803
 8710SOL    HW237593   0.959   2.018  16.662  3.6693 -0.1889  1.1916
 8711SOL     OW37594   0.708   4.568   7.577 -0.8877 -0.2357 -0.3562
 8711SOL    HW137595   0.619   4.571   7.613 -1.2769  1.0076 -1.4207
 8711SOL    HW237596   0.703   4.513   7.500  0.8153  0.2035 -0.7828
 8712SOL     OW37597   4.114   4.407   7.832  0.5573 -0.5712 -0.6703
 8712SOL    HW137598   4.054   4.359   7.889  0.5586 -0.2339 -0.3867
 8712SOL    HW237599   4.177   4.436   7.898 -0.2090 -1.6092  0.5155
 8713SOL     OW37600   2.755   2.352   6.357 -0.1550 -0.3605  0.0504
 8713SOL    HW137601   2.809   2.428   6.331 -1.0556  0.4292  0.4866
 8713SOL    HW237602   2.801   2.335   6.439 -1.0007 -2.6227  0.0398
 8714SOL     OW37603   0.080   1.048   5.017 -0.0277  0.2158  0.8373
 8714SOL    HW137604   0.067   0.953   5.019 -0.0233  0.1687 -1.1990
 8714SOL    HW237605   4.711   1.081   5.029 -0.7001 -0.9460 -0.8531
 8715SOL     OW37606   2.642   1.940   5.165 -0.0011  0.4843 -0.1887
 8715SOL    HW137607   2.666   1.957   5.256  1.5807 -0.5947 -0.4146
 8715SOL    HW237608   2.716   1.973   5.114 -0.1765 -1.5740 -1.7691
 8716SOL     OW37609   0.350   3.688   3.320  0.5635  0.2943  0.2217
 8716SOL    HW137610   0.322   3.603   3.286  0.1295  0.3554  0.4261
 8716SOL    HW237611   0.400   3.723   3.246  2.2496 -1.1395  0.6651
 8717SOL     OW37612   3.271   3.964   6.017  0.2570  0.5614 -0.0169
 8717SOL    HW137613   3.286   4.058   6.011  0.6219  0.5858  1.3220
 8717SOL    HW237614   3.203   3.950   5.950  0.6192 -0.5618 -0.1557
 8718SOL     OW37615   1.221   0.868   5.106  0.0664 -0.5095  0.1322
 8718SOL    HW137616   1.177   0.909   5.032  0.6264 -0.0472  0.0548
 8718SOL    HW237617   1.210   0.932   5.176  0.8397 -0.1785 -0.0436
 8719SOL     OW37618   1.774   1.236  13.876 -0.2864  0.2417  0.1204
 8719SOL    HW137619   1.695   1.186  13.896  0.6814 -1.6535 -0.7918
 8719SOL    HW237620   1.839   1.182  13.921  0.6042  0.9413 -0.3186
 8720SOL     OW37621   1.004   2.440   4.218  0.4271 -0.5988 -0.0701
 8720SOL    HW137622   1.090   2.448   4.177  0.1913 -1.0362 -0.6556
 8720SOL    HW237623   0.972   2.530   4.222 -3.2426 -2.0392  2.9539
 8721SOL     OW37624   0.381   0.571  14.665  0.5181 -0.1191 -0.0327
 8721SOL    HW137625   0.374   0.625  14.586  0.7501 -0.9862 -0.6521
 8721SOL    HW237626   0.383   0.640  14.731  1.9297 -0.0497 -0.1512
 8722SOL     OW37627   1.538   1.616   6.537 -0.1577 -1.0605 -0.1723
 8722SOL    HW137628   1.446   1.622   6.514 -0.7307 -1.1003  2.1721
 8722SOL    HW237629   1.541   1.678   6.611  2.9573 -1.2297 -0.1297
 8723SOL     OW37630   1.077   4.199   1.792 -0.4050  0.3208 -0.3974
 8723SOL    HW137631   1.017   4.219   1.721  1.8465  0.6427 -2.2261
 8723SOL    HW237632   1.154   4.237   1.749  0.8489  0.8134  2.2813
 8724SOL     OW37633   0.915   2.661   5.576  0.4382 -0.3073  0.1679
 8724SOL    HW137634   0.973   2.588   5.553 -0.1858 -1.2689  1.5897
 8724SOL    HW237635   0.931   2.674   5.670 -0.9699  1.9318  0.1092
 8725SOL     OW37636   0.014   4.343   5.798 -0.2813 -0.4234  0.3741
 8725SOL    HW137637   0.086   4.386   5.752  0.0492 -1.2685  0.1051
 8725SOL    HW237638   0.016   4.403   5.873  2.0259  1.4806 -1.2124
 8726SOL     OW37639   3.679   2.589  14.492  0.1142 -0.0325  0.0974
 8726SOL    HW137640   3.755   2.647  14.489 -1.6714  2.2978 -0.3762
 8726SOL    HW237641   3.611   2.657  14.486 -0.3092 -0.7023 -3.0312
 8727SOL     OW37642   3.034   2.678   9.656 -0.3496  0.0846  0.3145
 8727SOL    HW137643   3.049   2.663   9.563 -2.8446  1.3764 -0.2772
 8727SOL    HW237644   3.003   2.592   9.686 -1.8016  0.2564 -0.7199
 8728SOL     OW37645   2.404   4.114   3.113 -0.6144 -0.6789  0.4147
 8728SOL    HW137646   2.319   4.106   3.156  0.1984 -0.8099  1.9713
 8728SOL    HW237647   2.443   4.031   3.138  0.2624 -0.1698  0.7458
 8729SOL     OW37648   0.891   3.267  10.156  0.1068  0.4311 -0.1628
 8729SOL    HW137649   0.956   3.317  10.106  1.1451  0.8455  1.5981
 8729SOL    HW237650   0.918   3.179  10.131  3.0716  1.0771  0.6994
 8730SOL     OW37651   2.746   3.648   6.159  0.1479  0.6014  0.3011
 8730SOL    HW137652   2.806   3.713   6.124 -2.3616  2.3454 -0.7810
 8730SOL    HW237653   2.809   3.577   6.176  0.6463  0.9499 -0.1197
 8731SOL     OW37654   3.773   4.164   7.436 -0.2412  0.1515 -0.1915
 8731SOL    HW137655   3.755   4.079   7.475  0.6277 -0.2010 -0.5575
 8731SOL    HW237656   3.693   4.213   7.455 -0.1665  0.7271 -1.3452
 8732SOL     OW37657   1.999   3.998   2.891  0.5368  0.1268  0.8100
 8732SOL    HW137658   1.904   3.990   2.891  0.3998  1.7629  0.5738
 8732SOL    HW237659   2.012   3.908   2.862 -1.5128  0.0312  0.1833
 8733SOL     OW37660   4.006   3.804   3.924  0.0657  0.2398  0.1749
 8733SOL    HW137661   3.958   3.768   3.999  0.8998 -1.1384  0.0402
 8733SOL    HW237662   4.085   3.753   3.944  1.2182  1.1109 -2.1829
 8734SOL     OW37663   3.934   3.040   2.138 -0.1800 -0.1574 -0.2243
 8734SOL    HW137664   3.891   3.095   2.203 -0.1010  1.5742 -1.6759
 8734SOL    HW237665   4.012   3.016   2.189 -0.0581  1.1214  0.1847
 8735SOL     OW37666   1.726   3.894  14.445  0.5863 -0.6383  0.1471
 8735SOL    HW137667   1.758   3.975  14.406 -2.0738  0.4000  0.1659
 8735SOL    HW237668   1.748   3.835  14.372  1.5305 -0.0982 -0.0084
 8736SOL     OW37669   2.791   1.857   3.768 -0.1667 -0.0305  0.6737
 8736SOL    HW137670   2.822   1.947   3.761 -0.5235  0.0930  0.6651
 8736SOL    HW237671   2.870   1.806   3.751  0.3972  1.3575 -0.7856
 8737SOL     OW37672   4.135   0.190   0.384 -0.2527  0.3600  0.1173
 8737SOL    HW137673   4.103   0.101   0.393  1.6385 -0.0131  3.1140
 8737SOL    HW237674   4.225   0.188   0.416 -0.7642 -1.2384  1.4363
 8738SOL     OW37675   4.278   1.148   6.406 -0.4888  0.9381 -0.5308
 8738SOL    HW137676   4.309   1.126   6.318 -0.1509  1.4828 -0.5467
 8738SOL    HW237677   4.187   1.123   6.390  0.8091 -3.0369 -1.6164
 8739SOL     OW37678   2.444   3.266   7.742 -0.2906  0.1431  0.3852
 8739SOL    HW137679   2.424   3.179   7.707 -0.9869  0.1299  0.8429
 8739SOL    HW237680   2.387   3.309   7.678  1.0531 -1.4005 -1.8623
 8740SOL     OW37681   2.961   2.097  12.040  0.1296 -0.2247 -0.1756
 8740SOL    HW137682   3.020   2.024  12.024  3.7057  2.5010  0.6229
 8740SOL    HW237683   2.880   2.066  12.000  0.0091 -0.1030 -0.0290
 8741SOL     OW37684   4.614   4.595  10.079 -0.3088  0.3088  0.1267
 8741SOL    HW137685   4.631   4.664  10.015 -0.0961  0.1701  0.0338
 8741SOL    HW237686   4.652   4.637  10.156  0.2446  0.9081 -0.4686
 8742SOL     OW37687   3.986   4.372  12.156  0.8877  0.2407 -0.2149
 8742SOL    HW137688   3.902   4.325  12.156  0.3661  1.1607  0.9381
 8742SOL    HW237689   3.996   4.397  12.248  1.2680 -1.2181  0.1412
 8743SOL     OW37690   0.136   3.731  16.066  0.5144  0.4686 -0.9327
 8743SOL    HW137691   0.071   3.691  16.124  1.2764 -2.7507 -2.2535
 8743SOL    HW237692   0.095   3.814  16.044 -0.0507  0.5331  0.3570
 8744SOL     OW37693   1.214   4.230  16.529 -0.0217 -0.0822 -0.2624
 8744SOL    HW137694   1.176   4.295  16.469  0.0190  0.3092  0.1355
 8744SOL    HW237695   1.144   4.166  16.516 -2.1928  2.4225 -0.9892
 8745SOL     OW37696   1.661   1.639   1.486  0.4800  0.4863 -0.0659
 8745SOL    HW137697   1.601   1.682   1.546 -1.9881 -0.3467 -1.9562
 8745SOL    HW237698   1.655   1.700   1.413 -2.9121 -0.3155 -0.4401
 8746SOL     OW37699   3.974   0.868   0.345 -0.8009  0.5671  0.7121
 8746SOL    HW137700   4.058   0.877   0.299 -1.1921 -0.2166 -0.1572
 8746SOL    HW237701   3.988   0.776   0.369  1.0312  0.1271 -2.0719
 8747SOL     OW37702   1.877   4.366   4.866 -0.2072  0.3319  0.3154
 8747SOL    HW137703   1.902   4.401   4.780  0.0692  0.5242  0.4729
 8747SOL    HW237704   1.866   4.449   4.912  1.1467 -0.4655  2.0765
 8748SOL     OW37705   1.237   4.587   9.805 -0.3784  0.0876 -0.4155
 8748SOL    HW137706   1.183   4.656   9.844  0.9785  0.2810  1.1296
 8748SOL    HW237707   1.221   4.586   9.711  0.0002  0.6518 -0.4838
 8749SOL     OW37708   3.124   4.247   1.013 -0.8066 -0.7620 -0.2454
 8749SOL    HW137709   3.129   4.152   1.005  0.1359 -0.7287 -0.0568
 8749SOL    HW237710   3.201   4.286   0.971 -0.6450 -0.8008  0.0140
 8750SOL     OW37711   2.813   2.188   1.616  0.3220 -0.1273  0.5331
 8750SOL    HW137712   2.814   2.148   1.703 -0.0920 -0.3881  0.4194
 8750SOL    HW237713   2.835   2.279   1.638 -1.7265  0.5998 -0.3579
 8751SOL     OW37714   0.658   0.714  12.193 -0.1195  0.7299  0.8363
 8751SOL    HW137715   0.685   0.676  12.276  0.5732 -2.1759 -0.7113
 8751SOL    HW237716   0.716   0.788  12.176 -0.1341  0.4365 -0.4908
 8752SOL     OW37717   3.509   4.409   6.807 -0.0461  0.4161  0.6848
 8752SOL    HW137718   3.437   4.462   6.771  1.6162  0.5939 -2.4356
 8752SOL    HW237719   3.540   4.374   6.723  1.2017 -3.1810  2.6931
 8753SOL     OW37720   4.661   0.880   1.432  0.0577 -0.3045 -0.2207
 8753SOL    HW137721   0.037   0.882   1.421 -0.0691  0.5536 -1.2537
 8753SOL    HW237722   4.640   0.929   1.352 -2.1367 -0.8999  0.0042
 8754SOL     OW37723   3.702   3.713  11.116  0.3338  0.2304 -0.1520
 8754SOL    HW137724   3.627   3.688  11.171  1.4748  1.8802  2.1234
 8754SOL    HW237725   3.773   3.734  11.176 -0.6752  1.3626  0.6406
 8755SOL     OW37726   2.822   4.282   6.196  0.6346 -0.0421  0.3735
 8755SOL    HW137727   2.730   4.254   6.195  0.5146  0.3128  1.7481
 8755SOL    HW237728   2.838   4.323   6.111 -0.4257  0.0840  0.2333
 8756SOL     OW37729   4.564   3.274   6.348  0.0012  0.4048 -0.5254
 8756SOL    HW137730   4.612   3.279   6.431 -0.2169 -0.7850 -0.3296
 8756SOL    HW237731   4.540   3.181   6.349  1.6371 -0.0585 -2.9242
 8757SOL     OW37732   2.981   3.903   6.410 -0.4003 -0.2970  0.3977
 8757SOL    HW137733   3.054   3.894   6.348 -1.7386  0.1285 -1.2640
 8757SOL    HW237734   2.904   3.906   6.352  0.2138  2.2467 -0.2707
 8758SOL     OW37735   0.668   0.763  16.374  0.3818  0.0045  1.0572
 8758SOL    HW137736   0.758   0.749  16.343  1.1968  3.1109  2.0358
 8758SOL    HW237737   0.615   0.717  16.309  1.8456 -1.4537  0.8632
 8759SOL     OW37738   0.967   2.119  10.606 -0.2740 -0.2544 -0.5121
 8759SOL    HW137739   0.968   2.214  10.618 -4.5564 -0.2942 -0.1402
 8759SOL    HW237740   0.977   2.085  10.696 -0.8248  0.0439 -0.3443
 8760SOL     OW37741   4.659   0.241   6.103 -0.0110  0.3305 -0.0205
 8760SOL    HW137742   4.588   0.303   6.085 -1.1674 -0.7743  0.7882
 8760SOL    HW237743   0.008   0.304   6.079  0.8801 -0.0971  1.4451
 8761SOL     OW37744   0.064   0.617  11.356 -0.4419  0.0445  0.4075
 8761SOL    HW137745   4.695   0.578  11.357 -0.8217  0.9193  0.9507
 8761SOL    HW237746   0.043   0.706  11.328 -1.3082 -0.3870 -0.3062
 8762SOL     OW37747   4.655   1.804   2.430 -0.4176  0.4339 -0.2645
 8762SOL    HW137748   4.609   1.748   2.368  0.3673 -0.2156 -0.2505
 8762SOL    HW237749   4.600   1.789   2.507  0.2594 -1.3089 -0.1319
 8763SOL     OW37750   0.742   1.227   4.040 -0.0572 -0.0587  0.2774
 8763SOL    HW137751   0.704   1.293   4.100 -1.4297 -2.0453  1.6014
 8763SOL    HW237752   0.667   1.184   4.000 -0.4167  0.0445  0.8274
 8764SOL     OW37753   2.523   2.518  12.477 -0.0795  0.0740 -0.0687
 8764SOL    HW137754   2.567   2.556  12.554  1.2284  0.3920 -0.9661
 8764SOL    HW237755   2.438   2.486  12.506 -0.8158  0.5327 -1.7119
 8765SOL     OW37756   2.364   3.638  15.321 -0.5517 -0.2426 -0.7642
 8765SOL    HW137757   2.373   3.698  15.395 -2.1611 -0.3861 -0.4591
 8765SOL    HW237758   2.365   3.702  15.251 -3.1804  0.8291  0.1728
 8766SOL     OW37759   4.281   3.230  13.157  0.1789  0.3163 -0.5109
 8766SOL    HW137760   4.242   3.150  13.194 -0.5228  0.1487 -1.5896
 8766SOL    HW237761   4.224   3.295  13.197  1.0113  2.4137 -2.7110
 8767SOL     OW37762   3.446   0.308   7.028  0.0038 -0.3352  0.1645
 8767SOL    HW137763   3.352   0.326   7.037 -0.0732  0.6259 -2.4342
 8767SOL    HW237764   3.451   0.222   7.071  0.7408 -1.8431 -2.8905
 8768SOL     OW37765   2.329   3.594   7.832  0.8963 -0.0094  0.2434
 8768SOL    HW137766   2.355   3.647   7.907  1.1385  3.1705 -2.1050
 8768SOL    HW237767   2.255   3.557   7.881  0.3199  0.7344 -0.0776
 8769SOL     OW37768   4.155   1.630   2.343 -0.7862 -0.9041  0.4683
 8769SOL    HW137769   4.188   1.681   2.269  0.1394 -1.8050  0.2563
 8769SOL    HW237770   4.101   1.570   2.290 -1.2768 -0.3793  0.3769
 8770SOL     OW37771   1.480   1.738   4.087  0.4707  0.1736  0.0055
 8770SOL    HW137772   1.523   1.822   4.072 -2.0121  1.8069  2.0859
 8770SOL    HW237773   1.481   1.718   4.180  0.1222  0.0936 -0.0054
 8771SOL     OW37774   3.725   3.302  11.843  0.0656  0.2264  0.0803
 8771SOL    HW137775   3.794   3.237  11.848  0.6677  0.7483 -1.4599
 8771SOL    HW237776   3.682   3.290  11.758  0.1085 -0.4703  0.1559
 8772SOL     OW37777   4.672   0.638   6.946  0.1296 -0.0544 -0.2316
 8772SOL    HW137778   4.604   0.571   6.942 -0.4816  0.5610 -0.1213
 8772SOL    HW237779   4.703   0.621   7.035 -0.9892  2.1968  0.5885
 8773SOL     OW37780   3.069   2.564   4.614 -0.4874 -0.3634  0.4270
 8773SOL    HW137781   3.116   2.488   4.649  1.2021 -0.0941 -1.2688
 8773SOL    HW237782   2.991   2.522   4.578 -1.1189  1.0840  0.1322
 8774SOL     OW37783   2.902   4.367   5.950 -0.0168 -0.2287  0.6120
 8774SOL    HW137784   2.861   4.333   5.871 -2.2170 -1.0259  2.1045
 8774SOL    HW237785   2.931   4.454   5.922  0.2885 -0.1122  1.2896
 8775SOL     OW37786   0.409   3.233   5.974  0.0697  0.0447 -0.0727
 8775SOL    HW137787   0.382   3.145   6.001  0.7127 -0.3882 -0.8709
 8775SOL    HW237788   0.478   3.243   6.040 -0.7829  0.4533  0.7491
 8776SOL     OW37789   1.529   4.414   4.525  0.1998 -0.0940  0.3021
 8776SOL    HW137790   1.438   4.393   4.506  0.6638  0.0798 -2.0286
 8776SOL    HW237791   1.516   4.493   4.577 -0.8179 -0.9328  1.3231
 8777SOL     OW37792   2.659   1.506   3.373  0.0332  0.0944 -0.2360
 8777SOL    HW137793   2.736   1.479   3.422 -0.0499  3.9036  2.0016
 8777SOL    HW237794   2.593   1.447   3.410  0.2626  0.7202  1.2003
 8778SOL     OW37795   1.597   1.055  14.000  0.0568 -0.4140 -0.2200
 8778SOL    HW137796   1.603   0.960  14.014 -0.2996  0.1355  3.8893
 8778SOL    HW237797   1.509   1.067  14.035  0.0827 -2.2269  0.5171
 8779SOL     OW37798   0.709   4.380  12.706 -0.8338 -0.0682  0.1268
 8779SOL    HW137799   0.652   4.336  12.769  0.2934  0.1884  1.3487
 8779SOL    HW237800   0.756   4.305  12.671 -2.6157 -1.4090  0.6392
 8780SOL     OW37801   3.194   0.323   8.842  0.3403  0.3199 -0.4736
 8780SOL    HW137802   3.274   0.347   8.889  1.7318 -1.5185 -1.8885
 8780SOL    HW237803   3.134   0.368   8.901  0.8038  0.6405 -0.2417
 8781SOL     OW37804   2.103   2.522   8.002 -0.5839 -0.2895  0.3118
 8781SOL    HW137805   2.093   2.604   7.952 -2.9000 -0.4271  0.5431
 8781SOL    HW237806   2.131   2.553   8.088  0.5769  0.2045 -0.2356
 8782SOL     OW37807   2.306   0.823   2.425  0.2849  0.0734 -0.1675
 8782SOL    HW137808   2.398   0.823   2.452 -0.4061  0.6181  2.1907
 8782SOL    HW237809   2.330   0.776   2.345 -0.6493  1.8922 -1.5082
 8783SOL     OW37810   1.434   0.319   2.560  0.2407 -0.2941 -0.0886
 8783SOL    HW137811   1.504   0.279   2.611 -0.3733 -0.5889  0.5299
 8783SOL    HW237812   1.354   0.272   2.585  0.2307 -0.2194  0.0171
 8784SOL     OW37813   0.576   1.147   9.486 -0.1818  0.0912 -0.4964
 8784SOL    HW137814   0.564   1.082   9.554  3.8711  2.7789  2.8134
 8784SOL    HW237815   0.650   1.191   9.529  0.6769  0.0951 -1.9886
 8785SOL     OW37816   0.048   4.028  10.205 -0.2301 -0.4518  0.0420
 8785SOL    HW137817   4.682   3.993  10.229 -0.1132 -0.9205 -0.2246
 8785SOL    HW237818   0.106   3.978  10.263 -0.0238  0.4330  0.6070
 8786SOL     OW37819   2.494   2.545  13.309  0.1630  0.4750 -0.5905
 8786SOL    HW137820   2.549   2.530  13.232  1.8219 -0.5647  0.8318
 8786SOL    HW237821   2.512   2.639  13.314  1.8705  0.1528 -0.9975
 8787SOL     OW37822   3.163   0.857  12.966  0.5732  0.3494 -0.1694
 8787SOL    HW137823   3.238   0.916  12.958 -0.4084  1.6427  0.0142
 8787SOL    HW237824   3.198   0.770  12.985  1.8459  0.6866 -1.0169
 8788SOL     OW37825   1.200   3.245  16.081 -0.3555  0.0914 -0.2861
 8788SOL    HW137826   1.156   3.316  16.035 -0.1544  0.2718 -0.2007
 8788SOL    HW237827   1.191   3.178  16.014 -0.4112  1.2082 -1.3956
 8789SOL     OW37828   2.346   4.258  14.626 -0.3571  0.2236  0.1529
 8789SOL    HW137829   2.383   4.345  14.610 -1.4257  0.1957 -2.4523
 8789SOL    HW237830   2.350   4.216  14.540  1.0595 -1.9401  1.2702
 8790SOL     OW37831   2.279   0.666   3.817 -0.3775 -0.0398  0.0614
 8790SOL    HW137832   2.357   0.645   3.867  1.2299  4.1035 -0.7114
 8790SOL    HW237833   2.286   0.755   3.782  1.3332 -0.5280 -0.8563
 8791SOL     OW37834   3.732   0.497   5.955  0.1348 -0.5025  0.3384
 8791SOL    HW137835   3.752   0.474   6.046  2.0903  1.3087  0.3620
 8791SOL    HW237836   3.637   0.482   5.956  0.1573 -0.6456  0.4301
 8792SOL     OW37837   1.116   0.364  12.102 -0.6348  0.5053  0.3731
 8792SOL    HW137838   1.022   0.374  12.120 -0.4762 -0.8889  1.9207
 8792SOL    HW237839   1.159   0.417  12.169 -0.1576  1.0372 -0.3636
 8793SOL     OW37840   3.364   2.108   9.499 -0.3459 -0.8180  0.3630
 8793SOL    HW137841   3.453   2.122   9.467 -0.2956 -1.3684  0.2728
 8793SOL    HW237842   3.369   2.162   9.578  1.7418 -0.4832  0.0084
 8794SOL     OW37843   3.547   2.569   9.125  0.2175  0.6753  0.7411
 8794SOL    HW137844   3.530   2.622   9.203 -1.0203  2.4007 -0.6924
 8794SOL    HW237845   3.520   2.482   9.154  1.5633  0.1231  0.3437
 8795SOL     OW37846   4.065   3.107   8.695  0.1050  0.2626 -0.7298
 8795SOL    HW137847   4.131   3.039   8.710  0.3810  1.2784  2.6740
 8795SOL    HW237848   3.984   3.055   8.696 -0.9798  1.9999  1.2348
 8796SOL     OW37849   4.373   4.041  14.427  0.4720  0.2821  0.1283
 8796SOL    HW137850   4.346   3.998  14.508 -1.6735  1.3070 -0.0280
 8796SOL    HW237851   4.300   4.104  14.428 -0.0760 -0.3745  0.9446
 8797SOL     OW37852   3.241   3.107   9.630  0.6728  0.0533  0.1654
 8797SOL    HW137853   3.206   3.117   9.542  0.4762 -2.6775 -0.0431
 8797SOL    HW237854   3.301   3.034   9.616  0.5476 -0.4394  2.1986
 8798SOL     OW37855   2.433   4.230   2.359  0.2194 -0.5682 -0.5145
 8798SOL    HW137856   2.486   4.202   2.434  0.8691  0.2429 -0.6611
 8798SOL    HW237857   2.505   4.278   2.317 -0.5068  0.3726 -0.7036
 8799SOL     OW37858   3.265   1.080   4.566  0.0686  0.1692 -0.2463
 8799SOL    HW137859   3.353   1.054   4.538  0.6954  1.8826  0.1349
 8799SOL    HW237860   3.253   1.159   4.513  2.1645 -2.6103 -4.8444
 8800SOL     OW37861   4.279   0.560   2.456 -0.7769 -0.2248 -0.1182
 8800SOL    HW137862   4.341   0.488   2.445  0.1850  0.5146  0.4934
 8800SOL    HW237863   4.233   0.562   2.372 -2.0557 -3.5487  0.4912
 8801SOL     OW37864   0.107   4.320   6.313  0.0128  0.2345  0.0566
 8801SOL    HW137865   0.112   4.244   6.255 -0.2073 -1.4327  2.2259
 8801SOL    HW237866   0.195   4.357   6.313  0.1687 -0.1287  1.1507
 8802SOL     OW37867   2.154   1.166   5.868  0.5477  0.5067  0.3112
 8802SOL    HW137868   2.099   1.122   5.932  1.0783 -0.3110  0.2076
 8802SOL    HW237869   2.149   1.102   5.797  3.0326 -1.2304  1.6684
 8803SOL     OW37870   2.847   0.420   6.069 -0.4327  0.0848  0.0031
 8803SOL    HW137871   2.805   0.501   6.042  0.7345  0.4747 -0.6222
 8803SOL    HW237872   2.821   0.412   6.161  0.1804  0.3620  0.1952
 8804SOL     OW37873   4.128   2.652   2.352 -0.1410  0.0174 -0.2958
 8804SOL    HW137874   4.204   2.653   2.410  0.4117  1.3966 -1.0575
 8804SOL    HW237875   4.106   2.559   2.360 -0.7607  0.3182  1.3726
 8805SOL     OW37876   2.843   0.110   0.871  0.0628  0.4381  0.3977
 8805SOL    HW137877   2.901   0.062   0.812  0.2350  0.1483  0.8023
 8805SOL    HW237878   2.854   0.073   0.959  0.7716 -0.4813 -0.0915
 8806SOL     OW37879   3.147   3.691  17.181 -0.5809 -0.4354 -0.2579
 8806SOL    HW137880   3.167   3.684  17.274 -0.2283 -1.3894 -0.4090
 8806SOL    HW237881   3.216   3.748  17.147 -0.4842  0.3069  1.1896
 8807SOL     OW37882   0.806   4.078   0.955  0.0124 -0.8770  0.4086
 8807SOL    HW137883   0.725   4.026   0.960 -0.9419  0.3728 -2.0473
 8807SOL    HW237884   0.800   4.123   1.039  1.0307 -0.9251  0.5054
 8808SOL     OW37885   1.096   2.967  12.347  1.3963  0.6653  0.4870
 8808SOL    HW137886   1.144   2.903  12.399 -0.6430 -1.7879 -0.6882
 8808SOL    HW237887   1.151   2.981  12.269  1.0085 -0.3603  0.0297
 8809SOL     OW37888   3.296   3.926  17.189 -0.3528  0.6716 -0.0039
 8809SOL    HW137889   3.365   3.984  17.222  1.2376 -0.3088 -1.6078
 8809SOL    HW237890   3.244   3.925  17.269  1.3823  0.0481  1.1109
 8810SOL     OW37891   2.130   2.145   5.631 -0.4698 -0.4599 -0.0327
 8810SOL    HW137892   2.194   2.206   5.667  1.1775 -1.0155 -2.0409
 8810SOL    HW237893   2.183   2.108   5.561  0.5960  2.2938 -0.6534
 8811SOL     OW37894   3.313   2.415   3.775 -0.1998  0.2083  0.2272
 8811SOL    HW137895   3.298   2.346   3.839  1.1530 -0.0804  0.2465
 8811SOL    HW237896   3.409   2.414   3.776 -0.1818  0.4380 -0.9040
 8812SOL     OW37897   2.597   0.409  13.187 -0.1828 -0.5145 -0.0926
 8812SOL    HW137898   2.617   0.320  13.217 -2.2016 -0.8198  0.3286
 8812SOL    HW237899   2.529   0.434  13.249 -1.0727  2.0249 -2.0902
 8813SOL     OW37900   2.156   1.350   6.092 -0.3591 -0.2163 -0.6700
 8813SOL    HW137901   2.223   1.377   6.029  1.5995  0.9155  1.8975
 8813SOL    HW237902   2.128   1.266   6.055 -0.6399 -1.2101  1.8157
 8814SOL     OW37903   2.017   1.680   8.257  0.4161 -0.3124 -0.6294
 8814SOL    HW137904   1.981   1.639   8.335  0.4300  0.2422 -0.3268
 8814SOL    HW237905   2.044   1.604   8.206  0.8793  0.3111 -1.3038
 8815SOL     OW37906   1.984   4.586  10.902 -0.3315 -0.2421  0.4960
 8815SOL    HW137907   2.061   4.583  10.845 -0.3532  0.6926  0.4205
 8815SOL    HW237908   1.929   4.651  10.858  0.2490 -0.5722 -0.7176
 8816SOL     OW37909   4.346   3.501   6.127  0.3289  0.1742 -0.0223
 8816SOL    HW137910   4.406   3.556   6.078 -1.5887  1.7155 -0.5986
 8816SOL    HW237911   4.386   3.506   6.214 -0.0762  1.3757  0.0854
 8817SOL     OW37912   1.444   3.367   6.057 -0.2002 -0.1042 -0.2882
 8817SOL    HW137913   1.536   3.372   6.083 -0.3005 -1.9991  0.3787
 8817SOL    HW237914   1.447   3.337   5.966 -2.6059  2.2353 -1.1537
 8818SOL     OW37915   2.907   1.835   5.409 -0.5481  0.0645 -0.1976
 8818SOL    HW137916   2.835   1.897   5.398  1.2684  2.0921 -0.7158
 8818SOL    HW237917   2.862   1.751   5.407 -0.4732 -0.0438  3.1599
 8819SOL     OW37918   3.899   1.013  16.745 -0.8476 -0.3452  0.6541
 8819SOL    HW137919   3.958   0.983  16.814  0.9082  1.4011 -0.0718
 8819SOL    HW237920   3.963   1.056  16.688 -0.7237 -0.7405  0.4995
 8820SOL     OW37921   1.295   2.920   7.194  0.0154  0.0611 -0.3004
 8820SOL    HW137922   1.379   2.917   7.150 -0.4623  1.1389 -1.2963
 8820SOL    HW237923   1.232   2.932   7.123  1.5429 -0.7367 -1.7825
 8821SOL     OW37924   3.193   3.948   5.294 -0.1727  0.5306  0.1111
 8821SOL    HW137925   3.193   4.035   5.256 -0.0468 -0.9427 -3.2081
 8821SOL    HW237926   3.285   3.952   5.320  0.1042 -1.1113 -0.6256
 8822SOL     OW37927   3.132   3.455   7.674 -0.2166 -0.0301 -0.6737
 8822SOL    HW137928   3.126   3.363   7.648  0.5219  0.1034 -1.3181
 8822SOL    HW237929   3.202   3.434   7.737 -0.7274 -1.1419 -0.4594
 8823SOL     OW37930   1.493   1.518   8.226 -0.1140 -0.5034 -0.3678
 8823SOL    HW137931   1.547   1.439   8.212 -1.2076 -1.2629 -0.2711
 8823SOL    HW237932   1.444   1.489   8.302 -1.6694  2.5206 -0.2470
 8824SOL     OW37933   3.267   0.145   2.081  0.1579  0.3655  0.5943
 8824SOL    HW137934   3.348   0.185   2.050  0.6031 -1.1951 -0.2600
 8824SOL    HW237935   3.189   0.193   2.052  0.3182 -0.7565 -1.7225
 8825SOL     OW37936   1.399   0.297   5.285  0.2401  0.2606  0.6034
 8825SOL    HW137937   1.483   0.343   5.290  1.9481 -2.8157 -0.0266
 8825SOL    HW237938   1.359   0.361   5.226  0.6712  1.6055  1.7551
 8826SOL     OW37939   1.599   0.457   5.233 -0.2898 -0.1441  0.4772
 8826SOL    HW137940   1.547   0.537   5.231 -1.9121 -1.2404 -0.5637
 8826SOL    HW237941   1.609   0.449   5.138  0.7483 -0.8756  0.6429
 8827SOL     OW37942   3.372   4.474   4.316 -0.3088 -0.2542  0.2043
 8827SOL    HW137943   3.378   4.508   4.227 -2.8377  1.5261  0.7042
 8827SOL    HW237944   3.385   4.382   4.296 -4.3589 -0.3712 -2.0106
 8828SOL     OW37945   4.598   2.657   3.365 -0.1150 -0.0480  0.1210
 8828SOL    HW137946   4.678   2.681   3.412  0.1362 -0.0872 -0.2884
 8828SOL    HW237947   4.629   2.627   3.280 -0.9805 -1.2107  0.2221
 8829SOL     OW37948   2.213   2.737   7.200 -0.7001 -0.2249 -0.5593
 8829SOL    HW137949   2.276   2.666   7.196 -2.0884 -1.5330  1.3845
 8829SOL    HW237950   2.130   2.701   7.168 -0.0995 -1.1477 -1.0815
 8830SOL     OW37951   2.112   1.749  12.092 -0.8760  0.2793  0.1142
 8830SOL    HW137952   2.124   1.748  11.997  3.4587  1.0436  0.6156
 8830SOL    HW237953   2.017   1.758  12.103 -1.0611  2.0043 -2.9378
 8831SOL     OW37954   3.622   3.653  10.874  0.4638  0.2791 -0.7198
 8831SOL    HW137955   3.547   3.711  10.865  0.5244  0.3485 -0.7787
 8831SOL    HW237956   3.658   3.679  10.959  0.3943 -0.3745 -0.4884
 8832SOL     OW37957   3.164   4.186   5.708  0.1913 -0.6313  0.2814
 8832SOL    HW137958   3.169   4.187   5.803  0.9912  0.3613  0.2249
 8832SOL    HW237959   3.257   4.191   5.685 -0.2021  0.9272 -0.9833
 8833SOL     OW37960   4.117   1.282   1.737  0.4547  0.7865 -0.4156
 8833SOL    HW137961   4.074   1.353   1.690  2.0273  3.1798  1.7222
 8833SOL    HW237962   4.170   1.255   1.662 -0.7334 -1.4300 -0.4515
 8834SOL     OW37963   3.232   2.614   7.395  0.3274  0.3495  0.1875
 8834SOL    HW137964   3.143   2.615   7.429 -0.1179  2.0630 -0.9928
 8834SOL    HW237965   3.246   2.536   7.341 -1.6957 -1.0880  1.7521
 8835SOL     OW37966   0.720   0.158  14.790  0.3235  0.0189  0.0439
 8835SOL    HW137967   0.734   0.134  14.882  2.6752 -0.2550 -0.3723
 8835SOL    HW237968   0.739   0.252  14.789 -0.4803  0.1545 -2.5056
 8836SOL     OW37969   4.538   3.771  10.248  0.1634  0.0270  0.5562
 8836SOL    HW137970   4.599   3.775  10.321 -0.9108 -0.6468  1.4928
 8836SOL    HW237971   4.480   3.703  10.283  0.3291 -0.2108  0.3695
 8837SOL     OW37972   1.166   0.791   2.802  0.4106 -0.5496 -0.1776
 8837SOL    HW137973   1.081   0.750   2.785 -0.4566  1.4495 -0.7000
 8837SOL    HW237974   1.138   0.883   2.803 -0.0968 -0.6870 -1.5264
 8838SOL     OW37975   0.473   0.188   5.383  0.1273 -0.7299  0.1148
 8838SOL    HW137976   0.445   0.127   5.315 -0.8076  1.0573 -1.1095
 8838SOL    HW237977   0.556   0.149   5.409  0.0509 -0.4589  0.7444
 8839SOL     OW37978   2.261   3.824  14.669 -0.1712 -0.3091  0.5177
 8839SOL    HW137979   2.262   3.870  14.585  0.4915 -3.5302 -1.2365
 8839SOL    HW237980   2.260   3.733  14.639 -2.1253  0.6059 -2.1861
 8840SOL     OW37981   4.390   0.454   1.971  0.3075 -0.1796  0.0348
 8840SOL    HW137982   4.389   0.369   1.927 -1.3885 -0.2143  0.1554
 8840SOL    HW237983   4.427   0.508   1.901 -0.2271  1.0263  0.6732
 8841SOL     OW37984   0.425   2.641   0.844  0.2339  0.3384  0.3986
 8841SOL    HW137985   0.508   2.642   0.796 -1.0015 -0.6744 -1.7542
 8841SOL    HW237986   0.384   2.716   0.802 -2.7839 -0.9629  1.0440
 8842SOL     OW37987   4.180   3.338   6.674  0.4383  0.1909  0.3554
 8842SOL    HW137988   4.216   3.419   6.638  1.4149 -0.1468  0.5558
 8842SOL    HW237989   4.177   3.353   6.768 -2.0302  0.9007  0.1523
 8843SOL     OW37990   1.652   0.691   4.218  0.3490  0.5623  0.1338
 8843SOL    HW137991   1.661   0.733   4.132  2.6162 -1.3778 -0.5793
 8843SOL    HW237992   1.649   0.600   4.190  0.5707 -0.0001  1.9406
 8844SOL     OW37993   2.337   4.473   2.457  0.0304 -0.4361 -0.0067
 8844SOL    HW137994   2.242   4.470   2.467  0.1591 -2.9163  0.4389
 8844SOL    HW237995   2.361   4.381   2.444  0.2775 -0.1168 -1.7364
 8845SOL     OW37996   3.834   0.602   0.203 -0.5020  0.0846 -0.1948
 8845SOL    HW137997   3.898   0.619   0.271 -0.3691 -0.5404 -0.1647
 8845SOL    HW237998   3.844   0.674   0.141 -1.9945 -0.6989 -1.3523
 8846SOL     OW37999   2.866   3.759  10.508  0.4426 -0.0891  0.0595
 8846SOL    HW138000   2.940   3.703  10.483  1.1146  0.0187  1.7728
 8846SOL    HW238001   2.865   3.813  10.429  0.8441 -1.9533 -1.2228
 8847SOL     OW38002   0.932   2.718  15.764  0.1360 -0.1304  0.4925
 8847SOL    HW138003   0.955   2.628  15.785 -1.1816 -0.1506  1.8156
 8847SOL    HW238004   0.854   2.700  15.713 -0.0620  1.0810  0.3724
 8848SOL     OW38005   1.997   0.802   7.516 -0.5974  0.1807  0.5896
 8848SOL    HW138006   1.975   0.774   7.605  1.1471 -0.3411  0.8404
 8848SOL    HW238007   2.002   0.897   7.523  1.9241  0.1993 -1.6434
 8849SOL     OW38008   1.955   3.769   2.250  0.3152 -0.2003 -0.1135
 8849SOL    HW138009   1.938   3.715   2.172 -0.7842 -0.9700  0.6545
 8849SOL    HW238010   1.933   3.859   2.227  0.0915 -0.3482 -0.4912
 8850SOL     OW38011   3.388   0.520   5.830  0.0538  0.6030 -0.8595
 8850SOL    HW138012   3.408   0.478   5.913 -2.0590 -1.0214 -1.1876
 8850SOL    HW238013   3.298   0.500   5.807 -0.4602 -0.2630  1.9560
 8851SOL     OW38014   0.991   1.269  14.234 -0.6392 -0.1403  0.2677
 8851SOL    HW138015   0.994   1.227  14.320  1.8943 -1.2294 -0.3564
 8851SOL    HW238016   1.080   1.266  14.198 -0.2928  0.4229  1.0787
 8852SOL     OW38017   4.274   0.865   3.788 -0.3367 -0.3943  0.0041
 8852SOL    HW138018   4.347   0.806   3.767 -0.3717 -1.3074  2.3930
 8852SOL    HW238019   4.281   0.929   3.718  0.5915 -0.3257  0.1545
 8853SOL     OW38020   4.675   1.654  15.342  0.2175 -0.0536 -0.4285
 8853SOL    HW138021   0.004   1.618  15.268 -0.9726  0.6040 -1.5342
 8853SOL    HW238022   0.009   1.728  15.372 -1.6957  0.5506  1.5137
 8854SOL     OW38023   2.077   1.325   8.738  0.2484 -0.2198 -0.1589
 8854SOL    HW138024   2.138   1.337   8.811 -1.2409  1.3318  0.8094
 8854SOL    HW238025   2.127   1.378   8.676 -0.4443 -0.9354 -1.3347
 8855SOL     OW38026   0.572   4.558   6.311 -0.0231  0.0484 -0.1219
 8855SOL    HW138027   0.479   4.578   6.323  0.3342  0.7527  1.5213
 8855SOL    HW238028   0.596   4.632   6.254  0.4004  1.2780  1.6413
 8856SOL     OW38029   1.350   2.326   3.948 -0.1326 -0.4974 -0.8997
 8856SOL    HW138030   1.363   2.256   3.884  0.7053 -1.2361  0.0837
 8856SOL    HW238031   1.438   2.364   3.951 -1.3678  2.5658 -3.6816
 8857SOL     OW38032   2.136   2.127   6.099  0.6131 -0.0802 -0.5831
 8857SOL    HW138033   2.165   2.036   6.088 -1.2363 -0.4580 -2.1485
 8857SOL    HW238034   2.064   2.137   6.038  0.8328 -0.8777 -0.9688
 8858SOL     OW38035   2.722   4.515   6.712  0.3208 -0.4605  0.1634
 8858SOL    HW138036   2.676   4.575   6.653 -0.3128  0.1152  1.2328
 8858SOL    HW238037   2.793   4.488   6.654 -0.8196  0.3118 -1.5914
 8859SOL     OW38038   0.707   1.860  16.347  0.2540  0.1606 -0.2854
 8859SOL    HW138039   0.767   1.786  16.341  0.1917  0.2340 -1.7744
 8859SOL    HW238040   0.661   1.829  16.426 -1.2210  1.6669 -0.5438
 8860SOL     OW38041   0.896   3.599   9.837 -0.4504  0.5645  0.3126
 8860SOL    HW138042   0.810   3.622   9.871  1.0858  3.2598  2.3966
 8860SOL    HW238043   0.897   3.657   9.762 -1.8988  0.2100  0.0167
 8861SOL     OW38044   4.507   3.727  12.041 -0.2714  0.7076  1.1410
 8861SOL    HW138045   4.473   3.654  12.093  0.7509  0.0836  0.9492
 8861SOL    HW238046   4.599   3.723  12.067 -0.4904 -0.1975  1.7884
 8862SOL     OW38047   0.453   1.108   7.965 -0.5807  0.2461 -0.2333
 8862SOL    HW138048   0.410   1.179   7.917  1.4688  2.1127  0.7137
 8862SOL    HW238049   0.392   1.034   7.961 -0.8360  0.4621 -0.3646
 8863SOL     OW38050   1.696   2.477   7.073  0.1366 -0.1493 -0.2154
 8863SOL    HW138051   1.672   2.535   7.001 -0.7958  0.3997  0.5320
 8863SOL    HW238052   1.636   2.507   7.142 -1.1710  0.9186 -1.8217
 8864SOL     OW38053   3.025   2.366  16.887 -0.1943  0.6172  0.1279
 8864SOL    HW138054   3.088   2.294  16.889 -0.0498  0.7305 -0.3140
 8864SOL    HW238055   3.045   2.413  16.806  1.2162 -1.5485 -0.7846
 8865SOL     OW38056   2.997   0.226   5.971  0.7569  0.2228  0.4258
 8865SOL    HW138057   2.935   0.290   6.007  1.2444  0.3221  1.0849
 8865SOL    HW238058   2.995   0.246   5.877 -1.5081  0.8326  0.5866
 8866SOL     OW38059   0.672   0.234   5.757  0.1255  0.2113  0.0006
 8866SOL    HW138060   0.768   0.232   5.756  0.0986 -1.4837  2.0045
 8866SOL    HW238061   0.663   0.180   5.679  0.1249  1.7615 -1.0756
 8867SOL     OW38062   3.404   4.190   9.323 -0.2602  0.1333  0.0575
 8867SOL    HW138063   3.328   4.247   9.311 -1.5339 -2.0975 -2.4210
 8867SOL    HW238064   3.475   4.239   9.281 -0.7686  1.9972  1.3501
 8868SOL     OW38065   1.477   2.515  14.670 -0.2209 -0.3026  0.7274
 8868SOL    HW138066   1.517   2.452  14.610 -2.9063 -1.3764  0.0681
 8868SOL    HW238067   1.455   2.591  14.616  2.0260 -1.1875 -1.3934
 8869SOL     OW38068   2.261   4.393   6.908  0.7185  0.1616 -0.3912
 8869SOL    HW138069   2.304   4.436   6.834 -1.5343  0.6522 -1.4166
 8869SOL    HW238070   2.324   4.410   6.977 -1.2117  0.2351  1.3495
 8870SOL     OW38071   3.052   1.035   3.370  0.2195  0.1220  0.3301
 8870SOL    HW138072   3.127   1.083   3.406 -1.0955  1.3771  1.3957
 8870SOL    HW238073   3.002   1.109   3.335 -1.6333 -0.6190  1.4584
 8871SOL     OW38074   1.851   1.555   6.071  0.1769 -0.1363 -0.0506
 8871SOL    HW138075   1.772   1.554   6.125 -0.7750 -0.6828 -1.4601
 8871SOL    HW238076   1.885   1.465   6.071 -1.0312 -0.6047  1.9586
 8872SOL     OW38077   1.838   2.131   4.668 -0.2399 -0.4533  0.0774
 8872SOL    HW138078   1.844   2.094   4.756 -0.9078  2.2295  1.2536
 8872SOL    HW238079   1.767   2.194   4.683 -0.6279 -0.7849 -0.3454
 8873SOL     OW38080   4.580   3.412   7.554 -0.2254  0.0134 -0.2091
 8873SOL    HW138081   4.604   3.371   7.637 -2.6835 -1.0425 -0.0093
 8873SOL    HW238082   4.484   3.413   7.560 -0.2774 -0.5467 -0.9938
 8874SOL     OW38083   3.238   4.458   6.139 -0.1626  0.0291  0.3516
 8874SOL    HW138084   3.199   4.544   6.123  2.0588  1.3709  2.1947
 8874SOL    HW238085   3.329   4.480   6.159  0.5713 -0.0477 -2.9415
 8875SOL     OW38086   2.494   1.204   2.184  0.2078 -0.4737 -0.0517
 8875SOL    HW138087   2.479   1.113   2.161  1.3295 -0.2933 -1.4989
 8875SOL    HW238088   2.572   1.222   2.131 -1.1178  0.6122 -1.6375
 8876SOL     OW38089   2.527   3.701   1.154 -0.1569  0.7610 -0.0943
 8876SOL    HW138090   2.579   3.625   1.126 -2.5527 -0.0276 -2.3411
 8876SOL    HW238091   2.481   3.712   1.071  0.2802  1.7237 -0.2095
 8877SOL     OW38092   1.229   4.600  15.907 -0.3758 -0.7796 -0.4121
 8877SOL    HW138093   1.221   4.682  15.957  2.8864 -0.6316 -0.1442
 8877SOL    HW238094   1.140   4.566  15.918 -0.7950  0.6048  0.5525
 8878SOL     OW38095   3.417   2.275  16.631  0.2384  0.1579  0.3787
 8878SOL    HW138096   3.390   2.261  16.721  0.8255 -0.7867  0.4076
 8878SOL    HW238097   3.357   2.211  16.593  0.2383 -0.1527  0.9042
 8879SOL     OW38098   3.353   1.417   7.076  0.8442  0.6230  0.8796
 8879SOL    HW138099   3.298   1.362   7.133 -0.9398  1.6941  0.1634
 8879SOL    HW238100   3.425   1.357   7.058  0.1072 -0.2453  0.8031
 8880SOL     OW38101   0.211   3.756  13.676 -0.0287  0.4321  0.1134
 8880SOL    HW138102   0.283   3.761  13.739  0.9160 -0.2393 -0.9229
 8880SOL    HW238103   0.240   3.815  13.606 -0.7079 -0.3128 -0.7974
 8881SOL     OW38104   1.485   0.737   8.370  0.5361  0.0103  0.0920
 8881SOL    HW138105   1.498   0.749   8.275 -1.3980  2.6688  0.1464
 8881SOL    HW238106   1.485   0.642   8.375 -0.6344 -0.0986 -1.7505
 8882SOL     OW38107   3.993   2.157   7.662 -0.5569 -0.0255 -0.2103
 8882SOL    HW138108   4.031   2.235   7.622  0.4370 -1.7218 -2.5993
 8882SOL    HW238109   3.902   2.154   7.631 -1.1518  0.3731  1.4715
 8883SOL     OW38110   3.498   3.598   8.244  0.1332 -0.1697  0.0347
 8883SOL    HW138111   3.533   3.524   8.195  1.9952  0.5679  0.2480
 8883SOL    HW238112   3.543   3.667   8.194 -0.8821 -0.2569 -1.0046
 8884SOL     OW38113   1.677   3.594  10.873 -0.2339 -0.1653  0.1097
 8884SOL    HW138114   1.714   3.604  10.786  1.4375 -3.3813  0.4475
 8884SOL    HW238115   1.648   3.685  10.882  1.1426  0.2561  0.3498
 8885SOL     OW38116   2.586   3.934  16.094  0.0275  0.2899  0.3590
 8885SOL    HW138117   2.528   3.989  16.147 -1.1556 -1.3106  0.7486
 8885SOL    HW238118   2.615   3.873  16.162 -0.1223  0.4302  0.5476
 8886SOL     OW38119   2.114   1.485  16.832 -0.1568 -0.0247  0.5196
 8886SOL    HW138120   2.164   1.412  16.797 -0.1340 -0.8562  2.2887
 8886SOL    HW238121   2.023   1.461  16.819 -0.3656  0.7854  0.4660
 8887SOL     OW38122   3.880   1.109   6.146  0.1648 -0.3833  0.2613
 8887SOL    HW138123   3.958   1.074   6.102  0.5869  2.5481 -1.3041
 8887SOL    HW238124   3.855   1.029   6.192 -1.0149 -1.5417 -2.3542
 8888SOL     OW38125   0.761   4.709   1.102 -0.2715  0.3420  0.7305
 8888SOL    HW138126   0.791   4.676   1.018 -1.3655 -0.0366  0.4849
 8888SOL    HW238127   0.817   0.066   1.115 -0.3953  0.4022  0.9134
 8889SOL     OW38128   3.697   0.689   9.368 -0.7943  0.7143  0.6144
 8889SOL    HW138129   3.679   0.689   9.462 -1.2834  0.2669  0.5249
 8889SOL    HW238130   3.607   0.709   9.343  0.0533  1.2917 -1.9154
 8890SOL     OW38131   3.509   1.872   4.087  0.1857  0.1887 -0.2247
 8890SOL    HW138132   3.439   1.810   4.066  2.4068 -1.9649 -1.3495
 8890SOL    HW238133   3.462   1.938   4.138 -1.9758 -1.1694 -0.4354
 8891SOL     OW38134   4.356   3.184   2.264 -0.1553  0.4130  0.3185
 8891SOL    HW138135   4.444   3.181   2.302 -0.1747 -1.4567  0.2392
 8891SOL    HW238136   4.369   3.149   2.176  0.3470 -0.5240  0.7646
 8892SOL     OW38137   2.904   4.481  12.844 -0.1672  0.5747  0.1718
 8892SOL    HW138138   2.892   4.510  12.753 -0.2041  0.1058  0.0290
 8892SOL    HW238139   2.861   4.396  12.844 -0.4755  0.7251 -1.1530
 8893SOL     OW38140   2.097   3.476   4.153  0.7152 -0.8702 -0.5400
 8893SOL    HW138141   2.168   3.529   4.190 -0.6154  1.1289 -0.8747
 8893SOL    HW238142   2.079   3.525   4.073  1.2290 -1.3036 -0.9205
 8894SOL     OW38143   1.457   3.057   0.364  0.1467 -0.2552 -0.3716
 8894SOL    HW138144   1.370   3.093   0.381  1.1042  2.8476 -1.9512
 8894SOL    HW238145   1.436   2.966   0.345  1.0303 -0.0589 -2.2291
 8895SOL     OW38146   0.363   0.818  14.770 -0.0754  0.1325 -0.3278
 8895SOL    HW138147   0.278   0.847  14.802 -1.1338 -1.4681 -1.6898
 8895SOL    HW238148   0.368   0.861  14.685 -1.0030 -1.0067 -0.9449
 8896SOL     OW38149   3.355   4.463  14.386  0.3379  0.1117  0.0525
 8896SOL    HW138150   3.356   4.414  14.468  0.4452 -0.2858 -0.1862
 8896SOL    HW238151   3.292   4.419  14.329 -2.4729 -0.1273  3.3477
 8897SOL     OW38152   0.109   1.860   6.411 -0.3346  0.0136 -0.4421
 8897SOL    HW138153   0.095   1.789   6.474 -0.1434  1.7397  1.5517
 8897SOL    HW238154   0.186   1.823   6.368  0.1730  2.2456 -1.4744
 8898SOL     OW38155   3.224   0.907   8.650 -0.5674 -0.0397  0.4879
 8898SOL    HW138156   3.225   0.827   8.702 -0.9305  1.6844  3.1452
 8898SOL    HW238157   3.135   0.900   8.615 -1.2007 -1.2258  2.3372
 8899SOL     OW38158   3.785   0.921   1.586 -0.3709 -0.2726  0.1475
 8899SOL    HW138159   3.801   0.997   1.642  0.3441 -1.0232  0.9633
 8899SOL    HW238160   3.690   0.923   1.600 -0.1609 -1.3252  1.7312
 8900SOL     OW38161   0.082   2.607   7.206  0.4477  0.0176  0.2733
 8900SOL    HW138162   0.088   2.677   7.141  0.3136 -0.1687  0.0617
 8900SOL    HW238163   0.141   2.639   7.274 -0.6602  1.8646  0.3508
 8901SOL     OW38164   3.860   3.666   2.936  0.3268  1.2695  0.0170
 8901SOL    HW138165   3.944   3.647   2.894  0.6094  2.1461  0.1897
 8901SOL    HW238166   3.807   3.706   2.867  1.0565  3.5490  0.7779
 8902SOL     OW38167   2.364   0.434  10.536  0.4151 -0.2311  0.5293
 8902SOL    HW138168   2.319   0.459  10.456 -0.1410  0.0695  0.9316
 8902SOL    HW238169   2.455   0.435  10.508  0.1471  3.0697 -0.2184
 8903SOL     OW38170   3.788   0.122  13.286  0.7484 -0.9091 -0.2036
 8903SOL    HW138171   3.705   0.104  13.331  1.1633  0.7067  1.1713
 8903SOL    HW238172   3.840   0.057  13.332  0.7077 -0.9811 -0.2582
 8904SOL     OW38173   2.755   4.585   2.798  0.0423  0.0951 -0.1562
 8904SOL    HW138174   2.792   4.504   2.763 -3.5198 -1.3531 -0.6276
 8904SOL    HW238175   2.807   4.642   2.741 -0.9782  0.6886 -0.4936
 8905SOL     OW38176   1.449   0.847   6.439  0.8759 -0.1165  0.2381
 8905SOL    HW138177   1.503   0.903   6.494 -0.9552  2.4406 -0.5344
 8905SOL    HW238178   1.437   0.763   6.483 -0.3747 -0.5132 -0.8399
 8906SOL     OW38179   2.358   0.679   2.188  0.5361 -0.3729  0.3120
 8906SOL    HW138180   2.313   0.616   2.131 -0.5257 -0.4335  1.2135
 8906SOL    HW238181   2.448   0.671   2.158  0.8055  2.0899  0.5100
 8907SOL     OW38182   4.103   2.402   9.342  0.6776 -0.4489  0.0215
 8907SOL    HW138183   4.171   2.424   9.405 -0.7829  1.6747  0.8576
 8907SOL    HW238184   4.079   2.493   9.325 -3.7131 -1.3468  1.2952
 8908SOL     OW38185   4.278   3.579   2.398  0.5679  0.0384 -0.2737
 8908SOL    HW138186   4.289   3.571   2.493 -0.1594  0.8780 -0.1236
 8908SOL    HW238187   4.198   3.528   2.387  1.5205 -1.4079 -0.5297
 8909SOL     OW38188   3.992   2.625   8.196 -0.3967 -0.1601  0.1240
 8909SOL    HW138189   4.083   2.653   8.188 -0.8905  1.7840  1.2073
 8909SOL    HW238190   3.944   2.706   8.180 -0.6439 -0.1135  1.0650
 8910SOL     OW38191   4.171   1.969   3.797  0.2697 -0.2143  0.1837
 8910SOL    HW138192   4.161   2.026   3.721 -3.4025 -1.2755 -0.1350
 8910SOL    HW238193   4.232   1.907   3.756 -0.0773  1.2678 -2.5693
 8911SOL     OW38194   2.402   0.561   4.507 -0.1523  0.0451 -0.2255
 8911SOL    HW138195   2.391   0.618   4.583 -3.4794 -0.3159 -0.4455
 8911SOL    HW238196   2.497   0.567   4.496 -0.4383  1.9958 -1.8134
 8912SOL     OW38197   2.302   1.074   8.479 -0.3471  0.0444  0.2429
 8912SOL    HW138198   2.339   1.057   8.566  0.1943 -3.9621 -0.7724
 8912SOL    HW238199   2.333   0.994   8.436  1.5387 -0.1369  1.9523
 8913SOL     OW38200   2.306   0.069   6.713 -0.0063 -0.2826  0.1662
 8913SOL    HW138201   2.317   0.124   6.791  0.9350 -0.7867  0.3848
 8913SOL    HW238202   2.217   0.040   6.734  0.3133 -2.1948 -1.1238
 8914SOL     OW38203   3.299   2.611   1.215  0.6717  0.1294  0.2150
 8914SOL    HW138204   3.353   2.690   1.211 -0.3389  1.0125  3.5548
 8914SOL    HW238205   3.220   2.633   1.166 -0.0954 -2.0862  0.4852
 8915SOL     OW38206   3.908   2.676   8.964 -0.0744  0.2219  0.1407
 8915SOL    HW138207   3.978   2.614   8.985 -0.5123  0.0381  1.0862
 8915SOL    HW238208   3.871   2.643   8.883 -2.6807 -1.1861  1.8831
 8916SOL     OW38209   3.248   2.979   2.469  0.8347 -0.1645 -0.3877
 8916SOL    HW138210   3.331   3.003   2.428  1.4577 -0.3924  0.7423
 8916SOL    HW238211   3.245   3.038   2.544 -0.1439  1.4626 -1.7153
 8917SOL     OW38212   4.154   3.796   3.295 -0.0429 -0.1427  0.4198
 8917SOL    HW138213   4.198   3.740   3.230 -0.8633 -1.2189  0.8101
 8917SOL    HW238214   4.131   3.727   3.357  0.6104 -1.0884 -0.3707
 8918SOL     OW38215   1.472   2.604   7.254  0.2763 -0.0926 -0.2736
 8918SOL    HW138216   1.434   2.658   7.323 -0.4800 -1.0137  0.0328
 8918SOL    HW238217   1.402   2.614   7.191 -0.0984 -0.7711  0.0324
 8919SOL     OW38218   0.414   2.460   3.794 -0.5306  0.4112 -0.2594
 8919SOL    HW138219   0.502   2.495   3.781 -0.9056  1.3716 -0.2094
 8919SOL    HW238220   0.420   2.372   3.832  1.3114  1.3427  1.5476
 8920SOL     OW38221   1.354   1.613   1.509  0.1377 -0.0555 -0.4933
 8920SOL    HW138222   1.323   1.552   1.575  0.8371  1.3944  1.1916
 8920SOL    HW238223   1.305   1.693   1.530 -2.9734 -2.1265 -0.0051
 8921SOL     OW38224   2.966   3.871   4.708  0.0599 -0.5185 -0.4539
 8921SOL    HW138225   2.943   3.953   4.752 -1.0483 -0.5439 -1.0000
 8921SOL    HW238226   2.985   3.901   4.619 -0.0274  2.2817  0.4473
 8922SOL     OW38227   2.989   3.410   3.367 -0.2887  0.1748 -0.2973
 8922SOL    HW138228   2.906   3.459   3.368  0.2460  1.0871 -0.9811
 8922SOL    HW238229   3.054   3.479   3.364  1.6401 -1.7377 -2.0496
 8923SOL     OW38230   3.911   1.732  12.260 -0.0882  0.6536 -0.2915
 8923SOL    HW138231   3.936   1.657  12.206 -1.0858  0.5195 -0.5629
 8923SOL    HW238232   3.892   1.689  12.343 -2.7828  1.9011 -0.2452
 8924SOL     OW38233   4.144   3.383   0.948  0.2268 -0.7005 -0.5445
 8924SOL    HW138234   4.185   3.340   0.872 -2.3070  2.2143 -3.5892
 8924SOL    HW238235   4.097   3.454   0.904 -0.3977 -1.8084 -1.6628
 8925SOL     OW38236   4.509   4.645   4.007  0.2750  0.1253 -0.3827
 8925SOL    HW138237   4.502   4.560   4.050 -0.7662 -0.0573 -0.9327
 8925SOL    HW238238   4.581   4.622   3.948  0.2922  0.8385 -0.6420
 8926SOL     OW38239   0.885   4.157   7.826  0.0857  0.2458 -0.8191
 8926SOL    HW138240   0.952   4.205   7.777  0.0149  0.2639 -0.8981
 8926SOL    HW238241   0.802   4.189   7.791 -0.4760 -0.6362 -0.3075
 8927SOL     OW38242   1.866   3.417   1.307  0.2878  0.2547  0.5996
 8927SOL    HW138243   1.777   3.449   1.291  0.6977  2.1268  2.0040
 8927SOL    HW238244   1.920   3.486   1.268  0.3179 -0.8579 -1.2896
 8928SOL     OW38245   3.837   0.236   6.430  0.2920 -0.4253 -0.2414
 8928SOL    HW138246   3.854   0.244   6.524  1.7924 -0.0818 -0.5463
 8928SOL    HW238247   3.828   0.141   6.419  0.9186 -0.5292  0.1485
 8929SOL     OW38248   2.629   2.009  15.756 -0.0534 -0.1388  0.1851
 8929SOL    HW138249   2.721   2.011  15.782 -0.5835  2.2201  1.8193
 8929SOL    HW238250   2.639   1.985  15.664 -2.4393  1.1523 -0.4226
 8930SOL     OW38251   3.095   0.468   6.722  0.3131 -0.0880  0.0070
 8930SOL    HW138252   3.005   0.488   6.698 -0.3460 -1.3278  1.4573
 8930SOL    HW238253   3.076   0.380   6.755  1.1285 -0.0621  0.5453
 8931SOL     OW38254   2.409   4.638   4.482  0.1558 -0.4745 -0.0119
 8931SOL    HW138255   2.355   4.662   4.557  0.9525  0.3811  0.2908
 8931SOL    HW238256   2.360   4.661   4.403  1.6067 -2.1134 -1.4142
 8932SOL     OW38257   3.426   3.140   7.800 -0.4329  0.0347 -0.0555
 8932SOL    HW138258   3.459   3.096   7.722 -0.1149 -1.1397  0.7515
 8932SOL    HW238259   3.507   3.181   7.830 -1.0907  1.1801  0.1785
 8933SOL     OW38260   4.407   1.597   5.345  0.2964  0.1791 -0.2034
 8933SOL    HW138261   4.352   1.584   5.269 -1.6924 -1.6518  1.5320
 8933SOL    HW238262   4.476   1.534   5.326 -0.3042 -1.0279  1.5680
 8934SOL     OW38263   3.594   1.727   0.999 -0.5662 -0.5433  0.2395
 8934SOL    HW138264   3.535   1.794   1.035 -2.3165 -2.0298  0.1403
 8934SOL    HW238265   3.562   1.724   0.909  2.3387  1.6583 -0.8690
 8935SOL     OW38266   2.683   4.404   8.377  0.2518  0.1025 -0.1884
 8935SOL    HW138267   2.633   4.432   8.301  1.2134  3.1407  0.3008
 8935SOL    HW238268   2.616   4.409   8.445  0.2671 -2.6299  0.0391
 8936SOL     OW38269   2.043   2.576   6.191  0.0132 -0.2657  0.5538
 8936SOL    HW138270   2.132   2.612   6.195 -0.0621 -0.3562  2.9220
 8936SOL    HW238271   1.995   2.638   6.136  0.1324 -0.8104 -0.1709
 8937SOL     OW38272   4.126   4.354   4.377  0.4332  0.1559 -0.0148
 8937SOL    HW138273   4.067   4.306   4.319  1.6500 -1.6870  0.2831
 8937SOL    HW238274   4.155   4.419   4.314 -0.8152  0.0538 -0.6940
 8938SOL     OW38275   3.772   3.789   5.409 -0.3568  0.4477 -0.5250
 8938SOL    HW138276   3.830   3.849   5.362  0.7577  0.4809  0.8912
 8938SOL    HW238277   3.805   3.811   5.496  1.2168  1.6511 -1.4197
 8939SOL     OW38278   3.881   3.837   7.121  0.5718 -0.0923  0.2426
 8939SOL    HW138279   3.856   3.864   7.210 -0.4355  0.3368 -0.1657
 8939SOL    HW238280   3.812   3.772   7.106 -1.2162  1.0453  3.3828
 8940SOL     OW38281   3.380   3.027   7.136 -0.2415  0.8772 -0.2709
 8940SOL    HW138282   3.473   3.039   7.157 -0.2688 -0.6248  0.7392
 8940SOL    HW238283   3.350   2.960   7.197  1.4261  0.7607  0.4233
 8941SOL     OW38284   3.205   4.278   1.589 -0.1026 -0.2591  0.1890
 8941SOL    HW138285   3.183   4.205   1.648  1.3554 -2.5908 -2.1521
 8941SOL    HW238286   3.121   4.310   1.556 -0.2232 -2.2796 -1.4433
 8942SOL     OW38287   4.581   0.757  17.411 -0.0362 -0.1903  0.0424
 8942SOL    HW138288   4.637   0.759  17.334  0.0666 -4.0297 -0.0113
 8942SOL    HW238289   4.646   0.739  17.479  0.4899 -1.2164 -0.7386
 8943SOL     OW38290   0.670   3.857   6.524  0.4331  0.0674 -0.0154
 8943SOL    HW138291   0.681   3.907   6.605  0.8530 -0.1647  0.0751
 8943SOL    HW238292   0.654   3.767   6.554 -2.7609  0.3023 -1.0720
 8944SOL     OW38293   3.199   1.892  17.205  0.3547 -0.1295 -0.0877
 8944SOL    HW138294   3.231   1.933  17.285  1.6285 -1.4960  0.1122
 8944SOL    HW238295   3.213   1.800  17.228  1.7108  0.4064  1.2316
 8945SOL     OW38296   0.985   1.839  11.281 -0.4867  0.0581  0.3135
 8945SOL    HW138297   1.042   1.763  11.293 -0.6644 -0.1456 -0.1087
 8945SOL    HW238298   0.948   1.847  11.369 -0.0994 -2.3495  0.6889
 8946SOL     OW38299   3.012   2.122   1.965 -0.3690 -0.2480  0.6819
 8946SOL    HW138300   2.920   2.112   1.937 -0.5027  1.7241  0.4455
 8946SOL    HW238301   3.048   2.166   1.888  0.5396  1.1530  1.9150
 8947SOL     OW38302   4.262   0.070   3.947 -0.4204 -0.2328  0.3426
 8947SOL    HW138303   4.304   4.704   3.943  1.6964  0.7139  2.4917
 8947SOL    HW238304   4.324   0.108   4.009  0.8247 -2.9967  0.7825
 8948SOL     OW38305   3.594   2.583  10.270 -0.2947  0.5346  0.5257
 8948SOL    HW138306   3.580   2.521  10.199 -1.6646  0.3867  0.9236
 8948SOL    HW238307   3.610   2.665  10.224  0.2867 -0.9006 -1.7882
 8949SOL     OW38308   1.729   1.186  14.205 -0.5407  0.7261  0.0514
 8949SOL    HW138309   1.702   1.273  14.175 -0.6667  0.7662  0.2710
 8949SOL    HW238310   1.676   1.130  14.148 -1.3307 -1.6128  3.0617
 8950SOL     OW38311   4.575   0.792   6.487 -0.3680 -0.1110  0.3812
 8950SOL    HW138312   4.658   0.824   6.521 -1.2471  3.4572 -0.8338
 8950SOL    HW238313   4.529   0.876   6.479  1.9752  1.2020  0.8224
 8951SOL     OW38314   0.430   1.866   2.828 -0.0346  0.4495  0.5238
 8951SOL    HW138315   0.445   1.950   2.871  0.7874 -0.1081  1.3366
 8951SOL    HW238316   0.336   1.867   2.809  0.0741  1.0509  0.0171
 8952SOL     OW38317   2.217   4.255   7.801  0.0722 -0.3977  0.2804
 8952SOL    HW138318   2.211   4.236   7.707 -0.9734  1.0325  0.0720
 8952SOL    HW238319   2.277   4.183   7.822  0.6880  0.3307  0.9762
 8953SOL     OW38320   0.488   0.304   3.932  0.5998 -0.2278  0.3279
 8953SOL    HW138321   0.449   0.335   4.014 -0.2642 -1.5767  0.4147
 8953SOL    HW238322   0.506   0.213   3.957  1.7090 -0.6251 -1.8693
 8954SOL     OW38323   1.947   4.557   4.122 -0.0026  0.3478 -0.2153
 8954SOL    HW138324   1.883   4.625   4.099  0.4160  1.6075  2.3347
 8954SOL    HW238325   2.025   4.594   4.082  0.5618 -0.4911  0.1171
 8955SOL     OW38326   0.064   3.576   2.738  0.0931 -0.0866  0.6617
 8955SOL    HW138327   0.090   3.667   2.722 -2.2031  0.6956  1.4251
 8955SOL    HW238328   4.689   3.590   2.735 -0.2364 -1.6282  4.3607
 8956SOL     OW38329   3.552   3.224  12.014 -0.5608 -0.3585 -0.0242
 8956SOL    HW138330   3.622   3.258  11.958  0.3035 -2.0022  0.0608
 8956SOL    HW238331   3.573   3.133  11.995  0.4171 -0.0819 -0.2846
 8957SOL     OW38332   3.489   0.339   6.017  0.1396 -0.0798  0.0119
 8957SOL    HW138333   3.409   0.292   6.039 -0.9972  1.7367 -0.3338
 8957SOL    HW238334   3.497   0.379   6.104 -0.6210  0.4495 -0.1668
 8958SOL     OW38335   2.602   0.933   8.078  0.1193 -0.2482 -0.2727
 8958SOL    HW138336   2.537   0.950   8.146  1.3251  0.3263  0.7402
 8958SOL    HW238337   2.550   0.910   8.001 -1.8797  2.8095  0.1576
 8959SOL     OW38338   2.631   2.310  14.229  0.2663 -0.6192 -0.4488
 8959SOL    HW138339   2.632   2.223  14.269 -0.5266 -1.1596 -1.6073
 8959SOL    HW238340   2.587   2.284  14.148  1.0982  0.0779 -1.1210
 8960SOL     OW38341   1.867   1.919   7.967 -0.5276  0.1338 -0.4659
 8960SOL    HW138342   1.867   1.979   8.041  0.7199 -1.3450  0.7363
 8960SOL    HW238343   1.954   1.880   7.972 -0.5886  0.1492  0.6191
 8961SOL     OW38344   3.445   0.063   8.029  0.3937 -0.7522  0.2297
 8961SOL    HW138345   3.363   0.032   8.069  1.3731 -2.4073  0.9596
 8961SOL    HW238346   3.480   0.097   8.111 -0.8998 -1.5975  1.1458
 8962SOL     OW38347   0.983   0.959   9.172 -0.6183  0.0803 -0.9208
 8962SOL    HW138348   0.987   1.033   9.111  0.5113  1.1003  0.3726
 8962SOL    HW238349   0.964   0.998   9.257  1.8300  0.0023 -0.3303
 8963SOL     OW38350   2.535   1.247   7.424 -0.1848 -0.3520  0.4823
 8963SOL    HW138351   2.477   1.176   7.399 -1.2627 -0.3124  2.9187
 8963SOL    HW238352   2.526   1.248   7.519  0.0115 -1.9583  0.5172
 8964SOL     OW38353   4.568   0.758   6.209  0.2960 -0.0036 -0.0162
 8964SOL    HW138354   4.584   0.742   6.302  0.7292  0.3097 -0.0396
 8964SOL    HW238355   4.578   0.853   6.206  2.2357 -0.2304 -0.8151
 8965SOL     OW38356   0.912   1.276   0.923  0.3290 -0.1739 -0.1161
 8965SOL    HW138357   0.958   1.215   0.865  2.7381  2.5031 -1.0274
 8965SOL    HW238358   0.884   1.227   1.000 -0.6132 -1.0093 -0.9880
 8966SOL     OW38359   0.597   4.499   7.026 -0.0221 -0.4149  0.4030
 8966SOL    HW138360   0.515   4.495   7.075  1.3744 -0.4540  2.7395
 8966SOL    HW238361   0.557   4.512   6.940 -1.2809 -1.1927  0.8748
 8967SOL     OW38362   2.390   0.434   2.806  0.2130 -0.0880 -0.3582
 8967SOL    HW138363   2.441   0.353   2.810  0.4384  0.0675 -0.0398
 8967SOL    HW238364   2.345   0.421   2.723  0.9295 -1.4562 -0.5161
 8968SOL     OW38365   1.101   0.277   0.967  0.1979 -0.5256  0.2482
 8968SOL    HW138366   1.143   0.284   1.053 -0.4433  1.8283  0.3575
 8968SOL    HW238367   1.056   0.359   0.949  1.8087 -0.1219 -1.8465
 8969SOL     OW38368   2.284   0.792  14.675  0.2701  0.5606  0.3064
 8969SOL    HW138369   2.334   0.852  14.619  0.4084  0.6031  0.4711
 8969SOL    HW238370   2.277   0.852  14.750  0.1750  0.1049  0.6590
 8970SOL     OW38371   0.742   1.552   8.563  0.3846  0.7045  0.0594
 8970SOL    HW138372   0.784   1.559   8.478  2.4697 -1.1422  0.9459
 8970SOL    HW238373   0.700   1.469   8.538 -0.0268  0.6344  0.9835
 8971SOL     OW38374   0.368   4.371  12.683  0.3856 -0.3921 -0.6613
 8971SOL    HW138375   0.424   4.375  12.760 -0.2008  0.2334 -0.2659
 8971SOL    HW238376   0.423   4.320  12.623  4.3379  1.4296  1.4481
 8972SOL     OW38377   3.276   3.749   0.973  0.2809  0.5003  0.0682
 8972SOL    HW138378   3.309   3.676   0.919 -1.7111 -0.1412 -0.2895
 8972SOL    HW238379   3.197   3.771   0.925  0.6327  2.1525  0.2442
 8973SOL     OW38380   3.023   4.130   9.137  0.4275 -0.3953  0.2503
 8973SOL    HW138381   2.991   4.219   9.149  0.5327  0.1807 -3.8169
 8973SOL    HW238382   2.961   4.076   9.186 -1.7789  2.1150  0.2029
 8974SOL     OW38383   1.405   2.574  10.025 -0.1484  0.4705  0.2115
 8974SOL    HW138384   1.474   2.638  10.005  0.5176 -0.4251 -0.3220
 8974SOL    HW238385   1.432   2.551  10.114  3.6603  0.1571 -1.0261
 8975SOL     OW38386   2.213   2.146   0.872  0.4476  0.4228 -0.6545
 8975SOL    HW138387   2.276   2.081   0.900 -0.0916  0.3761  0.4727
 8975SOL    HW238388   2.256   2.226   0.904  0.4025  1.2479 -2.6572
 8976SOL     OW38389   0.596   1.091   6.274  0.0085  0.4276  0.5575
 8976SOL    HW138390   0.621   1.180   6.299  0.5811  0.2836  0.5033
 8976SOL    HW238391   0.570   1.105   6.183  0.6064  0.9640  0.4694
 8977SOL     OW38392   2.994   0.039   4.861  0.5224 -0.0530  0.8440
 8977SOL    HW138393   2.967   0.089   4.785  0.1192 -1.6156 -0.0256
 8977SOL    HW238394   3.036   4.683   4.821  1.0234 -0.0375  1.3335
 8978SOL     OW38395   2.121   1.099   8.954 -0.0530  0.5746  0.8594
 8978SOL    HW138396   2.090   1.147   8.877 -1.1333  1.4846  1.8704
 8978SOL    HW238397   2.056   1.029   8.963  0.3194 -0.0431 -1.2411
 8979SOL     OW38398   0.375   0.569   3.125 -0.2536  0.0082 -0.1847
 8979SOL    HW138399   0.328   0.510   3.185  0.3445 -2.2360 -1.9160
 8979SOL    HW238400   0.316   0.570   3.050  1.9529 -2.9416 -1.9423
 8980SOL     OW38401   1.466   3.628  10.666 -0.4935 -0.3703  0.2924
 8980SOL    HW138402   1.493   3.629  10.574 -1.0208  1.4532  0.1452
 8980SOL    HW238403   1.418   3.547  10.680 -0.6711 -0.2203  0.5526
 8981SOL     OW38404   4.004   4.570  14.880  0.0270 -0.0756  0.3273
 8981SOL    HW138405   3.946   4.504  14.842  0.7804 -0.8566  0.5393
 8981SOL    HW238406   4.076   4.563  14.817  0.2848  0.8581  0.5163
 8982SOL     OW38407   2.113   2.936   1.775 -0.2800  0.1999  0.4426
 8982SOL    HW138408   2.132   2.889   1.693 -0.8719 -1.5005  1.2718
 8982SOL    HW238409   2.019   2.922   1.784 -0.3624 -0.1735 -1.0347
 8983SOL     OW38410   0.354   1.233   1.722 -0.0760 -0.0179 -0.0167
 8983SOL    HW138411   0.339   1.312   1.775  1.1020 -0.5726  1.1324
 8983SOL    HW238412   0.419   1.188   1.776 -0.1016  0.8426  0.7351
 8984SOL     OW38413   2.220   3.780   6.429 -0.1493  0.0574 -0.0462
 8984SOL    HW138414   2.198   3.689   6.411  0.2051  0.2206 -1.3027
 8984SOL    HW238415   2.151   3.808   6.490  1.0003  2.0235  0.3664
 8985SOL     OW38416   1.955   1.159   2.642 -0.4141 -0.6741  0.5346
 8985SOL    HW138417   2.044   1.137   2.669 -0.2180  0.4813  0.8463
 8985SOL    HW238418   1.921   1.166   2.731  2.0633  1.0097  1.3738
 8986SOL     OW38419   3.764   2.275  12.844  0.3020  0.6123  0.4144
 8986SOL    HW138420   3.731   2.185  12.853  0.9567  0.3165 -0.1028
 8986SOL    HW238421   3.755   2.270  12.748 -2.3025 -0.2972  0.6949
 8987SOL     OW38422   3.582   3.551   4.819  0.5681 -0.1479  0.5479
 8987SOL    HW138423   3.592   3.476   4.760 -2.6385 -0.1895  0.0539
 8987SOL    HW238424   3.501   3.550   4.870  0.2596 -1.2489  0.0395
 8988SOL     OW38425   2.882   0.284   3.213 -0.8055  0.7338  0.4062
 8988SOL    HW138426   2.921   0.235   3.140  2.2419  2.1377  1.1086
 8988SOL    HW238427   2.857   0.204   3.259 -0.6060 -0.6580 -1.8775
 8989SOL     OW38428   2.407   1.808  13.168  0.1192  0.3480 -0.1369
 8989SOL    HW138429   2.457   1.726  13.162  0.6705  0.7117 -0.4683
 8989SOL    HW238430   2.356   1.821  13.088  0.6778 -0.1553 -0.5809
 8990SOL     OW38431   0.354   1.760  12.530  0.4137  0.5121  0.3801
 8990SOL    HW138432   0.342   1.715  12.446 -1.5697  0.4854  0.6921
 8990SOL    HW238433   0.265   1.770  12.563  0.1289 -0.8890  0.0532
 8991SOL     OW38434   3.835   3.131   3.091  0.4563 -0.0221 -0.7353
 8991SOL    HW138435   3.891   3.072   3.041 -0.7411  0.3418 -2.4937
 8991SOL    HW238436   3.753   3.082   3.079  0.5031  0.4490 -3.0347
 8992SOL     OW38437   4.195   2.597   4.283  0.0650 -0.4631 -0.5645
 8992SOL    HW138438   4.104   2.587   4.255 -0.4213 -1.1930  1.2386
 8992SOL    HW238439   4.215   2.676   4.234 -2.2212  0.1801 -0.4980
 8993SOL     OW38440   2.021   3.998   1.137 -0.0292  0.6719  0.2395
 8993SOL    HW138441   1.934   3.970   1.107  1.0142 -2.2453 -0.0606
 8993SOL    HW238442   2.018   4.094   1.128 -1.3296  0.7673  1.7232
 8994SOL     OW38443   3.465   4.248  16.674  0.0867 -0.5962  0.1293
 8994SOL    HW138444   3.503   4.221  16.757 -0.9768  3.3579  1.8807
 8994SOL    HW238445   3.543   4.253  16.619  0.7822  0.2490  1.1931
 8995SOL     OW38446   2.606   3.963   1.174  0.6136  0.5353  0.1672
 8995SOL    HW138447   2.696   3.971   1.207  1.0625 -2.7901 -0.3377
 8995SOL    HW238448   2.596   3.869   1.162 -0.0781  0.6838 -0.3573
 8996SOL     OW38449   2.502   0.357   7.557  0.1872 -0.5157 -0.3296
 8996SOL    HW138450   2.444   0.330   7.486 -2.0266  0.7480  1.0145
 8996SOL    HW238451   2.558   0.282   7.578  0.4378 -0.7550 -1.8437
 8997SOL     OW38452   0.562   0.046   7.929  0.1885  0.6838 -0.1480
 8997SOL    HW138453   0.538   0.090   8.010 -0.2534  0.2489 -0.0418
 8997SOL    HW238454   0.616   4.694   7.962 -1.1514 -0.7200 -0.9814
 8998SOL     OW38455   0.774   0.142  13.245  1.0075  0.0085 -0.0638
 8998SOL    HW138456   0.764   0.175  13.334  1.1397  1.8875 -0.7429
 8998SOL    HW238457   0.699   0.084  13.255 -0.1944  1.1189 -2.5461
 8999SOL     OW38458   3.082   2.205   4.237  0.4809 -0.2308  0.4348
 8999SOL    HW138459   3.145   2.277   4.249 -1.0848  0.9454  1.6139
 8999SOL    HW238460   3.130   2.126   4.261 -0.8627 -1.2681 -0.3162
 9000SOL     OW38461   2.988   2.803  12.102  0.1796  0.0145 -0.5195
 9000SOL    HW138462   2.915   2.838  12.052  0.0540  0.9609  0.3279
 9000SOL    HW238463   3.013   2.879  12.155 -0.0311  1.1779 -2.1072
 9001SOL     OW38464   3.894   3.106   3.794 -0.2637 -0.0123 -0.2451
 9001SOL    HW138465   3.907   3.012   3.782  0.1180 -0.0381  0.3783
 9001SOL    HW238466   3.929   3.129   3.708  1.3043 -0.5366  0.2542
 9002SOL     OW38467   2.196   2.840   0.578 -0.0516 -0.1899 -0.0901
 9002SOL    HW138468   2.132   2.811   0.643 -0.8764  0.3727 -0.6522
 9002SOL    HW238469   2.185   2.779   0.506 -1.3685  1.0420 -0.9325
 9003SOL     OW38470   1.405   0.908   5.617 -0.1962  0.4722  0.2609
 9003SOL    HW138471   1.323   0.903   5.665  0.6760 -2.6354  1.4432
 9003SOL    HW238472   1.455   0.959   5.680  0.6870  1.9615 -1.6168
 9004SOL     OW38473   1.060   4.363   2.584  0.0132 -0.3434 -0.2501
 9004SOL    HW138474   1.084   4.363   2.676 -2.7102  1.2098  0.4708
 9004SOL    HW238475   1.109   4.439   2.554 -3.1888  2.0901  0.6455
 9005SOL     OW38476   1.738   2.031  15.037 -0.1662 -0.2941 -0.3935
 9005SOL    HW138477   1.649   2.062  15.051  0.2551 -0.9452  3.4938
 9005SOL    HW238478   1.738   1.939  15.061 -1.2842 -0.7833 -2.2065
 9006SOL     OW38479   0.410   4.332   4.076 -0.3536  0.1036 -0.0946
 9006SOL    HW138480   0.368   4.410   4.111  0.1504  0.1126  0.4905
 9006SOL    HW238481   0.502   4.360   4.075  0.1137 -1.4008 -0.7017
 9007SOL     OW38482   1.498   3.231  16.541 -0.3346 -0.1623  0.6165
 9007SOL    HW138483   1.480   3.322  16.519 -0.8844 -0.7672 -1.5340
 9007SOL    HW238484   1.408   3.200  16.546  0.1935 -1.3910  2.3718
 9008SOL     OW38485   3.348   1.049   3.438 -0.8080 -0.2457  0.0274
 9008SOL    HW138486   3.428   1.009   3.403 -0.2060  1.7777 -0.9798
 9008SOL    HW238487   3.340   1.031   3.531 -1.0891  0.2188  0.0935
 9009SOL     OW38488   3.042   1.341   1.487  0.2841  0.3113  0.0028
 9009SOL    HW138489   2.956   1.316   1.521  0.8807 -3.3703 -1.2772
 9009SOL    HW238490   3.093   1.262   1.499  1.0201  0.7911  0.0613
 9010SOL     OW38491   3.245   1.945  16.133 -0.1876  0.4601 -0.1649
 9010SOL    HW138492   3.211   1.874  16.187  3.2150 -0.4923  0.7086
 9010SOL    HW238493   3.338   1.955  16.152  0.1962 -0.5817 -1.4941
 9011SOL     OW38494   1.213   0.398  12.375 -0.1742  0.3473  0.2782
 9011SOL    HW138495   1.164   0.471  12.414  0.6564  1.9685 -1.7214
 9011SOL    HW238496   1.255   0.371  12.456  0.0120 -0.6559 -0.1474
 9012SOL     OW38497   3.863   0.662   4.376 -0.0741 -0.2753  0.6819
 9012SOL    HW138498   3.893   0.572   4.373  0.4922 -0.0599 -0.2769
 9012SOL    HW238499   3.909   0.708   4.305  0.3045  1.3010  1.9406
 9013SOL     OW38500   0.949   1.059   3.741  0.1796 -0.3374 -0.7425
 9013SOL    HW138501   0.877   1.069   3.679 -0.6939  0.6111  0.4182
 9013SOL    HW238502   0.952   0.963   3.734  0.1092 -0.4516  0.6943
 9014SOL     OW38503   2.253   4.125  15.823 -0.0687  0.1853 -0.5787
 9014SOL    HW138504   2.170   4.150  15.783 -0.8478 -2.8251 -0.8763
 9014SOL    HW238505   2.276   4.204  15.871 -0.0649 -0.7416  0.9349
 9015SOL     OW38506   3.636   0.841   8.237  0.1712 -0.5811  0.3277
 9015SOL    HW138507   3.726   0.865   8.260  0.5027 -0.6765 -0.8463
 9015SOL    HW238508   3.636   0.757   8.283  0.7815  0.0134  1.4031
 9016SOL     OW38509   2.773   4.263  12.971  0.2721  0.2917 -0.0423
 9016SOL    HW138510   2.837   4.306  13.027 -1.8290  2.0431  1.0001
 9016SOL    HW238511   2.812   4.177  12.952 -1.7417 -0.6318  0.0515
 9017SOL     OW38512   0.737   4.063   6.707  0.2027  0.2545  0.7483
 9017SOL    HW138513   0.673   4.078   6.776  0.1698 -0.0606  0.7882
 9017SOL    HW238514   0.740   4.146   6.660 -0.2122  0.6877  1.4820
 9018SOL     OW38515   4.715   0.982   2.855  0.0220 -0.5407 -0.3568
 9018SOL    HW138516   4.702   0.903   2.803 -1.9463 -0.8741  0.6425
 9018SOL    HW238517   0.087   0.970   2.880  0.0334 -0.4068 -0.3355
 9019SOL     OW38518   0.265   0.380  13.066 -0.1520  0.4322  0.0573
 9019SOL    HW138519   0.265   0.472  13.091 -0.5175  0.7355 -1.0776
 9019SOL    HW238520   0.333   0.386  12.999 -0.3775 -1.0525 -0.2977
 9020SOL     OW38521   1.476   3.064  10.548  0.1098  0.2362 -0.3485
 9020SOL    HW138522   1.493   3.112  10.467 -0.7429 -0.2682 -0.8241
 9020SOL    HW238523   1.458   2.980  10.506 -1.7065  0.4752 -0.0156
 9021SOL     OW38524   3.478   2.911   0.278 -0.0888  1.5653  0.4483
 9021SOL    HW138525   3.418   2.973   0.236 -0.5107  0.4715 -0.5723
 9021SOL    HW238526   3.423   2.871   0.344 -0.4964  0.3840 -0.6064
 9022SOL     OW38527   0.874   4.462  11.662  0.0296 -0.5352 -0.1789
 9022SOL    HW138528   0.819   4.532  11.627  0.1518  0.6786  2.0648
 9022SOL    HW238529   0.920   4.515  11.726  0.7325 -0.3268 -0.8703
 9023SOL     OW38530   0.362   0.428   5.982  0.6197 -0.1872 -0.3507
 9023SOL    HW138531   0.390   0.444   5.892  1.8176  2.3519  0.4597
 9023SOL    HW238532   0.280   0.477   5.993  0.6766  0.0914 -1.1414
 9024SOL     OW38533   3.856   0.510   3.088  0.4284 -0.0700  0.5760
 9024SOL    HW138534   3.880   0.600   3.109 -0.1843 -0.1745  1.7060
 9024SOL    HW238535   3.922   0.482   3.025 -0.1919  0.1195 -0.1485
 9025SOL     OW38536   0.654   0.496   2.302  0.4589  0.1826  0.4859
 9025SOL    HW138537   0.657   0.592   2.307 -2.1179  0.1778  1.7535
 9025SOL    HW238538   0.665   0.469   2.393  1.2044  0.6039  0.5238
 9026SOL     OW38539   4.076   1.666   3.697  0.5307  0.5492  0.5119
 9026SOL    HW138540   4.142   1.732   3.674 -0.6007  0.9370 -1.6292
 9026SOL    HW238541   4.074   1.667   3.792  1.2533  0.2078  0.5292
 9027SOL     OW38542   0.563   4.015   2.925 -0.8747  0.0119 -0.7305
 9027SOL    HW138543   0.557   4.110   2.935  2.6122  0.2793 -1.2077
 9027SOL    HW238544   0.620   3.989   2.998 -0.0239 -2.0054 -2.1004
 9028SOL     OW38545   1.832   1.818  14.777  0.2618 -0.2377  0.0951
 9028SOL    HW138546   1.879   1.872  14.714  0.9172  0.2496  0.9968
 9028SOL    HW238547   1.894   1.817  14.850  1.5306  0.1869 -0.9845
 9029SOL     OW38548   1.725   4.384   7.079  0.4523 -0.6898  0.2254
 9029SOL    HW138549   1.713   4.414   6.989 -0.5013  3.8004  1.8472
 9029SOL    HW238550   1.631   4.373   7.092  0.2261  1.2946  0.2656
 9030SOL     OW38551   1.594   1.917   2.008  0.0048  0.0966  0.2692
 9030SOL    HW138552   1.527   1.964   2.057  0.7490  1.3392  0.0818
 9030SOL    HW238553   1.588   1.828   2.044 -2.2786 -0.9467 -2.6239
 9031SOL     OW38554   3.262   0.227   6.055  0.3612  0.0975  0.1230
 9031SOL    HW138555   3.256   0.209   6.149 -0.7959  0.8534  0.1979
 9031SOL    HW238556   3.175   0.219   6.016  2.8037 -1.0765 -5.0938
 9032SOL     OW38557   1.337   2.202   8.989 -0.2480 -0.0143 -0.0568
 9032SOL    HW138558   1.393   2.130   9.017 -0.4611 -0.6432 -1.2577
 9032SOL    HW238559   1.354   2.255   9.067  1.2111  0.1422 -0.4870
 9033SOL     OW38560   2.858   0.119   1.498  0.3425  0.1818  0.4549
 9033SOL    HW138561   2.847   0.201   1.450 -1.1995 -0.2293  0.1017
 9033SOL    HW238562   2.856   0.051   1.430 -0.2717  0.0224  0.6277
 9034SOL     OW38563   4.257   3.693   3.961  0.3728 -0.7411  0.2851
 9034SOL    HW138564   4.335   3.708   4.014 -0.2230 -0.7506  1.1559
 9034SOL    HW238565   4.291   3.740   3.885 -0.6291  0.5473  0.6338
 9035SOL     OW38566   3.469   3.038  17.575  0.0915 -0.2897  0.4486
 9035SOL    HW138567   3.442   3.114  17.627  2.1013  0.3909  0.4762
 9035SOL    HW238568   3.554   3.065  17.542 -0.6988  0.8528 -0.6492
 9036SOL     OW38569   3.145   0.216   3.485 -0.0186  0.1934 -0.2514
 9036SOL    HW138570   3.079   0.172   3.433  0.6151 -0.0273 -0.8661
 9036SOL    HW238571   3.192   0.258   3.413  0.9134 -1.0168 -0.3428
 9037SOL     OW38572   1.273   4.579   2.572 -0.8113  0.3094  0.0403
 9037SOL    HW138573   1.276   4.604   2.665 -1.9796  0.5212  0.0149
 9037SOL    HW238574   1.348   4.633   2.548 -0.9255  0.1319 -0.7073
 9038SOL     OW38575   2.030   3.502   8.281  0.5133  0.4089  0.0025
 9038SOL    HW138576   1.982   3.545   8.352 -2.4608 -1.7124 -0.7280
 9038SOL    HW238577   2.044   3.415   8.318  2.0026 -0.0833 -1.7009
 9039SOL     OW38578   4.073   3.479  16.184 -0.0628 -0.1961  0.1178
 9039SOL    HW138579   4.016   3.405  16.207  0.3477 -0.2051  1.1339
 9039SOL    HW238580   4.135   3.478  16.258 -1.0773 -2.3640  0.9367
 9040SOL     OW38581   3.726   0.194   5.885 -0.3666 -0.8045 -0.4126
 9040SOL    HW138582   3.654   0.200   5.948 -0.3126 -2.2297 -0.2093
 9040SOL    HW238583   3.786   0.258   5.923 -2.0768  0.6889 -0.1930
 9041SOL     OW38584   0.211   2.685  14.296 -0.1500 -0.1355 -0.2730
 9041SOL    HW138585   0.152   2.707  14.224 -1.6041 -0.2008  0.9198
 9041SOL    HW238586   0.277   2.631  14.252 -0.6038  0.1511 -1.3049
 9042SOL     OW38587   1.751   3.518  11.289  0.4548  0.3915  0.0556
 9042SOL    HW138588   1.815   3.520  11.218  3.5166  0.3613  2.8844
 9042SOL    HW238589   1.721   3.609  11.282  2.9290  1.0426 -2.0611
 9043SOL     OW38590   3.061   4.135  17.151 -0.5690  0.0295 -0.5194
 9043SOL    HW138591   2.990   4.074  17.131 -0.0649 -1.0207  0.9257
 9043SOL    HW238592   3.135   4.102  17.101  0.4907  1.5154  0.0577
 9044SOL     OW38593   1.144   2.733  17.051  0.1569 -0.4024 -0.5132
 9044SOL    HW138594   1.149   2.692  16.965 -0.3064 -1.1081 -0.2049
 9044SOL    HW238595   1.235   2.761  17.055 -0.8390  2.9266 -0.6198
 9045SOL     OW38596   2.942   0.195  13.083 -0.1918 -0.4609 -0.5371
 9045SOL    HW138597   3.006   0.261  13.110 -2.3135  0.8472  1.2438
 9045SOL    HW238598   2.863   0.238  13.115 -0.0579  0.0601 -0.9092
 9046SOL     OW38599   2.925   2.840   4.468 -0.9608 -0.1360 -0.1598
 9046SOL    HW138600   2.945   2.792   4.388 -0.8261 -0.8916  0.3207
 9046SOL    HW238601   2.890   2.921   4.433 -1.6035  0.3290  1.5289
 9047SOL     OW38602   3.911   2.734  11.240  0.3004  0.3613  0.4913
 9047SOL    HW138603   3.823   2.708  11.267  0.0787  3.0691  2.3514
 9047SOL    HW238604   3.896   2.828  11.248  0.7986  0.4686  0.1253
 9048SOL     OW38605   4.263   3.572   1.087  0.4274 -0.4741  0.1403
 9048SOL    HW138606   4.226   3.490   1.054 -1.6782  0.2672  0.6270
 9048SOL    HW238607   4.210   3.643   1.050 -2.8560 -2.2119  1.4322
 9049SOL     OW38608   0.462   2.562  14.434 -0.2907  0.1012 -0.1628
 9049SOL    HW138609   0.509   2.645  14.434  0.5708 -0.3824  1.1912
 9049SOL    HW238610   0.463   2.542  14.341 -1.6177  0.2737 -0.2200
 9050SOL     OW38611   1.874   1.329   1.891  0.5627 -0.1650 -0.0872
 9050SOL    HW138612   1.948   1.379   1.855  0.0398  0.1558 -0.7137
 9050SOL    HW238613   1.916   1.311   1.975 -1.0859  0.0687  0.7933
 9051SOL     OW38614   1.326   2.365   9.231 -0.2653 -0.2957  0.3668
 9051SOL    HW138615   1.263   2.421   9.186  0.0014  0.1556  0.5614
 9051SOL    HW238616   1.266   2.328   9.296  0.1134 -1.7556 -0.1005
 9052SOL     OW38617   0.676   1.315   8.460 -0.0979 -0.4288  0.8998
 9052SOL    HW138618   0.601   1.282   8.411 -1.2599 -2.6797  4.1406
 9052SOL    HW238619   0.729   1.236   8.471 -0.6674 -1.0563 -0.8803
 9053SOL     OW38620   0.619   1.316  13.997  0.4359 -0.2505 -0.6968
 9053SOL    HW138621   0.605   1.392  14.054  0.7300 -0.4503 -0.3597
 9053SOL    HW238622   0.542   1.325  13.940  0.2594 -0.4132 -0.4854
 9054SOL     OW38623   3.105   3.690  10.420 -0.8140  0.1618 -0.0694
 9054SOL    HW138624   3.155   3.751  10.366  0.3405  0.0880  0.8975
 9054SOL    HW238625   3.175   3.636  10.457  0.2795  0.8092 -1.1701
 9055SOL     OW38626   0.279   4.178   1.722  0.0867 -0.3541 -0.0033
 9055SOL    HW138627   0.327   4.095   1.728 -0.1982 -0.4236  1.2618
 9055SOL    HW238628   0.200   4.145   1.680  0.9700 -1.5454 -0.7506
 9056SOL     OW38629   4.485   4.023  17.414 -0.0112  0.4608 -0.3101
 9056SOL    HW138630   4.492   3.944  17.360  0.0910  0.4042 -0.2138
 9056SOL    HW238631   4.421   4.067  17.358 -0.4635  1.2468  0.8389
 9057SOL     OW38632   0.350   0.717   9.024 -0.0928 -0.5169 -0.2965
 9057SOL    HW138633   0.392   0.680   9.101 -0.9589  0.2607  0.5473
 9057SOL    HW238634   0.292   0.786   9.058  1.8787  0.4461  1.0809
 9058SOL     OW38635   0.657   1.373  10.998  0.2890 -0.1590 -0.0684
 9058SOL    HW138636   0.580   1.332  11.037  0.0699 -0.6672 -1.0252
 9058SOL    HW238637   0.676   1.315  10.924  2.0165 -0.2716  0.4468
 9059SOL     OW38638   4.219   4.299   9.594  0.3878  0.6896  0.1456
 9059SOL    HW138639   4.308   4.299   9.559  0.6645 -1.4185  0.8113
 9059SOL    HW238640   4.190   4.386   9.568  0.4381  0.1696 -1.6362
 9060SOL     OW38641   0.605   3.005  15.481 -0.7317  0.7041  0.5069
 9060SOL    HW138642   0.548   2.937  15.516 -0.9214  1.0105  0.7976
 9060SOL    HW238643   0.567   3.082  15.524  0.8662  0.7133  1.8989
 9061SOL     OW38644   3.880   1.900   0.168  0.0347 -0.1801 -0.0021
 9061SOL    HW138645   3.797   1.854   0.176 -0.4930  0.5855 -1.1965
 9061SOL    HW238646   3.868   1.945   0.085  0.0453  0.4555  0.3401
 9062SOL     OW38647   3.400   3.472   7.789 -0.4468 -0.1202  0.2463
 9062SOL    HW138648   3.475   3.414   7.802  0.1624  0.7883  0.8005
 9062SOL    HW238649   3.439   3.512   7.712  0.8267 -0.4835  0.6982
 9063SOL     OW38650   0.666   2.489   8.717  0.2077  0.1022  0.2934
 9063SOL    HW138651   0.685   2.552   8.786  2.5243 -1.7675  1.3407
 9063SOL    HW238652   0.753   2.451   8.716  0.9021  1.6916 -0.0875
 9064SOL     OW38653   2.135   2.092   9.769 -0.4657  0.1705  0.7364
 9064SOL    HW138654   2.178   2.041   9.699 -3.3172 -1.8958  0.4941
 9064SOL    HW238655   2.155   2.031   9.840  1.7317  0.8901  0.7347
 9065SOL     OW38656   3.135   0.106  13.299  0.5075  0.2072 -0.8494
 9065SOL    HW138657   3.062   0.092  13.239 -0.0728 -1.9763  0.3603
 9065SOL    HW238658   3.169   0.018  13.314 -0.1900  0.1458  0.3545
 9066SOL     OW38659   4.124   3.467   2.618 -0.0216  0.0077 -0.2504
 9066SOL    HW138660   4.147   3.385   2.662  1.2452  0.6306  0.2556
 9066SOL    HW238661   4.049   3.426   2.575 -0.5986  0.3912  0.3799
 9067SOL     OW38662   2.965   0.328   5.628  0.0823  0.1099 -0.7563
 9067SOL    HW138663   3.011   0.408   5.655  1.9934 -0.8682 -1.1482
 9067SOL    HW238664   2.911   0.366   5.559  0.6752 -2.5271 -2.6196
 9068SOL     OW38665   2.877   0.424   0.560 -0.0925  0.1597 -0.6387
 9068SOL    HW138666   2.920   0.509   0.553  0.6117 -0.1061  0.5166
 9068SOL    HW238667   2.829   0.451   0.639 -0.8180 -2.0860 -0.3131
 9069SOL     OW38668   4.619   0.426  16.016 -0.2024  0.2893  0.4623
 9069SOL    HW138669   4.594   0.335  16.026 -0.0199  0.1801 -0.0645
 9069SOL    HW238670   4.533   0.463  15.997  0.3459  1.4705  0.2261
 9070SOL     OW38671   3.559   2.696   8.899 -0.3896  0.3904 -0.4808
 9070SOL    HW138672   3.567   2.652   8.984 -1.1580  0.9472 -0.1126
 9070SOL    HW238673   3.640   2.660   8.864 -0.8282  0.6294 -1.7151
 9071SOL     OW38674   1.842   1.791  15.448  0.3731  0.1557  0.2786
 9071SOL    HW138675   1.829   1.883  15.428 -2.8556 -0.2593  0.4904
 9071SOL    HW238676   1.748   1.771  15.446  0.3358  0.4474 -0.9883
 9072SOL     OW38677   0.258   1.916   8.460 -0.3906 -0.1933  0.1037
 9072SOL    HW138678   0.231   1.847   8.399 -1.3968  0.0808  0.2430
 9072SOL    HW238679   0.344   1.882   8.485  0.4098 -0.1899 -2.6973
 9073SOL     OW38680   1.354   1.126   4.842  0.0772 -0.6684  0.0506
 9073SOL    HW138681   1.369   1.059   4.909 -0.4083 -2.7828 -1.9509
 9073SOL    HW238682   1.317   1.193   4.899 -1.8925 -0.4782 -1.4537
 9074SOL     OW38683   1.428   2.701  11.251  0.6401  0.0851 -0.6176
 9074SOL    HW138684   1.513   2.714  11.208  1.1193  0.8997  0.5594
 9074SOL    HW238685   1.364   2.742  11.193  1.0187  3.7061  1.5423
 9075SOL     OW38686   2.408   2.489   6.332  0.2016  0.0378 -0.0896
 9075SOL    HW138687   2.357   2.476   6.252 -0.2390 -0.7304  0.3137
 9075SOL    HW238688   2.410   2.584   6.329 -1.1049  0.0541 -0.6243
 9076SOL     OW38689   4.658   0.120   4.958 -0.4716  0.3792 -0.2011
 9076SOL    HW138690   4.669   0.210   4.928  0.0982  0.6895  0.9062
 9076SOL    HW238691   4.668   0.124   5.054  0.8654 -0.3614 -0.3071
 9077SOL     OW38692   2.116   0.927   2.287  0.0693 -0.2177 -0.4071
 9077SOL    HW138693   2.064   0.853   2.319 -0.1008  0.1559  0.1899
 9077SOL    HW238694   2.189   0.913   2.347  0.1790 -0.5501 -0.6243
 9078SOL     OW38695   1.106   0.650   0.230  0.1930 -0.2365  0.2601
 9078SOL    HW138696   1.108   0.584   0.160 -0.9416 -0.4215  0.4066
 9078SOL    HW238697   1.195   0.683   0.219  0.3149 -0.9267 -0.8340
 9079SOL     OW38698   0.118   0.238  10.106 -0.4573 -0.2478 -0.1633
 9079SOL    HW138699   0.172   0.192  10.043 -0.1118 -0.2260  0.1187
 9079SOL    HW238700   0.060   0.168  10.137  0.9261 -0.8940  0.9567
 9080SOL     OW38701   0.873   4.064   7.079  0.2998 -0.5085  0.4852
 9080SOL    HW138702   0.924   4.002   7.026 -2.0271 -1.2919 -0.7950
 9080SOL    HW238703   0.822   4.109   7.012 -1.0789 -0.0802  1.8282
 9081SOL     OW38704   4.716   0.622   7.201  0.2503 -0.3022 -0.2038
 9081SOL    HW138705   4.679   0.708   7.222  1.1157  0.2454 -0.8919
 9081SOL    HW238706   0.073   0.621   7.258  0.2537 -3.9028 -0.2902
 9082SOL     OW38707   0.706   1.334  13.259 -0.0401 -0.4386 -0.2307
 9082SOL    HW138708   0.795   1.343  13.293  0.3234 -1.2842 -0.9516
 9082SOL    HW238709   0.725   1.289  13.176 -1.9131  1.4215 -1.6757
 9083SOL     OW38710   3.979   0.814   6.480  0.2194  0.3865 -0.4278
 9083SOL    HW138711   4.033   0.740   6.451  1.8893  1.8693 -1.1200
 9083SOL    HW238712   3.995   0.815   6.574  0.5124 -1.8728 -0.4632
 9084SOL     OW38713   4.531   1.276   0.975 -0.4515  0.3564 -0.0243
 9084SOL    HW138714   4.605   1.298   1.031 -0.1239 -2.8442  0.8417
 9084SOL    HW238715   4.574   1.220   0.910  0.1061  0.7758 -0.0183
 9085SOL     OW38716   0.115   2.360   7.582  0.2016 -0.1455  0.0675
 9085SOL    HW138717   0.193   2.359   7.527  0.5929  1.1491  0.5932
 9085SOL    HW238718   0.117   2.273   7.622 -0.3362  0.6358  1.8124
 9086SOL     OW38719   0.523   1.518   6.265 -0.5091 -0.8024  0.0440
 9086SOL    HW138720   0.464   1.583   6.302 -0.4094  0.6317 -2.2797
 9086SOL    HW238721   0.546   1.558   6.181  1.6835  0.1140  1.0925
 9087SOL     OW38722   2.813   3.066  14.794  0.8324  0.0577  0.2959
 9087SOL    HW138723   2.805   3.060  14.889 -1.9865  0.0192  0.0632
 9087SOL    HW238724   2.726   3.102  14.778  0.6560  0.5069  2.3205
 9088SOL     OW38725   3.365   3.294   7.513  0.3735  1.1740  0.3083
 9088SOL    HW138726   3.350   3.315   7.605 -1.4503 -0.5558  0.4180
 9088SOL    HW238727   3.394   3.203   7.518 -0.2028  1.0302  0.9392
 9089SOL     OW38728   0.155   4.279   7.600 -0.1525  0.3063 -0.2415
 9089SOL    HW138729   0.133   4.193   7.635  3.1254  0.1320  1.4308
 9089SOL    HW238730   0.196   4.311   7.680  1.2677 -0.8412 -0.5070
 9090SOL     OW38731   0.670   2.244   7.704  0.1505  0.0272 -0.2432
 9090SOL    HW138732   0.689   2.169   7.647 -0.7899 -0.9779  0.7856
 9090SOL    HW238733   0.652   2.197   7.785 -3.2785 -0.5250 -1.3363
 9091SOL     OW38734   3.312   1.890   0.881 -0.4201 -0.7649 -0.3418
 9091SOL    HW138735   3.238   1.834   0.857  0.4981 -1.9981 -0.2939
 9091SOL    HW238736   3.358   1.905   0.798  1.3032 -0.9868  0.5669
 9092SOL     OW38737   2.322   1.452   6.427 -0.4174  0.3976  0.3195
 9092SOL    HW138738   2.390   1.458   6.359 -2.5945  1.4458 -1.7586
 9092SOL    HW238739   2.282   1.536   6.406 -1.3668  0.0891  0.9441
 9093SOL     OW38740   1.989   2.883   4.167  0.5442  0.0480 -0.4316
 9093SOL    HW138741   2.054   2.894   4.237  0.4153 -0.5037 -0.2190
 9093SOL    HW238742   1.907   2.854   4.209  0.4631 -0.9371 -1.2580
 9094SOL     OW38743   2.830   0.646   4.703  0.7273 -0.3050  0.0792
 9094SOL    HW138744   2.917   0.614   4.679  0.8911 -0.6371  1.1249
 9094SOL    HW238745   2.854   0.718   4.761 -0.7959  0.3647 -0.1134
 9095SOL     OW38746   0.210   1.649   4.928 -0.7328  0.0561  0.1802
 9095SOL    HW138747   0.276   1.717   4.942 -1.3979  0.5085  1.0953
 9095SOL    HW238748   0.144   1.666   4.996 -0.3049  1.4631  0.2302
 9096SOL     OW38749   4.017   1.665   6.188  0.1609  0.0640 -0.1891
 9096SOL    HW138750   3.939   1.721   6.187 -0.6109 -1.0075  0.2936
 9096SOL    HW238751   3.998   1.616   6.108  1.0129 -2.4288  1.1412
 9097SOL     OW38752   2.949   3.360   5.279 -0.0014  0.6717  0.7089
 9097SOL    HW138753   2.866   3.365   5.328 -0.4382  1.8775 -0.1566
 9097SOL    HW238754   2.918   3.359   5.189 -0.3300  0.4939  0.8210
 9098SOL     OW38755   3.690   2.205   7.849  0.1617  0.2160  0.3022
 9098SOL    HW138756   3.594   2.205   7.853  0.1639  0.7235  0.3501
 9098SOL    HW238757   3.696   2.162   7.763 -1.2083  1.3689 -0.3635
 9099SOL     OW38758   3.085   2.986   8.880 -0.1922 -0.0753 -0.0528
 9099SOL    HW138759   3.031   2.908   8.892 -0.1835  0.1257  1.2822
 9099SOL    HW238760   3.101   2.982   8.786 -1.7476 -2.2641 -0.2125
 9100SOL     OW38761   1.947   4.253   3.607  0.6293  0.5186 -0.5698
 9100SOL    HW138762   2.022   4.298   3.568  1.3800 -1.2128 -1.1114
 9100SOL    HW238763   1.975   4.245   3.699 -0.4154 -0.3143 -0.3253
 9101SOL     OW38764   3.903   3.051   8.314  0.0996  0.3773 -0.1594
 9101SOL    HW138765   3.957   3.085   8.242 -1.5941 -1.7663 -2.4217
 9101SOL    HW238766   3.877   3.132   8.357 -2.7965 -1.5026  1.5968
 9102SOL     OW38767   1.459   3.980  17.636 -0.7458 -0.0900  0.3080
 9102SOL    HW138768   1.525   3.930   0.003 -1.0847 -0.9673 -0.1546
 9102SOL    HW238769   1.467   3.946  17.547 -0.3849 -2.2886  1.1876
 9103SOL     OW38770   0.258   4.160   7.361 -0.0312  0.3207 -0.0581
 9103SOL    HW138771   0.208   4.242   7.359 -1.3367 -0.4545  0.3940
 9103SOL    HW238772   0.258   4.141   7.454 -0.0058 -0.3013 -0.1862
 9104SOL     OW38773   2.061   1.837   4.412 -0.4483 -0.1806  0.6806
 9104SOL    HW138774   2.102   1.789   4.340  0.7195  2.8819 -0.6792
 9104SOL    HW238775   2.016   1.774   4.469  0.8155  2.3283  4.4693
 9105SOL     OW38776   2.955   0.342   0.095 -0.4283 -0.2706  0.0554
 9105SOL    HW138777   2.984   0.281   0.162  1.0583  0.7340  0.3284
 9105SOL    HW238778   2.989   0.426   0.128 -0.9714 -0.2273  0.5066
 9106SOL     OW38779   3.101   4.531   3.920  0.5719 -0.4967 -0.1104
 9106SOL    HW138780   3.012   4.495   3.928  0.9884 -1.2315  1.2866
 9106SOL    HW238781   3.108   4.532   3.825  0.7354 -1.4844 -0.1052
 9107SOL     OW38782   2.184   1.086   2.779  0.8349 -0.2752  0.0427
 9107SOL    HW138783   2.273   1.052   2.778  0.6688 -0.7632  1.4118
 9107SOL    HW238784   2.205   1.176   2.804  2.4245 -1.7536  4.0453
 9108SOL     OW38785   0.317   4.615   6.300 -0.3443 -0.4388 -0.1931
 9108SOL    HW138786   0.249   4.662   6.349 -0.6226  0.3199 -1.3107
 9108SOL    HW238787   0.302   4.650   6.212 -0.5319  0.5026  0.2127
 9109SOL     OW38788   0.209   1.367   2.389 -0.1233  0.4073 -0.2233
 9109SOL    HW138789   0.120   1.393   2.411 -1.0146 -1.9293 -1.0661
 9109SOL    HW238790   0.221   1.282   2.431 -1.2195 -0.4079 -1.5856
 9110SOL     OW38791   3.522   2.577   7.569  0.3715 -0.0415  0.2649
 9110SOL    HW138792   3.589   2.536   7.623 -0.0237  0.2534  0.9733
 9110SOL    HW238793   3.525   2.529   7.486  1.0567  1.6737 -0.6962
 9111SOL     OW38794   0.743   1.747   1.513 -0.1673  0.4005 -0.4582
 9111SOL    HW138795   0.822   1.752   1.459 -0.4031 -1.1388 -0.9479
 9111SOL    HW238796   0.779   1.709   1.593 -1.5873 -0.0062 -0.0264
 9112SOL     OW38797   0.095   4.296  10.153 -0.4305 -0.4368  0.1201
 9112SOL    HW138798   0.038   4.297  10.231  0.6660  0.3283  0.9212
 9112SOL    HW238799   0.138   4.212  10.164 -3.3190 -2.0159 -0.6339
 9113SOL     OW38800   2.727   1.675   3.114  0.0416  0.0107  0.4399
 9113SOL    HW138801   2.819   1.648   3.122 -0.6075 -2.6585 -1.3678
 9113SOL    HW238802   2.727   1.753   3.170 -2.2570 -0.6926  1.4205
 9114SOL     OW38803   2.138   1.835   9.396 -0.5042  0.5728 -0.3316
 9114SOL    HW138804   2.185   1.763   9.355  2.1185  4.7697 -4.5701
 9114SOL    HW238805   2.069   1.798   9.452 -0.1873  0.0537 -0.2900
 9115SOL     OW38806   1.315   2.957   3.019 -0.1695  0.0555 -0.1583
 9115SOL    HW138807   1.377   2.886   3.030  0.6227  1.0314  1.5373
 9115SOL    HW238808   1.239   2.900   3.003 -1.7854  1.8599  1.0143
 9116SOL     OW38809   0.306   2.349   2.213 -0.3998 -0.0316  1.1790
 9116SOL    HW138810   0.394   2.368   2.182 -0.6751 -2.0781 -0.9373
 9116SOL    HW238811   0.319   2.323   2.304  0.4153  1.6706  1.5302
 9117SOL     OW38812   0.232   3.189   7.317  0.0278 -0.1605 -0.6610
 9117SOL    HW138813   0.200   3.147   7.397  1.4252  1.1341  0.5682
 9117SOL    HW238814   0.213   3.283   7.325 -1.2379 -0.4347 -0.4025
 9118SOL     OW38815   2.609   1.745   8.934  0.8131  0.4943  0.0788
 9118SOL    HW138816   2.557   1.814   8.975  0.0750  0.1924 -0.3337
 9118SOL    HW238817   2.594   1.766   8.841 -1.8539  0.7273  0.5588
 9119SOL     OW38818   4.422   4.427   3.469  0.3226 -0.2276  0.1880
 9119SOL    HW138819   4.512   4.397   3.483  0.4959 -0.1215 -0.7360
 9119SOL    HW238820   4.413   4.492   3.540 -1.7918 -1.2374  0.8428
 9120SOL     OW38821   3.693   3.564   6.902  0.3098 -0.1550 -0.0137
 9120SOL    HW138822   3.692   3.644   6.848  0.3580  0.1516  0.4380
 9120SOL    HW238823   3.666   3.499   6.838  2.0371 -1.9552  1.0964
 9121SOL     OW38824   2.245   1.416   3.815 -0.2296  0.0398 -0.4797
 9121SOL    HW138825   2.262   1.406   3.721  0.7029 -0.3572 -0.2644
 9121SOL    HW238826   2.309   1.484   3.836  1.1978 -2.0468  1.9524
 9122SOL     OW38827   0.763   3.277   3.793 -0.1827 -0.2925  0.0545
 9122SOL    HW138828   0.837   3.236   3.839 -0.3643 -0.4172  0.2370
 9122SOL    HW238829   0.691   3.233   3.838  1.6234 -1.2429  2.0465
 9123SOL     OW38830   1.873   1.909   8.759  0.1196  0.4233 -0.5106
 9123SOL    HW138831   1.946   1.851   8.780 -0.1880  0.2952  0.2098
 9123SOL    HW238832   1.859   1.877   8.670 -2.2648 -0.0032  0.0058
 9124SOL     OW38833   2.429   1.237   3.049 -0.3193  0.0678  0.5039
 9124SOL    HW138834   2.353   1.282   3.013 -1.2490  0.4381  2.9685
 9124SOL    HW238835   2.487   1.313   3.053  1.3122 -1.2729  2.6060
 9125SOL     OW38836   2.517   4.187   5.919 -0.1812 -0.2673 -0.0130
 9125SOL    HW138837   2.448   4.200   5.854 -0.0932 -1.6707 -0.3781
 9125SOL    HW238838   2.584   4.216   5.857 -0.5929  1.8660  0.5180
 9126SOL     OW38839   2.104   2.725   7.792  0.0266  0.1233  0.1193
 9126SOL    HW138840   2.143   2.713   7.705 -1.7494  2.1975 -0.9603
 9126SOL    HW238841   2.058   2.806   7.773 -3.4940 -1.5301  1.6935
 9127SOL     OW38842   1.739   0.168   8.260 -0.1264  0.3263 -0.1708
 9127SOL    HW138843   1.752   0.154   8.166  0.0091  0.3342 -0.1537
 9127SOL    HW238844   1.809   0.111   8.293  2.1998  2.0151 -2.1787
 9128SOL     OW38845   1.570   0.986   3.422  0.2362 -0.2321  0.0517
 9128SOL    HW138846   1.508   1.058   3.438  1.1963  0.4494  0.7183
 9128SOL    HW238847   1.533   0.927   3.357  1.2037 -0.5611 -0.1926
 9129SOL     OW38848   0.948   0.665   2.375  0.2103 -0.0773 -0.4371
 9129SOL    HW138849   0.885   0.734   2.395  1.8536  1.3463 -0.2273
 9129SOL    HW238850   0.905   0.635   2.295 -2.5047 -0.5898  1.1872
 9130SOL     OW38851   3.360   3.110   4.057  0.5673  0.0467  0.0806
 9130SOL    HW138852   3.405   3.190   4.027  0.7373  0.2018  0.7380
 9130SOL    HW238853   3.280   3.121   4.006  0.6982 -0.7298 -0.2911
 9131SOL     OW38854   0.878   1.019   1.067 -0.0127  0.6989  0.3335
 9131SOL    HW138855   0.927   0.963   1.127 -2.4719 -1.9365 -0.1423
 9131SOL    HW238856   0.857   0.959   0.996 -0.8430 -1.1123  2.1383
 9132SOL     OW38857   4.173   2.143   7.143  0.2759 -0.2905  0.1807
 9132SOL    HW138858   4.150   2.172   7.055 -1.5598 -3.6576 -0.4572
 9132SOL    HW238859   4.095   2.186   7.178  0.0394  0.8745 -1.7397
 9133SOL     OW38860   0.457   0.385   1.098 -0.0611 -0.0957 -0.2251
 9133SOL    HW138861   0.469   0.433   1.180 -2.4163  0.5104 -0.2319
 9133SOL    HW238862   0.528   0.428   1.050 -0.2246  0.3770 -0.0471
 9134SOL     OW38863   3.658   1.746   6.479  0.3950  0.4580  0.0306
 9134SOL    HW138864   3.562   1.748   6.487  0.5642  0.2333  2.2089
 9134SOL    HW238865   3.682   1.670   6.532 -0.6257 -0.1685 -0.3878
 9135SOL     OW38866   0.194   0.479  15.413  0.6170  0.6696 -0.0599
 9135SOL    HW138867   0.108   0.439  15.431  0.9557  0.1613  0.4211
 9135SOL    HW238868   0.209   0.469  15.319 -0.6658  1.6253 -0.3624
 9136SOL     OW38869   2.704   2.585   3.752  0.3064  0.6361  0.0296
 9136SOL    HW138870   2.643   2.522   3.712  0.4831  0.1086  0.5930
 9136SOL    HW238871   2.776   2.582   3.690 -0.7661  0.5411 -1.2205
 9137SOL     OW38872   2.760   2.111   2.263 -0.1997  0.2359 -0.7329
 9137SOL    HW138873   2.688   2.167   2.236 -2.0821 -2.5364 -1.4677
 9137SOL    HW238874   2.823   2.182   2.251 -0.6475  0.5848 -1.0165
 9138SOL     OW38875   3.449   1.255   2.881  0.0474 -0.1872 -0.5326
 9138SOL    HW138876   3.485   1.342   2.862  1.3224 -0.4769  0.5301
 9138SOL    HW238877   3.360   1.280   2.907 -0.2678 -0.2972 -1.5073
 9139SOL     OW38878   1.044   1.692   7.178  0.0273  0.4317 -0.0692
 9139SOL    HW138879   1.001   1.725   7.256 -0.0736  3.0601 -1.2324
 9139SOL    HW238880   0.987   1.735   7.114  1.1346  1.1003 -0.6155
 9140SOL     OW38881   2.175   1.267  15.334 -0.3811 -0.5206  0.3583
 9140SOL    HW138882   2.109   1.332  15.360  0.1850 -0.0115  0.5067
 9140SOL    HW238883   2.137   1.187  15.371 -0.0843  0.4049  2.6537
 9141SOL     OW38884   3.025   4.652   6.071  0.6153  0.7880  0.0390
 9141SOL    HW138885   3.036   0.027   6.064  1.5663  0.7359  0.6843
 9141SOL    HW238886   3.002   4.624   5.983  0.7009 -0.4763  0.4032
 9142SOL     OW38887   3.882   3.206   6.753  0.0552  0.2340 -0.3476
 9142SOL    HW138888   3.953   3.260   6.788  0.2477 -0.3942  0.2327
 9142SOL    HW238889   3.923   3.154   6.685 -1.2851 -0.7852 -0.3784
 9143SOL     OW38890   3.813   3.821   8.675  0.8079  0.2032 -0.0888
 9143SOL    HW138891   3.782   3.910   8.657  0.1599  0.1393  0.6717
 9143SOL    HW238892   3.793   3.808   8.768 -1.4446 -2.3959 -0.9160
 9144SOL     OW38893   4.295   0.265   7.850  0.2652 -0.1388  0.2475
 9144SOL    HW138894   4.354   0.296   7.781  0.0636  1.3376  0.7405
 9144SOL    HW238895   4.365   0.253   7.914  3.3531  0.5741 -2.9570
 9145SOL     OW38896   1.673   4.602   7.936 -0.7037  0.6102  0.0940
 9145SOL    HW138897   1.728   4.532   7.971 -0.8957  1.5319  2.2681
 9145SOL    HW238898   1.586   4.607   7.976  0.1685  1.5457  1.9029
 9146SOL     OW38899   2.201   2.788  15.912  0.2802  0.0398  0.1736
 9146SOL    HW138900   2.211   2.822  15.823  3.2983 -0.1711  0.4368
 9146SOL    HW238901   2.286   2.744  15.918 -0.6395 -1.9797 -1.4963
 9147SOL     OW38902   3.435   2.705  12.072 -0.1447 -0.2869  0.3958
 9147SOL    HW138903   3.430   2.697  12.168 -2.9143  1.7023  0.4245
 9147SOL    HW238904   3.346   2.678  12.051 -0.2989  2.3590 -2.3412
 9148SOL     OW38905   2.115   1.952   6.399  0.5320 -0.5916  0.4059
 9148SOL    HW138906   2.046   2.018   6.390  0.0217 -1.2302 -0.3232
 9148SOL    HW238907   2.188   2.013   6.385  0.7441 -1.2538 -1.3617
 9149SOL     OW38908   2.854   0.745   5.798  0.3346 -0.0938 -0.5275
 9149SOL    HW138909   2.837   0.727   5.891 -0.4641 -1.1463 -0.8756
 9149SOL    HW238910   2.826   0.836   5.786  5.0448  1.5095  0.5771
 9150SOL     OW38911   3.439   2.905  11.343  0.2927  0.0293 -0.0954
 9150SOL    HW138912   3.522   2.954  11.338  0.1173  0.6147  2.7861
 9150SOL    HW238913   3.404   2.943  11.263 -0.8714 -2.1928 -0.6290
 9151SOL     OW38914   1.676   1.285   4.403 -0.2665  0.1262 -0.2215
 9151SOL    HW138915   1.668   1.335   4.321  1.4022 -0.4110 -0.7162
 9151SOL    HW238916   1.698   1.361   4.457  2.2704 -0.2558 -0.7109
 9152SOL     OW38917   0.289   3.329   8.992  0.6517 -0.2668  0.0316
 9152SOL    HW138918   0.329   3.356   9.075 -0.3859  0.3279  0.3361
 9152SOL    HW238919   0.206   3.287   9.013  0.4227  0.8925  1.4319
 9153SOL     OW38920   2.407   2.797   2.777  0.5671  0.5582 -0.1200
 9153SOL    HW138921   2.352   2.875   2.778 -1.5719 -0.9517  0.1192
 9153SOL    HW238922   2.380   2.754   2.858  0.9940  2.2962  0.9255
 9154SOL     OW38923   1.677   0.717   2.853  0.5857  0.0634 -0.3626
 9154SOL    HW138924   1.761   0.709   2.807  1.8570 -0.2480  1.9975
 9154SOL    HW238925   1.666   0.808   2.828  0.0672 -0.0074 -0.3767
 9155SOL     OW38926   1.050   3.983  11.443 -0.0249  0.4768  0.4205
 9155SOL    HW138927   0.989   3.916  11.474 -1.7615  2.3811  1.1571
 9155SOL    HW238928   1.003   4.063  11.463  0.1911  0.5353  0.6993
 9156SOL     OW38929   3.602   2.463   6.919  0.7466  0.6669 -0.5470
 9156SOL    HW138930   3.595   2.397   6.989 -0.1315  2.5834  1.1628
 9156SOL    HW238931   3.637   2.408   6.848 -0.7329  2.9549 -3.0463
 9157SOL     OW38932   3.757   3.130   0.309  0.2539  0.4123  0.5533
 9157SOL    HW138933   3.745   3.035   0.313  0.3525  0.3987  0.5256
 9157SOL    HW238934   3.851   3.144   0.318  0.0474  1.9186  0.3728
 9158SOL     OW38935   4.345   1.762  12.899 -0.4026  0.5862  0.0975
 9158SOL    HW138936   4.344   1.857  12.889  0.5239  0.3826 -1.9268
 9158SOL    HW238937   4.283   1.749  12.970  0.4625 -1.3577  0.4729
 9159SOL     OW38938   4.504   0.407   3.861 -0.6945  0.2642 -0.1654
 9159SOL    HW138939   4.459   0.378   3.940  0.5278  0.7842  0.7099
 9159SOL    HW238940   4.461   0.353   3.794  0.0426 -0.6758  0.1139
 9160SOL     OW38941   1.966   0.893  14.720  0.5000  0.2911 -0.1851
 9160SOL    HW138942   1.925   0.952  14.656 -1.8175 -0.2472  0.8359
 9160SOL    HW238943   2.034   0.949  14.758  1.1998 -0.4334 -0.3667
 9161SOL     OW38944   0.671   4.717   2.851  0.0767 -0.2429 -0.4175
 9161SOL    HW138945   0.619   4.643   2.819  0.1133 -0.8852  0.9812
 9161SOL    HW238946   0.627   0.021   2.932 -0.2689 -2.2823 -0.0305
 9162SOL     OW38947   2.364   3.508   8.240 -0.2523  0.0615 -0.6622
 9162SOL    HW138948   2.311   3.429   8.253  0.9428 -0.5305  0.5954
 9162SOL    HW238949   2.354   3.529   8.147  0.4055 -0.2990 -0.8065
 9163SOL     OW38950   1.870   2.364   2.411 -0.4940  0.0342  0.0628
 9163SOL    HW138951   1.962   2.344   2.424 -0.2862  0.0871 -1.2928
 9163SOL    HW238952   1.840   2.274   2.393 -2.0650  0.2461  1.6198
 9164SOL     OW38953   1.142   0.302  10.708  0.4268  0.4611 -0.8196
 9164SOL    HW138954   1.228   0.310  10.750  1.5190 -0.2519 -2.8961
 9164SOL    HW238955   1.114   0.213  10.732  3.5589 -0.1784  0.5480
 9165SOL     OW38956   2.915   2.976   4.912  0.0000  0.4690 -0.4781
 9165SOL    HW138957   2.843   3.039   4.920 -0.4839 -0.2696  1.0358
 9165SOL    HW238958   2.942   2.967   5.004 -2.7689  0.6037  0.3520
 9166SOL     OW38959   2.916   4.573  13.919 -0.2751 -0.4310 -0.2030
 9166SOL    HW138960   2.855   4.642  13.891  1.4736  0.3872 -2.0141
 9166SOL    HW238961   2.915   4.583  14.014 -1.8144  1.1780 -0.3925
 9167SOL     OW38962   3.202   1.316   2.941 -0.2713 -0.3919 -0.1744
 9167SOL    HW138963   3.214   1.337   3.034  0.2728 -2.1320  0.1541
 9167SOL    HW238964   3.122   1.363   2.920  0.5151  2.1363  2.5278
 9168SOL     OW38965   1.010   3.858  11.015  0.1728  0.2986  0.2405
 9168SOL    HW138966   1.001   3.936  11.070 -1.1467  0.7003 -0.5319
 9168SOL    HW238967   1.102   3.832  11.005  0.5321  1.2801  1.0436
 9169SOL     OW38968   3.136   0.663   4.860  0.0432 -0.0339 -0.0780
 9169SOL    HW138969   3.122   0.742   4.807 -0.2525  1.5585  2.3624
 9169SOL    HW238970   3.119   0.695   4.948 -2.5744  0.2932 -0.7086
 9170SOL     OW38971   4.059   0.890   3.964  0.8462 -0.1231 -0.0614
 9170SOL    HW138972   4.006   0.929   3.894 -1.9346  0.3419  2.3142
 9170SOL    HW238973   4.139   0.891   3.911  0.4648 -2.4115 -0.6990
 9171SOL     OW38974   0.962   3.315   2.664 -1.0117 -0.1062 -0.7062
 9171SOL    HW138975   0.947   3.237   2.611 -0.4926 -1.2284  0.8017
 9171SOL    HW238976   0.878   3.360   2.662 -0.0663  1.6939 -0.4545
 9172SOL     OW38977   2.416   3.579  13.435 -0.2859 -0.0292 -0.2564
 9172SOL    HW138978   2.447   3.667  13.457 -1.2586  0.0911  0.6216
 9172SOL    HW238979   2.345   3.596  13.374  1.2271  0.4971 -1.8705
 9173SOL     OW38980   0.796   3.795   3.026  0.0954 -0.0294 -0.5323
 9173SOL    HW138981   0.803   3.777   2.933  1.2155 -0.1369 -0.4200
 9173SOL    HW238982   0.828   3.884   3.034  0.1296  0.0942 -2.0734
 9174SOL     OW38983   0.659   1.564   9.001 -0.1722 -0.5936 -0.6631
 9174SOL    HW138984   0.716   1.520   8.938 -0.0717  1.3669 -1.9170
 9174SOL    HW238985   0.596   1.607   8.943 -0.1629  0.2333 -0.0487
 9175SOL     OW38986   0.243   0.001  11.071 -0.8923  0.1388 -0.1446
 9175SOL    HW138987   0.284   0.070  11.122 -0.0155 -0.8093  0.4417
 9175SOL    HW238988   0.200   4.660  11.131  0.3430  2.1842  2.8212
 9176SOL     OW38989   1.546   2.132   0.219  0.0832  0.4035 -0.3529
 9176SOL    HW138990   1.484   2.189   0.264  0.5251  0.2177  0.4923
 9176SOL    HW238991   1.598   2.198   0.172  1.1164 -1.3073 -1.6208
 9177SOL     OW38992   2.919   3.726   3.424  0.2912 -0.1996  0.0858
 9177SOL    HW138993   2.826   3.701   3.418  0.1995 -0.8593  3.8123
 9177SOL    HW238994   2.934   3.699   3.515 -0.5854 -4.8789 -1.1737
 9178SOL     OW38995   2.980   2.626   9.359 -0.1440 -0.2201 -0.0309
 9178SOL    HW138996   3.054   2.568   9.340 -0.4534 -1.2308  1.8161
 9178SOL    HW238997   3.021   2.706   9.326 -0.0316 -1.1705 -2.1520
 9179SOL     OW38998   4.558   0.638   8.979  0.0691 -0.4210 -0.2567
 9179SOL    HW138999   4.468   0.669   8.969  1.3384  2.9357 -1.2586
 9179SOL    HW239000   4.618   0.694   8.929  1.4477 -2.9339 -1.4382
 9180SOL     OW39001   2.607   3.238   1.847 -0.0156 -0.2803  0.9022
 9180SOL    HW139002   2.618   3.173   1.779  1.1238 -1.1246  1.8921
 9180SOL    HW239003   2.686   3.291   1.839  0.1462 -0.7572 -0.6158
 9181SOL     OW39004   4.123   1.983   6.069 -0.0539 -0.3430  0.2061
 9181SOL    HW139005   4.083   1.936   5.995  1.2484 -0.6769 -0.2880
 9181SOL    HW239006   4.047   2.030   6.101  0.5883  0.0097  1.1922
 9182SOL     OW39007   0.360   0.860   3.203 -0.4425 -0.5809  0.0878
 9182SOL    HW139008   0.411   0.799   3.150  0.1357 -1.9646  2.2298
 9182SOL    HW239009   0.359   0.809   3.284 -0.1871 -1.2086 -0.3131
 9183SOL     OW39010   1.410   2.480   7.935 -0.7370  0.3948  0.2022
 9183SOL    HW139011   1.333   2.494   7.880  0.5957  2.1160 -1.2512
 9183SOL    HW239012   1.486   2.485   7.876  0.1464 -0.1783  1.2862
 9184SOL     OW39013   1.441   1.502   3.983  0.4445 -0.2363  0.4263
 9184SOL    HW139014   1.471   1.592   3.996 -4.2263  1.5799 -1.4961
 9184SOL    HW239015   1.496   1.450   4.042 -0.6044 -2.9272 -0.9981
 9185SOL     OW39016   1.001   0.173   7.894  0.7715 -0.3501  0.6984
 9185SOL    HW139017   0.971   0.234   7.825 -0.4996 -3.2224 -1.2972
 9185SOL    HW239018   0.998   0.090   7.847 -1.9806 -0.3693  0.9004
 9186SOL     OW39019   0.976   4.582  17.603  0.0168 -0.8208  0.2663
 9186SOL    HW139020   0.935   4.616  17.524 -2.1637  1.3938  2.3772
 9186SOL    HW239021   0.900   4.571  17.659  1.9188 -0.9903  2.8411
 9187SOL     OW39022   1.212   0.770  16.968  0.5959  0.0404 -0.4202
 9187SOL    HW139023   1.168   0.766  16.883  0.4813  1.3726 -0.4090
 9187SOL    HW239024   1.286   0.827  16.947  0.6361  0.4644  0.8947
 9188SOL     OW39025   3.117   1.840   2.814  0.1692 -0.5146 -0.1018
 9188SOL    HW139026   3.065   1.788   2.752 -0.4892  2.6947 -2.2609
 9188SOL    HW239027   3.132   1.925   2.773 -0.8794  0.1813  0.9604
 9189SOL     OW39028   0.879   4.413   0.619  0.5270  0.0245 -0.4201
 9189SOL    HW139029   0.812   4.446   0.559 -0.2442 -0.0976  0.3688
 9189SOL    HW239030   0.957   4.438   0.570  0.6795 -0.4977 -0.4505
 9190SOL     OW39031   3.460   3.022   7.555  0.4136 -0.7210  0.0607
 9190SOL    HW139032   3.414   2.939   7.565 -3.5527  1.5212  0.6710
 9190SOL    HW239033   3.518   2.994   7.484  1.3852  0.3019  0.4504
 9191SOL     OW39034   0.950   0.793  12.285 -0.1951  0.1441  0.0869
 9191SOL    HW139035   0.975   0.749  12.366 -0.2801  1.2077  0.6947
 9191SOL    HW239036   0.947   0.886  12.311 -1.5412 -0.2614  1.3982
 9192SOL     OW39037   3.510   2.007  12.314  0.1491 -0.0976  0.5873
 9192SOL    HW139038   3.595   2.009  12.270 -1.1969  0.2376 -1.9333
 9192SOL    HW239039   3.543   1.988  12.402  1.7657 -3.1451 -0.6710
 9193SOL     OW39040   0.118   2.904  16.270 -0.1667 -0.4084 -0.2588
 9193SOL    HW139041   0.176   2.829  16.253  0.3993 -0.3076  1.2689
 9193SOL    HW239042   0.082   2.910  16.181 -2.5591 -2.7164  0.5535
 9194SOL     OW39043   0.361   4.483   7.183  0.0172  0.3142 -0.1873
 9194SOL    HW139044   0.347   4.475   7.277 -0.3629  1.7042 -0.1182
 9194SOL    HW239045   0.280   4.449   7.145 -0.4777  1.8889 -0.5460
 9195SOL     OW39046   3.735   4.209   3.277 -0.2235  0.6878 -0.3213
 9195SOL    HW139047   3.756   4.132   3.225 -0.0670  0.9660 -0.6641
 9195SOL    HW239048   3.712   4.268   3.206 -0.9124 -1.3832 -1.8280
 9196SOL     OW39049   2.204   1.263   6.552  0.4872  0.2904  0.6135
 9196SOL    HW139050   2.144   1.317   6.603 -0.8181  0.6460 -1.2869
 9196SOL    HW239051   2.262   1.329   6.515 -0.5417  0.5821 -0.4734
 9197SOL     OW39052   4.303   0.039  10.555 -0.7107 -0.6278 -0.5485
 9197SOL    HW139053   4.288   0.065  10.464 -0.4261 -0.8244 -0.6501
 9197SOL    HW239054   4.212   0.033  10.585 -0.2330 -0.6031  0.9379
 9198SOL     OW39055   0.968   4.694   6.470  0.2486  0.3485  0.4439
 9198SOL    HW139056   0.998   0.014   6.388 -1.7886 -1.2637 -1.0669
 9198SOL    HW239057   0.940   0.046   6.528 -1.0858 -1.5257  2.0931
 9199SOL     OW39058   3.420   2.971   8.643  0.0587  0.4686  0.3988
 9199SOL    HW139059   3.410   2.945   8.551  2.3769  0.2729  0.1975
 9199SOL    HW239060   3.331   3.000   8.663  0.5185  2.0327  0.1891
 9200SOL     OW39061   0.361   3.870   5.966 -0.6292  0.6170  0.0708
 9200SOL    HW139062   0.304   3.946   5.955 -0.1554  0.6926 -1.7685
 9200SOL    HW239063   0.326   3.821   5.892 -0.6568  1.8047 -0.7116
 9201SOL     OW39064   3.380   2.718   5.705 -0.2960  0.7253  0.1427
 9201SOL    HW139065   3.337   2.695   5.623  1.4019  1.8687 -1.0659
 9201SOL    HW239066   3.399   2.634   5.746 -0.9731  0.1623 -0.7061
 9202SOL     OW39067   3.624   1.704   2.543 -0.2825 -0.4606 -0.6865
 9202SOL    HW139068   3.718   1.699   2.529 -0.0298  0.3706  0.6802
 9202SOL    HW239069   3.612   1.797   2.523 -1.1582 -0.5373 -0.5425
 9203SOL     OW39070   3.092   2.519   3.056 -0.1471 -0.3200  0.1007
 9203SOL    HW139071   3.011   2.562   3.032  0.5381  0.9777  0.1120
 9203SOL    HW239072   3.144   2.544   2.979 -2.2403 -0.3585 -1.3143
 9204SOL     OW39073   1.036   3.793   1.770 -0.5539  0.4051 -0.0974
 9204SOL    HW139074   0.962   3.771   1.827  0.5166  0.2169  1.2127
 9204SOL    HW239075   1.079   3.861   1.821  1.3644 -0.3034 -0.7724
 9205SOL     OW39076   0.534   1.030   3.443 -0.2861 -0.4622 -0.1874
 9205SOL    HW139077   0.485   1.060   3.366 -1.0692  0.0157  0.5016
 9205SOL    HW239078   0.467   0.973   3.481 -1.0892 -0.1897 -1.1782
 9206SOL     OW39079   3.644   3.187   3.428  0.1626 -0.5746  0.2805
 9206SOL    HW139080   3.647   3.216   3.337 -1.7818 -1.5588 -0.1134
 9206SOL    HW239081   3.736   3.161   3.435 -0.0910 -1.5583  0.0331
 9207SOL     OW39082   2.922   1.701   8.683  0.2873 -0.1567 -0.3288
 9207SOL    HW139083   2.901   1.777   8.629 -0.2448  1.3157  1.9497
 9207SOL    HW239084   2.905   1.743   8.767  0.7050  0.9662 -0.7956
 9208SOL     OW39085   4.467   4.406  17.530 -0.2420 -0.2441  0.0979
 9208SOL    HW139086   4.527   4.341  17.494  1.3611  1.7171 -0.7245
 9208SOL    HW239087   4.521   4.468  17.578 -1.5911  1.0931 -0.1242
 9209SOL     OW39088   1.176   0.280  10.361  0.0803 -0.0088  0.1048
 9209SOL    HW139089   1.170   0.301  10.455  0.2579 -1.4087  0.4306
 9209SOL    HW239090   1.232   0.354  10.337 -2.5241  1.7216 -0.6394
 9210SOL     OW39091   0.523   1.973   4.862  0.1876  0.6958 -0.2568
 9210SOL    HW139092   0.456   1.946   4.799  0.1995 -1.2766  0.5843
 9210SOL    HW239093   0.481   2.049   4.902 -0.1249  0.1675  0.4128
 9211SOL     OW39094   3.263   1.573  10.583 -0.0278  0.3246 -0.3697
 9211SOL    HW139095   3.302   1.561  10.670  1.6686  0.9306 -1.0442
 9211SOL    HW239096   3.218   1.654  10.607 -0.3851  0.0736 -0.1976
 9212SOL     OW39097   1.046   1.807   6.720  0.1185 -0.5868  0.1553
 9212SOL    HW139098   1.064   1.714   6.732  0.8540 -0.1197  2.7798
 9212SOL    HW239099   1.115   1.841   6.778  0.4992 -0.6441 -0.2652
 9213SOL     OW39100   2.909   2.863   1.142 -0.2848 -0.4675  0.0097
 9213SOL    HW139101   2.979   2.925   1.162 -0.3965 -0.6553  1.0215
 9213SOL    HW239102   2.965   2.787   1.125 -1.9662 -1.6298 -0.3362
 9214SOL     OW39103   2.927   2.146   4.031 -0.2741  0.0078  0.1370
 9214SOL    HW139104   2.988   2.164   4.102 -0.5484 -3.0963  1.1682
 9214SOL    HW239105   2.916   2.233   3.993  1.1073 -0.3231 -1.0468
 9215SOL     OW39106   4.438   0.172   2.844 -0.2384  0.6628 -0.1963
 9215SOL    HW139107   4.521   0.184   2.797  0.4935 -2.3201  0.3949
 9215SOL    HW239108   4.452   0.081   2.867 -1.4057  0.1295 -1.6008
 9216SOL     OW39109   1.423   0.196  16.729  0.6816 -0.1515 -0.0414
 9216SOL    HW139110   1.487   0.134  16.762 -0.2739 -1.1494 -0.0448
 9216SOL    HW239111   1.486   0.257  16.689  2.9603 -2.8902 -0.5703
 9217SOL     OW39112   1.877   4.155   6.857 -0.3639  0.7349 -0.4568
 9217SOL    HW139113   1.832   4.071   6.850  1.1506 -0.0808 -0.4054
 9217SOL    HW239114   1.913   4.150   6.945  0.8255 -2.2156 -1.1062
 9218SOL     OW39115   3.896   4.153  12.777 -0.3494  0.0866 -0.5110
 9218SOL    HW139116   3.895   4.223  12.843  0.1354  0.9011 -1.3589
 9218SOL    HW239117   3.908   4.190  12.690 -3.1580 -0.1233 -0.9680
 9219SOL     OW39118   2.811   0.722   0.941 -0.1459  0.1007  0.2817
 9219SOL    HW139119   2.783   0.771   1.019  0.3306  1.2958 -0.3069
 9219SOL    HW239120   2.897   0.686   0.964 -0.1321 -0.9296 -1.4176
 9220SOL     OW39121   0.662   4.425   4.006  1.0061  0.1497  0.3864
 9220SOL    HW139122   0.755   4.403   4.004  1.7551  3.1777  2.0971
 9220SOL    HW239123   0.636   4.430   3.914  0.3738  0.0505  0.5631
 9221SOL     OW39124   1.795   1.358   8.681 -0.1307 -0.0277  0.0416
 9221SOL    HW139125   1.753   1.391   8.760 -2.2050 -0.1726 -0.9964
 9221SOL    HW239126   1.878   1.327   8.717  0.0616  1.6795  1.0869
 9222SOL     OW39127   2.187   3.894  15.374  0.4185  0.5966  0.0333
 9222SOL    HW139128   2.268   3.905  15.425 -0.8318 -1.9925  2.6145
 9222SOL    HW239129   2.222   3.876  15.287 -1.0999 -0.1090 -0.4255
 9223SOL     OW39130   3.126   3.925   2.885  0.0872  0.0284  0.0960
 9223SOL    HW139131   3.143   3.857   2.949 -0.3559 -1.7071 -1.6084
 9223SOL    HW239132   3.198   3.929   2.823 -0.8921 -1.1886 -1.1284
 9224SOL     OW39133   1.147   0.546   5.396 -1.0147 -0.0928  0.0019
 9224SOL    HW139134   1.236   0.558   5.429 -0.3322 -1.4354 -1.3430
 9224SOL    HW239135   1.160   0.522   5.304  0.0887 -0.3559  0.2294
 9225SOL     OW39136   0.932   0.688  12.035 -0.6787 -0.3448 -0.2238
 9225SOL    HW139137   0.933   0.738  12.116  1.0243  1.0317 -1.1032
 9225SOL    HW239138   0.910   0.599  12.063  1.1488 -0.2604  1.4618
 9226SOL     OW39139   3.730   2.174   7.582 -0.3578 -0.0803  0.3147
 9226SOL    HW139140   3.719   2.103   7.518  0.6974  0.7806 -0.8060
 9226SOL    HW239141   3.659   2.234   7.560  1.4267  1.0990 -2.3101
 9227SOL     OW39142   4.658   1.866   6.885  0.2504  0.1918 -0.0169
 9227SOL    HW139143   4.594   1.834   6.948 -0.5127 -0.1187 -0.9541
 9227SOL    HW239144   4.649   1.798   6.818  0.7580  1.3534 -1.2547
 9228SOL     OW39145   0.402   1.145   7.222  0.1642 -0.2703  0.3640
 9228SOL    HW139146   0.325   1.106   7.266 -0.0302  0.6644  0.8522
 9228SOL    HW239147   0.359   1.218   7.177 -0.6580  0.1903  1.8782
 9229SOL     OW39148   1.759   3.534   1.888 -0.0234  0.0478  0.1501
 9229SOL    HW139149   1.701   3.598   1.846  0.2233 -0.2533 -0.6453
 9229SOL    HW239150   1.757   3.573   1.975  2.9364 -2.5057  1.3448
 9230SOL     OW39151   2.641   0.238   1.155  0.4872  0.0422 -0.0947
 9230SOL    HW139152   2.636   0.143   1.144 -2.2744 -0.0132  1.6819
 9230SOL    HW239153   2.608   0.264   1.069 -0.0436  2.8083  0.9668
 9231SOL     OW39154   2.372   1.631   8.239  0.3618 -0.7127 -0.0991
 9231SOL    HW139155   2.428   1.563   8.202  3.2397  1.5911  0.0082
 9231SOL    HW239156   2.284   1.605   8.212  0.6197 -1.3269 -0.3491
 9232SOL     OW39157   1.499   2.725  11.690  0.1872 -0.7823 -0.0884
 9232SOL    HW139158   1.543   2.741  11.773  2.0889 -1.6460 -0.9566
 9232SOL    HW239159   1.564   2.732  11.621  2.7238  0.6805  2.4513
 9233SOL     OW39160   3.458   3.424  10.798  0.3906  0.1192  0.4321
 9233SOL    HW139161   3.513   3.494  10.832  4.1005 -1.3075 -2.6818
 9233SOL    HW239162   3.433   3.463  10.715 -0.9757 -0.3232  0.6258
 9234SOL     OW39163   0.696   2.783   6.620  0.3053 -0.2269  0.0001
 9234SOL    HW139164   0.608   2.819   6.621  0.0540 -0.8464  0.9267
 9234SOL    HW239165   0.695   2.754   6.529  0.9347 -2.8617  0.8216
 9235SOL     OW39166   0.536   2.105   1.957 -0.2184 -0.0871  0.3008
 9235SOL    HW139167   0.561   2.044   2.027 -0.0361 -1.5125 -0.9940
 9235SOL    HW239168   0.442   2.120   1.970 -0.3469 -1.0935  0.5504
 9236SOL     OW39169   3.340   2.840   3.932  0.8718 -0.5819  0.0407
 9236SOL    HW139170   3.343   2.935   3.933  0.6923 -0.5947  1.8672
 9236SOL    HW239171   3.262   2.812   3.981  1.5015 -0.8580  0.8800
 9237SOL     OW39172   0.495   1.431   5.916  0.6194 -0.4694 -0.0091
 9237SOL    HW139173   0.502   1.415   5.821 -2.8692  1.2595 -0.5257
 9237SOL    HW239174   0.401   1.435   5.932  0.4018  0.2182 -1.4912
 9238SOL     OW39175   2.361   3.932   0.444  0.4022 -0.4199 -0.1334
 9238SOL    HW139176   2.427   3.873   0.478  1.2638  0.9841  0.6342
 9238SOL    HW239177   2.327   3.982   0.518 -0.7947  0.4822 -1.2904
 9239SOL     OW39178   0.586   4.080  13.555  0.3947 -0.2081 -0.9088
 9239SOL    HW139179   0.644   4.066  13.629 -0.2369  0.9579 -0.1896
 9239SOL    HW239180   0.585   4.176  13.547  0.9451 -0.2166 -1.0734
 9240SOL     OW39181   4.174   0.494   3.308 -0.6089  0.0476 -0.5404
 9240SOL    HW139182   4.094   0.446   3.326 -0.5244  0.6012  1.3642
 9240SOL    HW239183   4.136   0.577   3.282  0.2818  0.3025 -1.0431
 9241SOL     OW39184   1.969   0.710   5.640 -0.1463 -0.6784  0.6281
 9241SOL    HW139185   1.988   0.729   5.548  3.2909 -2.6564  0.9357
 9241SOL    HW239186   2.032   0.639   5.647  1.4898  0.9527  2.4975
 9242SOL     OW39187   0.012   3.327  11.896 -0.1270  0.2093  0.0694
 9242SOL    HW139188   0.002   3.420  11.918  0.7427  0.7146 -1.6728
 9242SOL    HW239189   0.008   3.286  11.982  2.8459 -1.9850 -0.8267
 9243SOL     OW39190   4.219   1.249   1.996 -0.0215 -0.1921  0.2111
 9243SOL    HW139191   4.168   1.274   1.919  0.1533  1.0893  0.5120
 9243SOL    HW239192   4.209   1.154   1.990  0.7483 -0.2248 -0.5462
 9244SOL     OW39193   2.538   2.959   7.875  0.0001  0.4349  0.1065
 9244SOL    HW139194   2.462   2.993   7.828  0.2548 -2.0338 -2.0832
 9244SOL    HW239195   2.506   2.927   7.960 -0.8326 -0.3728 -0.5122
 9245SOL     OW39196   2.211   2.610  13.235 -0.0577  0.3455 -0.3334
 9245SOL    HW139197   2.302   2.605  13.203 -0.3012 -2.9059 -0.4535
 9245SOL    HW239198   2.182   2.684  13.182  2.2112  2.1269  0.8967
 9246SOL     OW39199   2.948   0.780   9.287  0.0516  0.2480 -0.5931
 9246SOL    HW139200   2.905   0.738   9.212 -1.2205 -1.1237  0.8958
 9246SOL    HW239201   3.002   0.844   9.241  0.7024 -0.1143 -0.3348
 9247SOL     OW39202   1.412   0.513   2.383 -0.1311  0.8436  0.3711
 9247SOL    HW139203   1.375   0.573   2.447 -3.8394 -0.5794 -0.4524
 9247SOL    HW239204   1.437   0.442   2.442  0.5952  2.1807  1.6651
 9248SOL     OW39205   4.530   1.335   5.550 -0.3808 -0.1391  0.7810
 9248SOL    HW139206   4.616   1.377   5.548 -0.4121 -0.1864 -2.2744
 9248SOL    HW239207   4.563   1.246   5.533  1.7772  0.4364  1.8894
 9249SOL     OW39208   0.357   3.745   1.942  0.1890 -0.2138 -0.5642
 9249SOL    HW139209   0.407   3.778   2.017 -0.0126 -0.0262 -0.5127
 9249SOL    HW239210   0.302   3.683   1.990 -0.2789 -1.8235 -3.1742
 9250SOL     OW39211   0.210   4.085  11.889 -0.6028 -0.3935  0.2277
 9250SOL    HW139212   0.162   4.006  11.864  2.0468 -2.1081  0.6033
 9250SOL    HW239213   0.153   4.104  11.964  0.0807  1.6769  0.2231
 9251SOL     OW39214   3.195   2.602   3.600  0.5255 -0.2582 -0.4749
 9251SOL    HW139215   3.235   2.568   3.680 -0.6190 -0.5181 -0.0107
 9251SOL    HW239216   3.268   2.601   3.539  0.4719  2.6493 -0.6007
 9252SOL     OW39217   0.127   0.694  16.841  0.3666 -0.2214 -0.0190
 9252SOL    HW139218   0.040   0.720  16.810  0.4250 -0.3436 -0.2832
 9252SOL    HW239219   0.150   0.637  16.768  2.5199  1.1473 -0.3878
 9253SOL     OW39220   4.316   4.201   8.956 -0.3221  0.0736 -0.1090
 9253SOL    HW139221   4.327   4.133   8.890 -1.8372  0.5788 -0.8760
 9253SOL    HW239222   4.260   4.155   9.020  1.2752 -0.6106  0.7892
 9254SOL     OW39223   3.372   2.264  13.820 -0.1434  0.4725  0.5241
 9254SOL    HW139224   3.356   2.263  13.914 -0.7388  0.3413  0.4158
 9254SOL    HW239225   3.284   2.273  13.786  0.6161 -1.1603 -1.8610
 9255SOL     OW39226   0.896   3.527  16.483  0.3192  0.6330  0.3930
 9255SOL    HW139227   0.909   3.497  16.573  2.7764 -0.7232 -0.4390
 9255SOL    HW239228   0.818   3.582  16.497 -0.9379 -1.2707  0.9161
 9256SOL     OW39229   3.861   3.882  12.777 -0.2826 -0.0925  0.1932
 9256SOL    HW139230   3.953   3.860  12.785  0.2940  2.1780 -0.2740
 9256SOL    HW239231   3.858   3.977  12.764 -1.8687  0.0459  1.4302
 9257SOL     OW39232   0.642   1.847   7.214 -0.3151  0.0002  0.1754
 9257SOL    HW139233   0.705   1.831   7.284  0.7116 -1.0722 -1.0050
 9257SOL    HW239234   0.583   1.910   7.255 -0.9964 -0.3719 -0.2357
 9258SOL     OW39235   1.321   2.054   4.309  0.3433  0.5084 -0.1199
 9258SOL    HW139236   1.289   1.973   4.271  0.5331  1.3164 -2.0227
 9258SOL    HW239237   1.245   2.076   4.362 -0.1497 -0.2080 -0.5281
 9259SOL     OW39238   1.194   2.685  14.669  0.3147 -0.3240 -0.5849
 9259SOL    HW139239   1.180   2.709  14.577  0.3708 -1.0825 -0.7895
 9259SOL    HW239240   1.284   2.714  14.683  0.1104 -0.2397  0.6076
 9260SOL     OW39241   2.830   3.292   2.781  0.1303  0.0030 -0.3773
 9260SOL    HW139242   2.772   3.247   2.842 -0.5760  1.5433  0.0810
 9260SOL    HW239243   2.784   3.375   2.770  1.5148  0.7067 -0.8686
 9261SOL     OW39244   2.277   1.546   4.554 -0.3300  0.0478  0.0231
 9261SOL    HW139245   2.281   1.633   4.594 -2.5648 -0.3051  1.0517
 9261SOL    HW239246   2.188   1.517   4.578  0.6213 -1.3957  1.7896
 9262SOL     OW39247   2.148   1.106  13.305 -0.1888  0.6932  0.0565
 9262SOL    HW139248   2.060   1.145  13.304 -0.1968  0.6549 -2.1026
 9262SOL    HW239249   2.191   1.136  13.225 -1.5849  0.3115 -0.8499
 9263SOL     OW39250   0.371   4.471   7.462 -0.3129  0.7253  0.0934
 9263SOL    HW139251   0.428   4.503   7.531 -0.1793 -0.4760  0.5389
 9263SOL    HW239252   0.378   4.375   7.462 -0.4751  0.7096 -0.9469
 9264SOL     OW39253   0.022   1.610   9.278 -0.6019  0.4105 -0.5888
 9264SOL    HW139254   0.035   1.516   9.285 -0.8280  0.3331 -1.2333
 9264SOL    HW239255   0.111   1.639   9.257  0.7378 -1.1543  2.9479
 9265SOL     OW39256   0.885   0.378   6.916 -0.2075  0.0202  0.1391
 9265SOL    HW139257   0.809   0.322   6.930  0.2598  0.1065  2.9142
 9265SOL    HW239258   0.887   0.384   6.820 -1.0068  1.8281  0.2244
 9266SOL     OW39259   0.827   3.821  10.810  0.7707 -0.3459 -0.1140
 9266SOL    HW139260   0.835   3.727  10.790 -0.0142 -0.3309 -0.5001
 9266SOL    HW239261   0.881   3.821  10.889  0.5724 -2.0561  0.0320
 9267SOL     OW39262   0.843   4.080   3.036  0.6517 -0.1876 -0.4353
 9267SOL    HW139263   0.823   4.123   2.953 -1.7365 -0.9314 -0.2438
 9267SOL    HW239264   0.813   4.151   3.094  0.2939  0.1239 -1.0063
 9268SOL     OW39265   0.328   4.249   8.950 -0.1539 -0.0638  0.4884
 9268SOL    HW139266   0.338   4.325   8.893  2.6215 -0.3770  0.6019
 9268SOL    HW239267   0.259   4.283   9.008  0.5485  1.8377  0.2161
 9269SOL     OW39268   1.638   2.491  11.703 -0.1509 -0.0430  0.6351
 9269SOL    HW139269   1.545   2.479  11.720  0.0528 -1.0799  1.0438
 9269SOL    HW239270   1.672   2.493  11.792 -2.0706  0.3666  1.3519
 9270SOL     OW39271   3.491   4.112   2.487 -0.0982 -0.3445 -0.2070
 9270SOL    HW139272   3.402   4.082   2.473  0.2612  0.0324 -3.1173
 9270SOL    HW239273   3.528   4.044   2.544 -0.1555 -0.5406 -0.4037
 9271SOL     OW39274   2.665   1.739   4.530 -0.0984 -0.1176  0.0665
 9271SOL    HW139275   2.652   1.646   4.551  2.5847 -0.6364 -0.6859
 9271SOL    HW239276   2.668   1.774   4.619 -1.1522  0.4668 -0.1195
 9272SOL     OW39277   4.688   0.189   3.521 -0.0648 -0.1851  0.1728
 9272SOL    HW139278   4.688   0.169   3.615  3.0792  0.4809  0.2900
 9272SOL    HW239279   4.692   0.284   3.538 -2.5155 -0.1764  0.8468
 9273SOL     OW39280   0.493   4.233   6.451 -0.3903  0.5355  0.2466
 9273SOL    HW139281   0.575   4.255   6.494 -0.5990  2.3216 -0.2568
 9273SOL    HW239282   0.420   4.261   6.507 -0.3131 -1.5553  1.4160
 9274SOL     OW39283   0.833   3.550   2.820  0.0923  0.2268  0.4030
 9274SOL    HW139284   0.771   3.502   2.766  1.0420 -2.5733  1.8327
 9274SOL    HW239285   0.807   3.516   2.905  1.7324 -1.3768  0.2448
 9275SOL     OW39286   0.255   3.581   7.677 -0.1935 -0.3563 -0.0621
 9275SOL    HW139287   0.320   3.576   7.606 -0.7396  0.1266 -0.5963
 9275SOL    HW239288   0.172   3.586   7.629 -0.5901  0.8277  0.7367
 9276SOL     OW39289   1.730   4.074  12.542  0.1281  0.0233 -0.2983
 9276SOL    HW139290   1.748   4.108  12.455 -2.7713  1.0418 -0.5116
 9276SOL    HW239291   1.722   4.153  12.595 -2.8389 -1.8099  2.0131
 9277SOL     OW39292   1.326   1.744   8.343 -0.2141 -0.2643 -0.2546
 9277SOL    HW139293   1.278   1.827   8.332 -0.6458 -0.4871 -0.0632
 9277SOL    HW239294   1.262   1.687   8.386 -0.1205 -0.8515 -0.8867
 9278SOL     OW39295   4.701   1.960  13.715  0.2230  0.7994 -0.1764
 9278SOL    HW139296   4.679   2.052  13.701 -0.6001  0.7124  0.5645
 9278SOL    HW239297   0.075   1.951  13.731  0.1705  1.0202  0.2395
 9279SOL     OW39298   3.960   4.651   7.842  0.5913  0.2388  0.3860
 9279SOL    HW139299   4.026   4.583   7.849 -0.3400 -0.8289 -1.4463
 9279SOL    HW239300   4.008   0.009   7.814  0.0468  0.3850 -0.1507
 9280SOL     OW39301   1.843   0.437   2.583 -0.4983  0.1196  0.3168
 9280SOL    HW139302   1.770   0.479   2.629  0.5682  0.5654  1.5794
 9280SOL    HW239303   1.797   0.371   2.531 -2.1697  1.0896  0.5505
 9281SOL     OW39304   3.237   3.346   2.510 -0.1410  0.3089  0.4872
 9281SOL    HW139305   3.329   3.333   2.533 -0.5479  1.2494  2.6813
 9281SOL    HW239306   3.210   3.270   2.562 -0.1591 -0.4382 -0.6130
 9282SOL     OW39307   2.511   2.995   4.216 -0.2109  0.0748 -0.5048
 9282SOL    HW139308   2.483   2.915   4.260  0.3358 -0.3739 -0.9753
 9282SOL    HW239309   2.505   3.060   4.286  0.5268  0.7633 -1.0777
 9283SOL     OW39310   3.525   3.256   0.348 -0.1704  0.5695  0.1380
 9283SOL    HW139311   3.593   3.189   0.339 -0.3626  0.4054 -0.0761
 9283SOL    HW239312   3.574   3.324   0.394  1.2138 -0.6564  0.4943
 9284SOL     OW39313   3.475   2.610  13.704  0.0495  0.1230  0.3830
 9284SOL    HW139314   3.566   2.616  13.735  0.6181  2.6507 -1.7557
 9284SOL    HW239315   3.432   2.530  13.736 -1.0495  1.5234  2.3747
 9285SOL     OW39316   4.328   0.970   8.727  0.0444  0.8576  0.1464
 9285SOL    HW139317   4.294   0.893   8.681  2.4879 -1.2222  1.8123
 9285SOL    HW239318   4.414   0.933   8.749 -1.1058 -1.4820  0.7494
 9286SOL     OW39319   0.241   1.299   8.599 -0.4875 -0.0591  0.3765
 9286SOL    HW139320   0.288   1.303   8.516 -0.1905  0.1698  0.5552
 9286SOL    HW239321   0.296   1.240   8.651  0.3453 -0.0339 -0.4650
 9287SOL     OW39322   4.619   1.668   7.266 -0.5621  0.0134 -0.1362
 9287SOL    HW139323   4.573   1.594   7.305 -1.8795 -0.0175 -1.7745
 9287SOL    HW239324   4.570   1.682   7.185 -2.1089 -1.3688  0.5681
 9288SOL     OW39325   0.695   2.197   6.435  0.2471  0.1178 -0.3279
 9288SOL    HW139326   0.638   2.188   6.511 -2.7181 -1.4013 -2.7381
 9288SOL    HW239327   0.772   2.235   6.478 -1.6681  1.8570  1.5618
 9289SOL     OW39328   2.427   4.058   7.929 -0.4272  0.3087 -1.2807
 9289SOL    HW139329   2.483   3.982   7.914 -3.1223 -2.2188  1.4968
 9289SOL    HW239330   2.397   4.048   8.019 -0.5173  0.8018 -1.2565
 9290SOL     OW39331   0.213   2.982   5.421  0.0634 -0.0306 -0.1471
 9290SOL    HW139332   0.268   3.048   5.378 -1.5609  0.0620 -2.1192
 9290SOL    HW239333   0.126   3.022   5.423 -0.2651 -0.7009 -1.0700
 9291SOL     OW39334   2.491   3.659  11.718 -0.0671 -0.4868  0.0146
 9291SOL    HW139335   2.493   3.565  11.735 -1.0541 -0.3674  0.7821
 9291SOL    HW239336   2.466   3.664  11.625  1.8729 -1.7166 -0.5623
 9292SOL     OW39337   1.269   3.687  14.638  0.0597  0.0167 -0.5978
 9292SOL    HW139338   1.325   3.741  14.582 -0.1494 -0.3560 -1.1763
 9292SOL    HW239339   1.337   3.658  14.698 -0.7705  0.6845  0.6610
 9293SOL     OW39340   2.318   3.221   8.178 -0.1936 -0.2877 -0.2894
 9293SOL    HW139341   2.408   3.206   8.206 -0.9522 -1.7872  1.3360
 9293SOL    HW239342   2.272   3.243   8.259  1.0437  2.9367 -0.4815
 9294SOL     OW39343   4.245   4.617   4.689  0.1663 -0.4613  0.4086
 9294SOL    HW139344   4.203   4.555   4.749  0.1188 -1.1520 -0.3412
 9294SOL    HW239345   4.195   4.696   4.710  1.4154 -0.4307  3.2470
 9295SOL     OW39346   1.636   2.982   7.654  0.2177 -0.3139 -0.4382
 9295SOL    HW139347   1.583   3.062   7.644  2.7909  1.4278 -0.1659
 9295SOL    HW239348   1.708   3.017   7.706  1.0234  0.6675 -2.2429
 9296SOL     OW39349   2.871   0.589   7.776 -0.2235 -0.2745  0.1327
 9296SOL    HW139350   2.776   0.591   7.781 -0.1732  2.7314 -0.7891
 9296SOL    HW239351   2.897   0.679   7.791  0.3945 -0.6415  1.2591
 9297SOL     OW39352   1.481   2.260   9.877  0.3874  0.1300 -0.1424
 9297SOL    HW139353   1.450   2.170   9.890 -0.9221  0.6224  0.1935
 9297SOL    HW239354   1.535   2.260   9.798 -1.4808  0.0570 -1.4404
 9298SOL     OW39355   4.376   4.277   4.394 -0.5840  0.2611 -0.0929
 9298SOL    HW139356   4.282   4.290   4.390 -0.6569  0.5305  2.4750
 9298SOL    HW239357   4.386   4.297   4.487 -0.7722  2.3452 -0.5060
 9299SOL     OW39358   0.940   3.533   9.395  0.3874  0.2407  0.6765
 9299SOL    HW139359   0.859   3.497   9.361  1.0915 -1.3808  0.7271
 9299SOL    HW239360   0.965   3.612   9.347 -4.0163 -0.7481 -3.1620
 9300SOL     OW39361   2.581   1.046   6.855  0.4143 -0.4278  0.1846
 9300SOL    HW139362   2.675   1.037   6.836  0.2442 -1.3981 -0.2247
 9300SOL    HW239363   2.554   0.959   6.885 -0.0239 -0.4965 -0.4169
 9301SOL     OW39364   1.104   1.368  17.434 -0.2000 -0.0652  0.1539
 9301SOL    HW139365   1.059   1.291  17.401 -0.0478 -0.1697  0.1888
 9301SOL    HW239366   1.027   1.425  17.440  1.1979  1.8121  0.2573
 9302SOL     OW39367   0.780   4.209   7.288  0.0541 -0.1630  0.5046
 9302SOL    HW139368   0.850   4.178   7.345  0.1893 -1.3113 -0.2965
 9302SOL    HW239369   0.802   4.170   7.203  0.4656  2.3457 -0.5565
 9303SOL     OW39370   1.906   2.219   9.857 -0.8367 -0.1592 -0.2828
 9303SOL    HW139371   1.860   2.135   9.869 -0.5046 -0.1513  1.0898
 9303SOL    HW239372   1.987   2.200   9.811 -0.0271 -1.5071  1.7014
 9304SOL     OW39373   3.746   2.025   4.163 -0.6985 -0.5263  0.1683
 9304SOL    HW139374   3.764   2.060   4.250  1.0412  0.8286 -0.7261
 9304SOL    HW239375   3.709   2.103   4.120  2.2357  0.2974 -0.9210
 9305SOL     OW39376   2.194   4.687  15.926 -0.6288 -0.3415 -0.0344
 9305SOL    HW139377   2.112   0.014  15.912 -0.4288  0.2340  0.7369
 9305SOL    HW239378   2.201   4.633  15.847 -1.6871 -2.4953  1.3346
 9306SOL     OW39379   3.832   2.736   7.577 -0.3114  0.0254 -0.4080
 9306SOL    HW139380   3.889   2.669   7.614 -0.7336 -0.4298 -0.5940
 9306SOL    HW239381   3.754   2.742   7.632  0.8325  0.2205  1.1972
 9307SOL     OW39382   4.659   2.456  12.678  0.5558  0.2286  0.0614
 9307SOL    HW139383   4.689   2.491  12.762 -1.2397  0.0841  0.7689
 9307SOL    HW239384   4.581   2.406  12.701 -1.2063  2.9302 -0.0011
 9308SOL     OW39385   2.267   1.502   5.490  0.2931 -0.4292 -0.0423
 9308SOL    HW139386   2.228   1.587   5.471  0.3267 -0.4446 -0.1767
 9308SOL    HW239387   2.210   1.469   5.559  0.1807  2.3690  1.2250
 9309SOL     OW39388   0.523   1.838   6.678 -0.1439 -0.0669 -0.1627
 9309SOL    HW139389   0.485   1.840   6.766  0.2043  1.3394 -0.0433
 9309SOL    HW239390   0.612   1.815   6.705  0.2384  0.5313 -0.9143
 9310SOL     OW39391   3.137   1.904  15.895  0.0460 -0.0556  0.4961
 9310SOL    HW139392   3.176   1.885  15.981  0.2624  0.4756  0.5102
 9310SOL    HW239393   3.207   1.876  15.836  0.9573 -0.8388  1.9627
 9311SOL     OW39394   1.085   2.545   4.463 -0.2459  0.2647  0.1942
 9311SOL    HW139395   1.031   2.624   4.464  3.3502  2.6870  0.0526
 9311SOL    HW239396   1.055   2.500   4.384 -1.1128 -3.0837  2.3949
 9312SOL     OW39397   0.982   1.207   5.541 -0.1580 -0.3761  0.4246
 9312SOL    HW139398   0.944   1.128   5.578 -0.6933 -0.1271  0.4130
 9312SOL    HW239399   0.911   1.255   5.499  0.0882  0.9472  1.4822
 9313SOL     OW39400   4.457   4.224   9.507 -0.0174 -0.1869  0.0102
 9313SOL    HW139401   4.505   4.278   9.444 -0.3043 -0.5005 -0.4784
 9313SOL    HW239402   4.414   4.162   9.448  1.4600 -0.9276 -0.2846
 9314SOL     OW39403   4.115   2.011   2.298 -0.0385 -0.2965  0.2426
 9314SOL    HW139404   4.152   1.956   2.366 -0.5395  0.8640  1.4574
 9314SOL    HW239405   4.182   2.073   2.267 -0.0708  0.3754  1.4904
 9315SOL     OW39406   1.159   3.855   5.099 -0.2461  0.2424 -0.0339
 9315SOL    HW139407   1.156   3.948   5.078 -0.3709  0.1966 -0.2120
 9315SOL    HW239408   1.188   3.850   5.191  0.9932 -1.5653 -0.5165
 9316SOL     OW39409   2.057   3.469   0.999 -0.6157 -0.0311  0.4564
 9316SOL    HW139410   2.094   3.390   0.960  3.0129  1.5041  0.8789
 9316SOL    HW239411   1.971   3.482   0.958 -1.2443 -0.2036  1.6971
 9317SOL     OW39412   4.637   1.164   2.399 -0.1261 -0.3309  0.3020
 9317SOL    HW139413   4.607   1.235   2.342 -1.6262 -2.0468 -1.0313
 9317SOL    HW239414   4.644   1.093   2.335 -0.0326  0.6533 -0.7711
 9318SOL     OW39415   0.756   0.847   7.049 -0.4738  0.1137 -0.0391
 9318SOL    HW139416   0.763   0.752   7.053  0.9164  0.1149 -2.0572
 9318SOL    HW239417   0.674   0.869   7.092  0.7943  1.4172  1.7024
 9319SOL     OW39418   1.214   4.033  17.502  0.1628  0.1344  0.2155
 9319SOL    HW139419   1.301   4.037  17.540 -0.0688 -0.2036  0.7804
 9319SOL    HW239420   1.222   3.946  17.462 -0.7719  0.9215 -1.7218
 9320SOL     OW39421   2.398   4.332   4.920 -0.1246  0.6134  0.0185
 9320SOL    HW139422   2.386   4.337   4.826 -1.5102 -0.4031  0.1377
 9320SOL    HW239423   2.429   4.242   4.929 -0.3970  0.4691 -0.5311
 9321SOL     OW39424   1.390   4.038  16.576 -0.0337 -0.4461 -0.1444
 9321SOL    HW139425   1.335   4.116  16.567 -0.7319 -0.9790 -0.5874
 9321SOL    HW239426   1.463   4.068  16.630  2.0588 -2.2589 -1.9516
 9322SOL     OW39427   1.165   0.563   0.558  0.0053 -0.8260  0.0734
 9322SOL    HW139428   1.104   0.632   0.585 -0.9331 -1.8807  0.6273
 9322SOL    HW239429   1.106   0.488   0.562 -1.2898  0.3261  3.2243
 9323SOL     OW39430   0.734   3.956   3.802  0.1985  0.1283 -0.3367
 9323SOL    HW139431   0.791   3.889   3.764 -0.3603  0.0281 -0.9979
 9323SOL    HW239432   0.663   3.978   3.742  0.0138 -2.0938 -0.9409
 9324SOL     OW39433   3.443   2.277   1.725  0.0899 -0.1737 -0.0052
 9324SOL    HW139434   3.458   2.221   1.801 -2.5396 -1.9483 -0.7725
 9324SOL    HW239435   3.527   2.274   1.679 -0.4779  0.1385 -1.0831
 9325SOL     OW39436   3.369   4.099   6.641  0.6282  0.6934  0.5348
 9325SOL    HW139437   3.312   4.053   6.703  0.5695 -0.9311 -0.7379
 9325SOL    HW239438   3.391   4.178   6.692 -2.5377  1.5922  0.5370
 9326SOL     OW39439   2.714   3.252   2.381 -0.4108  0.0395 -0.1240
 9326SOL    HW139440   2.665   3.316   2.433 -0.3760 -0.1981  0.2014
 9326SOL    HW239441   2.676   3.180   2.432  0.5886 -0.4991 -0.1438
 9327SOL     OW39442   0.382   3.112   2.281 -0.7070  0.3268 -0.5579
 9327SOL    HW139443   0.430   3.066   2.350  1.1958 -0.2120 -2.2392
 9327SOL    HW239444   0.293   3.119   2.315 -1.3926  2.5261 -2.8389
 9328SOL     OW39445   3.093   3.380   2.281  0.4687 -0.5005  0.4050
 9328SOL    HW139446   3.029   3.404   2.348  3.8682 -1.4523  3.9628
 9328SOL    HW239447   3.151   3.324   2.331  0.7368 -1.5190 -1.0438
 9329SOL     OW39448   0.102   1.573   0.809 -0.1418 -0.0044  0.5465
 9329SOL    HW139449   0.165   1.574   0.881  0.9324 -1.7199 -0.3432
 9329SOL    HW239450   0.132   1.498   0.758 -0.8618  0.2029 -0.1724
 9330SOL     OW39451   4.208   4.061   6.462 -0.8100 -0.3710 -0.3285
 9330SOL    HW139452   4.220   3.996   6.393 -2.6010 -1.3846  0.3167
 9330SOL    HW239453   4.206   3.995   6.531 -0.2033 -0.7218 -0.6522
 9331SOL     OW39454   1.765   0.040   7.698  0.4293  0.1837  0.5238
 9331SOL    HW139455   1.722   4.707   7.766 -0.9856 -0.0247 -0.5253
 9331SOL    HW239456   1.708   0.117   7.694 -1.3342 -1.1062  0.9016
 9332SOL     OW39457   3.992   3.503   8.623 -0.4895 -0.5513  0.5445
 9332SOL    HW139458   3.967   3.420   8.582  2.0626 -0.4025 -1.3177
 9332SOL    HW239459   3.906   3.514   8.663 -1.2125 -2.0367 -0.5910
 9333SOL     OW39460   3.422   0.276   3.732  0.3708  0.6662  0.5213
 9333SOL    HW139461   3.418   0.217   3.807  0.6281 -0.4026 -0.2979
 9333SOL    HW239462   3.441   0.215   3.660  0.3477  0.4683  0.6845
 9334SOL     OW39463   2.359   0.438  13.349  0.5279  0.0244 -0.2061
 9334SOL    HW139464   2.288   0.500  13.368  0.2648 -0.8664  1.6785
 9334SOL    HW239465   2.379   0.423  13.442 -1.3138  1.9350  0.5050
 9335SOL     OW39466   1.214   0.047   9.513 -0.2215 -0.0972 -0.4499
 9335SOL    HW139467   1.224   0.093   9.596 -1.6100 -4.4047  2.0939
 9335SOL    HW239468   1.243   0.111   9.449 -1.6922  0.5578 -0.4346
 9336SOL     OW39469   2.041   0.410  16.096 -0.0699  0.1801  0.4048
 9336SOL    HW139470   2.075   0.478  16.153  0.1045  0.1845  0.2968
 9336SOL    HW239471   1.996   0.468  16.034 -0.4391 -0.5782 -0.0459
 9337SOL     OW39472   1.077   1.864   9.232  0.4425 -0.2092 -0.0566
 9337SOL    HW139473   1.016   1.802   9.273  0.7180 -0.1258  0.4812
 9337SOL    HW239474   1.025   1.945   9.225  0.4147 -0.1405  0.9126
 9338SOL     OW39475   4.604   1.961   7.682 -0.0547 -0.1184  0.3475
 9338SOL    HW139476   4.554   2.028   7.727 -0.0663  0.4091 -0.4360
 9338SOL    HW239477   4.590   2.000   7.595  0.9086 -1.8427 -0.5838
 9339SOL     OW39478   4.407   3.878  12.525  0.2298 -0.2091 -0.3626
 9339SOL    HW139479   4.334   3.817  12.514 -0.1503  0.8801 -4.0133
 9339SOL    HW239480   4.467   3.842  12.459  1.6065 -0.4942  1.0542
 9340SOL     OW39481   1.777   3.418  14.305  0.1128 -0.1040  0.8468
 9340SOL    HW139482   1.849   3.355  14.295 -1.0184 -1.0720 -1.1433
 9340SOL    HW239483   1.700   3.362  14.313  0.4433 -0.2924  2.5352
 9341SOL     OW39484   1.184   1.547   4.184 -0.2431  0.0715 -0.3889
 9341SOL    HW139485   1.225   1.495   4.115 -1.7236 -1.6630  0.0451
 9341SOL    HW239486   1.222   1.507   4.263 -1.5952  0.1898  0.3183
 9342SOL     OW39487   0.792   1.516   9.785 -0.0584 -0.5374 -0.1327
 9342SOL    HW139488   0.696   1.519   9.778 -0.0338 -0.8210 -0.6301
 9342SOL    HW239489   0.795   1.443   9.847  1.3525  0.5026  1.0034
 9343SOL     OW39490   2.393   2.292   1.979  0.0931  0.3243 -0.0434
 9343SOL    HW139491   2.317   2.239   2.003 -0.2935  1.0115  0.2496
 9343SOL    HW239492   2.351   2.363   1.930  0.6633  1.1615  0.6879
 9344SOL     OW39493   2.508   1.452   6.240 -0.2788  0.0508 -0.0633
 9344SOL    HW139494   2.557   1.525   6.202 -0.0239  1.1621  2.3716
 9344SOL    HW239495   2.573   1.384   6.221 -2.2961 -1.9634  0.2602
 9345SOL     OW39496   0.395   0.398   6.979  0.2697  0.1298 -0.1816
 9345SOL    HW139497   0.396   0.438   7.066  2.5953 -1.8368  0.6668
 9345SOL    HW239498   0.328   0.330   6.986 -0.8090  1.1440 -0.6416
 9346SOL     OW39499   2.707   0.111   3.972  0.1068  0.2167  0.4493
 9346SOL    HW139500   2.646   0.181   3.996 -0.1373 -0.0889  0.7001
 9346SOL    HW239501   2.692   0.036   4.029 -1.2985 -1.0536 -1.5881
 9347SOL     OW39502   4.555   4.375   6.194 -0.5623  0.3435 -0.3675
 9347SOL    HW139503   4.643   4.379   6.232 -1.2661 -1.1424  1.4223
 9347SOL    HW239504   4.562   4.297   6.139 -0.2635  1.7248 -2.2921
 9348SOL     OW39505   0.118   0.913  14.844  0.1677  0.5838 -0.5197
 9348SOL    HW139506   0.077   0.975  14.783 -1.1902 -0.5627 -0.7803
 9348SOL    HW239507   0.044   0.856  14.867  0.4090  1.4244  2.2853
 9349SOL     OW39508   3.322   2.019   4.193  0.3683 -0.4644  0.0212
 9349SOL    HW139509   3.263   1.964   4.141 -1.4059  2.7355 -1.3182
 9349SOL    HW239510   3.292   1.988   4.278 -0.7822  2.1904  0.5785
 9350SOL     OW39511   1.475   3.430   0.644 -0.0608  0.0728  0.0357
 9350SOL    HW139512   1.448   3.412   0.554 -1.6412  2.5206  0.0253
 9350SOL    HW239513   1.389   3.431   0.684 -0.1387  1.2544 -0.1469
 9351SOL     OW39514   1.008   0.407   9.958 -0.1630  0.5171 -0.0200
 9351SOL    HW139515   0.940   0.472   9.977 -1.8291 -1.2879  0.2518
 9351SOL    HW239516   0.998   0.351  10.035  0.6387 -0.5328 -0.6827
 9352SOL     OW39517   1.481   2.433   6.308 -0.0192  0.1154  0.3131
 9352SOL    HW139518   1.522   2.349   6.327 -0.2099 -0.7304 -2.9972
 9352SOL    HW239519   1.430   2.413   6.229 -0.2918 -0.2520  0.5813
 9353SOL     OW39520   1.829   4.326  13.363  0.0588 -0.8670 -0.3834
 9353SOL    HW139521   1.868   4.245  13.394 -0.2318 -0.7344  0.3353
 9353SOL    HW239522   1.788   4.346  13.447  0.6573 -1.7281  0.1043
 9354SOL     OW39523   3.595   4.669   0.937  0.0431  0.3073  0.5702
 9354SOL    HW139524   3.535   4.698   1.006  0.0033  2.2829 -0.2660
 9354SOL    HW239525   3.673   4.648   0.988  0.0067  1.8404  1.2521
 9355SOL     OW39526   2.141   1.722  15.462 -0.0648 -0.7314  0.1430
 9355SOL    HW139527   2.057   1.763  15.484  0.1268 -0.9143  1.2166
 9355SOL    HW239528   2.205   1.768  15.516  2.1672 -2.0666 -1.3747
 9356SOL     OW39529   1.054   3.174  12.058 -0.2819  0.2646  0.1770
 9356SOL    HW139530   1.004   3.138  12.132 -2.7088  0.8930 -1.1870
 9356SOL    HW239531   1.123   3.109  12.043 -0.9418 -1.0802  2.9301
 9357SOL     OW39532   1.305   1.152   8.818 -0.3026  0.1449  0.2402
 9357SOL    HW139533   1.266   1.078   8.771 -0.1257 -0.7393  1.4889
 9357SOL    HW239534   1.291   1.129   8.910  1.8318 -2.4455 -0.0879
 9358SOL     OW39535   1.461   0.104   7.628  0.4286 -0.1182 -0.6231
 9358SOL    HW139536   1.366   0.114   7.617  0.7632  1.7950 -1.6745
 9358SOL    HW239537   1.486   0.175   7.569  0.1587  0.2806 -0.2548
 9359SOL     OW39538   0.877   2.362   2.376 -0.5037 -0.5185  0.2123
 9359SOL    HW139539   0.835   2.425   2.318 -0.1261 -0.8766 -0.4487
 9359SOL    HW239540   0.900   2.422   2.447  1.6110  0.2224 -1.0869
 9360SOL     OW39541   1.756   2.470   8.562  0.2279  0.3500 -0.6714
 9360SOL    HW139542   1.671   2.455   8.604  1.5751 -1.5186  1.3496
 9360SOL    HW239543   1.730   2.497   8.474  0.6955  2.4525 -0.1542
 9361SOL     OW39544   1.695   1.889   6.064  0.0777 -0.5116 -0.1223
 9361SOL    HW139545   1.701   1.805   6.109  0.4333 -0.8223 -0.7402
 9361SOL    HW239546   1.599   1.888   6.065  0.0616 -1.3629 -1.2374
 9362SOL     OW39547   1.870   1.863   2.307 -0.1525  0.0560 -0.3054
 9362SOL    HW139548   1.931   1.830   2.241  1.1279  0.3051  0.7653
 9362SOL    HW239549   1.920   1.844   2.386 -0.3314  3.2232  0.5359
 9363SOL     OW39550   0.523   4.314   6.162 -0.3528 -0.2641 -0.2217
 9363SOL    HW139551   0.592   4.356   6.110 -0.2391  0.1582  0.2682
 9363SOL    HW239552   0.498   4.378   6.228  0.6831  0.0312 -0.1079
 9364SOL     OW39553   1.415   0.691   5.221 -0.2958 -0.3762 -0.5328
 9364SOL    HW139554   1.427   0.716   5.312 -0.6438 -1.3824 -0.2081
 9364SOL    HW239555   1.376   0.770   5.183 -0.7906 -0.1031  0.5438
 9365SOL     OW39556   0.544   4.252  12.503 -0.5215  0.0990  0.2291
 9365SOL    HW139557   0.561   4.338  12.465  0.6341 -0.7840 -1.2527
 9365SOL    HW239558   0.624   4.201  12.496  0.7704  1.8204  2.5398
 9366SOL     OW39559   1.147   0.514   6.266  0.0291 -0.1277 -0.0182
 9366SOL    HW139560   1.062   0.558   6.277  0.1837  0.5567 -1.5452
 9366SOL    HW239561   1.159   0.518   6.171 -2.3551 -0.2475 -0.3338
 9367SOL     OW39562   3.596   0.461   3.119 -0.0434 -0.2919 -0.0705
 9367SOL    HW139563   3.689   0.482   3.110 -0.1536  1.0548  1.9257
 9367SOL    HW239564   3.559   0.549   3.117  0.6873  0.0278  0.9457
 9368SOL     OW39565   1.205   0.878   5.786 -0.4607  0.0546 -0.6078
 9368SOL    HW139566   1.178   0.832   5.866  3.0535 -1.1931 -0.1614
 9368SOL    HW239567   1.226   0.964   5.821  0.5990 -0.0732 -0.9353
 9369SOL     OW39568   1.565   1.826   3.254  0.0141  0.2320  0.5230
 9369SOL    HW139569   1.625   1.901   3.251  1.2503 -0.7259  1.0787
 9369SOL    HW239570   1.622   1.757   3.289  1.1092  0.3215 -1.0737
 9370SOL     OW39571   2.149   1.310   4.238 -0.1661 -0.0327  0.6282
 9370SOL    HW139572   2.186   1.222   4.232 -0.1000 -0.1844  3.0382
 9370SOL    HW239573   2.090   1.311   4.163  0.0523 -0.0984  0.4556
 9371SOL     OW39574   3.405   2.023  14.940  1.0155  0.3130 -0.3196
 9371SOL    HW139575   3.373   1.949  14.888  2.0123 -0.6632  0.4300
 9371SOL    HW239576   3.356   2.093  14.897  0.7546  0.3003 -0.0391
 9372SOL     OW39577   2.113   2.771   3.786  0.4183  0.2227  0.2364
 9372SOL    HW139578   2.102   2.760   3.880  2.1650  0.3681  0.4596
 9372SOL    HW239579   2.144   2.862   3.790  2.4473 -0.4667  0.3616
 9373SOL     OW39580   1.493   4.265   0.408  0.1505 -0.4545 -0.3812
 9373SOL    HW139581   1.585   4.241   0.403  0.1539 -0.9531  2.1074
 9373SOL    HW239582   1.490   4.323   0.332 -1.3159  0.6190  0.4802
 9374SOL     OW39583   1.137   3.286   5.482  0.2619 -0.1581 -0.1905
 9374SOL    HW139584   1.112   3.200   5.448 -0.6594 -0.1829  0.5507
 9374SOL    HW239585   1.148   3.334   5.400  1.5994  3.2854  2.0103
 9375SOL     OW39586   3.766   1.842   7.921  0.7654  0.4459 -0.5146
 9375SOL    HW139587   3.725   1.854   8.006 -0.2871 -1.9514 -0.6777
 9375SOL    HW239588   3.847   1.892   7.929  0.0198  1.3609  1.0751
 9376SOL     OW39589   2.375   1.808  15.598 -0.0318  0.3973 -0.3723
 9376SOL    HW139590   2.430   1.730  15.584 -1.0695 -0.0923 -1.7002
 9376SOL    HW239591   2.399   1.871  15.530  1.1610  1.0421  0.6433
 9377SOL     OW39592   3.908   0.145   8.484 -0.2265  0.2725  0.1668
 9377SOL    HW139593   3.946   0.227   8.451 -0.4172  0.0363 -0.6454
 9377SOL    HW239594   3.817   0.162   8.460 -0.5709  0.2683  1.4655
 9378SOL     OW39595   1.220   1.013   6.535 -0.0797 -0.6960 -0.3516
 9378SOL    HW139596   1.292   1.005   6.473  0.4674  1.4418 -0.0108
 9378SOL    HW239597   1.237   0.945   6.600 -1.1029  0.5720  1.2698
 9379SOL     OW39598   1.905   3.912   0.260  0.1354 -0.5610  0.3967
 9379SOL    HW139599   1.908   3.827   0.305 -2.5015 -1.3624 -0.8938
 9379SOL    HW239600   2.000   3.919   0.253 -0.0447 -0.1044 -1.5609
 9380SOL     OW39601   4.607   1.297   3.643 -0.1195 -0.3180 -0.2865
 9380SOL    HW139602   4.585   1.246   3.566 -2.7571 -1.7282  1.4174
 9380SOL    HW239603   4.695   1.326   3.617  0.2353 -1.9638 -0.9306
 9381SOL     OW39604   4.130   4.042   5.127 -0.3041 -0.3150  0.1624
 9381SOL    HW139605   4.218   4.079   5.127 -2.2933  4.3804 -0.2991
 9381SOL    HW239606   4.138   3.984   5.050  1.5167  1.4499 -0.9874
 9382SOL     OW39607   0.645   2.646   1.967 -0.4742 -0.2873  0.0031
 9382SOL    HW139608   0.696   2.567   1.986  0.8787  0.5700 -0.0957
 9382SOL    HW239609   0.722   2.698   1.944 -2.0459  1.9690 -0.0579
 9383SOL     OW39610   4.400   1.348   4.278  0.2413  0.0061 -0.3902
 9383SOL    HW139611   4.383   1.324   4.187 -2.1228  1.4016 -0.3092
 9383SOL    HW239612   4.396   1.444   4.278 -2.5185 -0.1135  0.6586
 9384SOL     OW39613   3.349   1.266   1.466 -0.9437  0.2312  0.0384
 9384SOL    HW139614   3.329   1.174   1.452  0.7176 -0.0816 -0.3077
 9384SOL    HW239615   3.333   1.280   1.559 -1.3337  2.5300 -0.3782
 9385SOL     OW39616   1.938   1.779   2.005  0.9203  0.0557  0.2016
 9385SOL    HW139617   1.978   1.765   1.919 -0.3805  0.8678 -0.5157
 9385SOL    HW239618   1.989   1.710   2.049  1.2224 -0.7500 -1.4077
 9386SOL     OW39619   2.391   4.161   1.467 -0.2194  0.8258  0.2483
 9386SOL    HW139620   2.373   4.117   1.384 -0.5605  1.0572  0.2020
 9386SOL    HW239621   2.337   4.114   1.529  0.2561  0.6422  0.5256
 9387SOL     OW39622   3.807   4.652   3.181 -0.0941 -0.3672  0.0231
 9387SOL    HW139623   3.893   4.694   3.174  0.3420 -1.2571  0.0157
 9387SOL    HW239624   3.752   4.709   3.129 -2.6303 -2.4559  0.4472
 9388SOL     OW39625   0.459   4.174   7.145 -0.0655 -0.3412  0.8743
 9388SOL    HW139626   0.444   4.185   7.239 -0.2908  1.4703  0.6296
 9388SOL    HW239627   0.371   4.190   7.111 -0.2324 -0.6182  1.1851
 9389SOL     OW39628   2.652   0.276   0.413  0.3155  0.5021 -0.5245
 9389SOL    HW139629   2.632   0.233   0.496 -2.3856  0.2369 -1.2989
 9389SOL    HW239630   2.737   0.317   0.431  0.9479 -0.9114 -0.3343
 9390SOL     OW39631   4.293   2.853  14.516 -0.0840  0.6345 -0.0092
 9390SOL    HW139632   4.205   2.828  14.487  0.8606 -0.1222 -2.1785
 9390SOL    HW239633   4.318   2.926  14.460 -1.4064  2.2624  1.5151
 9391SOL     OW39634   3.983   0.131  10.143 -0.0574  0.3686 -0.0210
 9391SOL    HW139635   3.897   0.162  10.173 -0.4576 -0.4703 -0.2997
 9391SOL    HW239636   4.024   0.121  10.229 -0.7976  2.9690  0.6241
 9392SOL     OW39637   0.710   0.487  13.487  0.6383  0.0988  0.5401
 9392SOL    HW139638   0.753   0.449  13.564  1.8719 -2.4645 -1.4073
 9392SOL    HW239639   0.775   0.530  13.432 -2.0085  0.6693 -2.1078
 9393SOL     OW39640   3.408   2.950   8.128  0.1888  0.4582 -0.0111
 9393SOL    HW139641   3.355   3.024   8.097 -4.2051 -2.0120  1.6049
 9393SOL    HW239642   3.423   2.897   8.050 -0.5109 -1.3512  1.0836
 9394SOL     OW39643   3.619   3.339   0.808  0.4672 -0.9522 -0.1363
 9394SOL    HW139644   3.637   3.287   0.886  0.1885 -0.9231 -0.0518
 9394SOL    HW239645   3.704   3.335   0.765  1.9028  1.2687  2.4781
 9395SOL     OW39646   2.333   3.835  15.153 -0.3714  0.4911  0.4605
 9395SOL    HW139647   2.400   3.900  15.136 -0.6391  1.3990  2.7966
 9395SOL    HW239648   2.261   3.855  15.093 -0.6626  1.8591  1.2606
 9396SOL     OW39649   4.669   0.851  11.545 -0.6001  0.3932  0.1505
 9396SOL    HW139650   4.676   0.858  11.449 -1.4780  0.1784  0.0720
 9396SOL    HW239651   4.614   0.924  11.571 -0.2046  1.2855 -1.5104
 9397SOL     OW39652   2.512   2.836   1.418 -0.7422 -0.1568 -0.2853
 9397SOL    HW139653   2.548   2.836   1.329  1.6484 -2.9964  0.6607
 9397SOL    HW239654   2.506   2.743   1.440  1.0725 -0.0347  0.7341
 9398SOL     OW39655   3.196   4.358   9.296  0.0056 -0.5541  0.0628
 9398SOL    HW139656   3.187   4.453   9.305  1.4869 -0.4792  0.8252
 9398SOL    HW239657   3.114   4.338   9.341  0.7721  0.0541  1.7385
 9399SOL     OW39658   1.715   2.058  15.484  0.8249  0.2809 -0.0387
 9399SOL    HW139659   1.628   2.096  15.475 -0.4555 -2.7494 -0.3984
 9399SOL    HW239660   1.753   2.091  15.402  1.0502 -0.1907 -0.1284
 9400SOL     OW39661   4.448   2.407   2.796 -0.7665  0.0469  0.6123
 9400SOL    HW139662   4.541   2.403   2.772 -0.4556  0.5855  1.7560
 9400SOL    HW239663   4.408   2.408   2.709 -0.9040  1.1013  0.6933
 9401SOL     OW39664   2.287   3.675   8.477 -0.1935 -0.1429  0.0514
 9401SOL    HW139665   2.297   3.634   8.391 -0.3368 -0.1197  0.0245
 9401SOL    HW239666   2.295   3.599   8.536  0.9100 -0.7950 -0.9472
 9402SOL     OW39667   2.725   4.028  12.084 -0.2580 -0.2283  0.1228
 9402SOL    HW139668   2.743   3.934  12.091 -0.6868 -0.3886 -0.9267
 9402SOL    HW239669   2.712   4.050  12.176  1.9540  0.4994  0.2628
 9403SOL     OW39670   4.036   0.894   6.081 -0.3494 -0.5886  0.5440
 9403SOL    HW139671   4.113   0.858   6.126  1.5818  1.1704 -1.3678
 9403SOL    HW239672   3.964   0.837   6.105 -0.4773 -0.0624  1.4462
 9404SOL     OW39673   2.649   4.630   8.849  0.5058  0.2566 -0.2475
 9404SOL    HW139674   2.617   4.680   8.923  1.3332  1.4856 -0.7191
 9404SOL    HW239675   2.694   4.556   8.890 -1.5481 -1.2703 -0.7464
 9405SOL     OW39676   4.451   4.490   3.166 -0.2239 -0.2679  0.1110
 9405SOL    HW139677   4.365   4.528   3.145 -0.7298 -1.9545 -0.9257
 9405SOL    HW239678   4.439   4.485   3.261  1.8958  1.1454  0.4571
 9406SOL     OW39679   0.758   4.085   5.374  0.1994 -0.1343  0.0180
 9406SOL    HW139680   0.716   4.021   5.315  0.9544  0.8220 -1.5592
 9406SOL    HW239681   0.715   4.059   5.455  3.6106 -0.6549  1.6591
 9407SOL     OW39682   0.823   1.972   9.370  0.0576 -0.1435  0.2676
 9407SOL    HW139683   0.763   2.023   9.425 -1.9587 -0.9180 -1.2247
 9407SOL    HW239684   0.836   2.023   9.291 -0.8034  1.5426  1.2204
 9408SOL     OW39685   2.615   2.961  15.005 -0.0231 -0.2748 -0.2660
 9408SOL    HW139686   2.535   2.981  14.957 -0.6667  0.5667  1.1460
 9408SOL    HW239687   2.611   2.865  15.003 -1.2548 -0.1952 -1.4591
 9409SOL     OW39688   3.618   3.372   6.247 -0.1300 -0.5230  0.7309
 9409SOL    HW139689   3.614   3.281   6.217 -0.3272 -0.1484 -0.4135
 9409SOL    HW239690   3.664   3.356   6.329  0.2523  0.0620  0.6296
 9410SOL     OW39691   3.871   2.367  11.346  0.0795  0.2530  0.0475
 9410SOL    HW139692   3.924   2.298  11.386 -0.0067  1.5562  2.4414
 9410SOL    HW239693   3.808   2.385  11.415  0.4436  2.7623 -0.2860
 9411SOL     OW39694   0.324   3.503   3.982  0.2535 -0.0214  0.3818
 9411SOL    HW139695   0.234   3.533   3.971  0.3192  0.3719  0.9199
 9411SOL    HW239696   0.366   3.571   3.928 -0.8644 -0.3346 -0.8677
 9412SOL     OW39697   1.553   2.923   0.611 -0.8884  0.5910 -0.4321
 9412SOL    HW139698   1.620   2.930   0.543  0.8214  0.4449  1.2141
 9412SOL    HW239699   1.476   2.886   0.569 -1.4640  1.1812  0.1134
 9413SOL     OW39700   0.083   3.585  10.348  0.8343 -0.0592 -0.2418
 9413SOL    HW139701   0.086   3.673  10.385 -0.7435 -0.6715  1.3575
 9413SOL    HW239702   0.120   3.610  10.263 -0.3449  0.6481 -0.5453
 9414SOL     OW39703   2.616   1.488   9.005 -0.0055  0.4257  0.2370
 9414SOL    HW139704   2.639   1.577   8.980  0.3449 -0.3091 -2.0756
 9414SOL    HW239705   2.540   1.469   8.950  0.9074  0.1726 -0.9474
 9415SOL     OW39706   1.598   0.004  12.193  0.4343 -0.0447 -0.2296
 9415SOL    HW139707   1.510   0.041  12.183 -1.0762 -3.1105  1.7088
 9415SOL    HW239708   1.642   0.073  12.143  0.2942  1.0385  1.1592
 9416SOL     OW39709   2.789   3.328   4.495  0.0586  0.2559  0.3844
 9416SOL    HW139710   2.825   3.287   4.573 -2.5210 -1.3732  0.7366
 9416SOL    HW239711   2.838   3.409   4.482  0.4129  0.1708  1.2325
 9417SOL     OW39712   1.130   1.725   5.929  0.3988 -0.1378  1.0545
 9417SOL    HW139713   1.172   1.747   5.845  0.7122  1.3133  1.5976
 9417SOL    HW239714   1.146   1.631   5.917  0.5016  0.3160 -2.3639
 9418SOL     OW39715   0.507   3.977  16.838 -0.0281 -0.0675  0.0055
 9418SOL    HW139716   0.589   3.970  16.789  0.0367  0.2423  0.0709
 9418SOL    HW239717   0.530   3.936  16.921 -2.4852 -1.2892  0.0862
 9419SOL     OW39718   3.428   2.172   7.886 -0.2352 -0.4411  0.1691
 9419SOL    HW139719   3.407   2.188   7.977  2.8852  1.1570  0.6193
 9419SOL    HW239720   3.351   2.128   7.849 -0.4364 -2.6456  3.2187
 9420SOL     OW39721   2.550   3.041  11.898  0.2074  0.0018  0.3034
 9420SOL    HW139722   2.598   3.123  11.909  0.5351 -0.0464 -0.7594
 9420SOL    HW239723   2.583   2.983  11.967  1.0831 -1.7864 -1.6134
 9421SOL     OW39724   1.267   0.653   0.856  0.0687  0.2320 -0.6550
 9421SOL    HW139725   1.339   0.591   0.868  0.4247  0.5438 -1.1883
 9421SOL    HW239726   1.194   0.606   0.815  0.3454 -1.4698  0.7723
 9422SOL     OW39727   2.632   0.457   8.356  0.0948 -0.6418  0.5074
 9422SOL    HW139728   2.578   0.391   8.399  1.4434 -1.2786  1.2651
 9422SOL    HW239729   2.683   0.416   8.287  0.4571  1.0697 -0.2348
 9423SOL     OW39730   2.968   0.622   3.213 -0.0116  0.3216 -0.3202
 9423SOL    HW139731   2.980   0.670   3.295  1.9564  0.4803 -0.7199
 9423SOL    HW239732   3.059   0.595   3.207 -0.4305 -1.1411 -0.1205
 9424SOL     OW39733   1.691   3.401  17.322  0.2325 -0.0507  0.0304
 9424SOL    HW139734   1.709   3.464  17.253 -2.5737 -0.0760 -0.7544
 9424SOL    HW239735   1.773   3.353  17.325  0.7022  0.8473  1.5586
 9425SOL     OW39736   4.491   0.511  13.576 -0.0195  0.1013  0.1614
 9425SOL    HW139737   4.507   0.462  13.495  0.1612  0.0718  0.2155
 9425SOL    HW239738   4.553   0.583  13.583 -0.5810  0.5114  0.8850
 9426SOL     OW39739   1.790   1.990   3.299  0.8253 -0.2715  0.1665
 9426SOL    HW139740   1.804   2.082   3.325 -0.6571 -0.3865  1.3605
 9426SOL    HW239741   1.834   1.942   3.369 -0.4869 -0.3280  0.9536
 9427SOL     OW39742   4.411   3.631  14.370 -0.2764 -0.1164 -0.8245
 9427SOL    HW139743   4.370   3.588  14.445  0.0608  0.8829 -0.0695
 9427SOL    HW239744   4.434   3.556  14.315 -0.7968  0.1938 -1.4582
 9428SOL     OW39745   1.437   3.083   0.807 -0.4168 -0.5182  0.2354
 9428SOL    HW139746   1.474   3.059   0.722  1.1889  0.4935  0.6277
 9428SOL    HW239747   1.348   3.049   0.804 -0.8535  0.7002 -0.5305
 9429SOL     OW39748   3.091   0.697  16.822 -0.2531  0.4962 -0.2631
 9429SOL    HW139749   3.032   0.726  16.891  1.3273  0.4921  1.0966
 9429SOL    HW239750   3.165   0.677  16.879 -1.0983 -2.3905 -0.1902
 9430SOL     OW39751   0.349   0.687   3.412  0.6034 -0.2319 -0.7852
 9430SOL    HW139752   0.274   0.629   3.401  0.5140 -0.3640  0.5685
 9430SOL    HW239753   0.321   0.746   3.481  1.2588 -0.0269 -0.6897
 9431SOL     OW39754   4.086   2.536  15.076 -0.3368  0.1394 -0.5609
 9431SOL    HW139755   4.166   2.486  15.091 -1.8454 -1.8799  0.7761
 9431SOL    HW239756   4.021   2.466  15.073 -1.5456  1.2212  0.4306
 9432SOL     OW39757   4.502   3.281   9.191  0.5049 -0.1275 -0.0980
 9432SOL    HW139758   4.410   3.271   9.168  0.8859 -1.4419 -1.0169
 9432SOL    HW239759   4.506   3.335   9.270 -4.2319  1.1153 -0.7363
 9433SOL     OW39760   4.397   3.901   8.446  0.2695 -0.5708  0.0208
 9433SOL    HW139761   4.418   3.812   8.418  1.8371 -0.1591 -0.0994
 9433SOL    HW239762   4.301   3.903   8.448  0.2097 -1.4925 -1.4934
 9434SOL     OW39763   4.282   1.838   3.611 -1.0078  0.1236 -0.3141
 9434SOL    HW139764   4.360   1.893   3.606  0.4277 -1.9606 -0.7581
 9434SOL    HW239765   4.311   1.772   3.548  0.7816 -1.4010  2.0785
 9435SOL     OW39766   2.138   0.335   9.172  0.0302 -0.0508 -0.0122
 9435SOL    HW139767   2.082   0.385   9.113  0.1968  0.3760  0.1926
 9435SOL    HW239768   2.155   0.252   9.127 -0.3343 -0.5690  0.8040
 9436SOL     OW39769   0.440   2.397   4.428  0.0983  0.0033 -0.2457
 9436SOL    HW139770   0.348   2.373   4.437  0.1850 -0.9230 -1.7695
 9436SOL    HW239771   0.446   2.473   4.485 -2.5477 -0.3118  0.4302
 9437SOL     OW39772   1.300   3.536  11.084 -0.1656 -0.0482  0.2916
 9437SOL    HW139773   1.381   3.507  11.044 -0.7182 -1.2470  0.0487
 9437SOL    HW239774   1.296   3.463  11.146 -2.1662 -0.1900 -0.0053
 9438SOL     OW39775   0.686   3.817   7.295 -0.4474  0.1003 -0.0022
 9438SOL    HW139776   0.724   3.897   7.259  0.4252 -0.2492  0.1398
 9438SOL    HW239777   0.597   3.847   7.314 -1.2552 -1.4658 -1.2536
 9439SOL     OW39778   0.043   2.608   4.923 -0.0519 -0.0089 -0.0750
 9439SOL    HW139779   0.004   2.684   4.881 -1.1537  0.0778  1.1103
 9439SOL    HW239780   0.031   2.550   4.848  2.2258 -0.2207 -0.2948
 9440SOL     OW39781   3.168   4.392  14.003  0.1514 -0.0592  0.2509
 9440SOL    HW139782   3.112   4.463  13.973 -1.4375 -1.6572 -0.6098
 9440SOL    HW239783   3.249   4.442  14.015 -1.4135  1.7838  3.0554
 9441SOL     OW39784   0.103   2.521   2.204  0.5227  0.3192 -0.0236
 9441SOL    HW139785   0.105   2.539   2.110  0.5840 -0.3792 -0.1562
 9441SOL    HW239786   0.175   2.459   2.203  0.0883 -0.2019  2.4212
 9442SOL     OW39787   0.850   3.125   0.902  0.1371 -0.2677  0.1215
 9442SOL    HW139788   0.878   3.079   0.981  0.1038  1.7492  1.3157
 9442SOL    HW239789   0.851   3.218   0.925  1.6777 -0.2895  0.1742
 9443SOL     OW39790   2.746   2.234   6.646  0.0534  0.0153  0.1126
 9443SOL    HW139791   2.656   2.218   6.676  0.7616 -2.4657  0.9252
 9443SOL    HW239792   2.763   2.318   6.688  1.2539  1.0236 -2.3599
 9444SOL     OW39793   1.952   2.858   6.486 -0.1559 -0.1165 -0.3000
 9444SOL    HW139794   1.967   2.796   6.558 -0.1582 -0.1401 -0.3201
 9444SOL    HW239795   1.917   2.935   6.531 -1.6045 -1.3462  0.6701
 9445SOL     OW39796   4.472   2.916   6.803 -0.3315  0.0089 -0.5654
 9445SOL    HW139797   4.442   2.917   6.894  0.8596  1.5755 -0.1807
 9445SOL    HW239798   4.400   2.957   6.755 -1.5928  2.5184  3.3878
 9446SOL     OW39799   1.943   3.756   9.374 -0.5940 -0.3912  0.0039
 9446SOL    HW139800   1.873   3.821   9.365 -0.4687 -0.1692  0.6308
 9446SOL    HW239801   1.971   3.755   9.283  0.9430  0.7424  0.4758
 9447SOL     OW39802   2.860   3.881   7.694  0.3572  0.3381 -0.7990
 9447SOL    HW139803   2.807   3.858   7.618  0.3556 -1.9588 -0.1222
 9447SOL    HW239804   2.904   3.796   7.704  1.3869  1.0344  0.5735
 9448SOL     OW39805   0.790   2.674   2.879 -0.2349 -0.3038 -0.1726
 9448SOL    HW139806   0.864   2.735   2.878  1.0021 -1.7500  2.1224
 9448SOL    HW239807   0.716   2.731   2.896  0.2373 -0.4624  2.3525
 9449SOL     OW39808   1.552   0.192   2.107  0.2009 -0.0182 -1.0010
 9449SOL    HW139809   1.476   0.137   2.089  0.2431 -0.6970  0.9637
 9449SOL    HW239810   1.526   0.271   2.058 -1.5182 -0.1057 -0.2352
 9450SOL     OW39811   3.217   1.471   5.270  0.1421 -0.1116  0.1971
 9450SOL    HW139812   3.267   1.390   5.280 -1.7079 -1.3324 -0.4028
 9450SOL    HW239813   3.256   1.531   5.333 -1.6804  0.7083  0.5396
 9451SOL     OW39814   2.426   3.681   6.123 -0.5911 -0.2078 -0.9747
 9451SOL    HW139815   2.375   3.748   6.077 -2.2275  0.3652  1.6776
 9451SOL    HW239816   2.517   3.696   6.099 -0.3013 -0.3304  0.0867
 9452SOL     OW39817   3.601   1.448   3.912 -0.8258  0.6643  0.1431
 9452SOL    HW139818   3.542   1.472   3.983  0.1250 -0.7376  1.3912
 9452SOL    HW239819   3.608   1.352   3.916  1.5101  0.9292  2.4099
 9453SOL     OW39820   3.433   1.029   8.208 -0.3300  0.0185 -0.3725
 9453SOL    HW139821   3.517   0.984   8.200 -0.6784 -0.6958  0.0390
 9453SOL    HW239822   3.410   0.993   8.294 -2.1351  1.9695 -0.0258
 9454SOL     OW39823   3.638   1.484   9.764  0.5725  0.2128 -0.0915
 9454SOL    HW139824   3.708   1.503   9.701  2.2441  2.0982  2.3082
 9454SOL    HW239825   3.586   1.564   9.766  0.7170  0.2759  0.9916
 9455SOL     OW39826   3.736   1.437   5.165 -0.5227 -0.1407  0.4148
 9455SOL    HW139827   3.832   1.440   5.170 -0.3790 -2.4103 -0.9033
 9455SOL    HW239828   3.727   1.355   5.215  1.2711 -0.7123 -0.2134
 9456SOL     OW39829   3.516   3.728  17.564  0.2657 -0.2091  0.1656
 9456SOL    HW139830   3.485   3.738  17.654  0.9786 -1.7074  0.5734
 9456SOL    HW239831   3.498   3.635  17.548 -1.1224  0.0301  0.2867
 9457SOL     OW39832   4.188   0.058   3.576 -0.0469  0.4098  0.3707
 9457SOL    HW139833   4.183   4.696   3.626 -0.0472  0.2699  0.1428
 9457SOL    HW239834   4.184   0.030   3.485  0.7674 -2.5707  1.2661
 9458SOL     OW39835   4.634   1.087   9.845  0.3008 -0.3285  0.1179
 9458SOL    HW139836   4.560   1.108   9.789  0.9121 -1.7202 -1.2063
 9458SOL    HW239837   4.676   1.025   9.785  1.6244  1.0827 -0.4364
 9459SOL     OW39838   0.941   3.646   0.989 -0.4312  0.2512  0.0114
 9459SOL    HW139839   0.992   3.603   1.058  0.1556 -0.4041 -0.8409
 9459SOL    HW239840   0.936   3.737   1.017 -2.0214 -0.3378  1.6902
 9460SOL     OW39841   0.889   3.169  17.585  0.0677  0.2094  0.2488
 9460SOL    HW139842   0.952   3.238  17.562 -0.2434  0.5791  0.5094
 9460SOL    HW239843   0.885   3.118  17.504 -0.4322 -1.3712  1.2764
 9461SOL     OW39844   1.954   1.855   5.263  0.4546 -0.5741  0.0123
 9461SOL    HW139845   1.893   1.918   5.223  0.6477 -0.6427 -0.3900
 9461SOL    HW239846   2.022   1.857   5.196  0.5639  0.3639  0.1498
 9462SOL     OW39847   3.311   3.664  13.586  0.1336  0.2644  0.4580
 9462SOL    HW139848   3.396   3.708  13.580  0.3593 -0.3945 -1.0876
 9462SOL    HW239849   3.331   3.594  13.524 -1.3946  0.9526 -0.8172
 9463SOL     OW39850   3.380   0.541  16.654 -0.6462 -0.1143  0.1815
 9463SOL    HW139851   3.367   0.491  16.574 -2.0433  0.8191 -0.1748
 9463SOL    HW239852   3.408   0.476  16.718 -3.2561 -1.3859 -0.0038
 9464SOL     OW39853   2.299   1.918  12.169 -0.2373  0.3159  0.2792
 9464SOL    HW139854   2.308   1.923  12.264 -0.1019  0.2691  0.2688
 9464SOL    HW239855   2.229   1.854  12.155  0.0322  0.3885 -1.4463
 9465SOL     OW39856   1.896   3.787   2.730 -0.0200 -0.6531 -0.7103
 9465SOL    HW139857   1.830   3.836   2.779  1.2790  0.1358  0.2455
 9465SOL    HW239858   1.851   3.791   2.645  0.0397  0.6177 -0.6837
 9466SOL     OW39859   4.689   1.841   5.459 -0.2691  0.0023 -0.2952
 9466SOL    HW139860   4.616   1.804   5.508  1.2760 -3.3641 -0.5380
 9466SOL    HW239861   0.030   1.858   5.531  0.6280 -0.5498 -0.9106
 9467SOL     OW39862   2.473   3.931   6.451 -0.0576 -0.2355  0.6374
 9467SOL    HW139863   2.403   3.869   6.432 -0.2870  0.7625 -1.7890
 9467SOL    HW239864   2.440   4.014   6.417  1.3104  0.6998  1.5657
 9468SOL     OW39865   1.099   2.503   3.591  0.3113  0.6672 -0.0555
 9468SOL    HW139866   1.094   2.556   3.512  0.4126 -1.3734 -1.4448
 9468SOL    HW239867   1.166   2.558   3.631 -0.2502  2.4678 -1.6223
 9469SOL     OW39868   1.688   3.007   1.453  0.3183 -0.2695  0.0116
 9469SOL    HW139869   1.637   3.079   1.414  0.1202 -0.5234 -0.2023
 9469SOL    HW239870   1.636   2.930   1.431  1.5674 -0.5713 -1.9279
 9470SOL     OW39871   0.563   4.342   5.338 -0.0139 -0.7345 -0.5808
 9470SOL    HW139872   0.528   4.272   5.282 -2.7013  0.9892 -1.0334
 9470SOL    HW239873   0.543   4.311   5.426  0.3786  0.2901 -0.1422
 9471SOL     OW39874   1.436   1.493   6.154  0.2629 -0.1913  0.1692
 9471SOL    HW139875   1.365   1.428   6.154 -1.3239  1.5241  1.4813
 9471SOL    HW239876   1.451   1.517   6.063  0.4347  0.6632  0.4246
 9472SOL     OW39877   0.837   0.517  15.016  0.1222 -0.4674  0.1844
 9472SOL    HW139878   0.906   0.456  15.043 -1.9542 -2.1475  1.6916
 9472SOL    HW239879   0.810   0.553  15.101 -0.1291 -0.4974  0.1159
 9473SOL     OW39880   1.454   1.500   8.733  0.1209  0.4870  0.0129
 9473SOL    HW139881   1.496   1.489   8.818 -1.2311 -1.2787  0.4523
 9473SOL    HW239882   1.432   1.593   8.733 -3.2092 -0.3235  1.2648
 9474SOL     OW39883   1.442   1.661  14.531  0.0552 -0.1732 -0.3278
 9474SOL    HW139884   1.469   1.752  14.525  3.3351 -1.1067  0.6605
 9474SOL    HW239885   1.349   1.674  14.549 -0.0685 -1.6451  0.1421
 9475SOL     OW39886   3.952   1.970   1.096 -0.6945 -0.2082 -0.6625
 9475SOL    HW139887   3.965   1.989   1.189  2.0706 -1.9467 -0.6739
 9475SOL    HW239888   3.860   1.944   1.094 -1.4798  2.4331  1.1383
 9476SOL     OW39889   4.196   4.126   8.603  0.1562  0.8917 -0.0512
 9476SOL    HW139890   4.185   4.205   8.551 -1.1819 -0.2421 -1.4745
 9476SOL    HW239891   4.291   4.133   8.611  0.3560  0.5723 -2.2994
 9477SOL     OW39892   3.107   3.770  14.789  0.0299  0.0740  0.9161
 9477SOL    HW139893   3.090   3.705  14.857 -0.1335  1.4168  2.1567
 9477SOL    HW239894   3.091   3.733  14.702 -1.7926  1.0486  0.8332
 9478SOL     OW39895   3.186   4.503  12.763 -0.4078  0.4625 -0.8971
 9478SOL    HW139896   3.211   4.459  12.682  1.1108  2.5560 -1.5901
 9478SOL    HW239897   3.176   4.595  12.738  1.1305  1.4185  2.0048
 9479SOL     OW39898   3.963   4.298  15.590  0.3995 -0.1369  0.6228
 9479SOL    HW139899   3.889   4.267  15.537 -0.2389 -1.5569  2.3440
 9479SOL    HW239900   3.924   4.361  15.650  1.0510  3.4312 -2.6910
 9480SOL     OW39901   4.649   1.544   4.125 -0.0799  0.2420  0.3281
 9480SOL    HW139902   4.685   1.633   4.128  3.8179 -1.4174  2.6217
 9480SOL    HW239903   4.671   1.522   4.035 -0.6846 -0.2899  0.3130
 9481SOL     OW39904   0.632   4.155   9.258  0.2548 -0.0386  0.5243
 9481SOL    HW139905   0.690   4.209   9.203 -0.7658  0.2593 -0.2576
 9481SOL    HW239906   0.570   4.113   9.199 -0.1728  0.8318  0.3573
 9482SOL     OW39907   1.789   0.121   8.013 -0.7198 -0.6857  0.1815
 9482SOL    HW139908   1.729   0.053   7.985 -0.2190 -0.7670 -0.7044
 9482SOL    HW239909   1.793   0.188   7.944 -0.8372 -0.3033  0.5447
 9483SOL     OW39910   3.995   0.782  16.476 -0.0658  0.1471  0.6316
 9483SOL    HW139911   4.081   0.817  16.500  0.2927 -0.6598  0.5132
 9483SOL    HW239912   3.989   0.816  16.386 -1.0042  1.5668  1.2288
 9484SOL     OW39913   0.937   4.395  12.045 -0.2056 -0.0923  0.2137
 9484SOL    HW139914   0.874   4.453  12.086  0.4623  0.2355  0.7742
 9484SOL    HW239915   1.024   4.434  12.052 -0.2000  0.3241 -2.2255
 9485SOL     OW39916   4.578   2.342   4.915 -0.2235 -0.1110  0.5004
 9485SOL    HW139917   4.670   2.317   4.928  0.4481  1.0697 -1.8702
 9485SOL    HW239918   4.563   2.322   4.822  0.1005 -1.6512  0.7916
 9486SOL     OW39919   0.173   3.795   3.493  0.1655 -0.0294  0.3860
 9486SOL    HW139920   0.162   3.733   3.565  1.2938 -1.2240 -0.4794
 9486SOL    HW239921   0.221   3.746   3.426 -2.5074  1.0980 -2.3622
 9487SOL     OW39922   4.448   4.434   5.476  0.3894 -0.5317 -0.4093
 9487SOL    HW139923   4.397   4.451   5.397 -0.5160 -2.3813 -0.2155
 9487SOL    HW239924   4.390   4.470   5.543  0.3280  0.0505 -0.7821
 9488SOL     OW39925   1.096   4.542  10.948  0.2447 -0.0438 -0.6286
 9488SOL    HW139926   1.094   4.448  10.963 -0.8868  0.4413  2.3078
 9488SOL    HW239927   1.122   4.541  10.856  0.2193  0.9251 -0.6445
 9489SOL     OW39928   4.293   1.114   0.993 -0.3235  0.8771 -0.1032
 9489SOL    HW139929   4.237   1.106   1.071  0.0845  0.8487  0.1847
 9489SOL    HW239930   4.357   1.178   1.025 -0.9879 -0.3455  3.6427
 9490SOL     OW39931   2.254   1.642  10.175 -0.2606  0.1374 -0.1754
 9490SOL    HW139932   2.225   1.605  10.258  2.3010 -1.2758  0.1021
 9490SOL    HW239933   2.346   1.661  10.196  0.0217  1.4646 -2.5089
 9491SOL     OW39934   1.150   2.386  13.577  0.4509  0.2210 -0.1405
 9491SOL    HW139935   1.119   2.463  13.625  2.3048 -0.3441  1.9573
 9491SOL    HW239936   1.159   2.327  13.652  0.5106  2.4093  1.5751
 9492SOL     OW39937   2.496   0.292  10.169 -0.5448 -0.1358 -0.1324
 9492SOL    HW139938   2.435   0.353  10.128 -0.5359 -1.1511 -1.6476
 9492SOL    HW239939   2.433   0.227  10.199  0.5565 -1.0936  0.1143
 9493SOL     OW39940   0.827   0.486  16.853 -0.6938  0.2117 -0.0208
 9493SOL    HW139941   0.854   0.432  16.927  0.9650  3.5245  1.7818
 9493SOL    HW239942   0.892   0.485  16.784 -1.5875 -0.2623 -0.8597
 9494SOL     OW39943   1.521   3.374   2.662  0.1349  0.0386 -0.1594
 9494SOL    HW139944   1.478   3.375   2.577  2.2219  1.1616 -1.2088
 9494SOL    HW239945   1.522   3.463   2.697  1.6724  0.6769 -1.8131
 9495SOL     OW39946   1.732   1.676  16.018  0.2508  0.2042  0.1264
 9495SOL    HW139947   1.805   1.638  16.067 -0.2416 -1.4988 -0.4586
 9495SOL    HW239948   1.669   1.704  16.084  1.1682  2.4685  0.0504
 9496SOL     OW39949   0.604   1.730   3.942 -0.1124 -0.7524  0.2511
 9496SOL    HW139950   0.606   1.721   3.847 -4.2412  0.7173  0.0140
 9496SOL    HW239951   0.665   1.803   3.955 -0.2626 -0.1288 -2.6253
 9497SOL     OW39952   3.912   2.010   2.898 -0.2980 -0.2335 -0.0380
 9497SOL    HW139953   3.975   2.081   2.908 -0.0878 -0.2716 -1.1568
 9497SOL    HW239954   3.892   2.013   2.805 -0.3255  0.3103 -0.0162
 9498SOL     OW39955   1.293   0.668   2.590 -0.3958  0.5992  0.0713
 9498SOL    HW139956   1.242   0.723   2.650  0.5686 -0.2318  1.6542
 9498SOL    HW239957   1.384   0.689   2.609  0.0591  0.0498 -1.5345
 9499SOL     OW39958   2.293   3.895   4.499 -0.7267 -0.2299 -0.3301
 9499SOL    HW139959   2.237   3.927   4.571 -0.8308  0.5257 -0.7501
 9499SOL    HW239960   2.226   3.900   4.431 -1.1652 -2.9123 -0.0871
 9500SOL     OW39961   4.682   4.120  13.499 -0.3057 -0.0200 -1.0295
 9500SOL    HW139962   4.628   4.061  13.552  0.7412  0.5289  0.6430
 9500SOL    HW239963   4.665   4.082  13.413  0.8390 -2.8271  0.0021
 9501SOL     OW39964   1.800   3.041   1.109 -0.2136 -0.4840  0.0626
 9501SOL    HW139965   1.820   2.955   1.147  0.8354 -0.0371  0.5292
 9501SOL    HW239966   1.770   3.015   1.022  1.3495 -0.7629 -0.3923
 9502SOL     OW39967   3.151   3.031   8.608 -0.3098 -0.1320 -0.3546
 9502SOL    HW139968   3.193   3.097   8.553 -1.1817 -0.6095 -1.6032
 9502SOL    HW239969   3.057   3.028   8.590 -0.7373 -0.3633  1.9122
 9503SOL     OW39970   1.526   3.926   8.163  0.4138  0.2000  0.1704
 9503SOL    HW139971   1.504   4.000   8.219 -2.7253 -0.9810  0.5246
 9503SOL    HW239972   1.619   3.919   8.183  0.0893 -2.3517  0.7302
 9504SOL     OW39973   0.914   0.306   6.224 -0.7309  0.0264  0.2023
 9504SOL    HW139974   0.939   0.398   6.218 -1.1682  0.0235 -1.6759
 9504SOL    HW239975   0.836   0.315   6.279  1.3986 -2.7276  3.6930
 9505SOL     OW39976   4.696   1.460   2.614 -0.1665  0.1131  0.1310
 9505SOL    HW139977   4.611   1.455   2.657 -0.0747  0.8385  0.4084
 9505SOL    HW239978   4.676   1.452   2.521  1.0890  3.1376 -0.3957
 9506SOL     OW39979   4.076   0.466   9.077  0.0799 -0.1776  0.1008
 9506SOL    HW139980   4.039   0.504   9.157  0.0688  0.2572 -0.1093
 9506SOL    HW239981   4.160   0.432   9.109  0.0053  0.6016  1.1346
 9507SOL     OW39982   1.986   3.034   5.688  0.0177 -0.2318 -0.2809
 9507SOL    HW139983   2.044   3.097   5.647 -0.6846  1.1547  0.8639
 9507SOL    HW239984   2.012   3.019   5.778  0.4391  0.9963 -0.2033
 9508SOL     OW39985   1.526   1.266  12.440 -0.5748  0.3864  0.3501
 9508SOL    HW139986   1.613   1.293  12.412 -0.5690 -0.6061 -0.5878
 9508SOL    HW239987   1.505   1.196  12.378 -1.4832  0.9067  0.0600
 9509SOL     OW39988   0.869   2.973   0.516 -0.1235 -0.7121 -0.0180
 9509SOL    HW139989   0.916   2.891   0.535 -0.4925 -0.6643  1.0877
 9509SOL    HW239990   0.779   2.939   0.513 -1.0119  1.7195 -0.4117
 9510SOL     OW39991   4.493   1.194   1.366  0.3319  0.0844  0.2497
 9510SOL    HW139992   4.541   1.153   1.293 -1.3604  0.7011 -1.2067
 9510SOL    HW239993   4.568   1.206   1.424 -1.7967 -1.6120  3.3146
 9511SOL     OW39994   0.040   1.333   7.967 -0.6874  0.6220 -0.1148
 9511SOL    HW139995   0.118   1.323   7.912 -0.3700  0.9282  0.2801
 9511SOL    HW239996   4.689   1.297   7.913 -0.2612 -3.2021  1.8402
 9512SOL     OW39997   3.754   0.873   5.058  0.2495  0.7866  0.0264
 9512SOL    HW139998   3.760   0.857   5.152  0.1131 -0.6013 -0.2004
 9512SOL    HW239999   3.843   0.892   5.027  0.8114 -1.7255  0.0620
 9513SOL     OW40000   1.017   0.813   0.626  0.0530 -0.5513  0.0023
 9513SOL    HW140001   1.019   0.831   0.532  0.1165 -0.7472 -0.0330
 9513SOL    HW240002   1.086   0.864   0.667 -1.1766 -0.0415  1.4433
 9514SOL     OW40003   0.327   0.720   7.009  0.0600  0.0576  0.5634
 9514SOL    HW140004   0.340   0.653   7.076  0.2844  1.3385  1.8183
 9514SOL    HW240005   0.380   0.791   7.047  1.1185 -0.9842  1.0419
 9515SOL     OW40006   2.908   4.565   1.379  0.2610  0.0191 -0.0138
 9515SOL    HW140007   2.822   4.525   1.392  0.7753 -1.0790  0.0351
 9515SOL    HW240008   2.963   4.488   1.362  1.5418  1.1793 -1.0341
 9516SOL     OW40009   3.941   4.701   0.026 -0.1133  0.3538  0.5647
 9516SOL    HW140010   3.846   4.709   0.021  0.0609  0.8100 -1.9365
 9516SOL    HW240011   3.972   0.067  17.676  0.4217 -0.3970 -0.9893
 9517SOL     OW40012   3.642   0.425  17.523 -0.5350 -0.3972  0.1721
 9517SOL    HW140013   3.639   0.432  17.618  0.6033 -1.3682  0.2705
 9517SOL    HW240014   3.553   0.391  17.512 -0.4492 -1.2319  2.0803
 9518SOL     OW40015   1.261   4.260   0.548  0.3462 -0.7053 -0.5012
 9518SOL    HW140016   1.327   4.267   0.479 -0.8834  3.1604 -1.2729
 9518SOL    HW240017   1.176   4.248   0.507  0.3390  0.3438 -0.7856
 9519SOL     OW40018   2.833   0.158  14.039  0.4036 -0.4011  0.3961
 9519SOL    HW140019   2.790   0.241  14.023  0.0347 -0.6469  0.1042
 9519SOL    HW240020   2.871   0.128  13.956  2.4121  0.2841  1.0713
 9520SOL     OW40021   1.192   3.501   2.191 -0.1095  0.2536  0.2919
 9520SOL    HW140022   1.262   3.550   2.150  0.5681 -1.6255 -0.7994
 9520SOL    HW240023   1.121   3.566   2.187 -0.4872 -0.1281  0.7115
 9521SOL     OW40024   1.073   0.597  13.576  0.2412  0.5274 -0.1935
 9521SOL    HW140025   1.070   0.689  13.550 -1.4601  0.1120 -1.4142
 9521SOL    HW240026   0.984   0.585  13.608  0.3740  0.5532  0.1923
 9522SOL     OW40027   0.294   0.178  12.328 -0.2666  0.3871 -0.1689
 9522SOL    HW140028   0.325   0.099  12.284 -2.0571 -1.2598  1.5523
 9522SOL    HW240029   0.377   0.213  12.362  1.6591 -2.8726 -1.4846
 9523SOL     OW40030   0.041   1.373   6.705 -0.4299 -0.0584 -0.1227
 9523SOL    HW140031   0.065   1.419   6.625 -0.0939  0.8499  0.5084
 9523SOL    HW240032   0.005   1.288   6.679  0.4814  0.0390 -1.7290
 9524SOL     OW40033   3.255   4.232   5.962  0.0282 -0.4467 -0.5029
 9524SOL    HW140034   3.348   4.217   5.976 -0.0822  0.0481  0.7641
 9524SOL    HW240035   3.238   4.315   6.007  1.5671 -0.1176 -0.5327
 9525SOL     OW40036   0.885   0.367   7.265 -0.3363  0.2581 -0.0769
 9525SOL    HW140037   0.949   0.335   7.202 -0.6560 -0.1356 -0.1994
 9525SOL    HW240038   0.874   0.292   7.323  1.2263  1.4344  1.7487
 9526SOL     OW40039   4.593   3.845   5.222 -0.9614 -0.0424  0.0351
 9526SOL    HW140040   4.602   3.935   5.252 -0.9962 -0.6596  1.9002
 9526SOL    HW240041   4.501   3.845   5.197 -1.1367 -0.9773  0.6522
 9527SOL     OW40042   3.267   1.618   2.809 -0.3230 -0.5682 -0.0145
 9527SOL    HW140043   3.228   1.704   2.791  0.9904  0.1954  0.7099
 9527SOL    HW240044   3.247   1.606   2.902 -1.1646 -0.4594 -0.1789
 9528SOL     OW40045   4.202   1.514  13.694 -0.1172  0.0146 -1.1515
 9528SOL    HW140046   4.276   1.491  13.750 -1.1945 -2.1268 -0.6213
 9528SOL    HW240047   4.181   1.430  13.654  0.9529 -1.0977  0.6511
 9529SOL     OW40048   4.688   3.619   5.959  0.1033  0.2530 -0.1918
 9529SOL    HW140049   4.680   3.698   5.907 -1.0311 -0.3580 -0.9316
 9529SOL    HW240050   4.643   3.562   5.897 -0.2132  0.6777 -0.3505
 9530SOL     OW40051   0.320   4.398   2.564  0.1252 -0.2886  0.8231
 9530SOL    HW140052   0.235   4.355   2.550  1.3336 -2.4923  0.1614
 9530SOL    HW240053   0.367   4.366   2.487  1.1165  0.9965  0.8946
 9531SOL     OW40054   0.276   1.498   1.506 -0.0759  0.2550 -0.0547
 9531SOL    HW140055   0.217   1.444   1.454 -0.5749  0.5685  0.1832
 9531SOL    HW240056   0.235   1.584   1.497 -1.4023 -0.3602  0.0821
 9532SOL     OW40057   3.006   2.152   6.397 -0.1972  0.0046  0.2058
 9532SOL    HW140058   2.939   2.083   6.392 -0.1973 -0.0799  1.3258
 9532SOL    HW240059   3.011   2.169   6.303  0.4808  0.1678  0.2755
 9533SOL     OW40060   3.273   3.241  13.411  0.4023  0.5595  0.3323
 9533SOL    HW140061   3.189   3.195  13.411  0.8319 -0.2487 -3.5747
 9533SOL    HW240062   3.285   3.251  13.505  1.0164  1.7478  0.1180
 9534SOL     OW40063   0.873   4.166  13.447  0.3796  0.3252 -0.1963
 9534SOL    HW140064   0.835   4.240  13.493  0.1750 -0.1110  0.3425
 9534SOL    HW240065   0.793   4.114  13.455  0.3672  0.1742 -1.3009
 9535SOL     OW40066   1.439   3.428  17.446 -0.3704 -0.3924  0.0477
 9535SOL    HW140067   1.410   3.348  17.491  1.9963 -1.7987 -0.9026
 9535SOL    HW240068   1.524   3.397  17.414 -0.7724  0.0908 -1.4654
 9536SOL     OW40069   4.148   1.547   1.196 -0.4376 -0.0573 -0.7139
 9536SOL    HW140070   4.065   1.510   1.225 -1.1302  1.6748 -0.4922
 9536SOL    HW240071   4.115   1.581   1.113 -0.1312 -1.5776 -1.4542
 9537SOL     OW40072   0.902   3.328   1.779 -0.0353 -0.2146  0.0675
 9537SOL    HW140073   0.983   3.284   1.805  0.2613 -1.0794 -2.3760
 9537SOL    HW240074   0.893   3.374   1.863  0.3257  0.3362 -0.1937
 9538SOL     OW40075   1.372   4.641  16.498 -0.5115  0.1236  0.0804
 9538SOL    HW140076   1.296   4.661  16.444 -0.4664  0.9504  0.3265
 9538SOL    HW240077   1.350   4.575  16.564  0.3905 -1.6711 -1.4298
 9539SOL     OW40078   0.191   4.660   7.489  0.3989 -0.0124 -0.3005
 9539SOL    HW140079   0.249   4.584   7.483  1.3954  0.4975  3.0663
 9539SOL    HW240080   0.250   4.717   7.539  0.7332 -0.8791  0.2754
 9540SOL     OW40081   1.761   0.997   0.001 -0.0813  0.7293  0.4121
 9540SOL    HW140082   1.792   1.071  17.631  1.8755  0.1933  0.8098
 9540SOL    HW240083   1.672   1.028   0.011 -0.0340  0.5209  1.4691
 9541SOL     OW40084   3.130   1.460  12.942 -0.2953  0.4780  0.4260
 9541SOL    HW140085   3.207   1.405  12.957 -1.5745 -1.0352  1.4265
 9541SOL    HW240086   3.079   1.439  13.021 -1.1046 -1.8099 -0.6858
 9542SOL     OW40087   2.165   0.141   7.767  0.5507 -0.0768  0.6478
 9542SOL    HW140088   2.259   0.139   7.745  0.3880 -0.5648  0.0007
 9542SOL    HW240089   2.131   0.054   7.746  0.8434 -0.4927  1.9065
 9543SOL     OW40090   1.551   3.195   8.372 -0.0819  0.1941 -0.1574
 9543SOL    HW140091   1.514   3.249   8.442  0.4406 -0.5049  0.6581
 9543SOL    HW240092   1.608   3.253   8.322 -1.0113  0.8116 -0.5057
 9544SOL     OW40093   3.106   1.446  12.330  0.5940  0.6385  0.6113
 9544SOL    HW140094   3.161   1.472  12.257 -1.8992  0.4440 -1.3474
 9544SOL    HW240095   3.041   1.388  12.289 -0.0010  1.6947  0.0420
 9545SOL     OW40096   2.460   0.947   2.084  0.1137 -0.4036 -0.0969
 9545SOL    HW140097   2.463   0.966   1.991  0.9747 -1.4427 -0.2704
 9545SOL    HW240098   2.393   0.878   2.080  1.2617 -1.5202  0.1848
 9546SOL     OW40099   1.127   2.477   9.079 -0.6170 -0.0694  0.3686
 9546SOL    HW140100   1.037   2.468   9.048  0.2179  0.8216 -2.2755
 9546SOL    HW240101   1.142   2.569   9.057  0.9347 -0.8187 -1.7383
 9547SOL     OW40102   2.010   3.399   5.483 -0.1563  0.3928 -0.3064
 9547SOL    HW140103   1.931   3.349   5.500 -0.6810  0.8438 -1.4561
 9547SOL    HW240104   2.083   3.348   5.520 -0.8712  0.7509  1.6131
 9548SOL     OW40105   2.727   1.385   9.590  0.3368  0.2094  0.6553
 9548SOL    HW140106   2.801   1.373   9.650 -0.3677  0.9996  1.7024
 9548SOL    HW240107   2.720   1.294   9.562  2.4621 -0.2750  1.6253
 9549SOL     OW40108   1.153   1.355   6.831  0.0376  0.1987  0.3552
 9549SOL    HW140109   1.151   1.438   6.879  1.0145  1.3300 -1.5569
 9549SOL    HW240110   1.128   1.390   6.746  1.3326  0.3453  0.0348
 9550SOL     OW40111   3.110   0.519   6.023 -0.3049  0.1091 -0.2268
 9550SOL    HW140112   3.120   0.519   6.119  1.2650  0.2152 -0.3888
 9550SOL    HW240113   3.014   0.520   6.022 -0.2941  1.0625  0.0582
 9551SOL     OW40114   1.440   3.870  14.498  0.2966  0.1475  0.0787
 9551SOL    HW140115   1.535   3.882  14.502  0.2187  0.6214  0.5307
 9551SOL    HW240116   1.432   3.921  14.417 -1.1636  1.0007  0.7699
 9552SOL     OW40117   3.220   2.897   3.615  0.2359  0.3170  0.1181
 9552SOL    HW140118   3.221   2.807   3.649  0.8781 -0.9225 -3.1894
 9552SOL    HW240119   3.308   2.932   3.631 -0.9893  1.9405  3.3316
 9553SOL     OW40120   3.062   3.208   5.622  0.0060 -0.2736  0.7844
 9553SOL    HW140121   3.117   3.222   5.699 -0.0798  1.9632  0.4386
 9553SOL    HW240122   3.127   3.208   5.552 -0.4281  1.1134  0.3972
 9554SOL     OW40123   1.420   0.769   3.292 -0.5423  0.0723 -0.0805
 9554SOL    HW140124   1.489   0.702   3.293 -1.8263 -1.2562 -1.0126
 9554SOL    HW240125   1.369   0.731   3.220 -1.8510 -1.6619  1.7754
 9555SOL     OW40126   4.702   3.907   6.398  0.5071  0.0473  0.1710
 9555SOL    HW140127   4.690   3.879   6.307 -0.3111 -1.4309  0.7223
 9555SOL    HW240128   0.066   3.953   6.387 -0.0855  0.2045 -3.6855
 9556SOL     OW40129   0.428   1.565   2.940  0.0593  0.1002 -0.4905
 9556SOL    HW140130   0.336   1.540   2.946  0.7354 -2.0151  0.8971
 9556SOL    HW240131   0.417   1.660   2.932 -1.1618  0.1233  1.6272
 9557SOL     OW40132   4.024   2.729   1.984 -0.0702  0.5153  0.0775
 9557SOL    HW140133   4.073   2.659   1.941 -0.7518  0.8464 -1.2041
 9557SOL    HW240134   3.950   2.733   1.924  0.9535  0.0465 -1.1960
 9558SOL     OW40135   4.682   4.067  11.107 -0.6936 -0.0770 -0.4260
 9558SOL    HW140136   4.647   3.995  11.160 -0.6435  1.5603  1.8491
 9558SOL    HW240137   0.001   4.013  11.037  1.6876 -0.1096  0.9180
 9559SOL     OW40138   1.471   3.947   2.328  0.7863 -0.5355 -0.5532
 9559SOL    HW140139   1.425   3.986   2.403  1.9079  1.2519 -0.7884
 9559SOL    HW240140   1.467   4.011   2.257  0.6658  1.8101  1.5762
 9560SOL     OW40141   0.329   1.254   9.087 -0.0263 -0.6291  0.1190
 9560SOL    HW140142   0.414   1.220   9.059  0.7179  1.0687  0.3163
 9560SOL    HW240143   0.353   1.330   9.141 -3.1341  0.8743 -0.5617
 9561SOL     OW40144   3.759   3.677  15.186 -0.6658  0.3580 -0.0376
 9561SOL    HW140145   3.701   3.746  15.219  1.1943  1.0273  1.7929
 9561SOL    HW240146   3.845   3.707  15.212 -0.7809  0.3906  0.3005
 9562SOL     OW40147   1.909   2.822   9.771 -0.0990 -0.1219 -0.0732
 9562SOL    HW140148   1.917   2.888   9.840  1.0823  0.0855 -0.4057
 9562SOL    HW240149   1.985   2.850   9.720  0.7357  0.6907  1.6047
 9563SOL     OW40150   2.901   4.377   6.581 -0.2234 -0.6295 -0.0070
 9563SOL    HW140151   2.913   4.414   6.494 -1.8350  1.7083  0.7594
 9563SOL    HW240152   2.887   4.286   6.555 -0.0373 -0.2935 -1.2930
 9564SOL     OW40153   1.303   0.468  17.668  0.1728 -0.0704 -0.0006
 9564SOL    HW140154   1.348   0.434  17.591 -3.7397 -0.1721 -2.2858
 9564SOL    HW240155   1.367   0.505   0.047 -0.4454 -0.3425  0.8383
 9565SOL     OW40156   2.748   1.308  15.881  0.3071 -0.0214  0.3051
 9565SOL    HW140157   2.817   1.368  15.853  0.5365  0.4107  1.7906
 9565SOL    HW240158   2.691   1.367  15.929  1.5680  1.2295  0.2553
 9566SOL     OW40159   3.932   1.931   3.949 -0.4413  0.3212 -0.5443
 9566SOL    HW140160   4.008   1.967   3.904 -0.8753 -0.2489 -1.7176
 9566SOL    HW240161   3.976   1.877   4.015 -0.5740  1.4516  0.4890
 9567SOL     OW40162   3.566   4.013   5.574  0.3867  0.2293  0.3052
 9567SOL    HW140163   3.605   3.936   5.615 -0.5003 -0.6513 -0.5037
 9567SOL    HW240164   3.566   3.989   5.481  3.8016  0.5330  0.2180
 9568SOL     OW40165   3.950   1.947  12.019 -0.0224  0.4730  0.0875
 9568SOL    HW140166   3.996   1.995  11.950  1.3097 -0.1066  0.5673
 9568SOL    HW240167   3.960   1.856  11.989 -2.5838 -0.1805  1.2754
   4.71949   4.71949  17.68077
