Membrane in water
40167
    1TCq1    O1    1   1.047   0.834  12.252  0.2587 -0.2090 -0.2246
    1TCq1    C1    2   0.985   0.942  12.302 -0.0639  0.4272 -0.5983
    1TCq1    O2    3   1.044   1.038  12.350  0.0474  0.1786  0.3777
    1TCq1    C2    4   0.873   0.970  12.218 -0.7526 -0.0981  0.0251
    1TCq1    C3    5   0.848   1.101  12.168  0.3309 -0.2039 -0.4249
    1TCq1    C4    6   0.723   1.112  12.109 -0.9497  0.4564  1.0259
    1TCq1    C5    7   0.637   1.003  12.096 -0.1133  0.0071  1.2603
    1TCq1    C6    8   0.667   0.886  12.153  0.7997  0.0790 -1.2561
    1TCq1    C7    9   0.792   0.863  12.201 -0.5951 -0.7144  0.0484
    1TCq1    C8   10   0.573   0.773  12.147 -0.2108  0.2707 -0.4773
    1TCq1    O4   11   0.456   0.805  12.148  0.4631 -0.0707  0.3448
    1TCq1    C9   12   0.688   1.242  12.061  0.4535  0.5988 -0.1506
    1TCq1    O5   13   0.595   1.249  11.983  0.0576  0.5494  0.5209
    1TCq1    O6   14   0.741   1.345  12.117  0.0764 -0.0299  0.1761
    1TCq1    H1   15   0.989   0.777  12.197  0.3177  0.6964 -1.2255
    1TCq1    H2   16   0.922   1.180  12.160 -1.1168  1.2983  1.2882
    1TCq1    H3   17   0.543   1.014  12.044  0.4394  0.4192  0.3553
    1TCq1    H4   18   0.807   0.769  12.254  0.4868 -0.3088  0.4642
    2MPD2     C   19   0.460   0.273  12.143  0.2561  0.5438 -0.5685
    2MPD2    C1   20   0.380   0.382  12.141  0.2767  0.2467  0.3960
    2MPD2    C2   21   0.433   0.508  12.139  0.5210  0.9156  0.2429
    2MPD2    C3   22   0.572   0.525  12.139 -0.0095  0.3865 -0.1012
    2MPD2    C4   23   0.652   0.415  12.127 -0.5423 -0.1381 -0.3468
    2MPD2    C5   24   0.598   0.293  12.131  0.5063 -0.5904  0.5935
    2MPD2     H   25   0.375   0.599  12.145 -0.0680  0.5274  0.4013
    2MPD2    H1   26   0.759   0.435  12.136 -0.3737 -2.1122  2.0540
    2MPD2    H2   27   0.431   0.169  12.144  1.8598  0.1174  1.3171
    2MPD2    H3   28   0.665   0.209  12.113 -1.4095 -1.7869 -0.9701
    2MPD2     N   29   0.639   0.650  12.133 -0.1860 -0.2415  0.1303
    2MPD2    H5   30   0.739   0.658  12.120 -0.2068  2.0896  1.2886
    2MPD2    N1   31   0.239   0.361  12.131  0.5275 -0.0144  0.3894
    2MPD2    H7   32   0.179   0.442  12.143  1.0745  0.7944 -2.3225
    3TCq1    O1   33   3.777   2.021  10.697 -0.6533  0.3900 -0.7706
    3TCq1    C1   34   3.873   2.116  10.720  0.2869  0.3746  0.4204
    3TCq1    O2   35   3.850   2.230  10.756  0.7423 -0.0838 -0.1673
    3TCq1    C2   36   3.988   2.056  10.761 -0.0009  0.1046  0.2498
    3TCq1    C3   37   4.038   1.944  10.695  0.4126  0.2707 -0.1270
    3TCq1    C4   38   4.124   1.866  10.758  0.2969  0.6803 -0.7232
    3TCq1    C5   39   4.162   1.881  10.884  0.6977  0.4984 -0.5980
    3TCq1    C6   40   4.106   1.993  10.952  0.0608 -0.3596 -0.5356
    3TCq1    C7   41   4.020   2.080  10.893 -0.4103  0.0381 -0.2791
    3TCq1    C8   42   4.128   2.002  11.102  0.0637  0.1137  0.9456
    3TCq1    O4   43   4.204   1.916  11.140  0.1671  0.1171 -0.2298
    3TCq1    C9   44   4.186   1.758  10.681 -0.6813  0.5446 -0.6117
    3TCq1    O5   45   4.175   1.752  10.556  0.6011  0.3509  0.8446
    3TCq1    O6   46   4.254   1.673  10.748  0.0350 -0.0783  0.6250
    3TCq1    H1   47   3.807   1.934  10.661 -0.0086  0.6240 -0.8043
    3TCq1    H2   48   4.020   1.925  10.590 -1.3122  1.3362 -0.0227
    3TCq1    H3   49   4.236   1.816  10.928  0.1132 -0.8110 -1.5486
    3TCq1    H4   50   3.950   2.140  10.950  0.0897 -0.5801  0.9835
    4MPD2     C   51   4.212   2.279  11.527 -0.4392  0.0356  0.4725
    4MPD2    C1   52   4.143   2.355  11.436  0.8145 -0.4985 -0.2529
    4MPD2    C2   53   4.115   2.305  11.310 -0.1845 -0.1888 -0.1174
    4MPD2    C3   54   4.145   2.173  11.277  0.6139 -0.6893  0.1341
    4MPD2    C4   55   4.227   2.097  11.364 -0.0249  0.3011 -0.2967
    4MPD2    C5   56   4.258   2.152  11.486  0.3852 -0.3910  0.5307
    4MPD2     H   57   4.066   2.375  11.243  0.9740 -0.4908 -1.2799
    4MPD2    H1   58   4.251   1.992  11.351 -2.7784 -0.4140  0.4696
    4MPD2    H2   59   4.237   2.304  11.629  0.6818 -0.0896  0.2289
    4MPD2    H3   60   4.307   2.100  11.568 -0.5979 -1.1648  0.6205
    4MPD2     N   61   4.104   2.126  11.154 -0.1017 -0.0360 -0.0334
    4MPD2    H5   62   4.066   2.194  11.089 -1.2336  1.1404  1.8479
    4MPD2    N1   63   4.100   2.492  11.469 -0.3751  0.2403  0.3281
    4MPD2    H7   64   4.076   2.547  11.387  0.6078 -0.2353 -0.2830
    5TCq1    O1   65   0.125   3.104  12.000  0.6621 -0.5135  0.5981
    5TCq1    C1   66   0.181   3.216  12.049 -0.0713 -0.4441 -0.1524
    5TCq1    O2   67   0.154   3.264  12.159  0.0985 -0.3130 -0.1772
    5TCq1    C2   68   0.295   3.270  11.964  0.0011  0.5425 -0.0632
    5TCq1    C3   69   0.408   3.318  12.022  0.4744 -0.1939  0.0248
    5TCq1    C4   70   0.512   3.372  11.947  1.0726 -0.8135  0.0808
    5TCq1    C5   71   0.509   3.381  11.807  0.5192  0.0939 -0.3115
    5TCq1    C6   72   0.398   3.335  11.755  0.3854 -0.4464  0.0189
    5TCq1    C7   73   0.290   3.283  11.826  0.1134 -0.5007  0.3099
    5TCq1    C8   74   0.394   3.284  11.619 -0.6220  0.6866 -0.2592
    5TCq1    O4   75   0.348   3.168  11.602  0.3726  0.0216  0.1243
    5TCq1    C9   76   0.630   3.419  12.018 -0.6515 -0.0037  0.3289
    5TCq1    O5   77   0.731   3.455  11.954 -0.1132 -0.0109 -0.1666
    5TCq1    O6   78   0.617   3.415  12.143  1.0281 -0.6175  0.3502
    5TCq1    H1   79   0.159   3.075  11.912 -1.2280 -0.0801 -0.2569
    5TCq1    H2   80   0.423   3.315  12.129 -0.5732 -1.6781  0.1331
    5TCq1    H3   81   0.600   3.412  11.758  0.6571 -0.3243 -0.3108
    5TCq1    H4   82   0.204   3.239  11.776 -1.3399  2.3285  0.2844
    6MPD2     C   83   0.499   3.466  11.310 -0.0614 -0.4302  0.2442
    6MPD2    C1   84   0.440   3.363  11.386  0.2967  0.0582  0.1345
    6MPD2    C2   85   0.416   3.242  11.324 -0.2342 -0.4014 -0.1141
    6MPD2    C3   86   0.453   3.224  11.190 -0.6892 -0.0622  0.4169
    6MPD2    C4   87   0.509   3.329  11.119 -0.2367 -1.0709 -0.0288
    6MPD2    C5   88   0.537   3.452  11.178  0.1889  0.4161  0.0891
    6MPD2     H   89   0.367   3.165  11.383  1.6674 -0.8447  0.8826
    6MPD2    H1   90   0.536   3.326  11.014  1.4495 -0.7211  0.3879
    6MPD2    H2   91   0.523   3.560  11.359 -1.6757 -1.1836  2.4900
    6MPD2    H3   92   0.576   3.540  11.128 -0.7679  1.3515  0.9878
    6MPD2     N   93   0.465   3.088  11.138 -0.0289 -0.8498  0.3538
    6MPD2    H5   94   0.442   3.012  11.202 -0.1348 -2.0682 -1.1501
    6MPD2    N1   95   0.428   3.377  11.525 -0.0418 -0.2326  0.1466
    6MPD2    H7   96   0.434   3.474  11.555 -0.4930 -0.4642  0.9717
    7TCq1    O1   97   1.948   3.282  12.952 -0.7135  0.6464 -0.1902
    7TCq1    C1   98   1.963   3.285  13.089 -0.7447 -0.4832 -0.3046
    7TCq1    O2   99   2.072   3.324  13.132  0.0869 -0.3473  0.8075
    7TCq1    C2  100   1.901   3.163  13.132  0.5236 -0.3442 -0.3962
    7TCq1    C3  101   1.769   3.142  13.095 -0.2805 -0.1148  0.5067
    7TCq1    C4  102   1.732   3.015  13.077 -0.3406  0.2741  0.7909
    7TCq1    C5  103   1.805   2.905  13.109  0.3994 -0.1690  0.5811
    7TCq1    C6  104   1.937   2.930  13.129  0.1277 -0.2568  0.2276
    7TCq1    C7  105   1.986   3.052  13.135  0.5667 -0.2444 -0.2605
    7TCq1    C8  106   2.018   2.806  13.146 -0.5230  0.3610 -0.1663
    7TCq1    O4  107   1.952   2.705  13.160 -0.7372  0.6501 -0.2839
    7TCq1    C9  108   1.597   2.992  13.024  0.7297 -0.1383  0.2655
    7TCq1    O5  109   1.529   3.092  12.983 -0.1413  0.5072 -0.8038
    7TCq1    O6  110   1.563   2.869  13.009 -0.3640 -0.0503 -0.0115
    7TCq1    H1  111   1.860   3.243  12.935 -1.2567  2.0174 -0.5246
    7TCq1    H2  112   1.708   3.229  13.072 -0.4721 -0.6062 -0.8706
    7TCq1    H3  113   1.767   2.809  13.075 -0.8321 -0.2895  2.2632
    7TCq1    H4  114   2.092   3.072  13.133  0.9025 -1.8510  1.3828
    8MPD2     C  115   2.465   2.582  13.258  0.2422  0.1423  0.3371
    8MPD2    C1  116   2.343   2.532  13.253 -0.1122  0.4399 -0.3229
    8MPD2    C2  117   2.237   2.620  13.222 -0.3116  0.9357 -0.1470
    8MPD2    C3  118   2.255   2.755  13.194 -0.3012  0.1975  0.4492
    8MPD2    C4  119   2.386   2.804  13.207 -0.2303 -1.1167  0.1427
    8MPD2    C5  120   2.487   2.718  13.242  0.0595  0.5390  0.5573
    8MPD2     H  121   2.139   2.573  13.218  0.8426 -1.4038 -1.0963
    8MPD2    H1  122   2.409   2.908  13.189 -1.7753 -0.4733  1.9243
    8MPD2    H2  123   2.549   2.514  13.270 -0.6029 -0.8011  0.9382
    8MPD2    H3  124   2.582   2.769  13.251 -0.3076  1.5038 -1.1757
    8MPD2     N  125   2.152   2.839  13.155  0.0861 -0.1415 -0.0598
    8MPD2    H5  126   2.175   2.937  13.144  0.4777 -0.2020  0.2143
    8MPD2    N1  127   2.331   2.391  13.276 -0.1470  0.1760 -0.4027
    8MPD2    H7  128   2.415   2.352  13.317 -0.6490 -0.9008 -0.3908
    9TCq1    O1  129   0.084   0.719  11.229  0.8503 -0.6772  0.5852
    9TCq1    C1  130   0.152   0.824  11.280 -0.1235 -0.3056 -1.1463
    9TCq1    O2  131   0.182   0.844  11.397  0.2271 -0.1643 -0.2619
    9TCq1    C2  132   0.110   0.933  11.199  0.1932 -0.8215  0.1125
    9TCq1    C3  133   0.100   0.912  11.062 -0.3482  0.5016 -0.7577
    9TCq1    C4  134   0.057   1.014  10.989  0.3010  0.2708  0.5428
    9TCq1    C5  135   0.023   1.131  11.047  0.2424 -0.0461  0.1858
    9TCq1    C6  136   0.025   1.149  11.183 -0.0313 -0.2268  0.5542
    9TCq1    C7  137   0.075   1.044  11.262  0.0773 -0.1632  0.2850
    9TCq1    C8  138   4.708   1.268  11.256 -0.4959  0.1378 -0.7463
    9TCq1    O4  139   4.691   1.363  11.184  0.3761  0.7222 -0.9403
    9TCq1    C9  140   0.067   1.000  10.841  0.2401 -0.3835 -0.1308
    9TCq1    O5  141   4.719   1.076  10.772 -0.0654 -0.8702 -0.0378
    9TCq1    O6  142   0.124   0.894  10.795  0.2547 -0.3695  0.1820
    9TCq1    H1  143   0.055   0.735  11.136  1.2928 -1.4442  0.3149
    9TCq1    H2  144   0.136   0.824  11.010  2.0532  0.2297  1.3636
    9TCq1    H3  145   4.720   1.219  10.989 -2.1379 -0.8495 -0.0272
    9TCq1    H4  146   0.085   1.043  11.369 -2.5528  1.7064  0.5366
   10MPD2     C  147   0.002   1.495  11.447  0.2713 -0.2625  0.0896
   10MPD2    C1  148   4.703   1.371  11.485  0.0095  0.8819 -0.7926
   10MPD2    C2  149   4.670   1.346  11.613  0.1866 -0.5031 -0.1148
   10MPD2    C3  150   4.669   1.452  11.711  0.0034 -0.2259 -0.1406
   10MPD2    C4  151   4.689   1.578  11.666 -0.9377 -0.2103 -0.7844
   10MPD2    C5  152   4.719   1.602  11.538  0.0933  0.4117  0.4070
   10MPD2     H  153   4.646   1.244  11.643 -1.3844 -0.1818 -0.2765
   10MPD2    H1  154   4.691   1.662  11.735 -3.5852 -0.4342 -0.4494
   10MPD2    H2  155   0.017   1.524  11.343 -0.3285 -0.8904 -0.1755
   10MPD2    H3  156   0.027   1.700  11.505  0.0831  0.2065 -0.2061
   10MPD2     N  157   4.644   1.434  11.849 -0.1821 -0.0437  0.2634
   10MPD2    H5  158   4.641   1.522  11.899 -1.9988 -0.5653  1.0654
   10MPD2    N1  159   4.711   1.261  11.388  0.2367  0.1645  0.2139
   10MPD2    H7  160   4.716   1.172  11.436  0.2770  0.2763  0.4191
   11TCq1    O1  161   1.372   1.927  14.423 -0.2595  0.9491 -0.1058
   11TCq1    C1  162   1.317   1.806  14.402  0.5550  0.7672 -0.0111
   11TCq1    O2  163   1.277   1.764  14.298 -0.4031  0.0190 -0.3105
   11TCq1    C2  164   1.268   1.759  14.522 -0.0795 -0.8922 -0.6248
   11TCq1    C3  165   1.352   1.768  14.629 -0.4517 -0.3767  0.3104
   11TCq1    C4  166   1.320   1.704  14.748  0.1694  0.1456  0.5148
   11TCq1    C5  167   1.213   1.625  14.755 -0.2149 -0.5767 -0.3310
   11TCq1    C6  168   1.145   1.598  14.640 -0.3725 -0.8274 -0.2072
   11TCq1    C7  169   1.177   1.659  14.525 -0.3645  0.0040  0.0232
   11TCq1    C8  170   1.018   1.532  14.657 -0.3442 -0.4661  0.5223
   11TCq1    O4  171   0.994   1.483  14.767  0.0443  0.2610  0.2298
   11TCq1    C9  172   1.393   1.736  14.868 -0.5023 -0.2458 -0.2114
   11TCq1    O5  173   1.356   1.680  14.975  0.0877 -0.0090  0.4544
   11TCq1    O6  174   1.480   1.829  14.859 -0.3248 -0.0792 -0.0652
   11TCq1    H1  175   1.374   1.950  14.518  0.2220 -0.7970  0.3190
   11TCq1    H2  176   1.429   1.845  14.630  2.8690 -3.6979  0.5111
   11TCq1    H3  177   1.185   1.573  14.845 -0.7457  0.0759 -0.1196
   11TCq1    H4  178   1.112   1.658  14.438 -2.6667 -0.3882  1.7350
   12MPD2     C  179   0.732   1.481  14.608  0.0100  0.3194 -0.1855
   12MPD2    C1  180   0.832   1.447  14.519  0.1546 -0.0419  0.3807
   12MPD2    C2  181   0.796   1.386  14.398  0.8273 -0.0475  0.0129
   12MPD2    C3  182   0.662   1.340  14.381  0.2968  0.3878  0.1387
   12MPD2    C4  183   0.568   1.368  14.473  1.1143  0.2155 -0.5221
   12MPD2    C5  184   0.601   1.438  14.584  0.2447  0.1502 -0.1520
   12MPD2     H  185   0.866   1.389  14.315  0.3671  0.8052 -0.3367
   12MPD2    H1  186   0.467   1.329  14.466  1.0972  0.0207  0.8113
   12MPD2    H2  187   0.745   1.534  14.701  0.2136  3.6710 -2.1167
   12MPD2    H3  188   0.527   1.471  14.656 -3.1230 -1.5887 -2.7752
   12MPD2     N  189   0.630   1.269  14.262 -0.0588  0.6764  0.1322
   12MPD2    H5  190   0.708   1.264  14.197 -0.2005 -0.0555  0.0271
   12MPD2    N1  191   0.966   1.489  14.534 -0.3214  0.6722 -0.3001
   12MPD2    H7  192   1.026   1.493  14.452  0.0599  1.3518  0.0156
   13TCq1    O1  193   0.349   0.372  11.080 -0.1716  0.6554  0.3640
   13TCq1    C1  194   0.362   0.341  10.951  0.0743  0.0401 -0.1644
   13TCq1    O2  195   0.463   0.303  10.890  0.3013 -0.3037 -0.1487
   13TCq1    C2  196   0.236   0.362  10.879 -0.6556 -0.3169 -0.1486
   13TCq1    C3  197   0.222   0.293  10.764 -0.2567  0.4957  0.6385
   13TCq1    C4  198   0.110   0.322  10.688  0.0898 -0.0672 -0.2437
   13TCq1    C5  199   0.026   0.423  10.719  0.7389  0.3755  0.4238
   13TCq1    C6  200   0.044   0.493  10.835  1.0332 -0.4019 -0.7815
   13TCq1    C7  201   0.153   0.466  10.917  0.4958  0.5190 -0.3616
   13TCq1    C8  202   4.670   0.596  10.885 -0.4758 -0.0812 -0.3374
   13TCq1    O4  203   4.698   0.646  10.991  0.8153 -0.1126 -0.1665
   13TCq1    C9  204   0.099   0.260  10.557  0.0835 -0.5537 -0.5837
   13TCq1    O5  205   4.720   0.286  10.491 -0.3763 -0.2690 -0.5303
   13TCq1    O6  206   0.176   0.158  10.538 -0.1976 -0.5646  0.0799
   13TCq1    H1  207   0.256   0.374  11.113 -0.2905 -2.7336  0.2102
   13TCq1    H2  208   0.281   0.206  10.736 -1.1499 -0.3806  1.4919
   13TCq1    H3  209   4.669   0.454  10.652  0.0109 -2.4601 -0.0571
   13TCq1    H4  210   0.178   0.529  11.002  0.8892  0.9680 -0.8159
   14MPD2     C  211   4.387   0.779  10.737  0.6197 -1.0601  0.0838
   14MPD2    C1  212   4.474   0.738  10.831 -0.6019  0.3027  0.2262
   14MPD2    C2  213   4.476   0.812  10.947 -0.1740  0.6837 -0.3619
   14MPD2    C3  214   4.404   0.932  10.958 -0.4430  0.4815 -0.8515
   14MPD2    C4  215   4.317   0.970  10.863 -0.9793 -0.0478  0.7727
   14MPD2    C5  216   4.307   0.894  10.749  0.4589  0.7333  0.1319
   14MPD2     H  217   4.539   0.793  11.033  0.8775  0.9189 -1.0699
   14MPD2    H1  218   4.264   1.064  10.866  0.7381  0.9228  1.0548
   14MPD2    H2  219   4.393   0.729  10.642 -3.5260 -0.0061 -0.7299
   14MPD2    H3  220   4.239   0.934  10.675 -0.8192 -2.6853 -0.5481
   14MPD2     N  221   4.408   1.001  11.082 -0.7691 -0.0266 -0.6390
   14MPD2    H5  222   4.448   0.962  11.167 -2.7867 -3.1202 -1.0926
   14MPD2    N1  223   4.558   0.621  10.813 -0.3065 -0.1271  0.3696
   14MPD2    H7  224   4.555   0.569  10.725 -0.4638  1.3553 -0.4949
   15TCq1    O1  225   1.866   0.497   2.111  0.2958  0.2287 -0.3410
   15TCq1    C1  226   1.789   0.605   2.148  0.0171  1.0588 -0.3844
   15TCq1    O2  227   1.826   0.709   2.197 -0.0939 -0.0730  0.1938
   15TCq1    C2  228   1.658   0.577   2.092  0.1511  0.1359  0.2426
   15TCq1    C3  229   1.552   0.647   2.145  0.0963  0.0362  0.3819
   15TCq1    C4  230   1.434   0.650   2.077 -0.1481 -1.1289  0.3811
   15TCq1    C5  231   1.418   0.594   1.949 -0.1704 -0.0175  0.3673
   15TCq1    C6  232   1.530   0.530   1.904  0.6054 -0.3984  0.1364
   15TCq1    C7  233   1.653   0.519   1.968  0.3446  0.0718  0.9260
   15TCq1    C8  234   1.511   0.477   1.769 -0.2977  0.3419  0.5098
   15TCq1    O4  235   1.414   0.527   1.706  0.1980 -0.0842 -0.7538
   15TCq1    C9  236   1.330   0.740   2.125 -0.0935  0.2705  0.3268
   15TCq1    O5  237   1.342   0.763   2.252  0.5948  0.3971  0.5387
   15TCq1    O6  238   1.221   0.753   2.058  0.3784 -0.0121 -0.6607
   15TCq1    H1  239   1.819   0.411   2.111  0.6658  0.0180 -1.0748
   15TCq1    H2  240   1.552   0.692   2.243 -0.2883  1.0127 -0.0585
   15TCq1    H3  241   1.323   0.605   1.898  1.1638 -0.7162 -2.2821
   15TCq1    H4  242   1.732   0.460   1.922 -0.0086 -0.1212  0.5751
   16MPD2     C  243   1.525   0.346   1.505 -0.5644  0.4548  0.3678
   16MPD2    C1  244   1.582   0.293   1.622 -0.0735  0.3407 -0.3967
   16MPD2    C2  245   1.648   0.172   1.610  0.4911 -0.2103 -0.3944
   16MPD2    C3  246   1.656   0.096   1.499  0.4830 -0.5444  0.1982
   16MPD2    C4  247   1.607   0.151   1.386 -0.1273  0.3257 -0.5801
   16MPD2    C5  248   1.535   0.274   1.391  0.0098  0.3124  0.3487
   16MPD2     H  249   1.693   0.135   1.702  0.0679  0.4798  0.0898
   16MPD2    H1  250   1.612   0.103   1.288 -0.7115  1.0080 -0.9476
   16MPD2    H2  251   1.470   0.439   1.499 -1.0653  0.2251  1.4739
   16MPD2    H3  252   1.484   0.311   1.303  0.9726  0.3285 -0.1985
   16MPD2     N  253   1.731   4.702   1.509  0.4134  0.4035  0.0793
   16MPD2    H5  254   1.772   4.678   1.599 -0.8055 -0.7785  0.3254
   16MPD2    N1  255   1.578   0.360   1.746  0.3102 -0.2502  0.0559
   16MPD2    H7  256   1.604   0.301   1.825 -1.9867  0.5442  1.4177
   17TCq1    O1  257   3.974   0.772  10.977  0.3015  0.1187 -0.1257
   17TCq1    C1  258   4.077   0.822  11.048 -0.1546  0.7203 -0.4507
   17TCq1    O2  259   4.075   0.924  11.116  0.4049  0.2934 -0.2477
   17TCq1    C2  260   4.149   0.708  11.089  0.3818 -0.1526  0.5072
   17TCq1    C3  261   4.192   0.705  11.213  0.1803  0.1428 -0.5868
   17TCq1    C4  262   4.250   0.584  11.252 -0.6422  0.7545 -0.1951
   17TCq1    C5  263   4.288   0.491  11.160  0.1576  0.2419  0.7081
   17TCq1    C6  264   4.257   0.516  11.033  0.3321  0.4057 -0.4445
   17TCq1    C7  265   4.184   0.625  10.989 -0.3962 -1.4041  0.2173
   17TCq1    C8  266   4.312   0.422  10.931  0.5070  0.4799  1.0305
   17TCq1    O4  267   4.263   0.418  10.818  0.1781 -0.5865 -0.4265
   17TCq1    C9  268   4.273   0.556  11.398  0.3260  0.5120 -0.3243
   17TCq1    O5  269   4.275   0.647  11.484 -0.2197 -0.7237  0.1822
   17TCq1    O6  270   4.340   0.448  11.428  0.5687 -0.6391 -0.0004
   17TCq1    H1  271   3.990   0.678  10.956 -1.6525 -0.6710  1.8391
   17TCq1    H2  272   4.166   0.778  11.288  1.1706  1.0460 -1.1305
   17TCq1    H3  273   4.318   0.390  11.186 -3.1884 -1.0369 -0.4503
   17TCq1    H4  274   4.176   0.659  10.887 -0.4083 -1.0481  0.3351
   18MPD2     C  275   4.462   0.206  10.781 -0.3030  0.4086  0.2459
   18MPD2    C1  276   4.492   0.246  10.915  0.1400  0.0577  0.6439
   18MPD2    C2  277   4.604   0.187  10.977  0.0470 -0.5799  0.7673
   18MPD2    C3  278   4.685   0.093  10.904  0.0575 -0.1350 -0.0470
   18MPD2    C4  279   4.654   0.059  10.780 -0.6298  0.4213  0.1050
   18MPD2    C5  280   4.541   0.110  10.720  0.9037  0.5936  0.2618
   18MPD2     H  281   4.623   0.216  11.079  0.8069  1.3360  0.0777
   18MPD2    H1  282   4.707   4.705  10.724  1.9921  1.2775  1.4182
   18MPD2    H2  283   4.374   0.239  10.728  1.4926  2.1652 -1.6368
   18MPD2    H3  284   4.507   0.085  10.620  1.2596 -1.7104  0.7185
   18MPD2     N  285   0.089   0.039  10.949  0.1801 -0.0887  0.0554
   18MPD2    H5  286   0.142   4.704  10.884  1.3115 -1.5568  2.2556
   18MPD2    N1  287   4.419   0.350  10.980 -0.2166  0.2627  0.0301
   18MPD2    H7  288   4.450   0.380  11.072 -0.8325  0.5763  0.1385
   19TMC2    C1  289   2.145   1.074  14.165  0.2219  0.2053  0.0276
   19TMC2    C2  290   2.117   1.185  14.085 -0.6735  0.3388  0.0989
   19TMC2    C3  291   1.996   1.197  14.026  0.7212 -0.4872  0.6361
   19TMC2    C4  292   2.058   0.974  14.184 -0.9758 -0.7018  0.2850
   19TMC2    C5  293   1.947   0.983  14.106  0.1599 -0.0054  0.6486
   19TMC2    C6  294   1.912   1.091  14.026  0.2505  0.5783 -0.6631
   19TMC2     C  295   2.241   1.102  14.269 -0.3027  0.0815  0.4659
   19TMC2     O  296   2.314   1.195  14.247  0.2695 -0.0251 -0.6318
   19TMC2     H  297   2.178   1.273  14.075 -0.6714  0.1572 -1.5003
   19TMC2    H1  298   2.084   0.880  14.233 -0.8433 -0.6537  0.3064
   19TMC2    H2  299   1.821   1.085  13.968 -0.0666 -0.8619 -0.0348
   19TMC2    C7  300   1.866   0.870  14.098  0.1672 -0.4378 -0.0375
   19TMC2    C8  301   1.987   1.292  13.920 -0.5273  0.4041 -0.2016
   19TMC2    O1  302   1.872   0.797  14.196  0.3697  0.4398  0.3589
   19TMC2    O2  303   2.074   1.373  13.896  0.0975 -0.7888  0.4425
   19TMC2    O5  304   1.880   1.269  13.838 -0.2710 -0.0389 -0.0909
   19TMC2    H5  305   1.797   1.295  13.882 -0.6441 -0.3155 -0.6186
   20MPD2     C  306   2.396   1.143  14.521  0.6741 -0.1992  0.7161
   20MPD2    C1  307   2.282   1.060  14.511  0.5184 -0.1287  0.3974
   20MPD2    C2  308   2.226   1.028  14.639 -0.3542  0.1562  0.8581
   20MPD2    C3  309   2.282   1.064  14.757 -0.3841  0.1626 -0.6569
   20MPD2    C4  310   2.395   1.140  14.758  0.3203  0.2934 -0.4275
   20MPD2    C5  311   2.451   1.177  14.638 -0.6851 -0.1181  0.5705
   20MPD2     H  312   2.132   0.974  14.642 -0.2425 -0.2026 -1.5053
   20MPD2    H1  313   2.440   1.177  14.850 -1.6554  0.6202  0.4142
   20MPD2    H2  314   2.447   1.177  14.432  0.1207  0.8731  0.8129
   20MPD2    H3  315   2.542   1.234  14.648 -0.3862 -0.4951  0.0073
   20MPD2     N  316   2.228   1.028  14.883 -0.0648  0.6100  0.2877
   20MPD2    H5  317   2.272   1.065  14.967  1.9961  0.8485 -0.8988
   20MPD2    N1  318   2.210   1.040  14.391  0.1048  0.3335  0.4506
   20MPD2    H7  319   2.129   0.980  14.401  0.8051 -0.5664  0.7528
   21MPD2     C  320   3.863   1.459  14.249 -0.2137  0.4776 -0.1854
   21MPD2    C1  321   3.891   1.353  14.331 -0.7812 -0.4969  0.2550
   21MPD2    C2  322   3.804   1.320  14.424 -0.6056 -0.1923  0.7959
   21MPD2    C3  323   3.682   1.394  14.443  0.0332  0.0262 -0.5929
   21MPD2    C4  324   3.655   1.493  14.360 -0.5931 -1.0936 -0.0685
   21MPD2    C5  325   3.745   1.533  14.264  0.1602  0.2847  0.3966
   21MPD2     H  326   3.832   1.243  14.494 -0.1594  0.7508  1.6641
   21MPD2    H1  327   3.564   1.552  14.354 -1.4063 -2.3354  0.2372
   21MPD2    H2  328   3.933   1.488  14.171 -0.9032  3.9377  0.5199
   21MPD2    H3  329   3.723   1.622  14.205 -0.1871 -0.8827 -1.2225
   21MPD2     N  330   3.591   1.373  14.553  0.0728  0.2685 -0.1548
   21MPD2    H5  331   3.521   1.446  14.562 -0.0516 -0.0159  1.1446
   21MPD2    N1  332   4.008   1.280  14.316  0.1222 -0.2124 -0.7558
   21MPD2    H7  333   4.015   1.202  14.381 -0.2493  0.0846 -0.3562
   22TCq2    C1  334   3.610   1.278  14.655 -0.2433  0.4334 -0.0088
   22TCq2    O2  335   3.678   1.181  14.662  0.0694 -0.2162 -0.1662
   22TCq2    C2  336   3.581   1.344  14.785 -0.0545 -0.1559 -0.1262
   22TCq2    C3  337   3.630   1.278  14.896  0.3766 -0.4194  0.0857
   22TCq2    C4  338   3.645   1.345  15.009  0.6743 -0.0828 -1.1448
   22TCq2    C5  339   3.603   1.477  15.017  0.2832  0.1197  0.4354
   22TCq2    C6  340   3.553   1.541  14.909  0.3926  0.7946  0.6579
   22TCq2    C7  341   3.540   1.476  14.792 -0.2952  0.5173  0.3438
   22TCq2    C8  342   3.527   1.687  14.917  0.7057 -0.2485  0.1410
   22TCq2    O4  343   3.613   1.759  14.971  0.1757  0.5165 -0.1291
   22TCq2    C9  344   3.698   1.289  15.131 -0.6165  0.7546  0.3238
   22TCq2    O5  345   3.730   1.168  15.129 -0.1021  0.0422 -0.0888
   22TCq2    O6  346   3.707   1.353  15.236 -0.5444  0.2716 -0.1988
   22TCq2    H2  347   3.664   1.176  14.885  1.4500 -0.1184  0.5604
   22TCq2    H3  348   3.615   1.527  15.113  0.2722  2.8072 -0.9715
   22TCq2    H4  349   3.515   1.537  14.706 -2.7561 -0.8501  0.0894
   23MPD2     C  350   1.066   2.349  15.043  0.5995  0.5980 -1.3113
   23MPD2    C1  351   0.931   2.323  15.030  0.4530  0.6209  0.4785
   23MPD2    C2  352   0.853   2.410  14.965 -0.3479 -0.1675 -0.3533
   23MPD2    C3  353   0.903   2.521  14.899 -0.1715  0.0586  0.1114
   23MPD2    C4  354   1.037   2.545  14.903  0.3956 -0.5974  0.5438
   23MPD2    C5  355   1.119   2.458  14.975  0.0383 -0.6829  0.5359
   23MPD2     H  356   0.748   2.383  14.963 -0.0911 -1.1322 -0.8789
   23MPD2    H1  357   1.078   2.639  14.869 -1.2696  0.2575  0.9024
   23MPD2    H2  358   1.135   2.288  15.100  0.6519  0.1325 -1.8786
   23MPD2    H3  359   1.221   2.491  14.984 -0.4145  0.7714  0.2575
   23MPD2     N  360   0.831   2.603  14.812  0.2987 -0.0588  0.1563
   23MPD2    H5  361   0.890   2.673  14.768  2.1330 -3.1171 -2.2268
   23MPD2    N1  362   0.864   2.210  15.097  0.1310 -0.2627  0.9410
   23MPD2    H7  363   0.763   2.202  15.090  0.1997  0.1937 -0.6250
   24TCq2    C1  364   0.690   2.600  14.796  0.5884  0.2801 -0.4553
   24TCq2    O2  365   0.601   2.537  14.855 -0.5088 -0.0777  0.5984
   24TCq2    C2  366   0.647   2.694  14.694 -0.2735 -1.0715 -0.5985
   24TCq2    C3  367   0.733   2.785  14.633  0.1332  0.2810 -0.1315
   24TCq2    C4  368   0.701   2.841  14.508  0.0348  0.0650 -0.1119
   24TCq2    C5  369   0.588   2.808  14.446  0.3239  0.2693  0.1621
   24TCq2    C6  370   0.511   2.715  14.502 -0.6813  0.0818 -0.5612
   24TCq2    C7  371   0.530   2.662  14.628  0.8377 -0.5572 -0.6877
   24TCq2    C8  372   0.413   2.656  14.419 -0.2005  0.1920  0.2041
   24TCq2    O4  373   0.444   2.650  14.296  0.2092  0.6902 -0.8661
   24TCq2    C9  374   0.784   2.938  14.453 -0.1670 -0.3347 -1.0017
   24TCq2    O5  375   0.908   2.929  14.482 -0.0531 -0.6554 -0.3548
   24TCq2    O6  376   0.725   3.019  14.376  0.4733 -0.2013 -0.2774
   24TCq2    H2  377   0.825   2.816  14.681  0.1701 -0.9429  0.6030
   24TCq2    H3  378   0.558   2.843  14.348 -0.9068 -0.9176  0.1064
   24TCq2    H4  379   0.471   2.583  14.674  0.3039  0.9121  1.1404
   25TMC2    C1  380   4.555   0.087  11.567  0.5033  0.1526  0.8033
   25TMC2    C2  381   4.625   0.205  11.575  0.3780 -0.2719  0.4609
   25TMC2    C3  382   4.634   0.261  11.697  0.5855  0.3304  0.2041
   25TMC2    C4  383   4.492   0.029  11.675  0.3251  0.8763 -0.5404
   25TMC2    C5  384   4.505   0.084  11.801 -0.0837 -0.1395  0.6177
   25TMC2    C6  385   4.575   0.204  11.810 -0.9301  0.2788  0.4213
   25TMC2     C  386   4.530   0.041  11.432  0.8466  0.4344  0.2903
   25TMC2     O  387   4.566   0.124  11.350 -0.6508 -0.6399 -0.5366
   25TMC2     H  388   4.679   0.253  11.494  2.2105  0.0319  1.8869
   25TMC2    H1  389   4.414   4.678  11.658  0.7375  0.0763  1.0214
   25TMC2    H2  390   4.595   0.240  11.910  1.4430 -2.1838  0.8695
   25TMC2    C7  391   4.445   0.028  11.920  0.3219  0.0531 -0.0635
   25TMC2    C8  392   0.016   0.360  11.722  0.4922  0.1182 -0.2309
   25TMC2    O1  393   4.427   0.102  12.014 -0.9585  0.1502 -0.1353
   25TMC2    O2  394   0.012   0.429  11.826 -0.0360  0.4625  0.1345
   25TMC2    O5  395   0.125   0.307  11.672 -0.5122  0.5936  0.0533
   25TMC2    H5  396   0.100   0.238  11.607  1.0940 -1.2307  1.3867
   26MPD2     C  397   4.485   4.401  11.069  0.6703  0.4845  0.4791
   26MPD2    C1  398   4.426   4.352  11.185 -0.1455  0.4299  0.8540
   26MPD2    C2  399   4.430   4.435  11.294  0.1852 -0.0985  0.0860
   26MPD2    C3  400   4.483   4.565  11.295  0.4782  0.5965  1.2911
   26MPD2    C4  401   4.537   4.609  11.179  0.5205 -0.2444 -1.0746
   26MPD2    C5  402   4.532   4.531  11.068 -0.1420 -0.4494 -0.3012
   26MPD2     H  403   4.392   4.400  11.390 -0.1133 -2.4046 -0.8946
   26MPD2    H1  404   4.572   4.711  11.169  0.7909 -0.1358  1.1580
   26MPD2    H2  405   4.507   4.348  10.978 -0.0474  0.1725  0.4895
   26MPD2    H3  406   4.577   4.575  10.979 -2.4656 -1.0193 -1.7728
   26MPD2     N  407   4.484   4.632  11.418 -0.1344 -0.2581  0.1571
   26MPD2    H5  408   4.464   4.582  11.504  1.6373 -0.5456  0.3946
   26MPD2    N1  409   4.384   4.214  11.185 -0.0010 -0.4625 -0.8245
   26MPD2    H7  410   4.403   4.161  11.101  0.1063  0.3623 -1.3289
   27TMC2    C1  411   3.433   1.773  12.263 -0.1600  0.4548 -0.6657
   27TMC2    C2  412   3.502   1.776  12.146 -0.4100  0.5167  0.7661
   27TMC2    C3  413   3.580   1.884  12.113 -0.2999  0.0684 -0.0127
   27TMC2    C4  414   3.462   1.863  12.362 -0.3490 -0.1032 -0.8510
   27TMC2    C5  415   3.540   1.967  12.327  0.4811 -0.3494 -0.3581
   27TMC2    C6  416   3.605   1.982  12.203  0.5408 -0.4058  0.0969
   27TMC2     C  417   3.360   1.661  12.294 -0.5111 -0.0602  0.0912
   27TMC2     O  418   3.408   1.551  12.278  0.3173  0.0863  0.0590
   27TMC2     H  419   3.477   1.696  12.077  0.4400 -0.3914  1.5264
   27TMC2    H1  420   3.437   1.831  12.463  1.4272 -0.5250 -0.5373
   27TMC2    H2  421   3.664   2.069  12.179  0.3989  0.2848  2.2204
   27TMC2    C7  422   3.535   2.078  12.421  0.9674  0.0753 -0.8564
   27TMC2    C8  423   3.651   1.893  11.983 -0.1764  0.6613 -0.1337
   27TMC2    O1  424   3.620   2.165  12.399 -0.1851  0.2039  0.4963
   27TMC2    O2  425   3.746   1.967  11.980 -0.2569  0.3428  0.0102
   27TMC2    O5  426   3.639   1.774  11.916  0.1664 -0.2789  0.0395
   27TMC2    H5  427   3.545   1.748  11.904  0.1768 -0.2144 -0.1845
   28MPD2     C  428   2.936   1.516  12.552  0.3053 -0.1438 -0.6480
   28MPD2    C1  429   2.963   1.646  12.573  0.7226 -0.3840  0.3892
   28MPD2    C2  430   3.062   1.710  12.502 -0.4905  0.9102 -0.1486
   28MPD2    C3  431   3.145   1.641  12.417 -0.6079  0.1833  0.6313
   28MPD2    C4  432   3.129   1.507  12.407  0.3667  0.0308 -0.4146
   28MPD2    C5  433   3.024   1.452  12.468  0.0186 -0.8923  0.3258
   28MPD2     H  434   3.087   1.815  12.508 -0.0787  0.8528 -0.8203
   28MPD2    H1  435   3.192   1.445  12.344  0.2280  0.1512 -0.6725
   28MPD2    H2  436   2.859   1.463  12.607  0.3100  0.0801 -0.4248
   28MPD2    H3  437   3.009   1.345  12.468 -0.7833 -0.7833  0.7304
   28MPD2     N  438   3.252   1.708  12.360 -0.1301  0.2372 -0.6586
   28MPD2    H5  439   3.254   1.809  12.360 -0.6407  0.2479 -0.1868
   28MPD2    N1  440   2.870   1.709  12.661 -0.1828 -0.0676 -0.7258
   28MPD2    H7  441   2.794   1.655  12.701 -0.4494  0.2178 -0.8435
   29MPD2     C  442   2.904   4.147  14.102  0.5010  0.6000  0.4616
   29MPD2    C1  443   3.014   4.090  14.154  0.1912  0.7085  0.0407
   29MPD2    C2  444   3.085   4.173  14.235  0.3669 -0.8436 -0.0454
   29MPD2    C3  445   3.042   4.301  14.272 -0.2057 -0.5098 -0.4594
   29MPD2    C4  446   2.933   4.348  14.213 -0.0412 -0.1251 -0.4109
   29MPD2    C5  447   2.876   4.276  14.114  0.1432 -0.3897 -0.4094
   29MPD2     H  448   3.161   4.124  14.295  1.5683  2.2164  0.9204
   29MPD2    H1  449   2.893   4.445  14.237  0.1021 -0.2278  0.2278
   29MPD2    H2  450   2.846   4.093  14.028 -1.3695 -1.2093  3.2535
   29MPD2    H3  451   2.786   4.304  14.061  1.5655  0.6419 -2.2991
   29MPD2     N  452   3.103   4.387  14.368 -0.1873  0.0507  0.0108
   29MPD2    H5  453   3.050   4.463  14.412  0.4281  0.8041 -0.5512
   29MPD2    N1  454   3.054   3.959  14.124  0.1044 -0.1660 -0.0010
   29MPD2    H7  455   3.149   3.936  14.154 -0.4321 -0.7946  1.2053
   30TCq2    C1  456   3.226   4.371  14.428 -0.2721 -0.1573  0.0722
   30TCq2    O2  457   3.320   4.320  14.369  0.0088 -0.2457 -0.2713
   30TCq2    C2  458   3.259   4.461  14.544 -0.1298 -0.2992  0.2741
   30TCq2    C3  459   3.147   4.508  14.614  0.4218 -0.5307 -0.0237
   30TCq2    C4  460   3.159   4.605  14.710  0.5524  0.3781  0.3921
   30TCq2    C5  461   3.279   4.659  14.738 -0.4727 -0.2971 -0.2392
   30TCq2    C6  462   3.385   4.625  14.656 -0.6657 -0.1762  0.9080
   30TCq2    C7  463   3.381   4.524  14.560 -0.1763 -0.4151  0.9265
   30TCq2    C8  464   3.483   0.013  14.635 -0.3985 -0.0346  0.5344
   30TCq2    O4  465   3.585   4.709  14.569 -0.1498  0.2630  0.1597
   30TCq2    C9  466   3.050   4.650  14.791 -0.0753 -0.3298 -0.0839
   30TCq2    O5  467   3.072   4.717  14.891  0.8694 -0.9273  0.0698
   30TCq2    O6  468   2.938   4.623  14.751  0.2336 -0.3925  0.4540
   30TCq2    H2  469   3.047   4.471  14.594  0.1780 -0.1577  0.5122
   30TCq2    H3  470   3.283   0.015  14.813 -0.0293  0.4945 -1.0846
   30TCq2    H4  471   3.466   4.491  14.501 -0.7688  0.3785 -0.3686
   31MPD2     C  472   1.318   2.997  15.035  0.0962  0.7516  0.3793
   31MPD2    C1  473   1.188   2.962  15.014  0.1566  0.7631 -0.2684
   31MPD2    C2  474   1.133   2.855  15.086  0.7375  0.1436  0.1577
   31MPD2    C3  475   1.211   2.791  15.177  0.3522 -0.0263  0.6007
   31MPD2    C4  476   1.344   2.831  15.205  0.3977 -0.6210 -0.5463
   31MPD2    C5  477   1.395   2.930  15.128  0.0452 -0.3665  0.7897
   31MPD2     H  478   1.029   2.825  15.074  0.6345  1.1414 -1.3745
   31MPD2    H1  479   1.397   2.785  15.288 -1.3785 -1.2432  0.2522
   31MPD2    H2  480   1.360   3.082  14.984  1.7275 -0.0660  0.3669
   31MPD2    H3  481   1.500   2.955  15.141  0.1012  0.2251 -0.7725
   31MPD2     N  482   1.165   2.689  15.260  0.0653 -0.4042  0.6247
   31MPD2    H5  483   1.227   2.633  15.318  1.0821  3.8660  3.6438
   31MPD2    N1  484   1.109   3.046  14.925  0.1920 -0.0720 -0.1320
   31MPD2    H7  485   1.160   3.127  14.891  1.1529 -0.7603 -0.3343
   32TCq2    C1  486   1.033   2.643  15.264  0.2316 -1.0051  0.4287
   32TCq2    O2  487   0.924   2.691  15.228 -0.5250 -0.4321  0.4687
   32TCq2    C2  488   1.031   2.520  15.347  0.1697 -0.2022  0.0772
   32TCq2    C3  489   1.133   2.430  15.368  0.2277 -0.5920  0.2830
   32TCq2    C4  490   1.116   2.334  15.467  0.6825 -0.3983 -0.5793
   32TCq2    C5  491   1.010   2.334  15.554  0.3498 -0.6872 -0.5750
   32TCq2    C6  492   0.906   2.419  15.527 -0.0791 -0.2659  0.3306
   32TCq2    C7  493   0.917   2.504  15.420 -0.0564 -0.4081  0.5398
   32TCq2    C8  494   0.812   2.443  15.635  0.4412 -0.2387  0.6012
   32TCq2    O4  495   0.856   2.419  15.749 -0.0310  0.1169 -0.3015
   32TCq2    C9  496   1.218   2.236  15.495  0.2724  0.1750  0.3208
   32TCq2    O5  497   1.181   2.143  15.570 -0.0034  0.0224  0.5564
   32TCq2    O6  498   1.313   2.227  15.412  0.4094 -0.0643 -0.0663
   32TCq2    H2  499   1.227   2.433  15.314 -0.2312 -2.5102 -0.6022
   32TCq2    H3  500   0.995   2.263  15.634 -1.3671  2.4894  1.9349
   32TCq2    H4  501   0.836   2.575  15.406 -1.8827 -2.5418  0.2608
   33MPD2     C  502   0.347   4.287  10.648  0.2218  0.3956  0.0567
   33MPD2    C1  503   0.440   4.384  10.672  0.1079  0.8397 -0.4600
   33MPD2    C2  504   0.520   4.434  10.560  0.9559  0.0399  0.3526
   33MPD2    C3  505   0.495   4.385  10.429  0.9639  0.2680 -0.4208
   33MPD2    C4  506   0.401   4.289  10.414  0.3156  0.5554  0.4834
   33MPD2    C5  507   0.335   4.241  10.527  0.3317  0.1486  0.4648
   33MPD2     H  508   0.606   4.499  10.572  0.7926  0.4798 -0.8462
   33MPD2    H1  509   0.366   4.249  10.319  1.2722 -2.5561  1.4264
   33MPD2    H2  510   0.285   4.249  10.728  0.0360  2.3970  0.8667
   33MPD2    H3  511   0.263   4.162  10.511 -0.4131  1.2813 -1.6886
   33MPD2     N  512   0.552   4.434  10.308 -0.4353 -0.6027 -0.4838
   33MPD2    H5  513   0.519   4.387  10.224  1.4037 -3.3086  0.2838
   33MPD2    N1  514   0.443   4.430  10.806 -0.0347  0.1813 -0.2294
   33MPD2    H7  515   0.384   4.390  10.879  0.1714  0.5360  0.1347
   34TCq2    C1  516   0.638   4.542  10.305 -0.2285 -0.8667 -0.1199
   34TCq2    O2  517   0.664   4.624  10.389 -0.4386  0.2363 -0.3779
   34TCq2    C2  518   0.664   4.573  10.169  0.4499 -0.6367 -0.6322
   34TCq2    C3  519   0.686   4.466  10.087  0.4165  0.0712  0.4290
   34TCq2    C4  520   0.753   4.492   9.966  0.9955 -1.0493 -0.2571
   34TCq2    C5  521   0.784   4.614   9.930  0.5754  0.1418 -0.4628
   34TCq2    C6  522   0.758   4.715  10.013 -0.7440 -0.4977  0.4420
   34TCq2    C7  523   0.697   4.699  10.138  0.4462 -0.2689 -0.2914
   34TCq2    C8  524   0.778   0.126   9.963 -0.4860 -0.3923 -0.1316
   34TCq2    O4  525   0.801   0.212  10.048  0.9711  0.0054 -0.0220
   34TCq2    C9  526   0.765   4.391   9.869  0.0472 -0.0742  0.5060
   34TCq2    O5  527   0.709   4.284   9.897 -0.4110  0.0191 -0.5927
   34TCq2    O6  528   0.816   4.414   9.757  0.2812  0.4076  0.5710
   34TCq2    H2  529   0.654   4.366  10.114 -1.5484  0.1737 -1.5979
   34TCq2    H3  530   0.824   4.635   9.831 -0.8301  2.7291 -0.4904
   34TCq2    H4  531   0.675   0.064  10.198 -0.0098 -1.9749  2.0135
   35MPD2     C  532   2.509   2.650  12.003  0.8220 -0.0448  0.0154
   35MPD2    C1  533   2.474   2.522  12.027 -0.3901  0.5320  0.1930
   35MPD2    C2  534   2.396   2.454  11.937  0.5041 -0.0471 -0.3039
   35MPD2    C3  535   2.373   2.513  11.816 -0.0043  0.1636 -0.4780
   35MPD2    C4  536   2.415   2.642  11.786 -0.3176 -0.3095 -0.4133
   35MPD2    C5  537   2.476   2.711  11.885  0.2658  0.1008  0.0721
   35MPD2     H  538   2.365   2.351  11.953  1.1492 -0.3421 -0.9848
   35MPD2    H1  539   2.388   2.703  11.701  1.1946 -0.8246 -1.2698
   35MPD2    H2  540   2.566   2.707  12.076 -2.7314 -1.8103  4.2084
   35MPD2    H3  541   2.501   2.815  11.870  1.4966 -0.2013  0.0276
   35MPD2     N  542   2.292   2.448  11.720  0.3153  0.4934 -0.5505
   35MPD2    H5  543   2.298   2.490  11.628 -0.8863 -0.4667 -1.0748
   35MPD2    N1  544   2.532   2.461  12.140 -0.0066  0.3632 -0.3017
   35MPD2    H7  545   2.559   2.526  12.212 -2.5372  2.1011 -0.9324
   36TCq2    C1  546   2.217   2.330  11.725 -0.0930  0.7637  0.3719
   36TCq2    O2  547   2.206   2.257  11.822 -0.3764 -0.2059 -0.5900
   36TCq2    C2  548   2.128   2.303  11.609 -0.0058  0.4840 -0.1643
   36TCq2    C3  549   2.130   2.393  11.505 -0.0832  0.4490 -0.4796
   36TCq2    C4  550   2.067   2.368  11.386 -0.5643  0.3702  0.8620
   36TCq2    C5  551   2.011   2.249  11.366  0.4216 -0.5004  0.5855
   36TCq2    C6  552   2.007   2.165  11.477  0.2225  1.0550 -0.2281
   36TCq2    C7  553   2.052   2.191  11.602 -0.4301 -0.4019 -0.0601
   36TCq2    C8  554   1.935   2.041  11.458 -0.1340 -0.1622  0.3630
   36TCq2    O4  555   1.935   1.990  11.348 -0.1752  0.2450 -1.1495
   36TCq2    C9  556   2.058   2.462  11.278  0.1592 -0.2403  0.0718
   36TCq2    O5  557   1.958   2.461  11.207  0.0935 -0.0443 -0.7158
   36TCq2    O6  558   2.145   2.552  11.271  0.1692 -0.2640 -0.0042
   36TCq2    H2  559   2.165   2.495  11.513  0.5811  0.0375  1.8734
   36TCq2    H3  560   1.986   2.216  11.266  2.6229  0.1681 -0.2005
   36TCq2    H4  561   2.073   2.113  11.675 -0.9193 -0.7454 -0.2877
   37TMC2    C1  562   3.979   1.624  11.987  0.0063 -0.2376 -0.5447
   37TMC2    C2  563   3.913   1.599  11.870  0.0619  0.1878 -1.3763
   37TMC2    C3  564   3.970   1.661  11.758  0.8917  0.4823 -0.3443
   37TMC2    C4  565   4.090   1.705  11.999 -0.2312  0.2082  0.2514
   37TMC2    C5  566   4.135   1.771  11.886 -0.1270  0.5311  0.3681
   37TMC2    C6  567   4.082   1.749  11.761  0.1381  0.9495 -0.0122
   37TMC2     C  568   3.897   1.602  12.104 -0.3341  0.0140 -0.2087
   37TMC2     O  569   3.811   1.511  12.093  0.5759  0.2054  0.2944
   37TMC2     H  570   3.830   1.531  11.855  0.5314 -1.0847  1.6405
   37TMC2    H1  571   4.139   1.729  12.093 -0.8595  0.8270  0.4189
   37TMC2    H2  572   4.130   1.798  11.677 -2.1324  2.9488 -0.1532
   37TMC2    C7  573   4.232   1.879  11.910 -0.8631  0.0984  0.4925
   37TMC2    C8  574   3.910   1.608  11.638  0.2437  0.1810 -0.2743
   37TMC2    O1  575   4.236   1.939  12.016 -0.0270  0.2534  0.0125
   37TMC2    O2  576   3.865   1.500  11.624 -0.3437  0.5325 -0.1539
   37TMC2    O5  577   3.909   1.706  11.546 -0.1114  0.5603 -0.3665
   37TMC2    H5  578   3.935   1.792  11.586  0.7664  0.1412 -0.0471
   38MPD2     C  579   3.686   1.741  12.546 -0.1363  0.1987 -0.4445
   38MPD2    C1  580   3.789   1.833  12.517  0.9493  0.3975  0.4219
   38MPD2    C2  581   3.862   1.816  12.404 -0.1860  0.9281  0.0928
   38MPD2    C3  582   3.833   1.715  12.320 -0.1585  0.1152 -0.1087
   38MPD2    C4  583   3.746   1.613  12.357  0.3218  0.5505 -0.0018
   38MPD2    C5  584   3.685   1.626  12.475 -0.1794 -0.0720 -0.4490
   38MPD2     H  585   3.942   1.888  12.391 -1.6834  2.4868 -0.3276
   38MPD2    H1  586   3.726   1.522  12.303  2.0711  1.0158 -1.4237
   38MPD2    H2  587   3.617   1.766  12.626  0.0506  0.9067 -0.5055
   38MPD2    H3  588   3.624   1.541  12.501  0.5322 -0.9804 -1.7504
   38MPD2     N  589   3.900   1.706  12.199  0.3003 -0.4869  0.2097
   38MPD2    H5  590   3.966   1.780  12.178 -0.2900  0.7234  2.5873
   38MPD2    N1  591   3.817   1.951  12.590  1.0853  0.7055  0.0194
   38MPD2    H7  592   3.894   2.005  12.553  0.1866  0.8100 -1.7065
   39MPD2     C  593   1.851   4.128   1.854  0.1386 -0.5219 -0.1220
   39MPD2    C1  594   1.799   4.248   1.803 -0.6260 -0.2975 -0.9185
   39MPD2    C2  595   1.705   4.238   1.698 -0.4723 -0.3521  0.0827
   39MPD2    C3  596   1.662   4.114   1.640  0.2182 -0.5521 -0.2752
   39MPD2    C4  597   1.713   4.003   1.703 -0.3105  0.6651  0.4074
   39MPD2    C5  598   1.808   4.008   1.805 -0.0600 -0.2774  0.6436
   39MPD2     H  599   1.673   4.331   1.652 -0.1106 -0.2467  0.0423
   39MPD2    H1  600   1.690   3.907   1.657  0.7845  0.6200 -0.0444
   39MPD2    H2  601   1.923   4.126   1.935  1.2856 -1.3486 -1.1624
   39MPD2    H3  602   1.854   3.917   1.843 -0.7920 -0.7801  0.3127
   39MPD2     N  603   1.566   4.092   1.541 -0.1404  0.6533  0.5254
   39MPD2    H5  604   1.553   3.997   1.508  1.3843 -0.0446  1.9150
   39MPD2    N1  605   1.842   4.369   1.856  1.0029 -0.1590 -0.3749
   39MPD2    H7  606   1.920   4.362   1.920  0.7352 -1.2735 -0.1607
   40TCq2    C1  607   1.792   4.497   1.828  0.1823 -0.0849 -0.3447
   40TCq2    O2  608   1.708   4.538   1.751 -0.3227 -0.5886  0.3558
   40TCq2    C2  609   1.856   4.603   1.903 -0.4427  0.4335  1.2737
   40TCq2    C3  610   1.768   4.708   1.928 -0.2119 -0.5554  0.1048
   40TCq2    C4  611   1.817   0.078   2.014 -0.1569 -0.4587 -0.1352
   40TCq2    C5  612   1.940   0.076   2.066 -0.3617  0.4126 -0.1107
   40TCq2    C6  613   2.026   4.701   2.032  0.1215  0.1220 -0.7218
   40TCq2    C7  614   1.983   4.598   1.956  0.7336 -0.3447 -0.2574
   40TCq2    C8  615   2.162   4.707   2.061 -0.0007 -0.0966 -0.4973
   40TCq2    O4  616   2.195   0.035   2.169  0.2569 -0.4206 -0.0880
   40TCq2    C9  617   1.728   0.185   2.045 -0.6325 -0.0815 -0.0824
   40TCq2    O5  618   1.769   0.265   2.131  0.1884  0.4652 -0.1584
   40TCq2    O6  619   1.635   0.198   1.964  0.2585  0.4209 -0.0334
   40TCq2    H2  620   1.674   4.720   1.875 -0.7418 -0.1181  1.1568
   40TCq2    H3  621   1.977   0.153   2.132  2.5364 -0.7001 -0.4213
   40TCq2    H4  622   2.044   4.510   1.936  1.2952 -0.7187  3.1256
   41TMC2    C1  623   0.669   2.452  13.834  0.1871 -0.9331  0.2705
   41TMC2    C2  624   0.538   2.435  13.803  0.0894 -0.3353  0.1045
   41TMC2    C3  625   0.498   2.465  13.682 -0.1036 -0.2188  0.4654
   41TMC2    C4  626   0.765   2.501  13.740 -0.1014 -0.1682  0.4061
   41TMC2    C5  627   0.710   2.538  13.620 -0.4572  1.5727 -0.2649
   41TMC2    C6  628   0.578   2.524  13.585 -0.0579  0.5837  0.0976
   41TMC2     C  629   0.698   2.469  13.974 -0.5125 -0.1139 -0.2011
   41TMC2     O  630   0.602   2.477  14.045 -0.4284  0.9423  1.0070
   41TMC2     H  631   0.473   2.381  13.871  0.5275 -0.6223  0.2910
   41TMC2    H1  632   0.866   2.534  13.765 -0.5122 -0.5406  2.5444
   41TMC2    H2  633   0.539   2.557  13.489 -0.0239 -1.3879 -0.5943
   41TMC2    C7  634   0.787   2.625  13.535 -0.2973 -0.1673 -0.3688
   41TMC2    C8  635   0.376   2.404  13.627 -0.2939 -0.7171 -0.0985
   41TMC2    O1  636   0.731   2.681  13.445 -0.2332  0.0293 -0.0391
   41TMC2    O2  637   0.320   2.316  13.691 -0.1624  0.1411 -0.0396
   41TMC2    O5  638   0.313   2.479  13.544  0.3599  0.3731  0.2562
   41TMC2    H5  639   0.335   2.575  13.536  1.4557  0.0390 -0.6133
   42MPD2     C  640   0.798   2.545  14.235 -0.1746 -0.3806  0.3712
   42MPD2    C1  641   0.869   2.476  14.143 -0.0340 -0.7103 -0.4460
   42MPD2    C2  642   0.993   2.424  14.181 -0.3417 -0.1901 -0.2126
   42MPD2    C3  643   1.039   2.438  14.310 -0.3679  0.8508 -0.0090
   42MPD2    C4  644   0.955   2.493  14.407 -0.4665 -0.6495 -0.2917
   42MPD2    C5  645   0.834   2.546  14.369 -0.0117  0.1129 -0.1267
   42MPD2     H  646   1.050   2.363  14.112  2.4234  0.4418  1.5357
   42MPD2    H1  647   0.990   2.513  14.508 -0.8713  0.7356 -0.4323
   42MPD2    H2  648   0.700   2.591  14.226  0.2596  0.3548 -0.6266
   42MPD2    H3  649   0.767   2.584  14.446 -0.6516  0.8390 -1.0435
   42MPD2     N  650   1.170   2.396  14.354 -0.2843 -0.0937 -0.3693
   42MPD2    H5  651   1.193   2.406  14.452 -0.6791  2.6619 -0.5663
   42MPD2    N1  652   0.829   2.468  14.008  0.0168 -0.7987 -0.5636
   42MPD2    H7  653   0.898   2.436  13.941  0.4125  0.1590 -0.6110
   43MPD2     C  654   2.131   0.292   0.965 -0.1223 -0.5579 -0.0587
   43MPD2    C1  655   2.242   0.232   1.035 -0.0956  0.1788  0.3414
   43MPD2    C2  656   2.261   0.261   1.170 -0.2560  0.1790  0.7120
   43MPD2    C3  657   2.191   0.369   1.228 -0.4307 -0.2606 -0.1945
   43MPD2    C4  658   2.093   0.429   1.152 -0.2779 -0.9719 -0.1545
   43MPD2    C5  659   2.057   0.385   1.028 -0.3870 -0.2274 -0.4783
   43MPD2     H  660   2.351   0.225   1.219 -1.2429 -0.0176  2.3865
   43MPD2    H1  661   2.047   0.524   1.179 -3.1461 -1.8674 -1.9659
   43MPD2    H2  662   2.104   0.265   0.864  1.0740  0.3106 -0.6106
   43MPD2    H3  663   1.981   0.433   0.967 -1.1361 -1.9356 -0.8942
   43MPD2     N  664   2.221   0.427   1.349 -0.2621  0.1346 -0.1643
   43MPD2    H5  665   2.160   0.505   1.373  0.4750  0.1987  1.5061
   43MPD2    N1  666   2.337   0.151   0.978  0.3161  0.0272  0.0138
   43MPD2    H7  667   2.411   0.120   1.041 -0.2383  1.1900  1.2496
   44TCq2    C1  668   2.630   0.637   1.699 -0.4646  0.2678 -0.4150
   44TCq2    O2  669   2.720   0.554   1.681  0.0875 -0.8391  0.3634
   44TCq2    C2  670   2.496   0.626   1.646 -0.0625 -0.4172  0.1905
   44TCq2    C3  671   2.411   0.741   1.653  0.5101 -0.4289 -0.4955
   44TCq2    C4  672   2.285   0.719   1.603  0.2815 -0.2106  0.0606
   44TCq2    C5  673   2.246   0.609   1.537 -0.0715 -0.2477 -0.6116
   44TCq2    C6  674   2.340   0.502   1.522 -0.1811 -0.3937 -0.1140
   44TCq2    C7  675   2.455   0.503   1.589 -0.3782 -0.0587  0.3000
   44TCq2    C8  676   2.325   0.397   1.428 -0.0713 -0.1192 -0.6205
   44TCq2    O4  677   2.401   0.303   1.422 -0.0734  0.2202  0.0122
   44TCq2    C9  678   2.197   0.835   1.610 -0.3691 -0.4573  0.4819
   44TCq2    O5  679   2.238   0.936   1.676 -0.5263  0.0045  0.5946
   44TCq2    O6  680   2.089   0.828   1.545 -0.6536  0.2184 -0.1417
   44TCq2    H2  681   2.437   0.841   1.683  0.3376 -0.5307 -0.0025
   44TCq2    H3  682   2.143   0.608   1.505 -0.8648 -1.4365  1.8971
   44TCq2    H4  683   2.519   0.416   1.577 -0.7883 -0.3670  0.3476
   45TMC2    C1  684   3.954   2.086   9.775 -0.2319 -0.1896  0.4365
   45TMC2    C2  685   3.968   2.161   9.663  0.0709  0.3934  0.3703
   45TMC2    C3  686   3.985   2.298   9.681  0.2558 -0.6794  0.3082
   45TMC2    C4  687   3.981   2.130   9.896  1.4998 -0.4639 -0.9362
   45TMC2    C5  688   3.983   2.265   9.916 -0.6912  0.2304  0.5665
   45TMC2    C6  689   4.001   2.352   9.808 -0.5033 -0.3872  0.1158
   45TMC2     C  690   3.879   1.958   9.768 -0.0269  0.0858  0.2705
   45TMC2     O  691   3.873   1.894   9.874 -0.2841 -0.4238 -0.5981
   45TMC2     H  692   3.956   2.113   9.566 -1.8950 -1.8239  1.7136
   45TMC2    H1  693   3.971   2.065   9.982  0.3775  1.5060  0.4241
   45TMC2    H2  694   4.018   2.459   9.816 -0.9355 -0.2719 -0.6018
   45TMC2    C7  695   4.010   2.335  10.041  0.1023 -0.4946 -0.0110
   45TMC2    C8  696   3.973   2.388   9.567 -0.5904  0.5642 -0.1392
   45TMC2    O1  697   4.021   2.454  10.028  0.5674 -0.2484  0.2551
   45TMC2    O2  698   4.014   2.365   9.450  0.2582 -0.8560 -0.0588
   45TMC2    O5  699   3.859   2.463   9.594 -0.4326 -0.4554 -1.0119
   45TMC2    H5  700   3.816   2.452   9.681  3.2395  1.8535  1.0969
   46MPD2     C  701   3.713   1.728   9.680  0.5360 -0.7753 -0.1553
   46MPD2    C1  702   3.709   1.850   9.620  0.0468  0.1592 -0.5991
   46MPD2    C2  703   3.615   1.876   9.523  0.4645 -0.3026 -0.7848
   46MPD2    C3  704   3.506   1.790   9.503  0.3640 -0.3985  0.8319
   46MPD2    C4  705   3.506   1.664   9.568 -0.6306  0.2653  0.1146
   46MPD2    C5  706   3.610   1.640   9.650  0.1969 -0.9107  0.4658
   46MPD2     H  707   3.623   1.971   9.471  2.5247 -1.3243 -2.3189
   46MPD2    H1  708   3.427   1.590   9.569  1.3719 -1.8706  0.4903
   46MPD2    H2  709   3.785   1.703   9.758  1.4022 -1.5381 -1.2103
   46MPD2    H3  710   3.605   1.543   9.699 -0.4828 -1.7713 -1.2622
   46MPD2     N  711   3.388   1.841   9.432  0.1436  0.6007  0.3135
   46MPD2    H5  712   3.381   1.939   9.405  0.1254  1.0098  1.8164
   46MPD2    N1  713   3.789   1.956   9.662  0.2918  0.5390 -0.1562
   46MPD2    H7  714   3.783   2.043   9.609  1.9018  0.4840 -0.4451
   47TMC2    C1  715   1.612   2.607   9.048 -0.0945  0.5208 -0.0496
   47TMC2    C2  716   1.619   2.697   8.946 -0.4775 -0.0509 -0.3742
   47TMC2    C3  717   1.517   2.773   8.917 -1.0170  0.1155 -0.4458
   47TMC2    C4  718   1.510   2.600   9.134 -0.4822  0.4312 -0.1381
   47TMC2    C5  719   1.404   2.681   9.099  0.0999  0.2386 -0.5092
   47TMC2    C6  720   1.403   2.776   8.994  0.3844  0.3417  0.0778
   47TMC2     C  721   1.732   2.524   9.079 -0.2373  0.4469  0.3660
   47TMC2     O  722   1.845   2.567   9.057  0.0899  0.5568 -0.2155
   47TMC2     H  723   1.701   2.698   8.874 -1.9867 -4.6661 -2.1016
   47TMC2    H1  724   1.508   2.521   9.208  1.2663 -0.7705 -1.3808
   47TMC2    H2  725   1.318   2.841   8.978  1.9699  2.2116 -0.8039
   47TMC2    C7  726   1.276   2.662   9.166 -0.0916 -0.4671  0.5109
   47TMC2    C8  727   1.515   2.869   8.814  0.3377  0.1696 -0.5705
   47TMC2    O1  728   1.166   2.687   9.112  0.1555 -0.4059 -0.2957
   47TMC2    O2  729   1.439   2.964   8.813  0.3848  0.4628 -0.6512
   47TMC2    O5  730   1.566   2.810   8.704  0.1212  0.3256  0.0675
   47TMC2    H5  731   1.610   2.723   8.716 -0.4042 -0.0271 -0.5924
   48MPD2     C  732   1.933   2.326   9.163  0.3925  0.0097  0.2008
   48MPD2    C1  733   1.797   2.306   9.174 -0.1173 -0.3449  0.5478
   48MPD2    C2  734   1.750   2.193   9.239  0.2639 -0.0379 -0.1417
   48MPD2    C3  735   1.833   2.093   9.286  0.1512  0.2503  0.3557
   48MPD2    C4  736   1.967   2.109   9.267  0.6299  0.6447  0.0854
   48MPD2    C5  737   2.013   2.233   9.221 -0.7606  0.1836 -0.2038
   48MPD2     H  738   1.644   2.180   9.255 -0.1716  1.0591 -2.0728
   48MPD2    H1  739   2.046   2.043   9.299 -0.1053 -1.8240 -3.1895
   48MPD2    H2  740   1.979   2.408   9.109 -3.1535  0.3598 -2.2052
   48MPD2    H3  741   2.121   2.231   9.220 -0.7458  0.1100  0.7552
   48MPD2     N  742   1.779   1.986   9.362  0.0510 -0.4144 -0.2463
   48MPD2    H5  743   1.677   1.977   9.360  0.0478 -0.8522  1.5095
   48MPD2    N1  744   1.702   2.400   9.131  0.5494 -0.2795 -0.3551
   48MPD2    H7  745   1.607   2.367   9.136  1.1403 -1.9656 -0.0613
   49MPD2     C  746   4.013   0.591  10.375  1.0337 -0.6875 -0.0001
   49MPD2    C1  747   3.986   0.456  10.340  0.7272 -0.0842  0.1116
   49MPD2    C2  748   4.024   0.365  10.427 -0.2263 -0.4352 -0.1683
   49MPD2    C3  749   4.065   0.391  10.553 -0.5542  0.3285 -0.6167
   49MPD2    C4  750   4.089   0.518  10.587 -0.0271  0.3826 -0.6550
   49MPD2    C5  751   4.072   0.617  10.496 -0.1971 -0.5091  0.4519
   49MPD2     H  752   4.012   0.265  10.387 -0.4485  0.1733 -1.6377
   49MPD2    H1  753   4.139   0.549  10.677 -1.8267 -0.9929  0.8193
   49MPD2    H2  754   4.004   0.672  10.303  0.7547 -1.0624 -0.3843
   49MPD2    H3  755   4.113   0.710  10.535 -0.1620 -0.5682  0.5574
   49MPD2     N  756   4.078   0.296  10.655  0.2304 -0.4390  0.1401
   49MPD2    H5  757   4.101   0.330  10.748 -0.8556  0.7104 -0.0049
   49MPD2    N1  758   3.921   0.417  10.220  0.2028 -0.5311  0.0737
   49MPD2    H7  759   3.895   0.320  10.205  0.5998 -0.6968  0.4500
   50TCq2    C1  760   3.883   0.505  10.119 -0.4909  0.3193 -0.1010
   50TCq2    O2  761   3.929   0.618  10.100  0.5200  0.0492  0.2899
   50TCq2    C2  762   3.816   0.442  10.001  0.2250  0.1669 -0.5056
   50TCq2    C3  763   3.735   0.331  10.014 -0.0344  0.0846  0.5278
   50TCq2    C4  764   3.669   0.294   9.905  0.4650  0.1266 -0.4467
   50TCq2    C5  765   3.658   0.368   9.792  0.5555  0.8747 -0.2406
   50TCq2    C6  766   3.738   0.483   9.786 -0.0455  0.3844  0.3718
   50TCq2    C7  767   3.822   0.523   9.893  0.2202 -0.4608  0.6243
   50TCq2    C8  768   3.731   0.564   9.670 -0.0507  0.9795  0.0372
   50TCq2    O4  769   3.826   0.640   9.650 -0.0489 -0.2214  0.1009
   50TCq2    C9  770   3.591   0.182   9.922 -0.3026  0.1116  0.0898
   50TCq2    O5  771   3.586   0.123  10.034 -0.2989  0.7491 -0.0841
   50TCq2    O6  772   3.518   0.151   9.824  0.1094 -0.3031  0.0412
   50TCq2    H2  773   3.724   0.279  10.108  0.4328  0.4355  0.7733
   50TCq2    H3  774   3.583   0.332   9.722 -3.0666  2.4515  2.8148
   50TCq2    H4  775   3.889   0.606   9.877 -0.1701 -0.1109  0.7747
   51MPD2     C  776   0.173   3.494   1.875 -0.3507  0.4419 -0.4624
   51MPD2    C1  777   0.093   3.592   1.810  0.1166 -0.2187  0.0591
   51MPD2    C2  778   0.017   3.670   1.892  0.0835  0.3138 -0.3531
   51MPD2    C3  779   0.000   3.653   2.026 -1.2551 -0.5037  0.7870
   51MPD2    C4  780   0.055   3.545   2.077 -0.3825  0.0378 -0.0488
   51MPD2    C5  781   0.136   3.464   2.005 -0.2314  0.4041  0.3301
   51MPD2     H  782   4.676   3.743   1.842  0.4881  0.1024 -1.1703
   51MPD2    H1  783   0.034   3.517   2.179  1.9248 -0.2360  0.3671
   51MPD2    H2  784   0.231   3.421   1.821  0.0960 -0.1363  0.8007
   51MPD2    H3  785   0.174   3.376   2.055 -1.0827  0.2095  0.6249
   51MPD2     N  786   4.643   3.742   2.101 -0.4644  0.0123  0.5036
   51MPD2    H5  787   4.635   3.721   2.200  0.7745  0.9549  0.8074
   51MPD2    N1  788   0.094   3.612   1.668 -0.4869 -0.1288  0.7297
   51MPD2    H7  789   0.018   3.674   1.640  0.7367  0.3276 -1.5906
   52TCq2    C1  790   4.591   3.858   2.057  0.0772 -0.7535 -1.2908
   52TCq2    O2  791   4.632   3.925   1.966 -0.5743 -0.1708 -0.5519
   52TCq2    C2  792   4.500   3.926   2.150  0.0652  0.4944  1.1063
   52TCq2    C3  793   4.435   3.844   2.234 -0.7076 -0.4985  0.1701
   52TCq2    C4  794   4.312   3.881   2.279 -0.6167  0.1361 -0.1075
   52TCq2    C5  795   4.249   3.995   2.228 -0.1071  0.2359  0.5582
   52TCq2    C6  796   4.313   4.066   2.131 -0.2311  0.3930 -0.1427
   52TCq2    C7  797   4.444   4.037   2.094  0.3275 -0.1751 -0.2028
   52TCq2    C8  798   4.240   4.168   2.056 -0.4857 -0.3464 -0.5088
   52TCq2    O4  799   4.306   4.207   1.958 -0.7374 -0.0080  0.3755
   52TCq2    C9  800   4.241   3.813   2.381 -0.1299  0.8489  1.0803
   52TCq2    O5  801   4.318   3.748   2.468  0.3708  0.0738  0.1919
   52TCq2    O6  802   4.116   3.825   2.391  0.1146 -0.1339  0.0569
   52TCq2    H2  803   4.478   3.757   2.283  1.2144 -0.1657 -0.9532
   52TCq2    H3  804   4.153   4.022   2.271 -0.1654 -0.9310  1.1473
   52TCq2    H4  805   4.495   4.108   2.030 -0.1570 -0.0517 -0.4584
   53TMC2    C1  806   0.007   2.395  12.095 -0.1725 -0.2736  0.7742
   53TMC2    C2  807   0.125   2.425  12.159 -0.9463 -0.1660 -0.2485
   53TMC2    C3  808   0.128   2.491  12.273 -0.2421 -0.0480 -0.2098
   53TMC2    C4  809   4.610   2.446  12.145 -0.1627  0.2010  0.0181
   53TMC2    C5  810   4.607   2.508  12.263  0.7063 -0.5898  0.2042
   53TMC2    C6  811   0.008   2.523  12.333 -0.3436 -0.8368  0.3993
   53TMC2     C  812   0.008   2.290  11.990 -0.1255  0.4789 -0.2881
   53TMC2     O  813   0.116   2.278  11.936  0.5392  0.4786 -0.0057
   53TMC2     H  814   0.218   2.395  12.113  1.3838  3.5945  2.0721
   53TMC2    H1  815   4.521   2.441  12.084  1.4400  0.3286 -2.3215
   53TMC2    H2  816   0.003   2.544  12.439 -0.5400  0.3721  0.1463
   53TMC2    C7  817   4.483   2.559  12.305  0.0042  0.1296  0.0775
   53TMC2    C8  818   0.258   2.525  12.326  0.2077 -0.4207 -0.5432
   53TMC2    O1  819   4.381   2.522  12.247  0.7193 -0.0301 -0.1294
   53TMC2    O2  820   0.361   2.493  12.268 -0.1741  0.0549  0.0463
   53TMC2    O5  821   0.234   2.623  12.415  0.3434 -0.5234 -0.4734
   53TMC2    H5  822   0.143   2.659  12.423  1.1333  1.5202 -0.8723
   54MPD2     C  823   4.680   2.072  11.785  0.3958 -0.1779  0.1601
   54MPD2    C1  824   4.585   2.121  11.879  0.2779  0.3540  0.0536
   54MPD2    C2  825   4.465   2.059  11.881  0.6069 -0.2364  1.1716
   54MPD2    C3  826   4.435   1.956  11.801 -0.1335 -0.0805  0.7328
   54MPD2    C4  827   4.523   1.915  11.702 -0.0929  0.3119 -0.0335
   54MPD2    C5  828   4.642   1.976  11.692  0.1222  0.1363  0.0586
   54MPD2     H  829   4.392   2.101  11.949 -1.1428 -0.1348 -0.7639
   54MPD2    H1  830   4.499   1.845  11.623 -1.4095 -0.0595  0.6997
   54MPD2    H2  831   0.051   2.125  11.766 -0.4993  1.6514  0.9072
   54MPD2    H3  832   4.703   1.945  11.608  0.0603 -3.5450  1.3796
   54MPD2     N  833   4.320   1.876  11.810  0.6008 -0.3760  0.0519
   54MPD2    H5  834   4.325   1.799  11.743 -0.3660 -3.5568  3.6549
   54MPD2    N1  835   4.614   2.212  11.985  0.5097 -0.2508 -0.2322
   54MPD2    H7  836   4.542   2.233  12.054  2.1509  1.6611  0.9119
   55MPD2     C  837   1.122   0.017  17.310 -0.6740 -0.2263 -0.3528
   55MPD2    C1  838   1.051   4.701  17.418 -0.3892  0.9799  0.0872
   55MPD2    C2  839   0.933   0.052  17.446  0.1357  0.3679  0.4361
   55MPD2    C3  840   0.902   0.158  17.373  0.0438 -0.9153  0.1912
   55MPD2    C4  841   0.981   0.209  17.274  0.1572  0.3886  0.1006
   55MPD2    C5  842   1.086   0.130  17.239  0.2773 -0.0221 -0.2592
   55MPD2     H  843   0.853   0.019  17.512  1.5914  0.4840  2.2599
   55MPD2    H1  844   0.959   0.302  17.221  0.8748  0.1658 -0.5915
   55MPD2    H2  845   1.199   4.682  17.259 -1.4883 -1.5310 -0.1267
   55MPD2    H3  846   1.153   0.153  17.156  0.0169  1.0445 -0.1769
   55MPD2     N  847   0.787   0.219  17.419 -0.8471 -0.2831 -0.7737
   55MPD2    H5  848   0.745   0.188  17.506 -1.3327 -0.8364 -1.2021
   55MPD2    N1  849   1.099   4.589  17.491  0.3212 -0.4385  0.6890
   55MPD2    H7  850   1.188   4.552  17.459  1.8480  1.2217  2.9971
   56TCq2    C1  851   1.042   4.551  17.611 -0.1065 -0.3382  0.2922
   56TCq2    O2  852   0.934   4.586  17.663  0.1202 -0.1482  0.2702
   56TCq2    C2  853   1.118   4.445  17.677  0.8968  0.3981 -0.1852
   56TCq2    C3  854   1.209   4.363  17.612 -0.6286  0.1073 -0.1867
   56TCq2    C4  855   1.273   4.261  17.677  0.5318 -0.2097  0.0846
   56TCq2    C5  856   1.231   4.225   0.111  0.4274  0.5202  0.1700
   56TCq2    C6  857   1.135   4.297   0.175  0.3962  0.2317 -0.4626
   56TCq2    C7  858   1.078   4.407   0.114  0.0240 -0.3776 -0.8204
   56TCq2    C8  859   1.099   4.265   0.317 -0.4188 -0.3993 -0.2067
   56TCq2    O4  860   1.157   4.172   0.375 -0.5102 -0.1419  0.0009
   56TCq2    C9  861   1.377   4.188  17.603  0.0162  0.2874  0.5837
   56TCq2    O5  862   1.415   4.236  17.495 -0.3589  0.1381 -0.3681
   56TCq2    O6  863   1.422   4.084  17.657  0.4349 -0.2622  0.0220
   56TCq2    H2  864   1.232   4.378  17.507  1.0153 -1.8281 -0.1112
   56TCq2    H3  865   1.282   4.151   0.171 -0.6529 -1.7504 -1.7298
   56TCq2    H4  866   1.010   4.470   0.171  1.8642  3.1995 -2.5979
   57TMC2    C1  867   0.245   1.532  13.880  0.2573 -1.4569  0.4142
   57TMC2    C2  868   0.290   1.639  13.959  0.4563  0.0474 -0.4050
   57TMC2    C3  869   0.424   1.668  13.952 -0.4064  0.5278  0.3206
   57TMC2    C4  870   0.332   1.461  13.801  0.1500  0.8636 -0.1834
   57TMC2    C5  871   0.465   1.483  13.812  0.4187  0.0369  0.3445
   57TMC2    C6  872   0.512   1.587  13.887  0.4881 -0.7322  0.0920
   57TMC2     C  873   0.104   1.519  13.870 -0.1846  0.0427 -0.4636
   57TMC2     O  874   0.028   1.598  13.930  0.0500  0.3125 -0.5060
   57TMC2     H  875   0.226   1.689  14.030  0.0900  0.8736 -1.3156
   57TMC2    H1  876   0.296   1.378  13.741  0.2582 -0.9057  2.2211
   57TMC2    H2  877   0.619   1.604  13.896  1.0035 -2.2552 -3.2447
   57TMC2    C7  878   0.562   1.376  13.791 -0.2224 -0.0183 -0.4594
   57TMC2    C8  879   0.473   1.751  14.058 -0.5175 -0.0713  0.5543
   57TMC2    O1  880   0.664   1.370  13.856  0.3292 -0.3282  0.1919
   57TMC2    O2  881   0.575   1.816  14.053 -0.0758 -0.0405  0.1092
   57TMC2    O5  882   0.424   1.686  14.170  1.4327  0.5165  0.6749
   57TMC2    H5  883   0.349   1.626  14.151  0.3975  1.4435  1.8943
   58MPD2     C  884   4.415   1.235  13.726  0.9922  0.7000 -0.7064
   58MPD2    C1  885   4.420   1.355  13.794  0.1447  0.0287  0.2168
   58MPD2    C2  886   4.540   1.418  13.817 -0.0281 -0.2582  0.3498
   58MPD2    C3  887   4.657   1.363  13.769 -0.1083  1.1571  0.2353
   58MPD2    C4  888   4.653   1.244  13.708  0.1119 -0.7265 -1.1323
   58MPD2    C5  889   4.538   1.180  13.691 -0.6252 -0.1115  0.3511
   58MPD2     H  890   4.547   1.513  13.869  1.5349 -0.2847  0.1791
   58MPD2    H1  891   0.022   1.192  13.681 -0.8118 -1.0980 -3.5157
   58MPD2    H2  892   4.319   1.190  13.707  1.0282  0.4371 -0.2654
   58MPD2    H3  893   4.527   1.083  13.644  1.3531 -1.1816  2.1140
   58MPD2     N  894   0.062   1.409  13.797  0.5520  0.8006  0.2365
   58MPD2    H5  895   0.135   1.349  13.761 -0.1067 -0.1414  0.4660
   58MPD2    N1  896   4.308   1.428  13.840  0.1328  0.1338  0.6210
   58MPD2    H7  897   4.336   1.514  13.887 -0.8740  0.6587  0.2813
   59MPD2     C  898   2.062   1.403  13.031 -0.0603 -0.2690 -0.3848
   59MPD2    C1  899   2.182   1.384  12.969 -0.0257 -0.4286  0.1339
   59MPD2    C2  900   2.289   1.372  13.057  0.4317  0.0627  0.3526
   59MPD2    C3  901   2.280   1.387  13.198  0.4803 -0.2471 -0.3165
   59MPD2    C4  902   2.157   1.401  13.251 -0.1689  1.0455 -0.1485
   59MPD2    C5  903   2.049   1.406  13.171  0.3702  0.8364  0.5083
   59MPD2     H  904   2.386   1.345  13.017  0.2086  0.9428 -0.7966
   59MPD2    H1  905   2.154   1.420  13.357 -0.7403  0.6968 -0.1059
   59MPD2    H2  906   1.971   1.418  12.974  1.5371  0.4669 -2.7198
   59MPD2    H3  907   1.953   1.444  13.203 -1.7240 -1.7538 -2.6791
   59MPD2     N  908   2.384   1.362  13.295  0.0374  0.3856  0.0667
   59MPD2    H5  909   2.366   1.383  13.392  1.4896 -2.3539  0.9443
   59MPD2    N1  910   2.195   1.371  12.831  0.5360  0.6361  0.3939
   59MPD2    H7  911   2.291   1.386  12.801  0.4153  0.1286 -0.2445
   60TCq2    C1  912   2.091   1.336  12.747  0.3602 -0.0433  0.1831
   60TCq2    O2  913   1.971   1.318  12.769  0.3822  0.6143 -0.4420
   60TCq2    C2  914   2.132   1.300  12.620 -0.4344  0.1063  0.0358
   60TCq2    C3  915   2.073   1.184  12.578 -0.1652  0.3524  0.3030
   60TCq2    C4  916   2.143   1.105  12.485  0.7477 -0.1870  0.8286
   60TCq2    C5  917   2.266   1.144  12.439  0.1589  0.8109  0.5392
   60TCq2    C6  918   2.326   1.265  12.484  0.3381 -0.0764 -0.5722
   60TCq2    C7  919   2.256   1.342  12.582  0.0538 -0.6405 -0.5833
   60TCq2    C8  920   2.456   1.305  12.422  0.0838  1.5025 -0.9472
   60TCq2    O4  921   2.504   1.226  12.343  0.0176  0.3061  0.5389
   60TCq2    C9  922   2.082   0.982  12.432  0.2987 -0.6841 -0.2923
   60TCq2    O5  923   2.109   0.957  12.312  0.4914 -0.3185  0.5905
   60TCq2    O6  924   2.001   0.920  12.504 -0.3477  0.0698  0.3091
   60TCq2    H2  925   1.985   1.138  12.620 -1.0878  0.4967 -1.4877
   60TCq2    H3  926   2.309   1.078  12.365 -0.8715 -0.1140  0.7604
   60TCq2    H4  927   2.288   1.439  12.618 -1.3652  0.5724 -2.5637
   61MPD2     C  928   1.874   2.781  13.957  0.2863 -0.2165  0.5454
   61MPD2    C1  929   1.946   2.853  14.041 -0.3284  0.7749  1.1284
   61MPD2    C2  930   1.944   2.991  14.023 -0.4720  0.1357  0.3520
   61MPD2    C3  931   1.883   3.051  13.909  0.2070 -0.3046 -0.0584
   61MPD2    C4  932   1.808   2.970  13.827  0.0511  0.1106 -0.1739
   61MPD2    C5  933   1.797   2.834  13.855  0.6869 -0.2827 -0.1770
   61MPD2     H  934   1.994   3.058  14.092  1.0931 -0.5100 -0.1536
   61MPD2    H1  935   1.744   3.008  13.748  1.8881 -0.1557 -1.7994
   61MPD2    H2  936   1.865   2.674  13.965  1.6176 -0.3683 -0.0351
   61MPD2    H3  937   1.734   2.770  13.796  0.4005 -0.6835  0.5578
   61MPD2     N  938   1.853   3.187  13.897 -0.5086 -0.8420 -0.0357
   61MPD2    H5  939   1.772   3.205  13.838  0.1536  1.9120 -0.0657
   61MPD2    N1  940   1.994   2.804  14.165  0.0608 -0.0673  0.0920
   61MPD2    H7  941   2.043   2.871  14.222 -3.4838 -0.0784  3.1325
   62TCq2    C1  942   1.970   2.680  14.221 -0.0385 -0.4549 -0.2907
   62TCq2    O2  943   1.912   2.579  14.184 -0.4270  0.4226 -0.4946
   62TCq2    C2  944   1.997   2.688  14.364  0.4141  0.3853 -0.1237
   62TCq2    C3  945   1.989   2.569  14.425 -0.4322  0.0324  0.2139
   62TCq2    C4  946   1.990   2.563  14.566  0.1786  0.1398  0.9426
   62TCq2    C5  947   1.995   2.680  14.644  0.0218  0.1441 -0.3021
   62TCq2    C6  948   2.005   2.800  14.569 -0.1981  0.7753  0.1616
   62TCq2    C7  949   2.000   2.807  14.434 -0.2111  0.4252 -0.1098
   62TCq2    C8  950   1.991   2.926  14.632 -0.0145  0.1378  0.5211
   62TCq2    O4  951   2.006   3.021  14.553 -0.4979 -0.2051 -0.5935
   62TCq2    C9  952   1.999   2.435  14.632 -0.4174  0.0606 -0.1637
   62TCq2    O5  953   1.982   2.431  14.756 -0.5780  0.0682 -0.4933
   62TCq2    O6  954   2.041   2.342  14.563 -0.0703  0.2053  0.0190
   62TCq2    H2  955   2.005   2.475  14.374 -1.0831  0.0981 -0.1129
   62TCq2    H3  956   2.013   2.673  14.751  1.4113  0.0902 -0.5387
   62TCq2    H4  957   1.999   2.904  14.384 -0.8619  0.4693 -0.0119
   63TMC2    C1  958   1.989   2.637  10.170 -0.7520  0.1221 -1.0325
   63TMC2    C2  959   2.082   2.734  10.166 -0.5411 -0.0177 -0.4035
   63TMC2    C3  960   2.158   2.756  10.055  0.2650  0.0435  0.6548
   63TMC2    C4  961   1.969   2.553  10.070  0.1053 -0.3651 -0.0071
   63TMC2    C5  962   2.042   2.584   9.952  0.0169  0.2537 -1.2663
   63TMC2    C6  963   2.137   2.678   9.946  0.0018  0.2887  0.7031
   63TMC2     C  964   1.916   2.628  10.293 -0.2510 -0.3629 -0.0846
   63TMC2     O  965   1.925   2.712  10.384  0.9563  0.5645 -0.3848
   63TMC2     H  966   2.105   2.804  10.246 -0.5495 -0.5622  0.0702
   63TMC2    H1  967   1.891   2.477  10.074  1.0409 -1.4319 -1.9042
   63TMC2    H2  968   2.193   2.681   9.854 -0.8150  0.8597  0.2237
   63TMC2    C7  969   2.011   2.527   9.826  0.1580  0.5434 -0.4279
   63TMC2    C8  970   2.234   2.877  10.048  0.5764  0.5544 -0.6711
   63TMC2    O1  971   2.100   2.465   9.773  0.2975  0.3544  0.5400
   63TMC2    O2  972   2.322   2.903  10.131  0.0664 -0.0078  0.0163
   63TMC2    O5  973   2.258   2.893   9.911 -0.2314 -0.2025  0.6632
   63TMC2    H5  974   2.170   2.878   9.870 -0.3585  1.9299  0.1456
   64MPD2     C  975   1.590   2.421  10.630  0.4256 -0.2510 -0.1371
   64MPD2    C1  976   1.636   2.327  10.532  0.7613  0.1057 -0.5674
   64MPD2    C2  977   1.697   2.372  10.424  0.8043 -0.0642  0.3843
   64MPD2    C3  978   1.736   2.501  10.411 -0.2042 -0.1820 -0.3143
   64MPD2    C4  979   1.713   2.593  10.512 -0.3224 -0.1126 -0.0238
   64MPD2    C5  980   1.624   2.553  10.619  0.4033  0.1637  0.0375
   64MPD2     H  981   1.709   2.319  10.330  0.5705  1.2657 -0.3852
   64MPD2    H1  982   1.749   2.695  10.506 -1.1348  0.2786  1.7483
   64MPD2    H2  983   1.544   2.398  10.726  1.9015 -1.5745  0.2492
   64MPD2    H3  984   1.599   2.624  10.697 -0.0721  0.4476 -0.3761
   64MPD2     N  985   1.830   2.519  10.302 -0.1020 -0.5855 -0.0212
   64MPD2    H5  986   1.832   2.445  10.232  0.8149  0.1278 -0.7531
   64MPD2    N1  987   1.614   2.188  10.549  0.6541  0.1397  0.0317
   64MPD2    H7  988   1.646   2.127  10.475  1.1908 -2.1615  2.1523
   65MPD2     C  989   2.180   2.572  15.957 -0.4459 -0.5250  0.0811
   65MPD2    C1  990   2.215   2.516  15.832  0.5922  0.4050  0.2982
   65MPD2    C2  991   2.252   2.387  15.827  0.5625  0.5407  0.4968
   65MPD2    C3  992   2.247   2.305  15.942 -0.7442  0.3253 -0.0425
   65MPD2    C4  993   2.214   2.366  16.063  0.1235  0.1158  0.4144
   65MPD2    C5  994   2.179   2.496  16.072 -0.1566 -0.6583  0.0112
   65MPD2     H  995   2.291   2.352  15.732  0.1064  5.0067 -1.3179
   65MPD2    H1  996   2.221   2.307  16.154 -1.2745  0.1496  0.5461
   65MPD2    H2  997   2.135   2.670  15.970  0.5452 -0.1640  0.8570
   65MPD2    H3  998   2.156   2.540  16.169 -3.1061  1.5002 -1.6662
   65MPD2     N  999   2.270   2.165  15.945  0.6386  0.8661  0.0891
   65MPD2    H5 1000   2.239   2.126  16.033  0.2669  2.0290  0.4755
   65MPD2    N1 1001   2.209   2.594  15.711 -0.5622 -0.4076 -0.3800
   65MPD2    H7 1002   2.239   2.546  15.626 -0.2320  2.3259 -1.8005
   66TCq2    C1 1003   2.184   2.726  15.690  0.8706 -0.7851  0.1030
   66TCq2    O2 1004   2.152   2.812  15.773  0.5551 -0.0001 -0.2415
   66TCq2    C2 1005   2.157   2.752  15.548 -0.2442 -0.7151  0.7156
   66TCq2    C3 1006   2.098   2.652  15.474 -0.0946 -0.2092  0.2533
   66TCq2    C4 1007   2.034   2.685  15.357 -0.1160 -0.5478 -0.6627
   66TCq2    C5 1008   2.009   2.815  15.331  0.4368 -0.0031 -0.1033
   66TCq2    C6 1009   2.070   2.916  15.401 -0.0647 -0.8780 -0.0613
   66TCq2    C7 1010   2.144   2.888  15.510 -0.9486 -0.0615  0.5849
   66TCq2    C8 1011   2.035   3.056  15.361  0.8514 -0.5220  0.0029
   66TCq2    O4 1012   2.008   3.091  15.249 -0.4795  0.1432 -0.3656
   66TCq2    C9 1013   1.994   2.582  15.265 -0.3267 -0.3534  0.1940
   66TCq2    O5 1014   2.030   2.464  15.282  0.0742 -0.1006 -0.4301
   66TCq2    O6 1015   1.912   2.616  15.173  0.8489 -0.2236  0.2647
   66TCq2    H2 1016   2.115   2.546  15.485  1.3347  0.0523  0.6924
   66TCq2    H3 1017   1.947   2.835  15.244  2.4502  0.2724 -1.4907
   66TCq2    H4 1018   2.198   2.967  15.561 -0.3309 -1.3822  1.9758
   67MPD2     C 1019   2.329   1.551  14.488 -0.2586  0.4190  0.1291
   67MPD2    C1 1020   2.253   1.663  14.509  0.3814 -0.2187  0.3931
   67MPD2    C2 1021   2.145   1.689  14.425  0.1984  0.2732  0.4346
   67MPD2    C3 1022   2.105   1.592  14.333 -0.3215  0.7257 -0.3781
   67MPD2    C4 1023   2.178   1.475  14.327  0.5519  0.1300 -0.0613
   67MPD2    C5 1024   2.278   1.448  14.412 -0.3399  0.3588 -0.5321
   67MPD2     H 1025   2.093   1.783  14.441 -0.4198  0.2625 -1.5060
   67MPD2    H1 1026   2.164   1.412  14.240  2.3633 -0.2895 -0.0335
   67MPD2    H2 1027   2.415   1.524  14.548 -1.2059 -0.5612  1.0560
   67MPD2    H3 1028   2.328   1.353  14.399  1.6086  1.5975 -1.9798
   67MPD2     N 1029   2.007   1.613  14.238  0.4394 -0.2200  0.1353
   67MPD2    H5 1030   1.974   1.529  14.192 -1.1881  0.9138 -0.7540
   67MPD2    N1 1031   2.281   1.761  14.599 -0.1890 -0.2583  0.0173
   67MPD2    H7 1032   2.211   1.833  14.610 -1.0283 -0.8437 -1.5365
   68TCq2    C1 1033   2.387   1.758  14.688 -0.4608 -0.4994 -0.3925
   68TCq2    O2 1034   2.482   1.682  14.689 -0.1363  0.8582  0.1140
   68TCq2    C2 1035   2.395   1.860  14.798 -0.3022 -0.6432 -0.0949
   68TCq2    C3 1036   2.296   1.945  14.818  0.0349 -0.6945 -0.4870
   68TCq2    C4 1037   2.298   2.022  14.935  0.1711  0.7240  0.2366
   68TCq2    C5 1038   2.391   2.004  15.030  0.6169  0.0916  0.3006
   68TCq2    C6 1039   2.496   1.920  15.005  0.5044  0.9355  0.3626
   68TCq2    C7 1040   2.495   1.840  14.892  0.2356  0.1115  0.8709
   68TCq2    C8 1041   2.611   1.907  15.095 -0.2834  0.2431  0.0248
   68TCq2    O4 1042   2.689   1.819  15.065 -0.3605  0.4089 -0.5138
   68TCq2    C9 1043   2.200   2.133  14.943 -0.0957  0.6762  0.0870
   68TCq2    O5 1044   2.203   2.219  15.038  0.3745 -0.2205  0.1460
   68TCq2    O6 1045   2.135   2.156  14.836 -0.0077  0.3851 -0.4302
   68TCq2    H2 1046   2.221   1.961  14.742 -0.8613 -0.9916  0.3427
   68TCq2    H3 1047   2.393   2.077  15.110  0.8497  0.7618 -0.3151
   68TCq2    H4 1048   2.579   1.774  14.872 -0.1073  0.0496 -0.4323
   69TMC2    C1 1049   4.237   3.005  12.390 -0.3598 -0.3347  0.8275
   69TMC2    C2 1050   4.139   2.974  12.300 -1.0408 -0.0244 -0.6810
   69TMC2    C3 1051   4.169   2.920  12.180  0.0687  0.4136  0.3775
   69TMC2    C4 1052   4.372   2.989  12.353  0.0520 -0.6761 -0.0571
   69TMC2    C5 1053   4.394   2.925  12.238  0.1377  0.3254 -0.2987
   69TMC2    C6 1054   4.301   2.905  12.141 -0.3567  0.1819 -0.4707
   69TMC2     C 1055   4.200   3.076  12.511 -0.2175  0.2389 -0.0548
   69TMC2     O 1056   4.091   3.046  12.555  0.1592  0.5536  0.1792
   69TMC2     H 1057   4.040   3.000  12.336 -0.4147 -0.7613  1.5817
   69TMC2    H1 1058   4.454   3.006  12.421  0.9005  0.5793 -1.3793
   69TMC2    H2 1059   4.323   2.843  12.054 -2.9909 -1.7798  0.2471
   69TMC2    C7 1060   4.533   2.905  12.205  0.1046  0.0333  0.0598
   69TMC2    C8 1061   4.087   2.805  12.152  0.2493 -0.3899  0.1028
   69TMC2    O1 1062   4.616   2.957  12.274 -0.0431  0.5875  0.2720
   69TMC2    O2 1063   4.029   2.754  12.253  0.3351 -0.2811  0.5588
   69TMC2    O5 1064   4.106   2.764  12.026 -0.6831  0.2336 -0.6481
   69TMC2    H5 1065   4.147   2.837  11.975  0.0150  1.6141  1.8604
   70MPD2     C 1066   4.400   3.290  12.738  0.4109  0.5090 -0.2337
   70MPD2    C1 1067   4.309   3.191  12.699  0.3894 -0.6809  0.1287
   70MPD2    C2 1068   4.240   3.124  12.799  0.3724  0.1617  0.2031
   70MPD2    C3 1069   4.252   3.147  12.936 -0.1204  1.0746 -0.0802
   70MPD2    C4 1070   4.340   3.245  12.971 -0.7384  0.3651  0.6269
   70MPD2    C5 1071   4.409   3.314  12.870 -0.5143 -0.3559  0.2377
   70MPD2     H 1072   4.191   3.032  12.769 -1.1321  1.2228 -0.5983
   70MPD2    H1 1073   4.357   3.271  13.075  0.1300 -0.1696  0.6263
   70MPD2    H2 1074   4.454   3.351  12.667  2.1653 -1.6966 -0.8048
   70MPD2    H3 1075   4.467   3.397  12.907  0.1193 -1.5870  2.0136
   70MPD2     N 1076   4.215   3.056  13.033  0.2251 -0.2904  0.7242
   70MPD2    H5 1077   4.263   3.060  13.122 -2.3550  2.2840  1.9750
   70MPD2    N1 1078   4.309   3.154  12.565  0.2778 -0.7266  0.5107
   70MPD2    H7 1079   4.389   3.177  12.507 -0.0017  0.0229  0.4139
   71TMC2    C1 1080   1.562   3.300   2.020  0.2047  0.3157  0.9884
   71TMC2    C2 1081   1.622   3.248   2.130 -0.0894 -0.2376  0.0476
   71TMC2    C3 1082   1.556   3.257   2.251  0.2241 -0.1900 -0.3411
   71TMC2    C4 1083   1.444   3.366   2.034 -0.7429  0.4012  0.8252
   71TMC2    C5 1084   1.386   3.372   2.156 -0.3944 -0.5124 -1.0733
   71TMC2    C6 1085   1.431   3.315   2.268 -0.2623 -0.2908 -0.1087
   71TMC2     C 1086   1.623   3.289   1.890 -0.1305 -0.0960 -0.4575
   71TMC2     O 1087   1.575   3.356   1.803 -1.0374  0.3865 -0.2377
   71TMC2     H 1088   1.727   3.223   2.133 -0.0061  0.3020  1.6775
   71TMC2    H1 1089   1.405   3.428   1.953 -1.3340  0.5438  1.2235
   71TMC2    H2 1090   1.387   3.329   2.366 -2.1360 -0.2107 -0.9677
   71TMC2    C7 1091   1.258   3.440   2.163  0.5950 -0.3177 -0.3234
   71TMC2    C8 1092   1.627   3.221   2.375 -0.0770  0.1532  0.1411
   71TMC2    O1 1093   1.254   3.513   2.261 -0.1734 -0.1258  0.6025
   71TMC2    O2 1094   1.751   3.221   2.388 -0.8782  0.0885  0.3951
   71TMC2    O5 1095   1.541   3.155   2.456 -0.5916 -0.6961  0.4385
   71TMC2    H5 1096   1.449   3.144   2.422 -0.9212 -0.7800  1.3408
   72MPD2     C 1097   1.960   3.073   1.569 -0.2650  0.4995 -0.4722
   72MPD2    C1 1098   1.879   3.181   1.548  0.2337 -0.0707 -0.0187
   72MPD2    C2 1099   1.803   3.220   1.654 -0.1984 -0.1074  0.0268
   72MPD2    C3 1100   1.802   3.150   1.773  0.2616  0.3528  0.1225
   72MPD2    C4 1101   1.876   3.036   1.787  0.4782  0.3457 -0.2114
   72MPD2    C5 1102   1.959   3.001   1.687  0.0705  0.2955 -0.6002
   72MPD2     H 1103   1.749   3.314   1.643  0.5517  0.1423 -1.6162
   72MPD2    H1 1104   1.879   2.975   1.876  0.2375 -0.4908 -0.7820
   72MPD2    H2 1105   2.038   3.043   1.499  1.4710  2.1952  0.7272
   72MPD2    H3 1106   2.023   2.914   1.692 -1.1604 -0.5512  0.4694
   72MPD2     N 1107   1.716   3.186   1.884 -0.3818 -0.2516  0.1308
   72MPD2    H5 1108   1.713   3.126   1.965 -0.2500  1.6830  1.5730
   72MPD2    N1 1109   1.880   3.258   1.428  0.0256 -0.0770  0.3182
   72MPD2    H7 1110   1.811   3.332   1.430  0.3930  0.2450  1.0554
   73TMC2    C1 1111   2.232   0.574  14.124  0.4889  0.6802 -0.4027
   73TMC2    C2 1112   2.164   0.589  14.238  1.0294  0.4734 -0.0919
   73TMC2    C3 1113   2.216   0.664  14.340  0.1808 -0.0935 -0.1396
   73TMC2    C4 1114   2.347   0.632  14.101 -0.0059  0.2096 -0.3266
   73TMC2    C5 1115   2.394   0.715  14.194  0.2643  0.1631  0.4991
   73TMC2    C6 1116   2.333   0.731  14.320 -0.2448  0.3211  0.7221
   73TMC2     C 1117   2.149   0.590  14.004  0.3341 -0.0267 -0.0398
   73TMC2     O 1118   2.192   0.677  13.926 -0.7317 -0.0207 -0.1152
   73TMC2     H 1119   2.072   0.532  14.248  1.2958  0.0774  0.1121
   73TMC2    H1 1120   2.402   0.613  14.009  0.2403  1.0654 -0.3501
   73TMC2    H2 1121   2.368   0.799  14.396 -2.2144  1.4883  0.5860
   73TMC2    C7 1122   2.431   0.841  14.144  0.4884  0.1566 -0.7802
   73TMC2    C8 1123   2.191   0.650  14.476 -0.4618  0.4632 -0.4024
   73TMC2    O1 1124   2.482   0.918  14.223  0.2544  0.0904  0.1828
   73TMC2    O2 1125   2.282   0.675  14.558 -0.1171 -0.0500 -0.3801
   73TMC2    O5 1126   2.082   0.568  14.487  0.0020  0.4292  0.1472
   73TMC2    H5 1127   2.014   0.577  14.417  1.2210 -0.0188 -1.0982
   74MPD2     C 1128   1.806   0.507  13.642 -0.2428  0.6446  0.0158
   74MPD2    C1 1129   1.889   0.617  13.669 -0.0923  0.0343 -0.2920
   74MPD2    C2 1130   1.951   0.620  13.789 -0.0563  0.0600 -0.6408
   74MPD2    C3 1131   1.950   0.517  13.878 -0.2388  0.1362 -0.0366
   74MPD2    C4 1132   1.877   0.407  13.844  0.2550 -0.2985  0.5802
   74MPD2    C5 1133   1.805   0.396  13.725 -0.6334  0.4897 -0.6233
   74MPD2     H 1134   2.010   0.706  13.819  0.5147 -1.1302  1.6583
   74MPD2    H1 1135   1.879   0.319  13.907  0.5810 -2.9247 -3.0785
   74MPD2    H2 1136   1.747   0.504  13.551  0.3429  2.1182 -0.3964
   74MPD2    H3 1137   1.735   0.313  13.717 -1.0289  0.8116 -0.5000
   74MPD2     N 1138   2.027   0.521  13.995  0.1715 -0.5457  0.3497
   74MPD2    H5 1139   2.012   0.444  14.059 -2.4388 -0.5216 -0.2548
   74MPD2    N1 1140   1.896   0.718  13.572 -0.2509 -0.0989 -1.0122
   74MPD2    H7 1141   1.851   0.708  13.481  0.6481 -0.3555 -1.4265
   75TCq2    C1 1142   1.952   1.736  14.206  0.2558  0.4164  0.2696
   75TCq2    O2 1143   1.986   1.850  14.238 -0.3920 -0.6848 -0.0987
   75TCq2    C2 1144   1.842   1.717  14.111 -0.3880 -0.2113  0.4343
   75TCq2    C3 1145   1.795   1.588  14.078  0.1229 -0.4372 -0.1318
   75TCq2    C4 1146   1.694   1.584  13.985 -0.0169 -0.1977  0.0402
   75TCq2    C5 1147   1.646   1.697  13.924  0.1726 -0.1375  0.2143
   75TCq2    C6 1148   1.694   1.814  13.959 -0.0048 -0.3941  0.9585
   75TCq2    C7 1149   1.792   1.831  14.052  0.4387 -0.9811  0.5826
   75TCq2    C8 1150   1.677   1.915  13.856  0.1744 -0.0703  0.6517
   75TCq2    O4 1151   1.570   1.909  13.795  0.3777  0.1659 -0.5196
   75TCq2    C9 1152   1.635   1.453  13.957 -0.0022  0.4940 -0.1908
   75TCq2    O5 1153   1.695   1.351  13.999  0.0061 -0.4791  0.1108
   75TCq2    O6 1154   1.538   1.445  13.874  0.6045 -0.5138 -0.4066
   75TCq2    H2 1155   1.836   1.496  14.116 -0.3505 -0.5244  0.1673
   75TCq2    H3 1156   1.568   1.689  13.849  0.2929  2.6015 -0.2189
   75TCq2    H4 1157   1.831   1.929  14.075 -2.8619  0.4407  0.1522
   76MPD2     C 1158   1.032   2.814  12.474 -0.1741  0.3191 -0.0171
   76MPD2    C1 1159   0.991   2.727  12.373  0.1006  0.1364 -0.3152
   76MPD2    C2 1160   1.060   2.607  12.365  0.3923  0.2763  0.1494
   76MPD2    C3 1161   1.160   2.561  12.447 -0.9061 -0.3425  0.1419
   76MPD2    C4 1162   1.193   2.647  12.550 -0.0670 -0.3528  0.7700
   76MPD2    C5 1163   1.135   2.767  12.552  0.3105  0.1601  0.4644
   76MPD2     H 1164   1.047   2.557  12.269 -3.5122  0.6117  0.4865
   76MPD2    H1 1165   1.262   2.619  12.628  1.4498 -0.5326 -0.6374
   76MPD2    H2 1166   0.994   2.915  12.485  1.0133  0.8498 -0.8357
   76MPD2    H3 1167   1.183   2.835  12.622 -0.8615  0.2178  1.2187
   76MPD2     N 1168   1.232   2.441  12.433 -0.4728  0.0740  0.2492
   76MPD2    H5 1169   1.306   2.413  12.497 -1.2560 -1.9937  0.2338
   76MPD2    N1 1170   0.889   2.757  12.280  0.0194  0.6127  0.0398
   76MPD2    H7 1171   0.884   2.696  12.199  0.2736  1.4193 -0.5797
   77TCq2    C1 1172   1.225   2.353  12.325 -1.1473  0.3199 -0.0249
   77TCq2    O2 1173   1.141   2.346  12.233  0.1976 -0.5662 -0.2061
   77TCq2    C2 1174   1.292   2.225  12.341 -0.1961  0.1233  0.0813
   77TCq2    C3 1175   1.247   2.113  12.274 -0.4912  0.1405 -0.0674
   77TCq2    C4 1176   1.328   2.008  12.271 -0.2081  0.6596  0.1782
   77TCq2    C5 1177   1.448   2.001  12.339  0.3499 -0.5456  0.2521
   77TCq2    C6 1178   1.484   2.107  12.411 -0.9867  0.4345 -0.3651
   77TCq2    C7 1179   1.405   2.219  12.414 -0.0609  0.0051 -0.0847
   77TCq2    C8 1180   1.620   2.109  12.470  0.5360 -0.5054 -0.4954
   77TCq2    O4 1181   1.705   2.038  12.425 -0.4782  0.2635  0.2771
   77TCq2    C9 1182   1.284   1.898  12.188  0.1978 -0.1303 -0.5433
   77TCq2    O5 1183   1.364   1.803  12.171 -0.1265  0.5528  0.1013
   77TCq2    O6 1184   1.160   1.891  12.156 -0.1533 -0.2354 -0.0903
   77TCq2    H2 1185   1.161   2.115  12.207 -1.2985  0.4514  0.9746
   77TCq2    H3 1186   1.512   1.915  12.318  0.8878 -0.1183  0.1430
   77TCq2    H4 1187   1.449   2.313  12.445  0.4055 -0.2500  0.0329
   78MPD1     C 1188   3.426   0.878   2.438  0.6019 -0.2308  0.6641
   78MPD1    C1 1189   3.364   0.992   2.484  0.1492  0.2788 -0.1442
   78MPD1    C2 1190   3.436   1.112   2.497  0.2410 -0.5753 -0.1377
   78MPD1    C3 1191   3.570   1.112   2.459 -0.2824 -0.2024 -0.6104
   78MPD1    C4 1192   3.628   1.000   2.410  0.5178 -0.6367 -0.2953
   78MPD1    C5 1193   3.556   0.880   2.395  0.2887  0.0732 -0.2183
   78MPD1     H 1194   3.386   1.202   2.532 -0.2137 -0.6759 -0.5303
   78MPD1    H1 1195   3.731   0.999   2.378  0.3224  0.9666 -0.9626
   78MPD1    H2 1196   3.371   0.787   2.415  0.5225 -0.3495  1.3196
   78MPD1    H3 1197   3.602   0.791   2.355  1.3679  1.4276 -1.9789
   78MPD1     N 1198   3.654   1.215   2.433  0.2218  0.0491 -0.0795
   78MPD1    H5 1199   3.743   1.190   2.391  0.7770 -0.2063  1.2224
   78MPD1    N1 1200   3.225   1.002   2.497  0.0937  0.1671 -0.1725
   78MPD1    H6 1201   3.206   1.072   2.568  0.6495  0.2458 -0.1003
   78MPD1    H7 1202   3.177   0.915   2.518  0.9450 -0.4848 -0.9727
   79TCq2    C1 1203   3.619   1.348   2.432  0.2528  0.0570 -0.0856
   79TCq2    O2 1204   3.516   1.402   2.461 -0.2181 -0.2345  0.8716
   79TCq2    C2 1205   3.736   1.433   2.416 -1.1027 -0.2154 -0.6194
   79TCq2    C3 1206   3.866   1.392   2.433  0.1751 -0.0403 -1.1021
   79TCq2    C4 1207   3.962   1.484   2.427  0.1864  0.3597 -0.1624
   79TCq2    C5 1208   3.940   1.616   2.410  0.2479  0.4311  0.3910
   79TCq2    C6 1209   3.814   1.650   2.386 -0.0222 -0.5722  0.1511
   79TCq2    C7 1210   3.709   1.561   2.391 -1.0271  0.6874 -0.3225
   79TCq2    C8 1211   3.787   1.796   2.361  0.2133 -0.1435 -0.0360
   79TCq2    O4 1212   3.883   1.862   2.335  0.6489  0.5168  0.0465
   79TCq2    C9 1213   4.092   1.443   2.461 -0.3646 -0.6854 -0.5007
   79TCq2    O5 1214   4.177   1.529   2.491  0.6018  0.1141  0.4500
   79TCq2    O6 1215   4.123   1.320   2.435 -0.2975 -0.2999  0.0751
   79TCq2    H2 1216   3.890   1.287   2.446 -1.9241 -0.4652 -0.7277
   79TCq2    H3 1217   4.015   1.692   2.389  1.8058 -1.5575 -1.1874
   79TCq2    H4 1218   3.609   1.600   2.375 -1.5204 -1.8476 -3.2961
   80MPD2     C 1219   4.649   2.303  12.571  0.0298 -0.1401  0.4837
   80MPD2    C1 1220   4.558   2.227  12.503 -0.4245 -0.6779 -0.5204
   80MPD2    C2 1221   4.428   2.225  12.548 -0.4382 -0.0749  0.7037
   80MPD2    C3 1222   4.381   2.308  12.646 -0.1268 -0.3350  0.5430
   80MPD2    C4 1223   4.465   2.404  12.695  0.5261 -0.7865 -0.4705
   80MPD2    C5 1224   4.602   2.394  12.665  0.2862 -0.1116  0.1753
   80MPD2     H 1225   4.368   2.145  12.507 -0.6114  1.0881 -1.3361
   80MPD2    H1 1226   4.433   2.476  12.769  1.8801  0.1102 -0.7563
   80MPD2    H2 1227   0.033   2.313  12.552  0.3540  0.7438  2.7199
   80MPD2    H3 1228   4.660   2.464  12.724 -0.4282  0.5755  0.0525
   80MPD2     N 1229   4.246   2.314  12.682  0.0950  0.2462  0.4761
   80MPD2    H5 1230   4.228   2.378  12.759 -1.5448  0.5354 -0.1481
   80MPD2    N1 1231   4.587   2.135  12.397  0.7885 -0.0013  0.1114
   80MPD2    H7 1232   4.523   2.067  12.356  0.4505 -0.2697  1.0975
   81TCq2    C1 1233   4.714   2.126  12.338 -0.2898  0.6949 -0.5234
   81TCq2    O2 1234   0.092   2.188  12.373  0.1461 -0.2006  0.1073
   81TCq2    C2 1235   0.003   2.036  12.226  0.8718  0.0292 -0.0344
   81TCq2    C3 1236   0.129   1.997  12.192  0.4105  0.2612 -0.2869
   81TCq2    C4 1237   0.156   1.887  12.116  0.2147 -0.4798  0.3707
   81TCq2    C5 1238   0.045   1.824  12.063 -0.2018 -0.2412 -0.0544
   81TCq2    C6 1239   4.639   1.859  12.102 -0.0455  0.1243  0.0273
   81TCq2    C7 1240   4.616   1.962  12.188  0.0469  0.2743  0.1917
   81TCq2    C8 1241   4.542   1.756  12.089 -0.3508  0.6171 -0.3043
   81TCq2    O4 1242   4.566   1.674  12.000  0.4565 -0.8923  0.0916
   81TCq2    C9 1243   0.295   1.847  12.082  0.3710  0.1883 -1.6312
   81TCq2    O5 1244   0.317   1.772  11.984 -0.0980 -0.2082  0.0704
   81TCq2    O6 1245   0.389   1.901  12.147  0.0223  0.1146 -0.2408
   81TCq2    H2 1246   0.217   2.048  12.230  0.2203  0.5341 -0.2094
   81TCq2    H3 1247   0.063   1.767  11.973 -1.0436 -0.4436 -0.0991
   81TCq2    H4 1248   4.516   1.999  12.207 -0.4832 -0.6546 -0.7897
   82MPD2     C 1249   3.070   1.663  10.452 -0.1479  0.1160  0.6263
   82MPD2    C1 1250   2.992   1.555  10.470  0.7821 -0.1992 -0.5590
   82MPD2    C2 1251   3.022   1.455  10.568 -0.5502 -0.3005  0.6300
   82MPD2    C3 1252   3.125   1.481  10.654  0.8070  1.0335  0.2331
   82MPD2    C4 1253   3.196   1.600  10.630  0.5604  0.3888  0.4682
   82MPD2    C5 1254   3.170   1.691  10.535  0.5632 -0.4769  0.3063
   82MPD2     H 1255   2.971   1.360  10.578  2.0854 -1.8923 -0.8244
   82MPD2    H1 1256   3.286   1.615  10.688  0.4098  1.4427  0.4223
   82MPD2    H2 1257   3.040   1.733  10.375  0.9754  0.6509  0.6899
   82MPD2    H3 1258   3.225   1.784  10.527 -1.1085  0.3897 -0.9844
   82MPD2     N 1259   3.166   1.403  10.764 -0.1957 -0.4784 -0.2004
   82MPD2    H5 1260   3.248   1.439  10.812 -0.5630 -3.5020  2.6759
   82MPD2    N1 1261   2.874   1.544  10.387 -0.0204  0.2099  0.1270
   82MPD2    H7 1262   2.844   1.629  10.340 -0.1741 -0.5240 -1.1096
   83TCq2    C1 1263   3.115   1.282  10.807  0.3400  0.5498 -0.3238
   83TCq2    O2 1264   3.006   1.227  10.779  0.2295  0.5190 -0.0608
   83TCq2    C2 1265   3.197   1.220  10.918 -0.9550  0.1864 -0.0686
   83TCq2    C3 1266   3.262   1.306  11.000 -0.3007 -0.5407 -0.0151
   83TCq2    C4 1267   3.304   1.260  11.125 -0.1109 -0.0425 -0.2521
   83TCq2    C5 1268   3.281   1.130  11.164 -0.0503 -0.2120 -0.1901
   83TCq2    C6 1269   3.227   1.043  11.077 -0.2605 -0.1288 -0.4493
   83TCq2    C7 1270   3.173   1.091  10.960  0.4954  0.2391 -0.4120
   83TCq2    C8 1271   3.183   0.921  11.136 -0.4147 -0.1490 -0.2738
   83TCq2    O4 1272   3.189   0.913  11.257  0.0123  0.3687 -0.3346
   83TCq2    C9 1273   3.364   1.359  11.213  0.1631 -0.7654 -0.2534
   83TCq2    O5 1274   3.354   1.481  11.178 -0.1727  0.4626  0.0193
   83TCq2    O6 1275   3.426   1.317  11.317 -0.2186  0.8274 -0.1984
   83TCq2    H2 1276   3.282   1.411  10.982 -1.0687 -0.1592  1.3424
   83TCq2    H3 1277   3.299   1.098  11.266 -0.0058  2.1535  0.5530
   83TCq2    H4 1278   3.109   1.025  10.902  0.0513  0.9046 -0.6798
   84TCq2    C1 1279   4.069   0.161  10.629 -0.6193 -0.1483 -0.2076
   84TCq2    O2 1280   4.068   0.094  10.525  0.3382 -0.1281 -0.2232
   84TCq2    C2 1281   4.105   0.083  10.752 -0.1703 -0.6566 -0.3256
   84TCq2    C3 1282   4.135   4.670  10.730 -0.3742 -0.4367 -0.0258
   84TCq2    C4 1283   4.158   4.604  10.843  0.0683  0.4616 -0.4169
   84TCq2    C5 1284   4.184   4.656  10.965 -0.8419  0.3218 -0.1158
   84TCq2    C6 1285   4.162   0.065  10.979 -0.8257  0.6876  0.2201
   84TCq2    C7 1286   4.102   0.140  10.882 -0.2197  0.4918 -0.0672
   84TCq2    C8 1287   4.145   0.118  11.121  0.5330  0.7016  0.3325
   84TCq2    O4 1288   4.138   0.240  11.136  0.2775  0.0525  0.1487
   84TCq2    C9 1289   4.201   4.464  10.826  0.4516  0.1137 -0.3053
   84TCq2    O5 1290   4.185   4.391  10.927 -0.3098 -0.3423  0.3865
   84TCq2    O6 1291   4.223   4.422  10.706  0.0791  0.3242 -0.7179
   84TCq2    H2 1292   4.136   4.616  10.636  0.7480  0.5388 -0.5690
   84TCq2    H3 1293   4.233   4.586  11.032 -0.9120 -0.1014 -0.5060
   84TCq2    H4 1294   4.087   0.245  10.905  2.7437  1.1480 -1.1046
   85MPD2     C 1295   4.231   3.353  16.087 -0.4531  0.2396  0.1925
   85MPD2    C1 1296   4.330   3.280  16.137  0.3545 -0.6877  0.5161
   85MPD2    C2 1297   4.462   3.338  16.134  0.1696  0.4841  0.3671
   85MPD2    C3 1298   4.485   3.463  16.076  0.2381  0.3441 -0.2166
   85MPD2    C4 1299   4.380   3.538  16.029  0.3542 -0.3300  0.3792
   85MPD2    C5 1300   4.255   3.481  16.037 -0.2401 -0.1168  0.0656
   85MPD2     H 1301   4.544   3.279  16.173  0.8415  0.4240 -1.1679
   85MPD2    H1 1302   4.395   3.631  15.975 -1.1455  0.6404  1.6595
   85MPD2    H2 1303   4.128   3.319  16.088  0.2830 -2.0084  0.9046
   85MPD2    H3 1304   4.180   3.535  15.980 -0.4880  0.3973  0.8821
   85MPD2     N 1305   4.623   3.508  16.067 -0.5916 -0.2791  0.0241
   85MPD2    H5 1306   4.692   3.433  16.073  2.4440  2.4154 -1.3496
   85MPD2    N1 1307   4.305   3.150  16.186 -0.0008  0.4352  0.1330
   85MPD2    H7 1308   4.383   3.088  16.203 -0.1016  0.1595 -0.4224
   86TCq2    C1 1309   4.658   3.633  16.034  0.2503  0.5704 -0.2575
   86TCq2    O2 1310   4.594   3.732  16.058  0.3974 -0.0774  0.5038
   86TCq2    C2 1311   0.067   3.654  15.975  0.3553  0.5434  0.3947
   86TCq2    C3 1312   0.104   3.783  15.945  0.0874  1.0278  0.0612
   86TCq2    C4 1313   0.197   3.806  15.846  0.1163 -0.3222  0.2649
   86TCq2    C5 1314   0.273   3.702  15.788 -0.3057  0.2097  0.8025
   86TCq2    C6 1315   0.250   3.572  15.830 -0.3980  0.2098  0.6954
   86TCq2    C7 1316   0.143   3.550  15.917 -0.2290  0.2695  0.2930
   86TCq2    C8 1317   0.306   3.458  15.764  0.2251 -0.3890  0.0997
   86TCq2    O4 1318   0.270   3.349  15.805  0.5826  0.2559 -0.2924
   86TCq2    C9 1319   0.213   3.946  15.800 -0.5380  0.5983 -0.3543
   86TCq2    O5 1320   0.262   3.969  15.684  0.4229  0.2295 -0.2233
   86TCq2    O6 1321   0.160   4.032  15.877 -0.0967 -0.5496 -0.2007
   86TCq2    H2 1322   0.050   3.868  15.985  1.5396  1.3408  1.3516
   86TCq2    H3 1323   0.346   3.726  15.712 -2.3393 -0.5905 -1.4025
   86TCq2    H4 1324   0.110   3.449  15.942 -2.0825  0.5582 -0.9643
   87MPD2     C 1325   2.366   1.547   1.603  0.4832 -0.5777  0.2797
   87MPD2    C1 1326   2.466   1.643   1.607 -0.2647 -0.1986 -0.2375
   87MPD2    C2 1327   2.429   1.782   1.600  0.5404 -0.0578 -0.3804
   87MPD2    C3 1328   2.298   1.815   1.596  0.1258 -0.2429  0.1884
   87MPD2    C4 1329   2.204   1.720   1.620  0.2245 -0.0578 -0.2704
   87MPD2    C5 1330   2.235   1.593   1.619 -0.3551  0.2914  0.0258
   87MPD2     H 1331   2.511   1.851   1.583 -1.0069  1.0204 -3.3521
   87MPD2    H1 1332   2.100   1.748   1.632  0.1103 -0.0149 -1.3834
   87MPD2    H2 1333   2.371   1.438   1.600 -0.7615 -0.6182 -0.1941
   87MPD2    H3 1334   2.157   1.519   1.632  2.9187 -2.7662  2.4703
   87MPD2     N 1335   2.260   1.948   1.571  0.8168 -0.2968 -0.2022
   87MPD2    H5 1336   2.164   1.979   1.587  1.3929  1.1755  0.3959
   87MPD2    N1 1337   2.591   1.585   1.584  0.7392 -0.0928  0.2994
   87MPD2    H7 1338   2.603   1.484   1.582  0.9712 -0.0536 -0.2377
   88TCq2    C1 1339   2.706   1.663   1.598  0.3132 -0.5174  0.7996
   88TCq2    O2 1340   2.718   1.784   1.611  0.2558 -0.0891 -0.4439
   88TCq2    C2 1341   2.825   1.585   1.586 -0.1739 -0.2920  0.3573
   88TCq2    C3 1342   2.936   1.651   1.634  0.0630  0.5067  0.4179
   88TCq2    C4 1343   3.059   1.627   1.583 -0.9690 -0.5212 -0.1732
   88TCq2    C5 1344   3.070   1.522   1.493  0.4632 -0.1056  0.2840
   88TCq2    C6 1345   2.962   1.440   1.466  0.0770  0.3723  0.9099
   88TCq2    C7 1346   2.841   1.474   1.506  0.6390 -0.4061 -0.5783
   88TCq2    C8 1347   2.964   1.343   1.358  0.1789  0.3220 -0.6913
   88TCq2    O4 1348   2.872   1.345   1.283 -0.5628 -0.8140 -0.3452
   88TCq2    C9 1349   3.166   1.707   1.627 -0.6085  0.2743 -0.0542
   88TCq2    O5 1350   3.281   1.678   1.585 -0.8017  0.2559 -0.6166
   88TCq2    O6 1351   3.138   1.789   1.716  0.0708 -0.6966 -0.0055
   88TCq2    H2 1352   2.917   1.736   1.698  0.3046  1.1627 -0.3735
   88TCq2    H3 1353   3.165   1.486   1.455 -0.7506 -4.2881  1.1746
   88TCq2    H4 1354   2.761   1.409   1.472  1.6692 -1.9028 -0.1030
   89MPD2     C 1355   2.455   4.688   2.063 -0.9689  0.0372 -1.3141
   89MPD2    C1 1356   2.378   4.654   1.949  0.3746  0.4677  0.2968
   89MPD2    C2 1357   2.436   4.606   1.836 -0.8542  0.0958  0.3028
   89MPD2    C3 1358   2.576   4.598   1.831  0.2344  0.0087 -0.1397
   89MPD2    C4 1359   2.651   4.629   1.945 -0.1390  0.1586  0.5698
   89MPD2    C5 1360   2.593   4.677   2.059 -0.2532 -0.3948  0.1521
   89MPD2     H 1361   2.375   4.588   1.749  0.2580  0.6950 -0.5932
   89MPD2    H1 1362   2.760   4.631   1.953 -0.0936  0.3478 -0.1021
   89MPD2    H2 1363   2.418   0.005   2.157  1.7450 -2.5486  0.8283
   89MPD2    H3 1364   2.648   4.709   2.147 -3.4388  2.0865  1.2544
   89MPD2     N 1365   2.635   4.573   1.703 -0.6394  0.2345  0.3322
   89MPD2    H5 1366   2.575   4.571   1.621 -1.2443 -1.1166  0.8134
   89MPD2    N1 1367   2.234   4.657   1.954 -0.0052 -0.3173 -0.0301
   89MPD2    H7 1368   2.183   4.629   1.871 -0.1312 -0.8677  0.2315
   90TCq2    C1 1369   2.774   4.556   1.677 -0.3497  0.0943  0.3776
   90TCq2    O2 1370   2.867   4.532   1.754  0.0919 -0.4008 -0.0247
   90TCq2    C2 1371   2.795   4.528   1.536 -0.1043  0.8453  0.6367
   90TCq2    C3 1372   2.895   4.439   1.503 -0.1760 -0.6359  0.0105
   90TCq2    C4 1373   2.939   4.448   1.372  0.8353  0.2645  0.2247
   90TCq2    C5 1374   2.872   4.523   1.280 -0.8442  0.4898 -0.7541
   90TCq2    C6 1375   2.768   4.597   1.318 -1.0488  0.1311 -0.9639
   90TCq2    C7 1376   2.729   4.603   1.445 -0.3316 -0.4397 -0.2210
   90TCq2    C8 1377   2.722   4.713   1.231  0.1893  0.1825  0.6115
   90TCq2    O4 1378   2.621   0.045   1.271 -0.2799 -0.1257 -0.3847
   90TCq2    C9 1379   3.053   4.367   1.336  0.3544 -0.1334  0.3099
   90TCq2    O5 1380   3.133   4.332   1.428  0.2737 -0.1063  0.2031
   90TCq2    O6 1381   3.084   4.380   1.217 -0.4312 -0.6553  0.6176
   90TCq2    H2 1382   2.956   4.381   1.571  1.2272  0.0063 -0.7217
   90TCq2    H3 1383   2.892   4.534   1.174 -1.7168 -0.8122 -1.0515
   90TCq2    H4 1384   2.672   4.688   1.482  1.2825  0.8468 -0.6909
   91TMC2    C1 1385   4.720   4.281  17.102  0.0539 -0.9415  0.3436
   91TMC2    C2 1386   0.026   4.391  17.023 -0.0214 -0.6026 -0.0371
   91TMC2    C3 1387   4.645   4.441  16.952 -0.2940  0.7809 -0.2040
   91TMC2    C4 1388   4.612   4.205  17.084 -0.3248 -0.5422 -0.0451
   91TMC2    C5 1389   4.517   4.250  17.002 -0.3914  0.0294  0.1576
   91TMC2    C6 1390   4.528   4.370  16.933 -0.0747 -0.0287  0.0901
   91TMC2     C 1391   0.106   4.218  17.164  0.5797  1.4184 -0.1532
   91TMC2     O 1392   0.080   4.123  17.231 -0.3692  0.1826 -0.2863
   91TMC2     H 1393   0.114   4.454  17.034 -0.8194  0.3568  0.7965
   91TMC2    H1 1394   4.596   4.119  17.148  0.4660 -0.1900  0.6164
   91TMC2    H2 1395   4.441   4.417  16.888 -0.0878  0.0127  0.1592
   91TMC2    C7 1396   4.405   4.170  16.982 -0.2484 -0.6681  0.1937
   91TMC2    C8 1397   4.667   4.552  16.864  0.1159  0.7285  0.3846
   91TMC2    O1 1398   4.366   4.114  17.083 -0.0569  0.8385 -0.2887
   91TMC2    O2 1399   4.571   4.620  16.834  0.0187 -0.2927 -0.7423
   91TMC2    O5 1400   0.028   4.505  16.768 -0.0482  0.4554 -0.3468
   91TMC2    H5 1401   0.095   4.447  16.810  2.8886  1.5596 -3.5339
   92MPD2     C 1402   0.364   4.121  17.248  0.2586  0.2552 -0.2328
   92MPD2    C1 1403   0.345   4.200  17.132  0.0557  0.5831 -0.3493
   92MPD2    C2 1404   0.451   4.222  17.047 -0.4837 -1.1257  0.1592
   92MPD2    C3 1405   0.575   4.169  17.070  0.0927 -0.2189  0.3614
   92MPD2    C4 1406   0.590   4.097  17.184 -0.0199  0.0933 -0.4627
   92MPD2    C5 1407   0.492   4.074  17.278  0.4432  0.5577  0.5299
   92MPD2     H 1408   0.441   4.286  16.960 -1.0287 -1.0193  0.3005
   92MPD2    H1 1409   0.686   4.056  17.213  0.4301 -0.2933 -2.4957
   92MPD2    H2 1410   0.292   4.106  17.328 -0.1566 -1.8044 -0.9874
   92MPD2    H3 1411   0.515   4.017  17.367  1.3097 -0.8077 -0.5720
   92MPD2     N 1412   0.678   4.190  16.982 -0.3691 -0.1170 -0.1609
   92MPD2    H5 1413   0.641   4.228  16.896  0.7528 -1.2131 -1.1329
   92MPD2    N1 1414   0.224   4.256  17.098 -0.0380 -1.2698 -0.3449
   92MPD2    H7 1415   0.222   4.314  17.014  0.7637 -0.6206  0.0964
   93MPD2     C 1416   1.632   0.280  14.070  0.6053 -0.0425  0.4583
   93MPD2    C1 1417   1.622   0.212  14.188 -0.4344 -0.6955 -0.1365
   93MPD2    C2 1418   1.513   0.132  14.208  0.6826  0.1914  0.1166
   93MPD2    C3 1419   1.406   0.134  14.120 -0.2392 -0.8227 -0.7230
   93MPD2    C4 1420   1.422   0.206  14.006  0.1367 -0.4976  0.7789
   93MPD2    C5 1421   1.537   0.272  13.975  0.3464  0.4997  0.4200
   93MPD2     H 1422   1.518   0.063  14.291 -0.5501  0.3709  0.3425
   93MPD2    H1 1423   1.337   0.205  13.939 -1.3086 -2.5572  2.6661
   93MPD2    H2 1424   1.718   0.339  14.044  1.2046 -1.2806 -0.3535
   93MPD2    H3 1425   1.545   0.322  13.879  0.1318 -1.4671 -0.6270
   93MPD2     N 1426   1.289   0.053  14.132  0.0439 -0.0285 -0.5608
   93MPD2    H5 1427   1.235   0.048  14.046 -0.5511  0.4529 -0.2063
   93MPD2    N1 1428   1.735   0.192  14.274 -0.5883 -0.1551 -0.3161
   93MPD2    H7 1429   1.726   0.134  14.357 -2.7198 -0.5604 -0.8145
   94TCq2    C1 1430   1.859   0.244  14.246 -0.1893  0.3977 -0.1476
   94TCq2    O2 1431   1.908   0.318  14.164 -0.2870  0.1469 -0.0067
   94TCq2    C2 1432   1.960   0.220  14.346  0.2620  0.8718 -0.1698
   94TCq2    C3 1433   1.919   0.166  14.465 -0.1895  0.2386 -0.6384
   94TCq2    C4 1434   2.011   0.173  14.566 -0.1473 -1.0115 -0.3715
   94TCq2    C5 1435   2.138   0.222  14.558 -0.0690  0.8081  0.4234
   94TCq2    C6 1436   2.178   0.258  14.432  0.5669  0.4870 -0.4430
   94TCq2    C7 1437   2.088   0.272  14.329 -0.2599 -0.3966 -0.4718
   94TCq2    C8 1438   2.310   0.304  14.406  0.5256  0.0460 -0.3869
   94TCq2    O4 1439   2.339   0.344  14.294  1.1078 -0.0113  0.3503
   94TCq2    C9 1440   1.980   0.113  14.693  0.0675 -0.0196  0.5718
   94TCq2    O5 1441   2.080   0.066  14.755 -0.2875 -0.5385  0.2642
   94TCq2    O6 1442   1.862   0.075  14.707 -0.2416 -0.7947 -0.0085
   94TCq2    H2 1443   1.821   0.123  14.479 -0.0009  0.2271  0.6926
   94TCq2    H3 1444   2.209   0.209  14.639 -0.6077 -2.0585  0.4384
   94TCq2    H4 1445   2.127   0.299  14.231  1.1392  2.0559  0.7594
   95TMC2    C1 1446   1.550   1.365  16.284 -0.0662  0.1609 -0.3680
   95TMC2    C2 1447   1.532   1.376  16.422 -0.0254  0.2204  0.1205
   95TMC2    C3 1448   1.528   1.258  16.488 -0.8379  0.8080 -0.3304
   95TMC2    C4 1449   1.550   1.249  16.222 -0.2141 -0.0817  0.5762
   95TMC2    C5 1450   1.534   1.134  16.289 -0.1802 -0.1982 -0.6022
   95TMC2    C6 1451   1.529   1.132  16.428 -0.6111 -0.2544  0.4391
   95TMC2     C 1452   1.623   1.467  16.216 -0.0067  1.0705 -0.7223
   95TMC2     O 1453   1.695   1.433  16.120  0.2848  0.2395 -0.6188
   95TMC2     H 1454   1.566   1.467  16.471  0.6940 -0.3387  0.6533
   95TMC2    H1 1455   1.563   1.248  16.115 -0.7059 -0.8317  0.5241
   95TMC2    H2 1456   1.543   1.036  16.475  0.2647 -1.1655 -1.6571
   95TMC2    C7 1457   1.590   1.017  16.230  0.2994  0.4633  0.3206
   95TMC2    C8 1458   1.492   1.286  16.620  0.7969 -0.3307  0.0703
   95TMC2    O1 1459   1.658   0.948  16.306 -0.0114  0.0908 -0.9776
   95TMC2    O2 1460   1.523   1.390  16.676  0.5802  0.5276 -0.0706
   95TMC2    O5 1461   1.424   1.190  16.678 -0.4539  0.3551  0.2786
   95TMC2    H5 1462   1.411   1.108  16.626  0.1508  0.0485  0.6023
   96MPD2     C 1463   1.745   1.952  16.126 -0.1521 -0.0799 -0.3765
   96MPD2    C1 1464   1.807   1.833  16.080  0.4301  0.5075  0.1697
   96MPD2    C2 1465   1.754   1.718  16.126  0.1479 -0.2187  1.0197
   96MPD2    C3 1466   1.638   1.713  16.200  0.4152 -0.1624  0.5889
   96MPD2    C4 1467   1.577   1.831  16.242 -0.0595  0.3218  0.0829
   96MPD2    C5 1468   1.634   1.952  16.200 -0.5191  0.4520 -1.0565
   96MPD2     H 1469   1.798   1.623  16.096 -1.2611  0.5199 -3.3256
   96MPD2    H1 1470   1.485   1.841  16.297 -1.5068  0.5335 -2.3813
   96MPD2    H2 1471   1.785   2.049  16.101 -0.0539  0.9566  3.7499
   96MPD2    H3 1472   1.592   2.045  16.236  0.4810  0.7133 -0.5476
   96MPD2     N 1473   1.587   1.591  16.252 -0.4120 -0.6165  0.2703
   96MPD2    H5 1474   1.517   1.602  16.325 -0.8605  1.9726 -0.5416
   96MPD2    N1 1475   1.925   1.839  16.000 -0.5071 -0.2132 -0.2626
   96MPD2    H7 1476   1.959   1.935  15.991 -2.7523  0.4512 -1.6013
   97MPD2     C 1477   4.449   4.004   1.263  0.2409 -0.0565  0.2108
   97MPD2    C1 1478   4.319   4.051   1.267 -0.4631  0.0717  0.1675
   97MPD2    C2 1479   4.252   4.067   1.145  0.7138 -0.4820  0.4569
   97MPD2    C3 1480   4.303   4.022   1.026  0.1179 -0.3915  0.2723
   97MPD2    C4 1481   4.431   3.964   1.023 -0.1659 -0.4390 -0.1246
   97MPD2    C5 1482   4.505   3.959   1.139  0.5918 -0.5658 -0.1756
   97MPD2     H 1483   4.156   4.117   1.145  1.1945  0.4404 -0.5868
   97MPD2    H1 1484   4.470   3.922   0.931  1.6932 -1.0417  0.9429
   97MPD2    H2 1485   4.507   3.989   1.353  0.7797  0.0319 -0.1222
   97MPD2    H3 1486   4.607   3.923   1.135  1.3904  1.6098  0.6567
   97MPD2     N 1487   4.222   4.008   0.908 -0.2308  0.7183 -0.3108
   97MPD2    H5 1488   4.257   3.962   0.825  1.9760  0.9546  0.4998
   97MPD2    N1 1489   4.263   4.088   1.395 -0.2647  0.6668  0.7682
   97MPD2    H7 1490   4.316   4.065   1.479 -0.3165  0.1636  0.6630
   98TCq2    C1 1491   4.088   4.037   0.888  0.7678  0.5568 -0.8666
   98TCq2    O2 1492   4.005   4.078   0.972  0.6570  0.2112 -0.1820
   98TCq2    C2 1493   4.042   4.019   0.751 -0.1372  0.0903 -0.1534
   98TCq2    C3 1494   3.915   3.974   0.722  0.5989  0.0985  0.1822
   98TCq2    C4 1495   3.876   3.960   0.591 -0.7097  1.3466 -0.2857
   98TCq2    C5 1496   3.967   3.979   0.484  0.4948 -0.1238 -0.1474
   98TCq2    C6 1497   4.092   4.002   0.522  0.0863  0.1340 -0.0152
   98TCq2    C7 1498   4.128   4.033   0.651  0.1437  0.3882 -0.0766
   98TCq2    C8 1499   4.184   4.049   0.422  0.5497 -0.1213 -0.8590
   98TCq2    O4 1500   4.298   4.078   0.460 -0.0742  0.9184  0.3613
   98TCq2    C9 1501   3.743   3.948   0.556  0.2109  0.5963  0.0049
   98TCq2    O5 1502   3.718   3.944   0.437  0.4074 -0.5268 -0.1706
   98TCq2    O6 1503   3.661   3.967   0.647  0.1918 -0.4327 -0.4625
   98TCq2    H2 1504   3.838   3.967   0.798  0.0135 -1.0099 -0.5100
   98TCq2    H3 1505   3.930   3.952   0.386  0.7005  2.2001 -0.8826
   98TCq2    H4 1506   4.230   4.068   0.663  0.3544 -0.4739  0.6907
   99MPD2     C 1507   2.935   0.918   2.004  0.0691 -0.8316  0.6325
   99MPD2    C1 1508   2.801   0.949   2.029  0.1015 -0.3363 -0.1897
   99MPD2    C2 1509   2.702   0.890   1.956 -0.1752  0.1969  0.6706
   99MPD2    C3 1510   2.728   0.794   1.861 -0.0185  1.2234 -0.4389
   99MPD2    C4 1511   2.862   0.757   1.842  0.2724  0.4631  0.3977
   99MPD2    C5 1512   2.966   0.823   1.912 -0.1800 -0.6430  0.0218
   99MPD2     H 1513   2.598   0.900   1.986 -0.1420 -2.5734  1.7147
   99MPD2    H1 1514   2.877   0.686   1.761  0.6220 -0.3090  1.1431
   99MPD2    H2 1515   3.019   0.963   2.056 -0.9448 -1.2439  2.6334
   99MPD2    H3 1516   3.071   0.811   1.891  0.1320  0.2639  1.0266
   99MPD2     N 1517   2.622   0.739   1.787 -0.6839 -0.0571 -0.5463
   99MPD2    H5 1518   2.535   0.790   1.802 -0.2289  0.6703 -0.3431
   99MPD2    N1 1519   2.756   1.045   2.123 -0.7590  0.0206  0.0439
   99MPD2    H7 1520   2.657   1.065   2.130 -0.8156 -0.5346  0.8151
  100TCq2    C1 1521   2.829   1.147   2.171 -0.4797  0.4397 -0.2700
  100TCq2    O2 1522   2.949   1.169   2.151 -0.3342 -0.4013  0.4093
  100TCq2    C2 1523   2.763   1.261   2.240  0.1199 -0.0826 -0.1986
  100TCq2    C3 1524   2.819   1.385   2.241 -0.2681  0.1784 -0.0487
  100TCq2    C4 1525   2.755   1.488   2.304  0.7627  0.7525  0.0679
  100TCq2    C5 1526   2.637   1.465   2.366 -0.0212  1.2613  0.1893
  100TCq2    C6 1527   2.587   1.339   2.358 -0.2155 -0.4650  0.2311
  100TCq2    C7 1528   2.641   1.230   2.286 -0.4990  0.0423 -0.1168
  100TCq2    C8 1529   2.458   1.313   2.414 -1.0138  0.0441 -0.1758
  100TCq2    O4 1530   2.426   1.398   2.499 -0.5545 -0.1922 -0.4727
  100TCq2    C9 1531   2.816   1.616   2.321  0.2093  0.3576 -0.3151
  100TCq2    O5 1532   2.763   1.708   2.393  0.3729  0.5134  0.1812
  100TCq2    O6 1533   2.913   1.641   2.236 -0.1454  0.0031 -0.1282
  100TCq2    H2 1534   2.915   1.401   2.195 -0.6385  0.5328 -0.7002
  100TCq2    H3 1535   2.588   1.546   2.418 -0.2621  1.5501 -0.4786
  100TCq2    H4 1536   2.607   1.128   2.293 -1.4808  0.4796  1.6630
  101MPD2     C 1537   3.303   1.716  13.269  1.0082 -0.1840  0.3115
  101MPD2    C1 1538   3.201   1.776  13.337 -0.9097 -0.2630  0.9798
  101MPD2    C2 1539   3.101   1.695  13.388 -0.0149  0.4890 -0.3102
  101MPD2    C3 1540   3.096   1.560  13.351  0.4350  0.2172  0.4295
  101MPD2    C4 1541   3.193   1.504  13.279  0.1199 -0.2501  0.2099
  101MPD2    C5 1542   3.298   1.579  13.240 -0.5496 -0.2733  0.3057
  101MPD2     H 1543   3.022   1.739  13.448  0.9671 -2.1163  2.8759
  101MPD2    H1 1544   3.204   1.403  13.242 -1.1574 -0.3204  0.0341
  101MPD2    H2 1545   3.371   1.769  13.203  0.6920 -2.9584 -2.2548
  101MPD2    H3 1546   3.383   1.537  13.189 -0.3288 -0.5966  0.9412
  101MPD2     N 1547   2.993   1.488  13.403  0.2813 -0.3564  0.1225
  101MPD2    H5 1548   2.942   1.532  13.479  0.9476  1.8495 -0.7314
  101MPD2    N1 1549   3.212   1.915  13.353  0.3696  0.7377  0.7493
  101MPD2    H7 1550   3.291   1.961  13.309 -1.8396  1.8293 -2.0269
  102TCq2    C1 1551   3.220   2.396  13.179 -0.5309  0.5707 -0.2123
  102TCq2    O2 1552   3.253   2.513  13.194  0.4298 -0.5382  0.4219
  102TCq2    C2 1553   3.197   2.334  13.305 -0.4499  0.5298 -0.1099
  102TCq2    C3 1554   3.114   2.404  13.395 -0.2169  0.2091 -0.0484
  102TCq2    C4 1555   3.043   2.335  13.488 -0.2550  0.7015  0.1862
  102TCq2    C5 1556   3.059   2.202  13.506  0.1791 -0.1285 -0.0614
  102TCq2    C6 1557   3.145   2.134  13.417  1.3402  0.4107  0.2507
  102TCq2    C7 1558   3.206   2.201  13.310  0.0288 -0.0412 -0.0784
  102TCq2    C8 1559   3.116   1.995  13.409  0.4306  0.0513  0.5741
  102TCq2    O4 1560   3.005   1.957  13.451  0.1772 -0.2479 -0.0133
  102TCq2    C9 1561   2.947   2.396  13.568  0.3850 -0.2942 -0.2508
  102TCq2    O5 1562   2.897   2.331  13.659  0.0002 -0.9673  0.3487
  102TCq2    O6 1563   2.874   2.482  13.504 -0.6989  0.1100  0.7511
  102TCq2    H2 1564   3.102   2.511  13.387  0.0081  0.2090 -0.4130
  102TCq2    H3 1565   2.996   2.149  13.576  0.2040  1.1755  0.9540
  102TCq2    H4 1566   3.266   2.147  13.238 -1.4023 -3.1925  1.0586
  103TMC2    C1 1567   1.679   2.429  13.211  0.7016 -0.4762 -0.0185
  103TMC2    C2 1568   1.797   2.470  13.271  0.4927 -0.0915  1.0441
  103TMC2    C3 1569   1.794   2.513  13.396 -0.0791  0.0849  0.7608
  103TMC2    C4 1570   1.571   2.416  13.281  0.2027  0.5614  0.6154
  103TMC2    C5 1571   1.573   2.455  13.408 -0.5381  0.6123 -0.0076
  103TMC2    C6 1572   1.680   2.511  13.472  0.4982 -0.1953 -0.1874
  103TMC2     C 1573   1.676   2.392  13.071 -0.5229  0.5566 -0.0759
  103TMC2     O 1574   1.568   2.412  13.019  0.4566  0.5306  0.1916
  103TMC2     H 1575   1.879   2.489  13.203 -0.5204 -0.6420 -0.3280
  103TMC2    H1 1576   1.479   2.383  13.235  1.8730  1.3683 -3.3124
  103TMC2    H2 1577   1.681   2.548  13.574 -2.4096  0.1893 -0.2978
  103TMC2    C7 1578   1.444   2.506  13.463  0.4591  0.4566  0.4246
  103TMC2    C8 1579   1.899   2.582  13.457 -0.9559  0.1531 -0.0556
  103TMC2    O1 1580   1.424   2.522  13.584 -0.4257 -0.9102 -0.2092
  103TMC2    O2 1581   1.877   2.639  13.564 -0.0999  0.0207  0.3644
  103TMC2    O5 1582   2.002   2.500  13.432 -0.8453 -0.3785  0.6592
  103TMC2    H5 1583   2.009   2.468  13.339  0.8219  1.7041  0.0763
  104MPD2     C 1584   1.934   2.219  12.861  0.3326  0.3799  0.1247
  104MPD2    C1 1585   1.814   2.277  12.892 -0.3735  0.1498  0.1498
  104MPD2    C2 1586   1.714   2.272  12.796  0.1237  0.2022 -0.0268
  104MPD2    C3 1587   1.735   2.206  12.676  1.0188 -0.3378 -0.3351
  104MPD2    C4 1588   1.852   2.149  12.650  0.4032 -0.5174  1.0722
  104MPD2    C5 1589   1.951   2.158  12.741  0.5453 -0.4428  0.0497
  104MPD2     H 1590   1.616   2.314  12.816  0.6048  1.3273 -0.0513
  104MPD2    H1 1591   1.879   2.091  12.562 -3.9209 -0.2292 -0.4224
  104MPD2    H2 1592   2.006   2.226  12.942  0.9167 -0.3796 -0.3375
  104MPD2    H3 1593   2.044   2.116  12.707  1.2680  1.3965 -0.2361
  104MPD2     N 1594   1.628   2.195  12.582  0.1705  0.6817 -0.3876
  104MPD2    H5 1595   1.542   2.240  12.612  0.5523  1.1236  0.0340
  104MPD2    N1 1596   1.794   2.342  13.021  0.7421 -0.3322 -0.1138
  104MPD2    H7 1597   1.862   2.324  13.094 -0.9566  1.4894  1.9204
  105MPD2     C 1598   3.201   1.426  17.546  0.1560 -0.6976  0.1816
  105MPD2    C1 1599   3.070   1.383  17.569  0.5451  0.3341  0.3432
  105MPD2    C2 1600   3.029   1.315  17.689  0.6934  0.2168  0.3360
  105MPD2    C3 1601   3.122   1.298   0.100  0.0515 -0.1389 -0.6764
  105MPD2    C4 1602   3.253   1.344   0.080  0.2788  0.5132 -0.7705
  105MPD2    C5 1603   3.287   1.420  17.653  0.1995  0.1371  0.2678
  105MPD2     H 1604   2.925   1.285   0.002  1.0123 -0.9673 -0.5018
  105MPD2    H1 1605   3.330   1.341   0.156  0.1074  1.3510 -0.5594
  105MPD2    H2 1606   3.238   1.466  17.452 -1.3497 -0.6195 -0.3754
  105MPD2    H3 1607   3.394   1.436  17.642  0.3639 -1.2440 -0.0666
  105MPD2     N 1608   3.077   1.224   0.211  0.0633 -1.0714  0.4121
  105MPD2    H5 1609   2.978   1.204   0.217 -0.0444 -0.4108  0.8208
  105MPD2    N1 1610   2.979   1.401  17.466 -0.4461  0.1946 -0.0887
  105MPD2    H7 1611   2.892   1.350  17.474  0.9015 -2.3881 -1.8511
  106TCq2    C1 1612   3.153   1.211   0.327  0.1586 -0.2297  0.0822
  106TCq2    O2 1613   3.271   1.231   0.341 -0.3716  0.2013 -0.0846
  106TCq2    C2 1614   3.074   1.157   0.439 -0.2073 -0.0910  0.1095
  106TCq2    C3 1615   2.939   1.121   0.425 -0.4760 -0.2384 -0.2548
  106TCq2    C4 1616   2.873   1.077   0.535  0.2497 -0.6828  0.4863
  106TCq2    C5 1617   2.937   1.076   0.650 -0.7255  0.9880  0.4905
  106TCq2    C6 1618   3.069   1.113   0.663  0.0869  0.1929  0.1846
  106TCq2    C7 1619   3.140   1.154   0.561 -0.0743  0.6398  0.2617
  106TCq2    C8 1620   3.146   1.088   0.784  0.4119 -0.0759 -0.0874
  106TCq2    O4 1621   3.260   1.058   0.756  0.5798 -0.2158  0.1395
  106TCq2    C9 1622   2.735   1.031   0.540  0.1034  0.1091  0.1895
  106TCq2    O5 1623   2.671   1.072   0.638  0.0286 -0.1377  0.1233
  106TCq2    O6 1624   2.691   1.011   0.425  0.1580 -0.0756  0.6074
  106TCq2    H2 1625   2.888   1.109   0.329 -0.3442 -0.3992 -0.3054
  106TCq2    H3 1626   2.891   1.046   0.744 -0.1382 -2.1421 -0.2352
  106TCq2    H4 1627   3.245   1.179   0.567 -0.2306  1.7700 -1.7113
  107TMC2    C1 1628   4.204   0.585  11.943  0.3219 -0.0644  0.2224
  107TMC2    C2 1629   4.302   0.658  11.879 -0.8232  0.9923  0.2691
  107TMC2    C3 1630   4.371   0.601  11.780  0.0955 -0.2416 -0.9136
  107TMC2    C4 1631   4.172   0.455  11.913 -0.7971  0.7770  0.4757
  107TMC2    C5 1632   4.253   0.403  11.814  0.4746  0.2796  0.2218
  107TMC2    C6 1633   4.343   0.476  11.738 -0.4980 -0.0601 -0.3972
  107TMC2     C 1634   4.093   0.662  12.005  0.1528  0.3860 -0.7909
  107TMC2     O 1635   4.037   0.598  12.089 -0.3422  0.0108  0.0425
  107TMC2     H 1636   4.324   0.762  11.902  0.3974  0.7607  0.1521
  107TMC2    H1 1637   4.075   0.414  11.939 -0.9073  1.3742  0.9922
  107TMC2    H2 1638   4.419   0.433  11.674 -0.0314 -0.5133  0.4522
  107TMC2    C7 1639   4.201   0.281  11.760  0.3431  0.3724 -0.1446
  107TMC2    C8 1640   4.496   0.669  11.737  0.1489 -0.2905 -0.2658
  107TMC2    O1 1641   4.154   0.203  11.839  0.1224  0.2001 -0.2477
  107TMC2    O2 1642   4.566   0.733  11.814  0.0659  0.7638  0.1182
  107TMC2    O5 1643   4.515   0.636  11.617  0.4457 -0.2014 -0.2523
  107TMC2    H5 1644   4.429   0.611  11.576  0.0461 -2.2889  1.8985
  108MPD2     C 1645   3.895   0.877  11.792  0.4513 -0.0386  0.5841
  108MPD2    C1 1646   3.929   0.828  11.920 -0.5281 -0.2768  0.4522
  108MPD2    C2 1647   3.839   0.828  12.030 -0.6771  0.6283 -0.2996
  108MPD2    C3 1648   3.710   0.883  12.016 -0.2457  0.3511 -0.0582
  108MPD2    C4 1649   3.692   0.945  11.890  0.4905  0.0019 -0.0680
  108MPD2    C5 1650   3.781   0.948  11.786 -0.3661  0.6279  0.3783
  108MPD2     H 1651   3.868   0.789  12.127 -0.6400  0.7204 -0.2744
  108MPD2    H1 1652   3.592   0.982  11.874  0.0280 -0.1022  2.5477
  108MPD2    H2 1653   3.966   0.875  11.710 -0.8898  2.2862 -0.6217
  108MPD2    H3 1654   3.755   1.010  11.701 -0.8976 -1.2220 -0.8090
  108MPD2     N 1655   3.613   0.893  12.117  0.4717 -0.3174  0.9646
  108MPD2    H5 1656   3.535   0.957  12.110  0.7519 -0.1968 -0.9957
  108MPD2    N1 1657   4.056   0.764  11.925 -0.1410  0.4293 -0.7517
  108MPD2    H7 1658   4.107   0.781  11.838 -0.2548  1.4803 -0.6145
  109MPD2     C 1659   4.416   2.600   2.143  0.0674 -0.7041 -0.3032
  109MPD2    C1 1660   4.319   2.648   2.061  0.0524 -0.2542 -0.5407
  109MPD2    C2 1661   4.354   2.755   1.980  0.2341 -0.5512  0.3979
  109MPD2    C3 1662   4.488   2.806   1.975  0.0915 -0.5762 -0.0119
  109MPD2    C4 1663   4.581   2.763   2.063 -0.2069 -0.7567  0.2320
  109MPD2    C5 1664   4.544   2.656   2.145 -0.2402  0.5206 -0.3882
  109MPD2     H 1665   4.296   2.805   1.903 -1.2108 -3.1203 -0.2000
  109MPD2    H1 1666   4.678   2.811   2.070 -2.1430  2.9100  1.9311
  109MPD2    H2 1667   4.398   2.519   2.213  1.5398 -0.5215  0.3018
  109MPD2    H3 1668   4.626   2.623   2.209 -1.8002 -0.9144  0.8553
  109MPD2     N 1669   4.522   2.903   1.876 -0.5802  0.2899  0.9888
  109MPD2    H5 1670   4.447   2.961   1.838 -0.3547  1.0123  1.6459
  109MPD2    N1 1671   4.186   2.597   2.067  0.1078 -0.0867  0.6291
  109MPD2    H7 1672   4.162   2.533   2.142  0.7946 -2.3410 -1.0762
  110TCq2    C1 1673   4.650   2.940   1.838 -0.7165  0.3783 -1.0873
  110TCq2    O2 1674   0.027   2.873   1.859 -0.2460  0.0423 -0.1138
  110TCq2    C2 1675   4.647   3.058   1.753 -0.3693 -0.3708 -0.2620
  110TCq2    C3 1676   0.018   3.072   1.647 -0.3618 -0.1471  0.3009
  110TCq2    C4 1677   0.013   3.191   1.577  0.0261  0.0962  0.4895
  110TCq2    C5 1678   4.653   3.289   1.626  0.3283 -0.0001 -0.3005
  110TCq2    C6 1679   4.571   3.274   1.729 -0.5749 -0.1296 -0.3864
  110TCq2    C7 1680   4.574   3.160   1.804 -0.1052 -0.1843  0.2779
  110TCq2    C8 1681   4.487   3.392   1.755  0.8752  0.0121  0.6271
  110TCq2    O4 1682   4.457   3.464   1.661 -0.1480  0.2850  0.3799
  110TCq2    C9 1683   0.093   3.218   1.463 -0.0228  0.3641 -0.0648
  110TCq2    O5 1684   0.172   3.125   1.437  0.1991  0.3255  0.3324
  110TCq2    O6 1685   0.049   3.303   1.374  0.0437  0.0712  0.6781
  110TCq2    H2 1686   0.090   2.999   1.610  1.8514  2.0389  0.2640
  110TCq2    H3 1687   4.658   3.387   1.579 -2.4069 -0.2066 -1.0047
  110TCq2    H4 1688   4.494   3.137   1.873 -0.6345  0.9231  0.0270
  111TMC2    C1 1689   3.315   3.375  11.745  0.0674  0.2061  0.2288
  111TMC2    C2 1690   3.184   3.360  11.779 -0.8235 -0.1998 -0.2672
  111TMC2    C3 1691   3.151   3.305  11.900  0.9688  0.3944  0.3399
  111TMC2    C4 1692   3.413   3.318  11.821  0.1681  0.6845  0.1744
  111TMC2    C5 1693   3.374   3.255  11.939 -0.2802  0.6570 -0.0042
  111TMC2    C6 1694   3.250   3.241  11.974 -0.1352  0.0790 -0.2330
  111TMC2     C 1695   3.344   3.432  11.614 -0.4175  0.2001 -0.0346
  111TMC2     O 1696   3.250   3.454  11.535 -0.0279  0.3723  0.7837
  111TMC2     H 1697   3.114   3.409  11.712  0.5818  0.8943 -0.9300
  111TMC2    H1 1698   3.517   3.343  11.803  0.2534  1.2004  1.3679
  111TMC2    H2 1699   3.223   3.186  12.064  0.5667 -0.3735 -0.3043
  111TMC2    C7 1700   3.470   3.178  12.011 -0.0948  0.0536 -0.3707
  111TMC2    C8 1701   3.012   3.279  11.933  0.3794 -0.9009 -0.8846
  111TMC2    O1 1702   3.448   3.156  12.127 -0.3527  0.4601 -0.1862
  111TMC2    O2 1703   2.981   3.188  12.007 -0.1765  0.0564 -0.0862
  111TMC2    O5 1704   2.940   3.374  11.883  0.2394  0.1286  0.5531
  111TMC2    H5 1705   2.993   3.455  11.866  2.0897 -0.7653  2.0864
  112MPD2     C 1706   3.641   3.595  11.230  0.4147 -0.1746 -0.6487
  112MPD2    C1 1707   3.510   3.564  11.233 -0.6068  0.2087  0.0973
  112MPD2    C2 1708   3.449   3.525  11.350 -0.5082  0.1061  0.0974
  112MPD2    C3 1709   3.527   3.509  11.461 -0.1683  0.0174  0.4414
  112MPD2    C4 1710   3.663   3.535  11.454  0.5651  0.3008  0.3816
  112MPD2    C5 1711   3.707   3.587  11.341 -0.0236 -0.4355  0.0768
  112MPD2     H 1712   3.343   3.507  11.341  0.0790 -2.4203 -1.8797
  112MPD2    H1 1713   3.740   3.511  11.526 -0.8158  1.3506  2.1990
  112MPD2    H2 1714   3.693   3.630  11.142  1.8466  2.0057  1.0918
  112MPD2    H3 1715   3.814   3.601  11.329 -0.3848  0.0922 -2.4253
  112MPD2     N 1716   3.476   3.461  11.590  0.0201  0.0152 -0.1279
  112MPD2    H5 1717   3.536   3.445  11.670  2.1965  0.9198 -1.5883
  112MPD2    N1 1718   3.430   3.569  11.118  0.0496  0.1162 -0.5697
  112MPD2    H7 1719   3.337   3.531  11.132 -0.1206  1.1691  1.1494
  113MPD2     C 1720   1.664   1.410   1.263  0.3196 -0.4498  0.5026
  113MPD2    C1 1721   1.618   1.312   1.345 -0.0588  0.0338 -0.0456
  113MPD2    C2 1722   1.510   1.237   1.317 -0.2426  0.4641 -0.5673
  113MPD2    C3 1723   1.454   1.249   1.187 -0.4617 -0.2349 -0.2335
  113MPD2    C4 1724   1.493   1.356   1.109  0.1055  1.0131 -0.7906
  113MPD2    C5 1725   1.596   1.441   1.148 -0.4764  0.0444  0.5343
  113MPD2     H 1726   1.472   1.162   1.386  1.3218  1.4673  1.3898
  113MPD2    H1 1727   1.447   1.382   1.014 -0.4808  0.3418 -0.6854
  113MPD2    H2 1728   1.750   1.468   1.296  0.7812 -1.8086  1.6742
  113MPD2    H3 1729   1.631   1.523   1.086  2.6742 -0.7429  1.2474
  113MPD2     N 1730   1.371   1.149   1.129  0.6520 -0.3725  0.5000
  113MPD2    H5 1731   1.335   1.166   1.036 -1.1308 -2.7397  0.7366
  113MPD2    N1 1732   1.671   1.288   1.475 -0.2685 -0.0506 -0.8108
  113MPD2    H7 1733   1.616   1.229   1.537  1.4499 -0.4339  0.3377
  114TCq2    C1 1734   1.327   1.031   1.190  0.4237  0.3463  0.3669
  114TCq2    O2 1735   1.361   0.985   1.300  0.1505  0.4668  0.3831
  114TCq2    C2 1736   1.256   0.934   1.100 -0.3375  0.9100  0.0808
  114TCq2    C3 1737   1.266   0.949   0.963  0.0059 -0.0329 -0.4422
  114TCq2    C4 1738   1.220   0.841   0.888  0.8483  0.2756 -0.1755
  114TCq2    C5 1739   1.159   0.733   0.942  0.1556 -0.4766  0.4443
  114TCq2    C6 1740   1.168   0.714   1.075  0.1341 -0.8460 -0.4305
  114TCq2    C7 1741   1.191   0.825   1.154  0.4326  0.0126 -0.8742
  114TCq2    C8 1742   1.142   0.589   1.142 -0.2446  0.0917  0.1258
  114TCq2    O4 1743   1.202   0.584   1.246  0.2409 -0.1526  0.0485
  114TCq2    C9 1744   1.244   0.845   0.750 -0.1771 -0.4785  0.0497
  114TCq2    O5 1745   1.333   0.926   0.717  0.0307 -0.0251 -0.1786
  114TCq2    O6 1746   1.186   0.756   0.679  0.3827 -0.4406  0.5680
  114TCq2    H2 1747   1.311   1.034   0.914  0.1643  0.3027  0.2950
  114TCq2    H3 1748   1.134   0.650   0.878  2.0628  0.4981 -1.5999
  114TCq2    H4 1749   1.184   0.817   1.261  0.6808  1.6230 -0.7386
  115TMC2    C1 1750   2.443   3.270   0.322 -0.1896  0.3877  0.3282
  115TMC2    C2 1751   2.517   3.155   0.355 -0.1306 -0.2585  0.5567
  115TMC2    C3 1752   2.625   3.176   0.430  0.0565  0.3192 -0.1299
  115TMC2    C4 1753   2.472   3.398   0.377  0.2334  0.6941 -0.3642
  115TMC2    C5 1754   2.596   3.410   0.427 -0.0485  0.1311  0.9959
  115TMC2    C6 1755   2.669   3.301   0.462  0.4801 -0.1745 -0.0802
  115TMC2     C 1756   2.317   3.231   0.255  0.1739 -0.7332  0.4247
  115TMC2     O 1757   2.301   3.113   0.247 -0.0837  0.6592 -0.3250
  115TMC2     H 1758   2.497   3.059   0.309  0.5590  0.3423 -1.0094
  115TMC2    H1 1759   2.412   3.481   0.341 -1.0425 -0.0641 -0.0111
  115TMC2    H2 1760   2.753   3.318   0.528 -0.8801  0.3336  1.5004
  115TMC2    C7 1761   2.647   3.542   0.437 -0.1250 -0.0440 -0.2866
  115TMC2    C8 1762   2.703   3.064   0.471  1.2221 -0.1187  0.1714
  115TMC2    O1 1763   2.735   3.567   0.521 -0.4901  0.4188  0.0324
  115TMC2    O2 1764   2.821   3.072   0.493  0.3624 -0.1891  0.2513
  115TMC2    O5 1765   2.630   2.953   0.487 -0.6101 -0.0491 -0.3213
  115TMC2    H5 1766   2.533   2.960   0.476 -0.4864 -1.0317 -1.9744
  116MPD2     C 1767   1.852   3.304   0.031  0.0361 -0.6932 -0.2656
  116MPD2    C1 1768   1.923   3.187   0.057 -0.1824 -0.7779  0.5024
  116MPD2    C2 1769   2.045   3.186   0.130 -0.2588 -0.3844 -0.1671
  116MPD2    C3 1770   2.100   3.305   0.167 -0.6923 -0.6986 -0.5647
  116MPD2    C4 1771   2.030   3.419   0.149 -0.6388 -0.2669  0.2961
  116MPD2    C5 1772   1.913   3.420   0.072 -0.3537 -0.7704  0.9761
  116MPD2     H 1773   2.108   3.098   0.140 -1.6611 -1.4434 -0.6489
  116MPD2    H1 1774   2.068   3.515   0.182  1.0788 -0.5140 -0.9731
  116MPD2    H2 1775   1.768   3.297  17.653  0.0551  3.2557 -0.6979
  116MPD2    H3 1776   1.869   3.511   0.032 -0.8940 -1.1364  0.7373
  116MPD2     N 1777   2.227   3.330   0.230  0.2426 -0.5542  0.1667
  116MPD2    H5 1778   2.262   3.423   0.246  1.8267 -1.1376  0.0403
  116MPD2    N1 1779   1.860   3.068  17.684  0.0036  0.0033 -0.0609
  116MPD2    H7 1780   1.784   3.090  17.620 -1.5578 -3.7992  0.4826
  117TMC2    C1 1781   1.170   0.348  14.356  0.2144  0.7788 -0.5864
  117TMC2    C2 1782   1.215   0.256  14.449  0.3420  0.2719 -0.3096
  117TMC2    C3 1783   1.343   0.268  14.486  0.4037  0.2225  0.1759
  117TMC2    C4 1784   1.253   0.436  14.304 -0.2555 -0.3026  0.4175
  117TMC2    C5 1785   1.381   0.437  14.340 -0.2858  0.1903 -0.3080
  117TMC2    C6 1786   1.432   0.365  14.438 -0.0481 -0.1854  0.8301
  117TMC2     C 1787   1.041   0.324  14.296  1.2308  0.0371 -0.0081
  117TMC2     O 1788   1.002   0.209  14.298  0.2714  0.0544  0.4815
  117TMC2     H 1789   1.145   0.180  14.479  0.3129  0.7657  0.8647
  117TMC2    H1 1790   1.223   0.503  14.224 -0.8275 -1.6911 -0.5354
  117TMC2    H2 1791   1.531   0.380  14.479  0.0246 -3.0454  1.7276
  117TMC2    C7 1792   1.475   0.516  14.262  0.2762 -0.0935 -0.3174
  117TMC2    C8 1793   1.415   0.155  14.551  0.5194 -0.5482 -0.1336
  117TMC2    O1 1794   1.584   0.543  14.313 -0.2716  0.9083 -0.2404
  117TMC2    O2 1795   1.536   0.141  14.549  0.2119  0.2181  0.0652
  117TMC2    O5 1796   1.344   0.114  14.660  0.1422  0.4586 -0.5848
  117TMC2    H5 1797   1.248   0.111  14.640  0.0164 -2.9740  0.6011
  118MPD2     C 1798   1.453   0.639  13.917 -0.1012 -0.5840  0.3183
  118MPD2    C1 1799   1.514   0.630  14.042 -0.0861 -0.1611  0.0436
  118MPD2    C2 1800   1.626   0.705  14.063 -0.4693 -0.0549  0.0503
  118MPD2    C3 1801   1.693   0.771  13.956  0.1415 -0.4045  0.9398
  118MPD2    C4 1802   1.628   0.775  13.836  0.0466 -0.0442  0.1188
  118MPD2    C5 1803   1.505   0.719  13.819 -0.1146  0.0469  0.1435
  118MPD2     H 1804   1.667   0.708  14.163 -0.3994 -0.4561  0.0361
  118MPD2    H1 1805   1.678   0.832  13.758  0.0397 -0.4020 -0.1447
  118MPD2    H2 1806   1.355   0.596  13.905 -0.4196  0.4340 -0.6899
  118MPD2    H3 1807   1.445   0.717  13.729 -1.4687  3.5088  0.9800
  118MPD2     N 1808   1.807   0.849  13.977 -0.0845 -0.0061  0.5216
  118MPD2    H5 1809   1.835   0.902  13.895  0.5880  1.9823  2.0456
  118MPD2    N1 1810   1.435   0.556  14.136 -0.1791 -0.2466 -0.3695
  118MPD2    H7 1811   1.346   0.516  14.110  0.9956 -0.5247 -3.9564
  119MPD2     C 1812   4.315   1.841  13.622 -0.6526 -0.6396 -1.0012
  119MPD2    C1 1813   4.191   1.846  13.684 -0.1373  0.1204  0.0354
  119MPD2    C2 1814   4.078   1.808  13.616 -0.4041 -0.1174 -0.5150
  119MPD2    C3 1815   4.097   1.736  13.499  0.0537  0.3021  1.1650
  119MPD2    C4 1816   4.220   1.717  13.437 -0.6700 -0.2415 -0.2108
  119MPD2    C5 1817   4.327   1.779  13.496 -0.3138  0.2928 -0.3680
  119MPD2     H 1818   3.978   1.824  13.655  0.2262  3.2807 -0.3026
  119MPD2    H1 1819   4.230   1.674  13.338  2.6932  0.4444 -0.1767
  119MPD2    H2 1820   4.411   1.878  13.655 -0.6303  0.5513 -2.4347
  119MPD2    H3 1821   4.425   1.778  13.450 -0.4853 -0.4096 -0.7171
  119MPD2     N 1822   3.991   1.683  13.427 -0.6177  0.2814  0.9206
  119MPD2    H5 1823   4.010   1.649  13.333 -3.0053 -1.0429  0.9215
  119MPD2    N1 1824   4.171   1.898  13.815  0.0502  0.3255 -0.3951
  119MPD2    H7 1825   4.249   1.951  13.853  2.0855 -2.7272 -0.3224
  120TCq2    C1 1826   3.861   1.694  13.471  0.5788 -0.9334  0.5848
  120TCq2    O2 1827   3.817   1.705  13.584 -0.0158  0.6176 -0.2777
  120TCq2    C2 1828   3.779   1.610  13.385  0.1780 -0.7330  0.3891
  120TCq2    C3 1829   3.807   1.595  13.251 -0.3632 -0.8230  0.8287
  120TCq2    C4 1830   3.739   1.509  13.176 -0.5401  0.1863 -0.3127
  120TCq2    C5 1831   3.640   1.437  13.232 -0.5968  0.5213 -0.7336
  120TCq2    C6 1832   3.612   1.451  13.361  0.1520  0.4322  0.3499
  120TCq2    C7 1833   3.680   1.533  13.448  0.2311 -0.0171  0.9095
  120TCq2    C8 1834   3.499   1.371  13.416  0.2236  0.9508  0.4199
  120TCq2    O4 1835   3.444   1.293  13.341  0.3768  0.2466  0.3573
  120TCq2    C9 1836   3.769   1.480  13.041 -0.2555 -0.6099  0.5014
  120TCq2    O5 1837   3.704   1.387  12.985 -0.1489  0.4647 -0.0757
  120TCq2    O6 1838   3.862   1.548  12.988  0.3254 -0.3514 -0.0979
  120TCq2    H2 1839   3.889   1.650  13.206  0.0463 -2.0659  0.0363
  120TCq2    H3 1840   3.581   1.374  13.165  2.3688 -2.3756 -0.6187
  120TCq2    H4 1841   3.645   1.557  13.548  1.7936 -0.6499  1.5970
  121TMC2    C1 1842   1.304   3.086  14.434 -0.2601 -0.0224  0.2120
  121TMC2    C2 1843   1.274   3.016  14.547 -0.1408  0.0549 -0.3026
  121TMC2    C3 1844   1.204   2.904  14.531 -0.5114  0.0547 -0.4554
  121TMC2    C4 1845   1.283   3.033  14.305  0.5682 -0.0173  0.4903
  121TMC2    C5 1846   1.222   2.913  14.301 -0.0003  0.3675 -0.1167
  121TMC2    C6 1847   1.164   2.850  14.407 -0.1918 -0.3665 -0.4955
  121TMC2     C 1848   1.337   3.230  14.443  0.1128  0.1376  0.5639
  121TMC2     O 1849   1.342   3.281  14.558  0.1256  0.1386  0.5466
  121TMC2     H 1850   1.280   3.061  14.646 -0.1342 -0.4394 -0.0793
  121TMC2    H1 1851   1.326   3.070  14.213  0.7107 -1.8537 -0.1807
  121TMC2    H2 1852   1.117   2.753  14.404  0.5634 -0.7488  0.1621
  121TMC2    C7 1853   1.177   2.877  14.174 -0.0546 -0.3330  0.1139
  121TMC2    C8 1854   1.183   2.821  14.647 -0.3466 -0.3484  0.0949
  121TMC2    O1 1855   1.252   2.903  14.079 -0.0169  0.1899 -0.1578
  121TMC2    O2 1856   1.254   2.817  14.746 -0.1400 -0.9077  0.3115
  121TMC2    O5 1857   1.048   2.810  14.658 -0.3072  0.5912 -0.1621
  121TMC2    H5 1858   1.001   2.858  14.586  0.3554  0.0849 -0.9283
  122MPD2     C 1859   1.436   3.510  14.394 -0.2531  0.6123 -0.4257
  122MPD2    C1 1860   1.409   3.414  14.299 -0.6998 -0.0462 -0.5553
  122MPD2    C2 1861   1.427   3.444  14.164  0.3064 -0.1228 -0.6008
  122MPD2    C3 1862   1.485   3.569  14.125 -0.5054  0.9141 -0.3302
  122MPD2    C4 1863   1.526   3.657  14.226  0.7180  0.0091  0.3658
  122MPD2    C5 1864   1.490   3.628  14.359 -0.4261 -0.1815  0.3490
  122MPD2     H 1865   1.394   3.365  14.099 -0.7467 -0.0424 -0.1649
  122MPD2    H1 1866   1.560   3.756  14.198 -0.0968  0.3038  0.4110
  122MPD2    H2 1867   1.412   3.509  14.500  2.4672  0.5088  0.1694
  122MPD2    H3 1868   1.512   3.699  14.438 -0.9005  0.5717 -0.1986
  122MPD2     N 1869   1.508   3.606  13.989  0.0503 -0.0454  0.1603
  122MPD2    H5 1870   1.543   3.701  13.978  1.9598 -0.5980  1.4696
  122MPD2    N1 1871   1.354   3.287  14.320  0.0786  0.0183  0.1136
  122MPD2    H7 1872   1.328   3.231  14.240  0.6263  0.2704 -0.2404
  123MPD2     C 1873   3.441   1.143   9.054  0.2742  0.8087  0.0797
  123MPD2    C1 1874   3.502   1.084   9.169  0.7352  0.4028 -0.0334
  123MPD2    C2 1875   3.633   1.059   9.161  0.0123  0.2274  0.9688
  123MPD2    C3 1876   3.712   1.104   9.056  0.0095 -0.3356  0.2520
  123MPD2    C4 1877   3.650   1.170   8.948  0.5502  0.1534 -0.2608
  123MPD2    C5 1878   3.516   1.188   8.944  0.1298 -0.4993  0.2264
  123MPD2     H 1879   3.683   1.005   9.241  0.7732 -0.5314 -0.0074
  123MPD2    H1 1880   3.714   1.218   8.874  0.7635 -1.5475 -1.1668
  123MPD2    H2 1881   3.333   1.142   9.053  0.2668  0.8366  1.2118
  123MPD2    H3 1882   3.460   1.220   8.856  0.0565  1.4424  0.9738
  123MPD2     N 1883   3.846   1.086   9.066  0.4269  0.0174 -0.3156
  123MPD2    H5 1884   3.876   1.014   9.131  2.2594 -0.2646 -1.4589
  123MPD2    N1 1885   3.433   1.043   9.285  0.0167 -0.2242  0.7134
  123MPD2    H7 1886   3.498   1.009   9.354  0.0994 -0.8146  0.3430
  124TCq2    C1 1887   3.944   1.155   8.992  0.7566 -0.2154  0.9930
  124TCq2    O2 1888   3.934   1.235   8.897  0.8380 -0.2019  0.1181
  124TCq2    C2 1889   4.076   1.114   9.035 -0.2525  0.3677  0.6223
  124TCq2    C3 1890   4.176   1.127   8.940  0.2731  0.1128 -0.2454
  124TCq2    C4 1891   4.306   1.128   8.981 -0.2285  0.3222 -1.0386
  124TCq2    C5 1892   4.335   1.136   9.114 -0.3268 -0.5070  0.2456
  124TCq2    C6 1893   4.234   1.138   9.201 -1.2509 -0.9379 -0.2892
  124TCq2    C7 1894   4.106   1.128   9.168  0.7705  0.2277  0.6289
  124TCq2    C8 1895   4.263   1.186   9.332  0.9920  0.4253  0.5571
  124TCq2    O4 1896   4.211   1.137   9.429  0.1539 -0.3693  0.1077
  124TCq2    C9 1897   4.414   1.130   8.887  0.2877  0.3569 -0.2974
  124TCq2    O5 1898   4.385   1.096   8.769  0.9024 -0.1813 -0.5039
  124TCq2    O6 1899   4.532   1.161   8.924 -0.5017 -0.0185 -0.1438
  124TCq2    H2 1900   4.149   1.123   8.835 -0.5557  0.8049 -0.0611
  124TCq2    H3 1901   4.439   1.131   9.146 -0.7461  4.1305  2.2885
  124TCq2    H4 1902   4.044   1.138   9.256  1.9425 -0.7939  1.5683
  125TMC2    C1 1903   0.383   2.652   9.479 -1.0208  0.1474 -0.5088
  125TMC2    C2 1904   0.385   2.660   9.341 -0.2504 -0.5666  1.4038
  125TMC2    C3 1905   0.501   2.652   9.268 -0.2909 -0.4749 -0.4703
  125TMC2    C4 1906   0.499   2.639   9.545 -0.3531 -0.6146 -0.2602
  125TMC2    C5 1907   0.618   2.633   9.473  0.2770  0.1049 -0.1346
  125TMC2    C6 1908   0.615   2.631   9.339 -0.0888 -0.2881 -0.0001
  125TMC2     C 1909   0.261   2.631   9.551 -0.0549 -0.0480  0.1491
  125TMC2     O 1910   0.257   2.668   9.666 -0.3420  0.1696  0.8818
  125TMC2     H 1911   0.295   2.665   9.281  0.4508  1.7225  0.5581
  125TMC2    H1 1912   0.499   2.642   9.653 -0.5317  1.9911 -0.3386
  125TMC2    H2 1913   0.703   2.594   9.286 -0.1211  0.7422 -0.7741
  125TMC2    C7 1914   0.743   2.623   9.545 -0.0643  0.5735  0.3330
  125TMC2    C8 1915   0.503   2.645   9.128  1.0061  0.3248  0.0302
  125TMC2    O1 1916   0.739   2.578   9.656 -0.0664  0.3048  0.0681
  125TMC2    O2 1917   0.414   2.603   9.055  0.8182 -0.2997  0.2602
  125TMC2    O5 1918   0.573   2.757   9.104  0.3566  0.3732 -0.1669
  125TMC2    H5 1919   0.610   2.795   9.187  1.6263  1.8049 -1.4114
  126MPD1     C 1920   4.489   2.486   9.566 -0.0650  0.3698 -0.2410
  126MPD1    C1 1921   4.537   2.457   9.440 -0.0371  0.4591  0.4955
  126MPD1    C2 1922   4.667   2.488   9.410  0.4001 -0.4274  0.5228
  126MPD1    C3 1923   0.028   2.544   9.508  0.0315 -0.5267 -0.6093
  126MPD1    C4 1924   4.697   2.571   9.634  0.1748 -0.6537 -0.4839
  126MPD1    C5 1925   4.565   2.541   9.659 -0.3878 -0.1909  0.0034
  126MPD1     H 1926   4.697   2.473   9.307  0.8335 -1.0491  0.7393
  126MPD1    H1 1927   0.034   2.636   9.698  2.4748 -3.1396 -0.0550
  126MPD1    H2 1928   4.384   2.479   9.591 -0.2643  3.1599 -0.3338
  126MPD1    H3 1929   4.516   2.568   9.752 -2.3007  0.2298 -1.1360
  126MPD1     N 1930   0.160   2.579   9.469 -0.0524 -0.2548 -0.4717
  126MPD1    H5 1931   0.193   2.556   9.377  1.0319  3.1563 -0.9488
  126MPD1    N1 1932   4.452   2.407   9.342  0.9885  0.4241 -0.4733
  126MPD1    H6 1933   4.371   2.357   9.378  0.6687  1.4643  0.2659
  126MPD1    H7 1934   4.502   2.373   9.261 -0.8989  1.4502 -2.0847
  127MPD2     C 1935   1.071   1.315   9.418 -0.5175 -0.2489 -0.4522
  127MPD2    C1 1936   1.106   1.309   9.551  0.1493  0.4716  0.1367
  127MPD2    C2 1937   1.204   1.391   9.593  0.8426 -0.4929  0.0363
  127MPD2    C3 1938   1.263   1.480   9.504  0.2872  0.3766  0.3383
  127MPD2    C4 1939   1.226   1.494   9.374  0.2917 -0.2806  0.2929
  127MPD2    C5 1940   1.124   1.411   9.332 -0.4567 -0.1590  0.2917
  127MPD2     H 1941   1.249   1.381   9.692 -0.2123  1.5067  0.6987
  127MPD2    H1 1942   1.254   1.571   9.304 -0.2488  1.4044  1.9461
  127MPD2    H2 1943   0.994   1.249   9.381 -0.4814 -0.0027 -0.9659
  127MPD2    H3 1944   1.104   1.407   9.225 -2.6745  0.1332  0.6974
  127MPD2     N 1945   1.370   1.554   9.548  0.1144  0.3138  0.8616
  127MPD2    H5 1946   1.393   1.563   9.646  1.4857  1.1831  0.4517
  127MPD2    N1 1947   1.046   1.212   9.631 -1.1019  0.1636 -0.4294
  127MPD2    H7 1948   0.974   1.155   9.589 -1.4658  0.3095 -0.0069
  128TCq2    C1 1949   1.080   1.177   9.763 -0.0413  0.2603  0.2555
  128TCq2    O2 1950   1.135   1.251   9.840 -0.1967  0.0358  0.2189
  128TCq2    C2 1951   1.018   1.052   9.817  0.2235  0.4834  0.1152
  128TCq2    C3 1952   1.035   1.036   9.948  0.3327 -0.6103  0.3744
  128TCq2    C4 1953   0.984   0.927  10.005 -0.1911 -0.0624 -0.5228
  128TCq2    C5 1954   0.926   0.829   9.936  0.1606 -0.9999 -0.0988
  128TCq2    C6 1955   0.923   0.843   9.803 -0.6314 -0.6686 -0.3194
  128TCq2    C7 1956   0.970   0.956   9.731  0.1150 -0.5660  0.0766
  128TCq2    C8 1957   0.871   0.738   9.718 -0.7467 -0.5690 -0.0848
  128TCq2    O4 1958   0.829   0.777   9.611  0.4501  0.5403 -0.1876
  128TCq2    C9 1959   0.985   0.924  10.149 -0.0108  0.7714  0.7295
  128TCq2    O5 1960   0.910   0.836  10.203 -0.1860 -0.6192  0.2582
  128TCq2    O6 1961   1.026   1.023  10.213 -0.8476  0.1428 -0.1252
  128TCq2    H2 1962   1.077   1.108  10.016 -0.3300  1.0228 -0.9397
  128TCq2    H3 1963   0.885   0.742   9.986 -1.3785 -0.2229 -0.0232
  128TCq2    H4 1964   0.972   0.968   9.624  2.4089 -1.9962 -0.0588
  129MPD2     C 1965   4.261   3.179   1.221  0.8385  0.0936 -0.7855
  129MPD2    C1 1966   4.367   3.149   1.298 -0.1092  0.2830 -0.5866
  129MPD2    C2 1967   4.462   3.251   1.326  0.9338 -0.6528 -0.3297
  129MPD2    C3 1968   4.452   3.377   1.270  0.7284 -0.1331 -0.3269
  129MPD2    C4 1969   4.334   3.406   1.198 -0.2381  0.6170 -0.7157
  129MPD2    C5 1970   4.242   3.306   1.174 -0.0226  0.0960  0.3888
  129MPD2     H 1971   4.551   3.220   1.379  1.4854  0.4451 -0.6133
  129MPD2    H1 1972   4.321   3.497   1.141 -0.2392  0.8873 -0.2754
  129MPD2    H2 1973   4.181   3.110   1.195 -0.5019  0.8408  1.3565
  129MPD2    H3 1974   4.154   3.326   1.113  0.4459 -1.6087 -0.8538
  129MPD2     N 1975   4.560   3.461   1.292  0.3825 -0.2476  0.4166
  129MPD2    H5 1976   4.638   3.415   1.338 -0.4537 -0.9415  1.1405
  129MPD2    N1 1977   4.382   3.022   1.363  0.2112 -0.4226 -0.3598
  129MPD2    H7 1978   4.472   3.014   1.409  0.2351 -2.9993 -0.8308
  130TCq2    C1 1979   4.286   2.927   1.392 -0.1634  0.5656 -0.2477
  130TCq2    O2 1980   4.162   2.939   1.367 -0.3815 -0.4283 -0.1560
  130TCq2    C2 1981   4.346   2.819   1.468 -0.3874 -0.1722  0.2127
  130TCq2    C3 1982   4.480   2.801   1.458 -0.5904  0.1003 -0.1466
  130TCq2    C4 1983   4.542   2.701   1.532  0.2968  0.1705  0.3014
  130TCq2    C5 1984   4.460   2.620   1.604  0.2890 -0.0167 -0.0792
  130TCq2    C6 1985   4.324   2.641   1.610 -0.1774 -0.4029  0.2871
  130TCq2    C7 1986   4.261   2.745   1.550 -0.4559  0.3302 -0.6297
  130TCq2    C8 1987   4.235   2.535   1.659  0.2848  0.1324 -0.0056
  130TCq2    O4 1988   4.122   2.529   1.614  0.1375  0.4034  0.0131
  130TCq2    C9 1989   4.682   2.664   1.519  0.4537  0.2227  0.5845
  130TCq2    O5 1990   4.720   2.573   1.594  0.0372 -0.5410 -0.1356
  130TCq2    O6 1991   0.032   2.730   1.443 -0.0921 -0.6020  0.5704
  130TCq2    H2 1992   4.537   2.836   1.373  0.9491 -0.4663  0.6497
  130TCq2    H3 1993   4.504   2.529   1.642  0.0163 -1.2500 -2.7018
  130TCq2    H4 1994   4.152   2.750   1.548 -0.4374  0.8938 -0.3347
  131MPD2     C 1995   3.788   0.978  10.032  0.0215  0.1494  0.1266
  131MPD2    C1 1996   3.768   1.074   9.940 -0.5232 -0.7061 -0.0310
  131MPD2    C2 1997   3.657   1.066   9.859 -0.3811  0.4350 -0.0676
  131MPD2    C3 1998   3.574   0.959   9.855  0.2334 -0.1916  0.5896
  131MPD2    C4 1999   3.615   0.852   9.931  0.2373  0.7195  0.5670
  131MPD2    C5 2000   3.712   0.862  10.030 -0.2813 -0.8356 -0.7161
  131MPD2     H 2001   3.639   1.151   9.794 -1.0694  0.6542  0.4029
  131MPD2    H1 2002   3.558   0.760   9.934  1.4049 -0.0154  0.5225
  131MPD2    H2 2003   3.863   0.980  10.110  2.1143  1.9384 -1.9126
  131MPD2    H3 2004   3.714   0.775  10.094 -0.6285 -0.2247  0.1303
  131MPD2     N 2005   3.470   0.960   9.760 -0.3513 -0.0818  0.2459
  131MPD2    H5 2006   3.470   1.033   9.690 -0.5078  0.3491  0.6963
  131MPD2    N1 2007   3.863   1.185   9.925  0.1655 -0.4543  0.1675
  131MPD2    H7 2008   3.932   1.200   9.998 -0.2042  0.6144  0.3054
  132TCq2    C1 2009   4.117   1.661   9.660  0.1080 -0.5727  0.6481
  132TCq2    O2 2010   4.063   1.661   9.547  0.5156  0.5785  0.5154
  132TCq2    C2 2011   4.046   1.589   9.762 -0.3842 -0.0303 -0.0961
  132TCq2    C3 2012   4.044   1.645   9.885  0.2092  0.3720 -0.3289
  132TCq2    C4 2013   4.012   1.562   9.991 -0.4122 -0.4150  0.8508
  132TCq2    C5 2014   3.954   1.436   9.979 -0.5056  0.5167  0.4323
  132TCq2    C6 2015   3.956   1.391   9.850  0.2508  0.6392 -0.3789
  132TCq2    C7 2016   3.999   1.465   9.742  0.6555 -0.2334  0.0767
  132TCq2    C8 2017   3.857   1.288   9.831  0.4988  0.3265  0.1594
  132TCq2    O4 2018   3.803   1.297   9.720 -0.2560 -0.0162  0.3937
  132TCq2    C9 2019   4.025   1.630  10.124 -0.6674  0.0040 -0.0309
  132TCq2    O5 2020   3.979   1.563  10.224  1.0243  0.8444 -0.3520
  132TCq2    O6 2021   4.115   1.715  10.133  0.0554 -0.1548  0.2858
  132TCq2    H2 2022   4.076   1.746   9.910 -0.2413  1.1899 -3.0804
  132TCq2    H3 2023   3.927   1.369  10.060  2.8170  0.7914  1.7531
  132TCq2    H4 2024   3.988   1.431   9.640  1.3138  0.7768 -0.3312
  133MPD2     C 2025   3.053   2.628   9.372 -0.6782 -0.8136  0.1620
  133MPD2    C1 2026   3.165   2.559   9.378 -0.1959 -0.2274 -0.3854
  133MPD2    C2 2027   3.169   2.432   9.327 -0.6516 -0.3429  0.0828
  133MPD2    C3 2028   3.061   2.382   9.253 -0.0827  0.8028  0.4277
  133MPD2    C4 2029   2.956   2.467   9.223  0.3692 -0.7037  0.6515
  133MPD2    C5 2030   2.949   2.586   9.294  0.2021  0.0566  0.0763
  133MPD2     H 2031   3.252   2.369   9.356 -1.6391 -1.4641  0.4683
  133MPD2    H1 2032   2.864   2.441   9.173 -0.0045  1.7594  0.0186
  133MPD2    H2 2033   3.038   2.718   9.430 -3.1609 -0.0236 -1.6897
  133MPD2    H3 2034   2.863   2.652   9.286 -0.4719 -1.2623 -4.0320
  133MPD2     N 2035   3.054   2.253   9.206  0.3538  0.3759 -0.1023
  133MPD2    H5 2036   2.972   2.226   9.153 -0.8374  1.0458  1.4254
  133MPD2    N1 2037   3.279   2.598   9.452 -0.1943  0.7799  0.4742
  133MPD2    H7 2038   3.353   2.528   9.450  0.4301  1.4915 -1.0378
  134TCq2    C1 2039   3.307   2.724   9.492 -0.3582 -0.3185  0.9710
  134TCq2    O2 2040   3.247   2.829   9.485  0.4298 -0.1122  0.8121
  134TCq2    C2 2041   3.432   2.725   9.566  0.5701  0.5895  0.1313
  134TCq2    C3 2042   3.476   2.620   9.645 -0.3519 -0.0951  0.6907
  134TCq2    C4 2043   3.584   2.642   9.727  0.1763 -0.5332  0.0756
  134TCq2    C5 2044   3.639   2.768   9.744 -0.1216  0.1471 -0.6672
  134TCq2    C6 2045   3.600   2.867   9.660 -1.0909 -0.0707  0.4807
  134TCq2    C7 2046   3.491   2.847   9.575 -0.2365 -0.3032 -0.3894
  134TCq2    C8 2047   3.642   3.000   9.693  0.1980 -0.4901 -0.3025
  134TCq2    O4 2048   3.719   3.006   9.787  0.3080  0.4707  0.1856
  134TCq2    C9 2049   3.610   2.538   9.819  1.0727  0.0414  0.4702
  134TCq2    O5 2050   3.513   2.510   9.893 -0.3717  0.4531  0.6622
  134TCq2    O6 2051   3.721   2.484   9.819 -0.2908  0.2189 -0.2570
  134TCq2    H2 2052   3.422   2.526   9.647 -4.2352  2.1064  1.0357
  134TCq2    H3 2053   3.719   2.778   9.817 -0.0953  0.1573 -0.6969
  134TCq2    H4 2054   3.460   2.929   9.511 -0.2772  1.3738  1.7920
  135MPD2     C 2055   1.506   3.093   9.110 -0.0436  0.7807  1.1379
  135MPD2    C1 2056   1.499   3.032   9.237  0.8061 -0.8770 -0.0044
  135MPD2    C2 2057   1.621   2.993   9.297 -0.6149  0.1895 -0.4608
  135MPD2    C3 2058   1.738   2.988   9.217 -0.1478 -0.1560  0.4845
  135MPD2    C4 2059   1.739   3.047   9.092  0.1249 -0.1371 -1.0610
  135MPD2    C5 2060   1.629   3.111   9.043  0.8379  0.0098  0.0623
  135MPD2     H 2061   1.620   2.947   9.395 -1.5008  1.5498  0.1689
  135MPD2    H1 2062   1.830   3.048   9.033 -0.4494 -0.0660 -1.9457
  135MPD2    H2 2063   1.416   3.134   9.066 -1.1606 -1.3891  1.4100
  135MPD2    H3 2064   1.619   3.152   8.944  1.5964 -4.1020 -1.7041
  135MPD2     N 2065   1.859   2.927   9.249  0.2437  0.0815  0.2994
  135MPD2    H5 2066   1.938   2.934   9.185  0.4804  1.4397  0.7192
  135MPD2    N1 2067   1.385   3.022   9.313  0.0629 -0.4830  0.3259
  135MPD2    H7 2068   1.397   2.978   9.404  0.3450  0.1625  0.5984
  136TCq2    C1 2069   1.259   3.031   9.266 -0.1969  0.6993  0.1328
  136TCq2    O2 2070   1.224   3.065   9.152 -0.1243  0.0826  0.0858
  136TCq2    C2 2071   1.159   2.999   9.372  0.2845 -0.3489 -0.2661
  136TCq2    C3 2072   1.044   2.950   9.317 -0.3011  0.1633 -0.4767
  136TCq2    C4 2073   0.926   2.982   9.374  0.1551  0.8887 -0.4125
  136TCq2    C5 2074   0.925   3.056   9.487  0.1979  0.0657  0.0583
  136TCq2    C6 2075   1.039   3.103   9.540  0.0568 -0.6594  0.2516
  136TCq2    C7 2076   1.159   3.095   9.474  0.7079  0.4445 -0.1966
  136TCq2    C8 2077   1.029   3.190   9.657 -0.1862  0.3394 -0.7217
  136TCq2    O4 2078   1.118   3.273   9.666  0.2893  0.4133 -0.2293
  136TCq2    C9 2079   0.797   2.946   9.316 -0.4293 -0.0465 -0.4238
  136TCq2    O5 2080   0.802   2.847   9.242 -0.4198 -0.1046 -0.8092
  136TCq2    O6 2081   0.693   3.003   9.358  0.2092 -0.3338  0.0460
  136TCq2    H2 2082   1.034   2.906   9.218  3.8354 -2.2949  0.2034
  136TCq2    H3 2083   0.828   3.086   9.525  0.6009 -0.5390  1.5956
  136TCq2    H4 2084   1.249   3.153   9.494  1.8811 -1.1819 -0.7530
  137MPD2     C 2085   1.496   2.299   9.763  0.1619  0.2204  0.1323
  137MPD2    C1 2086   1.365   2.267   9.762  0.1353 -0.1864  0.2493
  137MPD2    C2 2087   1.292   2.255   9.880 -0.2598  0.2873  0.2312
  137MPD2    C3 2088   1.356   2.252  10.003  0.8330  0.1894  0.5833
  137MPD2    C4 2089   1.490   2.290   9.998  0.2334  0.2098  0.4463
  137MPD2    C5 2090   1.556   2.315   9.883  0.3202  0.6378  0.3661
  137MPD2     H 2091   1.188   2.225   9.876  0.0599 -0.6137 -1.6393
  137MPD2    H1 2092   1.548   2.309  10.088 -1.5066  1.9858  1.1837
  137MPD2    H2 2093   1.567   2.286   9.682  0.7192 -2.4745  1.0420
  137MPD2    H3 2094   1.664   2.322   9.878  0.2626  0.2570 -1.3294
  137MPD2     N 2095   1.274   2.245  10.115 -0.3705  0.3341  0.0840
  137MPD2    H5 2096   1.174   2.229  10.108  0.0822 -1.6312 -1.5626
  137MPD2    N1 2097   1.309   2.242   9.635 -0.0239 -0.4000 -0.2776
  137MPD2    H7 2098   1.368   2.249   9.552  0.1669  0.9340 -0.0290
  138TCq2    C1 2099   1.174   2.221   9.605 -0.2828  0.0380  0.8279
  138TCq2    O2 2100   1.079   2.206   9.684 -0.5229  0.2984  0.0013
  138TCq2    C2 2101   1.140   2.227   9.464  0.5948 -0.1992 -0.2678
  138TCq2    C3 2102   1.243   2.246   9.376  0.6868 -0.2870 -0.0867
  138TCq2    C4 2103   1.215   2.272   9.247 -0.2587 -1.0011 -0.3454
  138TCq2    C5 2104   1.086   2.289   9.213  0.4061  0.3872 -0.0343
  138TCq2    C6 2105   0.985   2.274   9.304  0.1223 -0.1579 -0.5202
  138TCq2    C7 2106   1.012   2.216   9.426  0.0876 -0.6219 -0.1661
  138TCq2    C8 2107   0.854   2.276   9.251 -0.2487  0.2851 -0.0786
  138TCq2    O4 2108   0.836   2.307   9.135  0.1693 -0.3520 -0.1194
  138TCq2    C9 2109   1.316   2.313   9.158 -0.4649 -0.4468 -0.3718
  138TCq2    O5 2110   1.288   2.354   9.046 -0.3641  0.1301  0.2711
  138TCq2    O6 2111   1.437   2.291   9.197 -0.0912  0.3614  0.9492
  138TCq2    H2 2112   1.348   2.240   9.405  1.0338 -0.6303 -1.3911
  138TCq2    H3 2113   1.056   2.331   9.117  2.1478 -2.5203 -1.8230
  138TCq2    H4 2114   0.939   2.187   9.500  0.7833  1.8170  1.4886
  139TMC2    C1 2115   1.310   1.394  13.325  0.3881  0.2429  0.3058
  139TMC2    C2 2116   1.301   1.436  13.190 -0.8532  0.3130 -0.0171
  139TMC2    C3 2117   1.204   1.528  13.157  0.0789  0.5333  0.2417
  139TMC2    C4 2118   1.232   1.447  13.421  0.1668  0.2226  0.4071
  139TMC2    C5 2119   1.131   1.536  13.379  0.5937 -0.2024  0.5656
  139TMC2    C6 2120   1.111   1.575  13.249 -0.0423 -0.1719 -0.1031
  139TMC2     C 2121   1.319   1.245  13.327  0.3607 -0.2778  0.3355
  139TMC2     O 2122   1.298   1.182  13.224  0.2074 -0.3232  0.0593
  139TMC2     H 2123   1.360   1.379  13.119 -1.7005  0.8996 -1.1840
  139TMC2    H1 2124   1.248   1.428  13.526  1.0588 -4.3976 -0.5816
  139TMC2    H2 2125   1.042   1.651  13.214 -1.8075 -2.3507 -1.4256
  139TMC2    C7 2126   1.060   1.609  13.484 -0.2759 -0.7933 -0.4892
  139TMC2    C8 2127   1.168   1.534  13.014 -0.2855 -0.4256  0.3828
  139TMC2    O1 2128   1.131   1.617  13.584 -0.2932 -0.2451  0.1977
  139TMC2    O2 2129   1.049   1.555  12.986 -0.2246 -0.0569  0.4394
  139TMC2    O5 2130   1.263   1.511  12.926 -0.3471  0.2972 -0.1962
  139TMC2    H5 2131   1.349   1.493  12.968  0.0133  0.0688 -1.0417
  140MPD2     C 2132   1.287   1.038  13.639 -0.2414  1.2923 -0.3792
  140MPD2    C1 2133   1.289   1.064  13.503 -0.0190  0.1482  0.6275
  140MPD2    C2 2134   1.242   0.957  13.419  0.7555 -0.3518 -0.2459
  140MPD2    C3 2135   1.209   0.837  13.482  0.5546  0.6365 -0.3577
  140MPD2    C4 2136   1.196   0.815  13.618  0.1304  0.2790  0.0320
  140MPD2    C5 2137   1.234   0.924  13.696  0.1858 -0.9454 -0.2403
  140MPD2     H 2138   1.228   0.972  13.313 -2.8320 -1.6602  0.0527
  140MPD2    H1 2139   1.173   0.724  13.671  1.1724  0.9163  1.5623
  140MPD2    H2 2140   1.316   1.115  13.709  1.4837 -0.5493  0.9381
  140MPD2    H3 2141   1.245   0.911  13.803  1.1776  3.8238  0.2386
  140MPD2     N 2142   1.174   0.728  13.396 -0.0908  0.3217  0.2669
  140MPD2    H5 2143   1.197   0.733  13.297  0.4259  3.0216  0.5157
  140MPD2    N1 2144   1.320   1.192  13.456  0.3827 -0.5796  0.0239
  140MPD2    H7 2145   1.335   1.264  13.526  0.5588  1.9284 -2.5750
  141TCq2    C1 2146   1.266   2.366  14.263  0.0913  0.3199 -0.3605
  141TCq2    O2 2147   1.270   2.351  14.142 -0.1328  0.0889 -0.4884
  141TCq2    C2 2148   1.392   2.345  14.337 -0.3195  0.2126 -0.5839
  141TCq2    C3 2149   1.387   2.256  14.440  0.2444  0.6111 -0.3500
  141TCq2    C4 2150   1.493   2.250  14.528 -0.0804 -0.2311  0.3670
  141TCq2    C5 2151   1.582   2.347  14.538 -0.0628  0.0475  0.2068
  141TCq2    C6 2152   1.577   2.453  14.442  0.1135 -0.1903 -0.3298
  141TCq2    C7 2153   1.473   2.457  14.345  0.4441 -0.0718 -0.2507
  141TCq2    C8 2154   1.618   2.581  14.508 -0.0223 -0.1011  0.1183
  141TCq2    O4 2155   1.655   2.575  14.620  0.8506 -0.1755 -0.2661
  141TCq2    C9 2156   1.499   2.143  14.625 -0.2465  0.7573 -0.1131
  141TCq2    O5 2157   1.396   2.072  14.627 -0.1588  0.0439 -0.3251
  141TCq2    O6 2158   1.599   2.121  14.693 -0.1380 -0.0376  0.3722
  141TCq2    H2 2159   1.315   2.175  14.441  0.5462  0.3740  1.5542
  141TCq2    H3 2160   1.656   2.354  14.617 -0.6948  1.5047  0.6763
  141TCq2    H4 2161   1.455   2.535  14.271  1.8356  0.3197 -0.1738
  142MPD2     C 2162   3.950   0.996  10.731 -0.1359 -0.6609 -0.5445
  142MPD2    C1 2163   3.923   0.947  10.605 -0.4367 -0.1157  0.3046
  142MPD2    C2 2164   3.975   1.005  10.494  0.4667  0.4972 -0.5929
  142MPD2    C3 2165   4.050   1.124  10.509  0.1593 -0.0733 -0.7331
  142MPD2    C4 2166   4.083   1.163  10.635  0.3997  0.4226 -0.0229
  142MPD2    C5 2167   4.032   1.104  10.746  0.2675 -0.5226 -0.4514
  142MPD2     H 2168   3.972   0.966  10.394  2.2701 -0.0119 -0.4390
  142MPD2    H1 2169   4.144   1.251  10.651 -0.8155  1.3018 -0.2810
  142MPD2    H2 2170   3.912   0.948  10.820 -1.1377  3.6752  1.3955
  142MPD2    H3 2171   4.060   1.139  10.845  1.9995 -1.3795 -0.6447
  142MPD2     N 2172   4.122   1.190  10.407  0.0650  0.8156  0.2223
  142MPD2    H5 2173   4.182   1.263  10.444  1.9727 -0.3552 -0.5252
  142MPD2    N1 2174   3.839   0.831  10.593 -0.0064 -0.2125 -0.1529
  142MPD2    H7 2175   3.815   0.786  10.681 -1.5305 -1.3337 -1.1519
  143TCq2    C1 2176   4.131   1.147  10.277  0.2738  0.1720  0.1753
  143TCq2    O2 2177   4.085   1.054  10.215 -0.2025 -0.1767 -0.4389
  143TCq2    C2 2178   4.215   1.245  10.213  0.4112 -0.1203 -0.8477
  143TCq2    C3 2179   4.259   1.361  10.271  0.5391 -0.4577 -0.0151
  143TCq2    C4 2180   4.321   1.453  10.191 -0.7152 -0.0655  0.3341
  143TCq2    C5 2181   4.339   1.436  10.053  0.2777  0.1125  0.2347
  143TCq2    C6 2182   4.295   1.313  10.004 -0.2337 -0.0018  0.3062
  143TCq2    C7 2183   4.230   1.217  10.081 -0.6242  0.4063 -0.0242
  143TCq2    C8 2184   4.327   1.280   9.867  0.0536  0.2207 -0.3283
  143TCq2    O4 2185   4.291   1.173   9.815  0.4664  0.2935 -0.1077
  143TCq2    C9 2186   4.385   1.567  10.267  0.5302 -0.0992 -0.4904
  143TCq2    O5 2187   4.474   1.636  10.211  0.3854  0.0885 -0.3299
  143TCq2    O6 2188   4.322   1.597  10.375 -0.0546  0.2210 -0.0779
  143TCq2    H2 2189   4.260   1.384  10.377 -0.5703 -0.6158  0.0341
  143TCq2    H3 2190   4.391   1.519  10.007  0.5462 -0.7096 -0.9427
  143TCq2    H4 2191   4.200   1.123  10.036 -0.0503  0.7321 -1.1121
  144MPD2     C 2192   1.442   0.451   0.914  0.6317  0.0338 -0.1190
  144MPD2    C1 2193   1.433   0.313   0.918 -0.0487 -0.4036 -0.3499
  144MPD2    C2 2194   1.532   0.241   0.982  0.5650 -0.3500  0.1472
  144MPD2    C3 2195   1.649   0.299   1.030 -0.2441 -0.2924  0.7102
  144MPD2    C4 2196   1.658   0.429   1.027 -0.5603  0.6440  0.1886
  144MPD2    C5 2197   1.554   0.509   0.982 -0.0402 -0.0230  0.0673
  144MPD2     H 2198   1.520   0.136   1.003  0.3140 -0.3521 -0.0041
  144MPD2    H1 2199   1.744   0.476   1.073  0.0246 -0.8604  0.6330
  144MPD2    H2 2200   1.372   0.518   0.866  0.1414 -1.5055 -1.5350
  144MPD2    H3 2201   1.563   0.617   0.983 -4.4476  0.2684  4.4112
  144MPD2     N 2202   1.762   0.230   1.081 -0.5163  0.1685  0.6283
  144MPD2    H5 2203   1.841   0.291   1.098  0.8295 -1.6331  0.9438
  144MPD2    N1 2204   1.323   0.236   0.870  0.3596  0.4684 -0.1287
  144MPD2    H7 2205   1.327   0.139   0.900 -0.4714  0.1424 -1.1151
  145TCq2    C1 2206   1.782   0.096   1.063  0.3514  0.2513  0.0902
  145TCq2    O2 2207   1.708   0.011   1.016 -0.1554  0.2509 -0.3096
  145TCq2    C2 2208   1.913   0.045   1.115 -0.4574  0.1227  0.6947
  145TCq2    C3 2209   1.949   4.644   1.081 -0.2827  0.5886 -0.8052
  145TCq2    C4 2210   2.054   4.581   1.147 -0.1883 -0.7793  0.1862
  145TCq2    C5 2211   2.116   4.646   1.253 -0.3017  0.2222  0.1302
  145TCq2    C6 2212   2.063   0.041   1.297  0.6129  0.0263 -0.3265
  145TCq2    C7 2213   1.960   0.107   1.229 -0.2315  0.0679  0.4530
  145TCq2    C8 2214   2.114   0.080   1.436 -0.0396  0.6371  0.0982
  145TCq2    O4 2215   2.193   0.008   1.487 -0.4120  0.6162  0.3125
  145TCq2    C9 2216   2.087   4.447   1.110 -0.0732  0.4529  0.2870
  145TCq2    O5 2217   2.002   4.385   1.034  0.1663 -0.5797  0.4781
  145TCq2    O6 2218   2.200   4.400   1.147  0.5088  0.0193  0.0909
  145TCq2    H2 2219   1.909   4.588   0.996  0.0556  0.6992 -1.0389
  145TCq2    H3 2220   2.166   4.579   1.322  0.3551  1.5865  0.9708
  145TCq2    H4 2221   1.926   0.204   1.264 -0.6259  0.3588 -0.7464
  146TMC2    C1 2222   3.489   3.477  12.764 -0.5450 -0.2457 -0.5789
  146TMC2    C2 2223   3.490   3.532  12.641  0.1005  0.0610 -0.5181
  146TMC2    C3 2224   3.467   3.451  12.535 -0.5687  0.4704 -0.4730
  146TMC2    C4 2225   3.412   3.365  12.787  0.4075 -0.2491 -0.5943
  146TMC2    C5 2226   3.374   3.291  12.679  0.1434 -0.1653  0.1761
  146TMC2    C6 2227   3.408   3.331  12.549 -0.5368 -0.3865  0.3390
  146TMC2     C 2228   3.511   3.571  12.873  0.1711  0.4313  0.7603
  146TMC2     O 2229   3.548   3.685  12.846 -0.2644 -0.0274  0.5244
  146TMC2     H 2230   3.528   3.633  12.632  1.1363 -0.2369  0.4935
  146TMC2    H1 2231   3.379   3.343  12.888  0.9554  2.9564  0.2945
  146TMC2    H2 2232   3.374   3.267  12.469  2.0430 -0.8802 -0.3498
  146TMC2    C7 2233   3.302   3.169  12.698 -0.5932 -0.0033 -0.0390
  146TMC2    C8 2234   3.430   3.521  12.411 -0.1835 -0.0979  1.3505
  146TMC2    O1 2235   3.219   3.143  12.612 -0.8193  0.2287  0.0581
  146TMC2    O2 2236   3.425   3.646  12.416 -0.1128  0.6848 -0.5649
  146TMC2    O5 2237   3.470   3.439  12.300 -0.0758  0.3120  0.5091
  146TMC2    H5 2238   3.486   3.344  12.316 -0.9699 -0.6901 -4.4733
  147MPD2     C 2239   3.210   2.757  12.983  0.5409 -0.7320 -0.8755
  147MPD2    C1 2240   3.286   2.842  13.060 -0.5821 -0.1603  0.9282
  147MPD2    C2 2241   3.317   2.963  13.004  0.1392 -0.1732  1.0407
  147MPD2    C3 2242   3.276   2.998  12.883  0.3561  0.0589 -0.1004
  147MPD2    C4 2243   3.197   2.920  12.805 -0.3353  0.0569  0.2641
  147MPD2    C5 2244   3.166   2.798  12.855 -1.1635 -0.5786 -0.0250
  147MPD2     H 2245   3.380   3.028  13.064  2.5009 -2.3283  0.8808
  147MPD2    H1 2246   3.163   2.949  12.706  0.5065 -0.0550 -0.0598
  147MPD2    H2 2247   3.172   2.659  13.010  0.9093 -0.3053  1.1750
  147MPD2    H3 2248   3.114   2.727  12.791  0.4915 -2.7102  0.9882
  147MPD2     N 2249   3.330   3.118  12.822  0.1620 -0.0701 -0.6507
  147MPD2    H5 2250   3.407   3.166  12.869 -0.8476  1.5025 -0.5889
  147MPD2    N1 2251   3.341   2.788  13.177 -0.2459  0.3892 -0.4433
  147MPD2    H7 2252   3.310   2.693  13.197  0.7274  0.1747  0.0298
  148MPD2     C 2253   3.273   2.320  10.277  0.0111 -0.5163 -0.4094
  148MPD2    C1 2254   3.316   2.220  10.358  0.6631 -0.4589 -0.3055
  148MPD2    C2 2255   3.302   2.085  10.310  0.9184 -0.0979  1.1642
  148MPD2    C3 2256   3.247   2.059  10.186  0.8395  0.9336  0.3405
  148MPD2    C4 2257   3.199   2.161  10.110  0.2828  0.7400 -0.1701
  148MPD2    C5 2258   3.203   2.292  10.167 -0.4741 -0.3946  0.0657
  148MPD2     H 2259   3.321   2.010  10.385 -0.2182 -2.4805 -0.9410
  148MPD2    H1 2260   3.161   2.144  10.009 -0.3087 -0.9210  0.3343
  148MPD2    H2 2261   3.269   2.424  10.309  1.1549 -0.3814 -0.7191
  148MPD2    H3 2262   3.161   2.375  10.112  2.2650  2.0131  1.6023
  148MPD2     N 2263   3.225   1.930  10.136 -0.3238 -0.3660  0.0358
  148MPD2    H5 2264   3.171   1.932  10.050  0.6982 -0.4025 -0.5974
  148MPD2    N1 2265   3.368   2.252  10.486  0.0390 -0.0696  0.2343
  148MPD2    H7 2266   3.422   2.177  10.527  0.2200  0.0087  0.1429
  149TCq2    C1 2267   3.368   2.371  10.554 -0.1894 -0.5053  0.4138
  149TCq2    O2 2268   3.328   2.481  10.530  0.1483 -0.2130  0.5006
  149TCq2    C2 2269   3.436   2.356  10.685 -0.7989  0.6108  0.1053
  149TCq2    C3 2270   3.477   2.472  10.747 -0.2507  0.4143  0.8617
  149TCq2    C4 2271   3.519   2.471  10.876  0.5833 -0.1536 -0.1472
  149TCq2    C5 2272   3.538   2.353  10.931  0.2204 -0.3629 -0.1152
  149TCq2    C6 2273   3.498   2.233  10.874 -0.2776  0.5401  0.3431
  149TCq2    C7 2274   3.445   2.240  10.750  0.0876 -0.1165  0.5041
  149TCq2    C8 2275   3.538   2.102  10.929  0.0882 -0.2051  0.1155
  149TCq2    O4 2276   3.501   2.009  10.862 -0.0811 -0.0158  0.2853
  149TCq2    C9 2277   3.598   2.579  10.918 -0.1161 -0.2594 -0.1008
  149TCq2    O5 2278   3.659   2.565  11.030 -0.7613  0.2019  0.9301
  149TCq2    O6 2279   3.604   2.679  10.844  0.1284 -0.1739 -0.3813
  149TCq2    H2 2280   3.474   2.566  10.693 -0.3541 -0.4664 -0.6578
  149TCq2    H3 2281   3.588   2.355  11.027 -0.2000  1.2241  0.0622
  149TCq2    H4 2282   3.409   2.149  10.703  1.0169 -0.2326  0.0094
  150MPD2     C 2283   0.005   1.730  12.614  0.1369 -0.6444  0.1185
  150MPD2    C1 2284   0.061   1.703  12.489 -0.0201  0.6093 -0.3594
  150MPD2    C2 2285   0.176   1.767  12.448 -0.1835  0.1728  0.5552
  150MPD2    C3 2286   0.241   1.849  12.532 -0.5167 -0.1852 -0.2981
  150MPD2    C4 2287   0.190   1.890  12.657  0.2310  0.5249  0.1975
  150MPD2    C5 2288   0.063   1.831  12.690  0.5278  0.2297 -0.2463
  150MPD2     H 2289   0.227   1.734  12.358  2.8554 -0.4136  2.5130
  150MPD2    H1 2290   0.239   1.959  12.724  0.9167  0.2189  0.0065
  150MPD2    H2 2291   4.643   1.672  12.650  0.1145 -2.2781 -2.6362
  150MPD2    H3 2292   0.027   1.847  12.790  1.6551  0.4462  0.1237
  150MPD2     N 2293   0.363   1.901  12.482  0.3082 -0.2080 -0.1465
  150MPD2    H5 2294   0.388   1.866  12.390  0.4406 -1.3995  0.3390
  150MPD2    N1 2295   4.722   1.601  12.412 -0.2675 -0.4248  0.2249
  150MPD2    H7 2296   4.637   1.558  12.449 -0.2698 -0.9650 -0.4015
  151TCq2    C1 2297   0.462   1.969  12.550  0.2429 -0.1941  0.4772
  151TCq2    O2 2298   0.456   2.022  12.656 -0.6024  0.1168  0.1182
  151TCq2    C2 2299   0.587   1.978  12.472 -0.7015 -0.7343  0.2049
  151TCq2    C3 2300   0.612   1.905  12.362 -0.3202 -0.4310  0.6521
  151TCq2    C4 2301   0.741   1.904  12.313  0.0848 -0.7029  1.2128
  151TCq2    C5 2302   0.852   1.965  12.373  0.3737 -0.9887 -0.0912
  151TCq2    C6 2303   0.815   2.035  12.484  0.3520  0.3846  0.0533
  151TCq2    C7 2304   0.688   2.053  12.527 -0.2884  0.6062  0.4011
  151TCq2    C8 2305   0.921   2.074  12.580 -0.0391 -0.0843 -0.7055
  151TCq2    O4 2306   0.898   2.151  12.671  0.2590  0.1650  0.1344
  151TCq2    C9 2307   0.764   1.830  12.189  0.4350 -0.1547  0.8767
  151TCq2    O5 2308   0.882   1.824  12.151 -0.4628  0.4423  0.0969
  151TCq2    O6 2309   0.678   1.742  12.167  0.2485  0.4900  0.4279
  151TCq2    H2 2310   0.538   1.836  12.323  0.5728 -1.5080  0.8375
  151TCq2    H3 2311   0.953   1.958  12.335  0.3420 -2.6504  0.1531
  151TCq2    H4 2312   0.677   2.117  12.614  0.6893  2.0060 -0.5187
  152MPD2     C 2313   0.339   1.273  12.417 -0.9064  0.3146 -0.0377
  152MPD2    C1 2314   0.330   1.370  12.513 -0.1883 -0.0697 -0.0290
  152MPD2    C2 2315   0.214   1.370  12.593  0.5701 -0.2019 -0.1898
  152MPD2    C3 2316   0.115   1.268  12.580 -0.5098  0.6751  0.2891
  152MPD2    C4 2317   0.135   1.179  12.478 -0.5602 -0.0974  0.8418
  152MPD2    C5 2318   0.247   1.178  12.402  0.4291  0.4208 -1.0906
  152MPD2     H 2319   0.206   1.443  12.672 -0.8211 -0.1066 -0.4192
  152MPD2    H1 2320   0.056   1.111  12.448 -1.1253  0.9190 -0.0141
  152MPD2    H2 2321   0.421   1.268  12.346 -0.8473  1.8260 -0.0680
  152MPD2    H3 2322   0.255   1.118  12.312 -1.6840 -0.5518 -0.6353
  152MPD2     N 2323   0.002   1.260  12.665  0.1435  0.3895 -0.3214
  152MPD2    H5 2324   4.663   1.181  12.647  0.9402 -0.3048  0.0602
  152MPD2    N1 2325   0.442   1.455  12.533  0.1326 -0.1259  0.2315
  152MPD2    H7 2326   0.514   1.436  12.464 -0.3356 -2.9247  0.5047
  153TCq2    C1 2327   0.458   1.549  12.634  0.5838 -0.0837  0.1369
  153TCq2    O2 2328   0.386   1.575  12.731  0.0930 -0.0208 -0.8254
  153TCq2    C2 2329   0.573   1.637  12.620 -0.3728  0.2200  0.5132
  153TCq2    C3 2330   0.659   1.611  12.524  0.5789  0.5646  0.0431
  153TCq2    C4 2331   0.786   1.663  12.543 -0.2187 -0.0832 -0.0223
  153TCq2    C5 2332   0.818   1.723  12.669  0.0818  0.7077  0.5632
  153TCq2    C6 2333   0.714   1.752  12.751  0.6839 -0.3443 -0.2383
  153TCq2    C7 2334   0.592   1.704  12.731  0.6729  0.2454  0.5258
  153TCq2    C8 2335   0.754   1.817  12.888  0.0597 -0.3444 -0.6416
  153TCq2    O4 2336   0.656   1.854  12.954  0.1796  0.5991 -0.0332
  153TCq2    C9 2337   0.897   1.637  12.446  0.2037  0.5841  0.2497
  153TCq2    O5 2338   1.001   1.700  12.467  0.3292 -0.2893 -0.6479
  153TCq2    O6 2339   0.867   1.579  12.338  0.0690 -0.2717 -0.0671
  153TCq2    H2 2340   0.640   1.561  12.429 -0.1045 -0.3592  0.6760
  153TCq2    H3 2341   0.921   1.754  12.685  0.1061  1.3248 -0.7794
  153TCq2    H4 2342   0.526   1.718  12.816 -1.1819  0.0955 -0.8902
  154MPD2     C 2343   1.670   2.344   0.938 -0.3248 -0.2778 -0.1853
  154MPD2    C1 2344   1.721   2.259   1.031 -0.0242 -0.9150 -0.0354
  154MPD2    C2 2345   1.626   2.215   1.130  0.1268  0.1654 -0.4711
  154MPD2    C3 2346   1.502   2.275   1.151  0.3871  0.9728 -0.0099
  154MPD2    C4 2347   1.458   2.355   1.045  0.2154 -0.2538  0.1016
  154MPD2    C5 2348   1.539   2.385   0.942 -0.2473 -0.6828  0.5624
  154MPD2     H 2349   1.660   2.137   1.198 -0.1281 -0.2088 -0.7768
  154MPD2    H1 2350   1.355   2.388   1.039 -0.0134 -1.3349 -1.8247
  154MPD2    H2 2351   1.735   2.375   0.857  0.1445 -0.3912  0.1542
  154MPD2    H3 2352   1.504   2.457   0.868 -1.2658 -1.9696 -0.2003
  154MPD2     N 2353   1.421   2.233   1.262 -0.3052  0.5524 -0.0776
  154MPD2    H5 2354   1.469   2.180   1.334 -0.3612  0.0343 -0.4146
  154MPD2    N1 2355   1.853   2.213   1.008 -0.3791  0.0686 -0.3441
  154MPD2    H7 2356   1.895   2.241   0.920  0.6757 -1.4629 -0.3361
  155TCq2    C1 2357   1.927   2.141   1.101  0.5912  0.0199  0.1485
  155TCq2    O2 2358   1.898   2.108   1.216  0.3398 -0.2830  0.1135
  155TCq2    C2 2359   2.059   2.103   1.065  0.1045 -0.5856 -0.8243
  155TCq2    C3 2360   2.107   1.994   1.131 -0.4324 -0.0279  0.0270
  155TCq2    C4 2361   2.242   1.960   1.107 -0.6390  0.0236  0.2207
  155TCq2    C5 2362   2.321   2.052   1.043  0.5268 -0.5402 -0.1208
  155TCq2    C6 2363   2.262   2.152   0.966  0.0529 -0.0534 -0.4856
  155TCq2    C7 2364   2.128   2.180   0.977  0.2215  0.0582 -0.0865
  155TCq2    C8 2365   2.348   2.227   0.871  0.1647  0.6520 -0.2165
  155TCq2    O4 2366   2.469   2.204   0.884  0.0745 -0.1572 -0.0677
  155TCq2    C9 2367   2.303   1.840   1.158  0.5137  0.0939 -0.7627
  155TCq2    O5 2368   2.221   1.741   1.169  0.0138  0.3839  0.2005
  155TCq2    O6 2369   2.427   1.828   1.136 -0.4172 -0.1357 -0.9667
  155TCq2    H2 2370   2.046   1.937   1.200  0.2737 -0.5406  0.2233
  155TCq2    H3 2371   2.429   2.038   1.044  0.5181 -0.6258 -0.8755
  155TCq2    H4 2372   2.082   2.270   0.937 -0.0227 -0.3372 -0.7028
  156MPD2     C 2373   0.517   3.588  13.067 -0.3752 -0.0377  0.7002
  156MPD2    C1 2374   0.510   3.716  13.014 -0.5575 -0.4444  0.1244
  156MPD2    C2 2375   0.570   3.817  13.089  0.4582 -0.0284  0.4901
  156MPD2    C3 2376   0.632   3.802  13.202 -0.6846  0.6131 -1.0464
  156MPD2    C4 2377   0.639   3.677  13.254  0.7579 -0.2355  0.0559
  156MPD2    C5 2378   0.586   3.568  13.182 -0.9014  0.2969  0.1305
  156MPD2     H 2379   0.575   3.917  13.049  2.0140 -0.3314 -0.0585
  156MPD2    H1 2380   0.688   3.639  13.343  0.2787 -1.0596 -0.0279
  156MPD2    H2 2381   0.477   3.500  13.017 -0.3446 -0.7629  1.9425
  156MPD2    H3 2382   0.594   3.466  13.219 -1.2273  0.2249 -0.0026
  156MPD2     N 2383   0.689   3.905  13.268 -0.1029 -0.0384 -0.0095
  156MPD2    H5 2384   0.672   3.996  13.226  4.2138  0.0768 -1.5308
  156MPD2    N1 2385   0.441   3.735  12.890  0.0765 -0.0624 -0.0164
  156MPD2    H7 2386   0.389   3.651  12.864 -1.6122  1.5685 -1.9134
  157TCq2    C1 2387   0.458   3.851  12.812  0.2651  0.0580 -0.3673
  157TCq2    O2 2388   0.539   3.941  12.825  0.1604 -0.0919  0.0866
  157TCq2    C2 2389   0.370   3.848  12.691 -0.0848 -0.1117 -0.0091
  157TCq2    C3 2390   0.279   3.742  12.691  0.2361  0.3215  0.2224
  157TCq2    C4 2391   0.220   3.713  12.574 -0.2114 -0.2515 -0.2201
  157TCq2    C5 2392   0.232   3.796  12.468  0.5947  0.4276 -0.1763
  157TCq2    C6 2393   0.325   3.894  12.477  0.4946  0.1913 -0.7750
  157TCq2    C7 2394   0.399   3.929  12.585  0.0630 -0.0454 -0.6216
  157TCq2    C8 2395   0.338   3.985  12.360 -0.3273 -0.5800 -0.2997
  157TCq2    O4 2396   0.442   4.041  12.342 -0.0717  0.3274 -0.0781
  157TCq2    C9 2397   0.129   3.603  12.568  0.4806 -0.0884 -0.9141
  157TCq2    O5 2398   0.070   3.581  12.460  0.0707 -0.4671 -0.7926
  157TCq2    O6 2399   0.125   3.534  12.677  0.0391 -0.0731  0.2492
  157TCq2    H2 2400   0.251   3.677  12.774  1.5620 -1.0847 -0.4202
  157TCq2    H3 2401   0.173   3.775  12.380  0.8410 -1.8050  0.1800
  157TCq2    H4 2402   0.463   4.016  12.597 -0.3363 -0.1243  2.1616
  158TMC2    C1 2403   1.110   2.271  13.266 -0.9505 -0.7772  0.5685
  158TMC2    C2 2404   1.145   2.290  13.136  0.2409 -0.0882  0.1045
  158TMC2    C3 2405   1.048   2.344  13.049 -0.2177  0.1700  0.6346
  158TMC2    C4 2406   0.987   2.304  13.312 -1.5803 -1.1226 -0.7877
  158TMC2    C5 2407   0.897   2.363  13.228 -0.2263  0.4609  0.5217
  158TMC2    C6 2408   0.923   2.381  13.092  1.2693  0.1912  0.1796
  158TMC2     C 2409   1.212   2.213  13.360  0.2383  0.0078  0.2630
  158TMC2     O 2410   1.326   2.214  13.320 -0.4663 -0.4931 -0.0869
  158TMC2     H 2411   1.238   2.250  13.097 -1.2548 -3.4174  0.0318
  158TMC2    H1 2412   0.969   2.312  13.419  1.0617  0.1959 -0.4532
  158TMC2    H2 2413   0.844   2.425  13.033 -1.1790 -0.9980  2.5675
  158TMC2    C7 2414   0.763   2.345  13.267  0.9089 -0.6380  0.1080
  158TMC2    C8 2415   1.090   2.417  12.931  0.3971 -0.0035  0.5343
  158TMC2    O1 2416   0.753   2.256  13.350 -0.5912  0.2947 -0.2824
  158TMC2    O2 2417   1.200   2.392  12.894 -0.7527  0.4432 -0.1124
  158TMC2    O5 2418   1.037   2.538  12.935 -0.6142  0.4934  0.2945
  158TMC2    H5 2419   0.957   2.556  12.989 -2.1556 -1.4231 -1.3384
  159MPD2     C 2420   1.298   2.151  13.859 -0.2785 -0.4127 -0.5398
  159MPD2    C1 2421   1.164   2.133  13.836 -0.4246  1.1111  0.0537
  159MPD2    C2 2422   1.116   2.150  13.706 -0.1298  0.8249  0.2182
  159MPD2    C3 2423   1.203   2.162  13.603  0.0788 -0.1613  0.3444
  159MPD2    C4 2424   1.338   2.184  13.627 -0.7215 -0.6421  0.3005
  159MPD2    C5 2425   1.383   2.168  13.756  0.8503 -0.7394 -0.0732
  159MPD2     H 2426   1.011   2.137  13.681  0.6182  0.6925 -2.8939
  159MPD2    H1 2427   1.410   2.196  13.546 -1.4271  0.9259 -0.1098
  159MPD2    H2 2428   1.336   2.167  13.959 -1.4985 -3.5718  0.4351
  159MPD2    H3 2429   1.488   2.179  13.779  0.4289 -0.0012  1.4944
  159MPD2     N 2430   1.149   2.169  13.473 -0.2548  0.0871 -0.3226
  159MPD2    H5 2431   1.048   2.154  13.469  0.0837 -1.6353 -2.3928
  159MPD2    N1 2432   1.084   2.114  13.948  0.0735  0.1057 -0.1918
  159MPD2    H7 2433   1.129   2.114  14.040 -1.3520 -4.0327  0.5386
  160TMC2    C1 2434   0.643   0.416   1.413 -0.0152  0.0926  0.4359
  160TMC2    C2 2435   0.721   0.327   1.481 -0.0388  0.0125 -0.1449
  160TMC2    C3 2436   0.839   0.378   1.524  0.3173  0.7221 -0.1070
  160TMC2    C4 2437   0.684   0.541   1.378 -0.4543  0.4520 -0.4768
  160TMC2    C5 2438   0.813   0.575   1.400 -0.1260 -0.4591 -0.0104
  160TMC2    C6 2439   0.897   0.494   1.474 -0.0294  0.1797 -0.5201
  160TMC2     C 2440   0.507   0.368   1.392 -0.5687  0.3443  0.0067
  160TMC2     O 2441   0.467   0.270   1.448 -0.0593  0.4294 -0.6914
  160TMC2     H 2442   0.676   0.233   1.508 -1.0750  0.4243 -0.4589
  160TMC2    H1 2443   0.622   0.623   1.343  0.2987 -0.1170 -3.1769
  160TMC2    H2 2444   1.003   0.513   1.487  0.2702 -1.9358  0.0596
  160TMC2    C7 2445   0.859   0.702   1.358 -0.0040 -0.3955  0.3027
  160TMC2    C8 2446   0.926   0.282   1.598 -0.8927  0.3393  0.0216
  160TMC2    O1 2447   0.949   0.751   1.425 -0.2346 -0.0242  0.1726
  160TMC2    O2 2448   0.899   0.167   1.619 -0.0981 -0.3375  0.8309
  160TMC2    O5 2449   1.011   0.355   1.669 -0.7417 -0.0826  0.4080
  160TMC2    H5 2450   1.025   0.451   1.654  0.1110 -0.1682  0.6508
  161MPD2     C 2451   0.229   0.331   1.283 -0.6570  0.0017  0.4174
  161MPD2    C1 2452   0.313   0.432   1.253  0.2192  0.4384 -0.5315
  161MPD2    C2 2453   0.260   0.533   1.176  0.0568  0.2789  0.1229
  161MPD2    C3 2454   0.133   0.540   1.127 -0.6339 -0.6022  0.0409
  161MPD2    C4 2455   0.049   0.425   1.142 -0.7230 -0.0522 -0.4441
  161MPD2    C5 2456   0.103   0.325   1.225 -0.1002 -0.3124 -0.3485
  161MPD2     H 2457   0.323   0.617   1.151  1.4010 -0.5025  0.8800
  161MPD2    H1 2458   4.677   0.403   1.093 -0.5005 -0.6306 -0.6111
  161MPD2    H2 2459   0.261   0.243   1.337 -2.3704  0.4989  2.2244
  161MPD2    H3 2460   0.050   0.231   1.239  0.8404 -1.0916 -1.9507
  161MPD2     N 2461   0.083   0.650   1.054 -0.5456  0.2355 -0.5348
  161MPD2    H5 2462   4.713   0.631   1.014 -1.4320  3.3575  0.0213
  161MPD2    N1 2463   0.442   0.451   1.306  0.5630  0.3299  0.5068
  161MPD2    H7 2464   0.506   0.521   1.269 -3.5210  3.3606 -0.7760
  162TMC2    C1 2465   3.299   2.598   1.203  0.1506  0.3261  0.1746
  162TMC2    C2 2466   3.228   2.711   1.163  0.0979  0.2308  0.2965
  162TMC2    C3 2467   3.160   2.779   1.263  0.1364 -0.8548 -0.6513
  162TMC2    C4 2468   3.300   2.558   1.336  0.1287 -0.5881  0.0971
  162TMC2    C5 2469   3.232   2.624   1.429  0.3801 -0.3361 -0.2070
  162TMC2    C6 2470   3.155   2.736   1.396  0.2998 -0.1760 -0.2007
  162TMC2     C 2471   3.368   2.521   1.106  0.3681  0.5904  0.0941
  162TMC2     O 2472   3.358   2.561   0.993 -0.8679 -0.1867 -0.2908
  162TMC2     H 2473   3.228   2.749   1.061  3.3259 -2.1822 -0.6024
  162TMC2    H1 2474   3.362   2.474   1.362  0.1136 -0.6875 -0.1971
  162TMC2    H2 2475   3.104   2.796   1.470  0.1343  0.3867 -0.7744
  162TMC2    C7 2476   3.223   2.582   1.571 -0.3658 -0.2024 -1.0611
  162TMC2    C8 2477   3.150   2.923   1.242  0.0528  0.1102 -0.9627
  162TMC2    O1 2478   3.116   2.615   1.619 -0.1499 -0.1638  0.6751
  162TMC2    O2 2479   3.164   3.011   1.328 -0.5269  0.6272 -0.0426
  162TMC2    O5 2480   3.080   2.940   1.129 -0.0472  0.0800  0.0111
  162TMC2    H5 2481   3.042   2.861   1.086  0.1634 -0.8636  1.5567
  163MPD2     C 2482   3.565   2.069   0.940 -0.0635  0.6287 -0.9484
  163MPD2    C1 2483   3.511   2.172   0.865 -0.6547 -0.4872 -0.0434
  163MPD2    C2 2484   3.467   2.289   0.929 -0.1476  0.5959  0.0281
  163MPD2    C3 2485   3.469   2.292   1.071 -0.3324 -0.3302 -0.1653
  163MPD2    C4 2486   3.506   2.182   1.144  0.4515 -0.0184 -0.3759
  163MPD2    C5 2487   3.566   2.075   1.082 -0.2842  0.6673  0.5422
  163MPD2     H 2488   3.440   2.377   0.871  0.0688  0.7345  0.1342
  163MPD2    H1 2489   3.492   2.181   1.252  0.5792 -0.6870 -0.3662
  163MPD2    H2 2490   3.598   1.983   0.884  0.6052 -0.6154  1.3678
  163MPD2    H3 2491   3.611   1.997   1.142 -1.7291 -0.7867 -0.2500
  163MPD2     N 2492   3.415   2.393   1.147 -0.4943  0.2445  0.7636
  163MPD2    H5 2493   3.411   2.378   1.248 -1.0608 -2.6514  0.3255
  163MPD2    N1 2494   3.524   2.155   0.722  0.2409 -0.1564 -0.1737
  163MPD2    H7 2495   3.551   2.062   0.692  0.1880 -0.0841 -0.4442
  164TCq2    C1 2496   4.109   2.560  11.588  0.0076  0.2904  0.3931
  164TCq2    O2 2497   4.151   2.526  11.696  0.0729  0.3006 -0.8264
  164TCq2    C2 2498   4.059   2.694  11.586  0.6243 -1.2595 -0.3935
  164TCq2    C3 2499   4.094   2.781  11.684 -0.7639 -0.5141 -0.1804
  164TCq2    C4 2500   4.039   2.909  11.685 -0.2165 -0.2748 -0.5806
  164TCq2    C5 2501   3.948   2.944  11.591 -1.1306 -0.6361  0.1372
  164TCq2    C6 2502   3.916   2.855  11.487 -0.2166 -0.5676 -0.1126
  164TCq2    C7 2503   3.971   2.730  11.485  0.0850 -0.5673 -0.3013
  164TCq2    C8 2504   3.783   2.860  11.426  0.4241 -0.3550  0.5408
  164TCq2    O4 2505   3.725   2.754  11.412 -0.0676 -0.4782  0.6666
  164TCq2    C9 2506   4.078   3.007  11.781  0.3034  0.4363  0.1272
  164TCq2    O5 2507   3.998   3.107  11.797  0.1876 -0.1941 -0.6135
  164TCq2    O6 2508   4.156   2.970  11.870  0.1575  0.4580 -0.8123
  164TCq2    H2 2509   4.164   2.751  11.760 -0.5147 -0.1138 -0.2548
  164TCq2    H3 2510   3.897   3.038  11.609  1.3791  0.4867  1.3119
  164TCq2    H4 2511   3.948   2.674  11.394 -0.8043 -1.4924  0.4908
  165MPD2     C 2512   3.884   4.237   2.058  0.2634 -0.6422  0.9637
  165MPD2    C1 2513   4.009   4.242   2.014 -0.0870  0.2580  0.2281
  165MPD2    C2 2514   4.033   4.304   1.890 -0.4708  0.2955  0.9322
  165MPD2    C3 2515   3.941   4.382   1.825 -0.3167  0.5886 -0.2624
  165MPD2    C4 2516   3.816   4.378   1.879  0.0669  0.6254 -0.1347
  165MPD2    C5 2517   3.783   4.305   1.990 -0.1849  0.2006 -0.0145
  165MPD2     H 2518   4.134   4.308   1.850 -0.8461  1.1716  0.0562
  165MPD2    H1 2519   3.740   4.439   1.831 -0.5777  0.0217  0.1216
  165MPD2    H2 2520   3.864   4.191   2.155  1.4788 -2.5269  0.3068
  165MPD2    H3 2521   3.682   4.309   2.030 -1.5828  0.4248 -3.6211
  165MPD2     N 2522   3.966   4.462   1.715 -1.1871 -0.1487  0.3632
  165MPD2    H5 2523   3.892   4.522   1.679  1.0976  1.8851 -0.9845
  165MPD2    N1 2524   4.106   4.184   2.093  0.1521  0.6919 -0.0505
  165MPD2    H7 2525   4.073   4.153   2.183  1.2448  0.0954  0.1395
  166TCq2    C1 2526   4.087   4.469   1.645  0.8415  0.0638  0.6951
  166TCq2    O2 2527   4.201   4.433   1.688 -0.3013  0.4262 -0.4091
  166TCq2    C2 2528   4.076   4.541   1.524 -0.1273  0.4733 -0.1722
  166TCq2    C3 2529   3.965   4.518   1.455  0.0607 -0.2375 -0.5996
  166TCq2    C4 2530   3.968   4.551   1.320 -0.4331  0.4853  0.3526
  166TCq2    C5 2531   4.078   4.614   1.262  0.6449 -0.2140 -0.1459
  166TCq2    C6 2532   4.191   4.632   1.338 -0.1367 -0.2177 -0.4933
  166TCq2    C7 2533   4.193   4.590   1.465 -0.2037  0.4925 -0.2136
  166TCq2    C8 2534   4.317   4.685   1.280 -0.3902  0.0334 -0.0638
  166TCq2    O4 2535   4.401   0.004   1.359 -0.5071 -0.1226 -0.2625
  166TCq2    C9 2536   3.843   4.549   1.247 -0.3515  0.1734  0.3443
  166TCq2    O5 2537   3.849   4.545   1.125 -0.1492 -0.4134 -1.1264
  166TCq2    O6 2538   3.744   4.521   1.313 -0.2951 -0.0896 -0.1281
  166TCq2    H2 2539   3.875   4.478   1.500  1.0972 -0.4137  1.3007
  166TCq2    H3 2540   4.072   4.640   1.157 -2.2320 -0.1876  0.0163
  166TCq2    H4 2541   4.290   4.588   1.513 -0.4350 -1.2030  0.1981
  167TMC2    C1 2542   3.040   1.837  13.017 -0.5237 -0.2650 -0.2063
  167TMC2    C2 2543   2.945   1.847  13.114 -0.4073 -0.2746 -0.9172
  167TMC2    C3 2544   2.875   1.733  13.140  1.1133  0.4140  0.1758
  167TMC2    C4 2545   3.080   1.719  12.967  0.0189 -0.0920  0.6737
  167TMC2    C5 2546   3.015   1.604  13.006 -0.6527 -0.3016  0.0814
  167TMC2    C6 2547   2.910   1.618  13.086 -0.4601  0.3093 -0.0444
  167TMC2     C 2548   3.117   1.957  12.991 -0.3368  0.2446 -0.0094
  167TMC2     O 2549   3.114   2.046  13.071  0.4355 -0.0874 -0.2020
  167TMC2     H 2550   2.927   1.949  13.144  1.7427  0.2137 -1.2795
  167TMC2    H1 2551   3.171   1.704  12.911  1.7062  0.7356  3.1994
  167TMC2    H2 2552   2.861   1.527  13.120  1.2430 -0.9660 -1.0009
  167TMC2    C7 2553   3.060   1.477  12.957  0.1920  0.1884 -0.2977
  167TMC2    C8 2554   2.775   1.728  13.248  0.4311  1.2767 -0.6929
  167TMC2    O1 2555   3.011   1.381  13.011 -0.4128  0.3173 -0.5140
  167TMC2    O2 2556   2.673   1.664  13.227  0.0276 -0.5166  0.4579
  167TMC2    O5 2557   2.769   1.860  13.290  0.6338 -0.5146  0.7813
  167TMC2    H5 2558   2.851   1.895  13.331  0.6375  0.9848 -0.5018
  168MPD2     C 2559   3.363   2.097  12.889  0.3984 -0.2476  0.6619
  168MPD2    C1 2560   3.266   2.041  12.808 -0.2718  0.2718 -0.1790
  168MPD2    C2 2561   3.278   2.065  12.675 -0.2789  0.2185 -0.5288
  168MPD2    C3 2562   3.392   2.117  12.620  0.3761  0.1672  0.0161
  168MPD2    C4 2563   3.480   2.176  12.698  0.1290 -0.7284  0.0595
  168MPD2    C5 2564   3.467   2.169  12.833  0.0492  0.1595 -0.4656
  168MPD2     H 2565   3.210   2.006  12.615 -0.4480 -0.8245  0.7005
  168MPD2    H1 2566   3.566   2.223  12.652  0.6490 -2.0541 -0.3411
  168MPD2    H2 2567   3.361   2.076  12.995  1.1638  0.5872  0.8417
  168MPD2    H3 2568   3.546   2.212  12.893 -1.0751 -0.2541  1.3060
  168MPD2     N 2569   3.416   2.072  12.485  0.4733  0.1567 -0.1250
  168MPD2    H5 2570   3.339   2.020  12.445  0.1721 -0.9220  1.8618
  168MPD2    N1 2571   3.159   1.963  12.860  0.2004 -0.2089  0.3794
  168MPD2    H7 2572   3.108   1.904  12.795 -2.1684  2.3653 -0.0935
  169MPD1     C 2573   0.715   4.675   8.999  0.3589 -0.6487  0.2743
  169MPD1    C1 2574   0.751   0.086   8.981 -0.1272  0.9354 -0.1899
  169MPD1    C2 2575   0.816   0.146   9.088  0.6491 -0.2643  0.2321
  169MPD1    C3 2576   0.856   0.083   9.203 -0.0771 -0.4878 -0.6588
  169MPD1    C4 2577   0.825   4.671   9.211 -0.1287 -0.2980  0.1731
  169MPD1    C5 2578   0.761   4.604   9.109 -0.7740  0.0396  0.2021
  169MPD1     H 2579   0.830   0.253   9.085  1.7544 -0.4793 -2.0076
  169MPD1    H1 2580   0.851   4.617   9.301 -1.3016 -1.6637 -0.3293
  169MPD1    H2 2581   0.660   4.620   8.923  1.2285  1.4328 -1.8651
  169MPD1    H3 2582   0.743   4.497   9.114 -2.9935  0.3226 -1.4751
  169MPD1     N 2583   0.922   0.155   9.310 -0.4001  0.4723 -0.2354
  169MPD1    H5 2584   0.953   0.250   9.292 -0.0454  0.4055  0.0196
  169MPD1    N1 2585   0.701   0.165   8.877  0.1944  0.1145 -0.1713
  169MPD1    H6 2586   0.691   0.123   8.785  0.2903 -0.8498  0.2637
  169MPD1    H7 2587   0.752   0.253   8.872  0.7216 -0.2358 -0.9455
  170MPD1     C 2588   4.097   4.032  13.076  0.1692 -0.2502  0.1075
  170MPD1    C1 2589   4.076   4.167  13.083  0.2061  0.3972 -0.2234
  170MPD1    C2 2590   4.093   4.232  13.201  0.3841 -0.0411 -0.0969
  170MPD1    C3 2591   4.123   4.166  13.322  0.2274 -0.3147 -0.2233
  170MPD1    C4 2592   4.132   4.023  13.316  0.3598 -0.5367  0.4975
  170MPD1    C5 2593   4.123   3.964  13.192 -0.2808  0.4079  0.3903
  170MPD1     H 2594   4.076   4.339  13.199  0.3938 -0.0466 -0.5432
  170MPD1    H1 2595   4.147   3.955  13.399 -0.0396  0.3391  1.2916
  170MPD1    H2 2596   4.101   3.968  12.989  1.7301  0.3028 -0.2246
  170MPD1    H3 2597   4.147   3.859  13.180  0.2680  0.4896  0.7769
  170MPD1     N 2598   4.136   4.234  13.444  0.2911 -0.5353 -0.6486
  170MPD1    H5 2599   4.150   4.332  13.420  1.2536 -0.3564  0.6374
  170MPD1    N1 2600   4.043   4.245  12.968  0.4614  0.8012 -0.4213
  170MPD1    H6 2601   4.001   4.332  13.000 -1.4137 -0.3619  0.3272
  170MPD1    H7 2602   3.971   4.199  12.913 -1.7202  4.2457 -0.4622
  171MPD1     C 2603   2.789   1.116  15.465  0.0220 -0.2222  0.2760
  171MPD1    C1 2604   2.778   1.055  15.587 -0.1728  0.4886 -0.3098
  171MPD1    C2 2605   2.765   0.915  15.590  0.0452  0.0287 -0.1204
  171MPD1    C3 2606   2.752   0.837  15.474  0.3539 -0.2908 -0.5218
  171MPD1    C4 2607   2.747   0.904  15.355  0.3941 -0.6024  0.4280
  171MPD1    C5 2608   2.767   1.039  15.352 -0.0445  0.0650 -0.3130
  171MPD1     H 2609   2.757   0.863  15.685  0.0185  2.2150  1.0665
  171MPD1    H1 2610   2.735   0.852  15.261 -0.1887 -1.8793  1.2100
  171MPD1    H2 2611   2.792   1.224  15.452 -0.8476  0.0637  2.4129
  171MPD1    H3 2612   2.758   1.091  15.257  0.7958 -0.6312 -0.7822
  171MPD1     N 2613   2.727   0.701  15.479  0.3613  0.3570 -0.9265
  171MPD1    H5 2614   2.709   0.671  15.384 -2.8058 -0.0360 -0.1982
  171MPD1    N1 2615   2.794   1.130  15.707  0.3378  0.3145  0.4173
  171MPD1    H6 2616   2.733   1.106  15.786  1.4068  0.9166  1.4125
  171MPD1    H7 2617   2.801   1.231  15.696  1.2870  0.4282  2.0820
  172MPD1     C 2618   1.194   4.550   1.230  0.0146 -0.1204 -0.1342
  172MPD1    C1 2619   1.150   4.542   1.106  0.3728  0.0542 -0.1445
  172MPD1    C2 2620   1.233   4.565   1.000 -0.6575 -0.1956  0.6512
  172MPD1    C3 2621   1.364   4.612   1.021 -0.9556  0.1636  0.2620
  172MPD1    C4 2622   1.407   4.638   1.146 -0.1091 -0.1937 -0.9251
  172MPD1    C5 2623   1.319   4.607   1.249  0.1023 -0.2404 -0.4857
  172MPD1     H 2624   1.192   4.556   0.900  0.3586  0.2776  0.1912
  172MPD1    H1 2625   1.503   4.680   1.173 -0.3877 -0.1376 -0.0132
  172MPD1    H2 2626   1.129   4.534   1.315  0.8918 -1.5304  0.2784
  172MPD1    H3 2627   1.360   4.622   1.349  0.9779  1.8807 -1.1640
  172MPD1     N 2628   1.457   4.627   0.912  0.5375  0.5887  0.2184
  172MPD1    H5 2629   1.547   4.666   0.940  1.0506 -1.9660  2.0810
  172MPD1    N1 2630   1.029   4.480   1.078  0.7945 -0.1931  0.4298
  172MPD1    H6 2631   0.990   4.513   0.990 -0.5331 -2.4778  0.1486
  172MPD1    H7 2632   0.963   4.484   1.156  0.1970  1.6169 -0.1887
  173MPD1     C 2633   3.910   4.466  13.946  0.0676 -0.1250  0.3104
  173MPD1    C1 2634   3.989   4.478  14.058  0.2881  0.5174  0.9438
  173MPD1    C2 2635   3.950   4.392  14.160 -0.5586 -0.1527  0.3761
  173MPD1    C3 2636   3.844   4.306  14.155 -0.4405 -0.1023  0.4750
  173MPD1    C4 2637   3.782   4.292  14.038  0.3243 -0.0458  0.2999
  173MPD1    C5 2638   3.819   4.369  13.935  0.5049 -0.1762  0.0851
  173MPD1     H 2639   3.993   4.405  14.258 -1.5650 -2.1811  1.0943
  173MPD1    H1 2640   3.698   4.225  14.024 -0.1922  0.0814  2.8002
  173MPD1    H2 2641   3.933   4.520  13.855 -3.0719 -1.3067 -1.1777
  173MPD1    H3 2642   3.769   4.351  13.841 -0.4011  3.3554 -0.0731
  173MPD1     N 2643   3.815   4.240  14.278  0.2016  0.0594  0.6428
  173MPD1    H5 2644   3.876   4.256  14.357 -1.1675  0.0356  1.6883
  173MPD1    N1 2645   4.067   4.592  14.076  0.5644  0.4726 -0.2461
  173MPD1    H6 2646   4.144   4.569  14.139  0.4659  1.2818  0.1750
  173MPD1    H7 2647   4.105   4.627  13.988 -1.0288  0.5255 -0.9184
  174MPD1     C 2648   4.410   4.082  14.852 -0.6191  1.4953  0.1109
  174MPD1    C1 2649   4.298   4.095  14.931 -0.2085  0.0868 -0.0928
  174MPD1    C2 2650   4.170   4.095  14.880 -0.3031 -0.2185 -0.0871
  174MPD1    C3 2651   4.155   4.086  14.742 -0.4913  0.0293 -0.5108
  174MPD1    C4 2652   4.265   4.074  14.659  0.0787 -0.8508 -0.6314
  174MPD1    C5 2653   4.392   4.066  14.714 -0.0017 -0.0568 -0.3954
  174MPD1     H 2654   4.087   4.108  14.948  0.8554  0.6357  1.1728
  174MPD1    H1 2655   4.251   4.070  14.552 -0.5749 -0.8048 -0.5462
  174MPD1    H2 2656   4.515   4.086  14.880 -0.4856 -0.6918 -0.0592
  174MPD1    H3 2657   4.473   4.053  14.643  0.1423 -2.3097  0.1934
  174MPD1     N 2658   4.032   4.079  14.677 -0.8015  0.0532  0.0992
  174MPD1    H5 2659   4.043   4.071  14.576  1.6545 -2.9139  0.6016
  174MPD1    N1 2660   4.328   4.102  15.074  0.3421 -0.0032  0.5246
  174MPD1    H6 2661   4.418   4.143  15.095  0.5918 -1.5920  2.5838
  174MPD1    H7 2662   4.251   4.154  15.115 -0.4770 -1.0886  0.3853
  175MPD1     C 2663   1.377   0.229  15.710  0.7041 -0.1992  0.7023
  175MPD1    C1 2664   1.273   0.292  15.781  0.0260 -0.3759  0.0677
  175MPD1    C2 2665   1.308   0.379  15.885 -0.2975  0.6207 -0.5414
  175MPD1    C3 2666   1.434   0.415  15.923  0.2458  0.1670  1.6930
  175MPD1    C4 2667   1.535   0.353  15.852  0.1283  0.0000 -0.2081
  175MPD1    C5 2668   1.505   0.266  15.747  0.0143 -0.3811  0.0532
  175MPD1     H 2669   1.226   0.409  15.949 -0.1200  1.7061 -0.8184
  175MPD1    H1 2670   1.636   0.370  15.887  0.6506  0.2551 -1.8397
  175MPD1    H2 2671   1.363   0.144  15.645 -1.1801  1.6039 -1.2244
  175MPD1    H3 2672   1.580   0.207  15.695 -0.2072 -0.6855  0.0747
  175MPD1     N 2673   1.462   0.492  16.036 -0.1054 -0.0172  0.0728
  175MPD1    H5 2674   1.560   0.511  16.053  0.0864 -2.9701  2.3735
  175MPD1    N1 2675   1.145   0.240  15.753 -0.1549  0.2239 -0.0010
  175MPD1    H6 2676   1.133   0.197  15.662 -0.0875  2.0111 -0.8520
  175MPD1    H7 2677   1.073   0.310  15.772 -0.9484 -0.5800 -0.0652
  176MPD1     C 2678   3.190   2.017   0.371  0.9566  0.2049  0.5079
  176MPD1    C1 2679   3.170   2.086   0.486 -0.3006 -0.2379 -0.3771
  176MPD1    C2 2680   3.146   2.222   0.491 -0.4688 -0.0201 -0.2836
  176MPD1    C3 2681   3.144   2.288   0.370 -0.6017 -0.2036  0.4757
  176MPD1    C4 2682   3.157   2.220   0.248  0.0455  0.1848  0.2299
  176MPD1    C5 2683   3.175   2.084   0.253 -0.9680  0.0354 -0.3124
  176MPD1     H 2684   3.131   2.288   0.576 -1.6922 -0.0299 -0.4854
  176MPD1    H1 2685   3.153   2.275   0.155  0.4355 -2.8317 -1.5627
  176MPD1    H2 2686   3.216   1.912   0.359 -3.3125 -0.4272 -3.1516
  176MPD1    H3 2687   3.179   2.042   0.153 -0.6951  1.9037 -1.1097
  176MPD1     N 2688   3.122   2.426   0.376 -0.2352  0.0120 -0.4729
  176MPD1    H5 2689   3.136   2.463   0.469  3.2187 -0.5969 -0.7271
  176MPD1    N1 2690   3.157   2.017   0.605 -0.4091  0.2873  0.0310
  176MPD1    H6 2691   3.152   2.072   0.691  1.8047 -1.2716  1.1747
  176MPD1    H7 2692   3.245   1.967   0.615  0.2529  1.3555 -0.5210
  177MPD1     C 2693   1.997   1.833  10.250 -0.4641  0.4381  0.1557
  177MPD1    C1 2694   2.097   1.809  10.167 -0.3474  1.0060 -0.0035
  177MPD1    C2 2695   2.067   1.743  10.047 -0.2480  0.0826 -0.7654
  177MPD1    C3 2696   1.933   1.719  10.017  0.0557 -0.0138 -0.2581
  177MPD1    C4 2697   1.835   1.737  10.108  0.0755  0.2671 -0.2411
  177MPD1    C5 2698   1.865   1.803  10.224  0.2384  0.0008  0.0918
  177MPD1     H 2699   2.148   1.721   9.979  1.3570  2.1141  0.4942
  177MPD1    H1 2700   1.732   1.712  10.087 -0.4191  1.5138  0.6792
  177MPD1    H2 2701   2.026   1.883  10.342  1.6097 -1.0300  0.3121
  177MPD1    H3 2702   1.780   1.831  10.284 -0.1276 -0.5200 -0.1886
  177MPD1     N 2703   1.898   1.689   9.881  0.0828  0.3100  0.4324
  177MPD1    H5 2704   1.958   1.721   9.806  0.1034 -0.2658  0.2087
  177MPD1    N1 2705   2.234   1.819  10.209  0.6348 -0.3744  0.5060
  177MPD1    H6 2706   2.261   1.895  10.272  0.2125  0.2958 -0.1180
  177MPD1    H7 2707   2.301   1.844  10.135  3.1294 -0.9491  2.5593
  178MPD1     C 2708   4.594   2.785   0.286  0.0160  0.7112  0.3885
  178MPD1    C1 2709   4.481   2.756   0.222  0.3400 -0.0236  0.7538
  178MPD1    C2 2710   4.451   2.831   0.112 -0.1354 -0.1737  0.2909
  178MPD1    C3 2711   4.541   2.929   0.059 -0.8486  0.5185  0.1009
  178MPD1    C4 2712   4.646   2.964   0.139 -0.4577 -0.1249  0.1110
  178MPD1    C5 2713   4.673   2.885   0.248  0.8117  0.3484  0.4845
  178MPD1     H 2714   4.356   2.810   0.065  0.1042 -2.3680  0.7914
  178MPD1    H1 2715   4.713   3.045   0.111  0.3886 -0.9271 -0.1550
  178MPD1    H2 2716   4.632   2.723   0.366  1.1285 -0.2012 -0.8574
  178MPD1    H3 2717   0.040   2.911   0.303  1.0784 -0.1551  0.2989
  178MPD1     N 2718   4.517   3.006  17.639  0.0293 -0.2768 -0.3337
  178MPD1    H5 2719   4.574   3.089  17.623 -0.9610  0.1095 -1.9480
  178MPD1    N1 2720   4.421   2.637   0.252 -0.0076 -0.5573 -0.1787
  178MPD1    H6 2721   4.327   2.625   0.216 -0.2143  0.7316 -0.0631
  178MPD1    H7 2722   4.404   2.611   0.350 -0.3100 -0.6385 -0.2534
  179MPD1     C 2723   4.365   0.989  15.157 -0.3096  0.5903 -0.4100
  179MPD1    C1 2724   4.230   1.010  15.157 -0.6142  0.3602 -0.6874
  179MPD1    C2 2725   4.159   1.030  15.276  0.0417 -0.0185 -0.0177
  179MPD1    C3 2726   4.227   1.055  15.393 -0.4206  0.0923 -0.3090
  179MPD1    C4 2727   4.361   1.038  15.397 -0.5898 -0.4528 -0.6482
  179MPD1    C5 2728   4.431   1.009  15.281  0.0441  0.4536  0.5733
  179MPD1     H 2729   4.051   1.031  15.278 -0.0054 -2.0516 -1.6828
  179MPD1    H1 2730   4.419   1.063  15.485 -3.8498  1.8274  0.8684
  179MPD1    H2 2731   4.424   0.952  15.073  0.6102 -4.3235  2.3438
  179MPD1    H3 2732   4.537   0.991  15.284  0.3016  1.7250 -0.8163
  179MPD1     N 2733   4.163   1.100  15.515  0.4619 -0.5238  0.1799
  179MPD1    H5 2734   4.225   1.134  15.588  1.2146 -0.5273 -0.4573
  179MPD1    N1 2735   4.151   0.962  15.053 -0.4637  0.6451 -0.3841
  179MPD1    H6 2736   4.066   1.013  15.033 -1.0857  0.1135  0.8764
  179MPD1    H7 2737   4.210   0.950  14.971 -2.3596  1.6206 -1.8970
  180MPD1     C 2738   2.991   3.234  15.695 -0.7292  0.8036  0.2096
  180MPD1    C1 2739   2.937   3.113  15.658 -0.1137  0.8959  0.0366
  180MPD1    C2 2740   3.004   3.031  15.572 -0.3661 -0.2841 -0.4680
  180MPD1    C3 2741   3.130   3.066  15.532 -0.0766  0.2063  0.0014
  180MPD1    C4 2742   3.181   3.189  15.559  0.6398 -0.7715  0.7070
  180MPD1    C5 2743   3.108   3.270  15.637 -0.2783 -0.0712 -0.3111
  180MPD1     H 2744   2.965   2.935  15.540  1.2636 -0.0279 -3.1703
  180MPD1    H1 2745   3.273   3.230  15.519  1.6580 -1.5987  2.1957
  180MPD1    H2 2746   2.951   3.304  15.768 -0.9548 -1.3760  2.2013
  180MPD1    H3 2747   3.155   3.365  15.657  0.9261 -1.1260  1.9177
  180MPD1     N 2748   3.197   2.978  15.449 -0.0834  0.0783 -0.3757
  180MPD1    H5 2749   3.147   2.891  15.438  0.9105 -0.4403 -0.8524
  180MPD1    N1 2750   2.842   3.053  15.745  0.5445 -0.2686  0.0563
  180MPD1    H6 2751   2.779   2.985  15.703  0.2749 -0.1776  0.3140
  180MPD1    H7 2752   2.782   3.125  15.784  1.3263 -0.2204  1.1738
  181MPD1     C 2753   0.937   3.501  10.544  0.0511 -0.2113  0.6902
  181MPD1    C1 2754   0.935   3.638  10.562  0.2151  0.8485 -0.0293
  181MPD1    C2 2755   1.025   3.713  10.490 -0.6377  0.6369  0.1538
  181MPD1    C3 2756   1.128   3.651  10.422 -0.1819  0.2800 -0.6591
  181MPD1    C4 2757   1.131   3.511  10.407 -0.2895 -0.8564  0.3327
  181MPD1    C5 2758   1.034   3.444  10.469  0.4413 -0.2976  0.2362
  181MPD1     H 2759   1.020   3.822  10.487  1.3575  0.7306  0.3043
  181MPD1    H1 2760   1.208   3.462  10.348 -0.1852 -2.7192  2.0428
  181MPD1    H2 2761   0.870   3.436  10.599  0.4493 -1.4658 -0.3186
  181MPD1    H3 2762   1.038   3.336  10.462  0.0933 -0.3286  0.4812
  181MPD1     N 2763   1.234   3.724  10.361 -0.1993  0.1364  0.2540
  181MPD1    H5 2764   1.299   3.679  10.297 -0.5195 -0.3825  0.2891
  181MPD1    N1 2765   0.832   3.696  10.631 -0.4239 -0.3331 -0.1968
  181MPD1    H6 2766   0.843   3.796  10.615 -2.8684 -0.5054 -2.9019
  181MPD1    H7 2767   0.847   3.687  10.731 -0.7387  1.0986 -0.0227
  182MPD1     C 2768   1.257   3.332   1.450  0.1146  1.0162  0.1442
  182MPD1    C1 2769   1.199   3.456   1.459 -0.1126  0.5015 -0.0526
  182MPD1    C2 2770   1.123   3.517   1.355  0.1960  0.5387 -0.0718
  182MPD1    C3 2771   1.125   3.459   1.233 -0.0251 -0.1443 -0.0515
  182MPD1    C4 2772   1.186   3.337   1.218 -0.4991  0.5599  0.3048
  182MPD1    C5 2773   1.247   3.280   1.325  0.2603  0.0778  0.3709
  182MPD1     H 2774   1.071   3.610   1.376  2.5747  1.6226  1.1527
  182MPD1    H1 2775   1.188   3.284   1.123  0.4206 -0.7249  1.0450
  182MPD1    H2 2776   1.306   3.278   1.530 -1.4397 -0.4781  0.0959
  182MPD1    H3 2777   1.279   3.180   1.298 -2.7210 -0.4960 -1.0579
  182MPD1     N 2778   1.067   3.521   1.118 -0.2334  0.1821 -0.1557
  182MPD1    H5 2779   1.064   3.466   1.033  0.8421 -1.3050  0.7561
  182MPD1    N1 2780   1.187   3.502   1.591  0.4133  0.6028  0.1043
  182MPD1    H6 2781   1.110   3.459   1.641 -0.9466  0.3003 -2.2480
  182MPD1    H7 2782   1.170   3.600   1.615  0.9015  0.6042  0.4474
  183MPD1     C 2783   1.787   4.456  10.304 -0.3919 -0.9519 -0.2193
  183MPD1    C1 2784   1.864   4.558  10.248  0.0460 -0.0582 -0.6597
  183MPD1    C2 2785   1.985   4.526  10.201  0.5426  0.3471  0.2820
  183MPD1    C3 2786   2.026   4.394  10.181 -0.0873  0.5479  0.2735
  183MPD1    C4 2787   1.945   4.290  10.226  0.1992 -0.1784  0.1106
  183MPD1    C5 2788   1.828   4.324  10.290  0.1233 -0.2261  0.5120
  183MPD1     H 2789   2.058   4.598  10.166  0.3414  0.9748  1.1680
  183MPD1    H1 2790   1.978   4.187  10.229  1.6467  0.2763 -0.1228
  183MPD1    H2 2791   1.694   4.468  10.358 -1.7496  0.3805 -2.8842
  183MPD1    H3 2792   1.771   4.242  10.330  1.7393 -1.2615  0.6979
  183MPD1     N 2793   2.146   4.370  10.125 -0.0414  0.0859  0.0407
  183MPD1    H5 2794   2.202   4.451  10.098 -2.2241  0.6343 -2.8942
  183MPD1    N1 2795   1.818   4.691  10.257 -0.5673 -0.0367 -0.2061
  183MPD1    H6 2796   1.858   0.027  10.184  3.1135 -0.8422  1.1770
  183MPD1    H7 2797   1.719   4.712  10.259 -0.6510 -0.2442 -1.9304
  184MPD1     C 2798   1.008   1.834  10.343 -0.4098  0.3904 -1.0247
  184MPD1    C1 2799   1.137   1.794  10.363 -0.0515  0.5032  0.4464
  184MPD1    C2 2800   1.234   1.827  10.270  0.7207  0.7509  0.0312
  184MPD1    C3 2801   1.198   1.884  10.147 -0.3726 -0.3494 -0.6910
  184MPD1    C4 2802   1.065   1.916  10.122 -0.1899  0.5928 -0.0661
  184MPD1    C5 2803   0.974   1.888  10.223  0.1666  0.7814  0.6880
  184MPD1     H 2804   1.338   1.819  10.300  0.4016  1.9375  1.4310
  184MPD1    H1 2805   1.014   1.945  10.032 -0.0342 -2.0660 -1.0216
  184MPD1    H2 2806   0.930   1.797  10.408  2.1539  1.6363  2.7323
  184MPD1    H3 2807   0.869   1.910  10.209  0.2698  0.7348 -0.1793
  184MPD1     N 2808   1.288   1.911  10.044  0.0370  0.0508  0.2328
  184MPD1    H5 2809   1.248   1.945   9.957  1.6549  1.4741  0.0480
  184MPD1    N1 2810   1.174   1.740  10.490  0.0201  0.1925  0.6506
  184MPD1    H6 2811   1.098   1.681  10.524 -2.0260  2.3190 -0.1663
  184MPD1    H7 2812   1.256   1.682  10.477  0.2255  0.3896  1.0761
  185MPD1     C 2813   1.135   1.838   9.179  0.2792  0.6392  0.0462
  185MPD1    C1 2814   1.264   1.898   9.179  0.0248  1.0688  0.1658
  185MPD1    C2 2815   1.328   1.926   9.298 -0.6093 -0.0593 -0.9171
  185MPD1    C3 2816   1.267   1.898   9.421 -0.0891 -0.3744  0.5495
  185MPD1    C4 2817   1.144   1.839   9.414  0.5624  0.3712 -0.2309
  185MPD1    C5 2818   1.085   1.810   9.302  0.2432 -0.2566 -0.7924
  185MPD1     H 2819   1.429   1.966   9.293 -0.5247 -0.0458  0.8082
  185MPD1    H1 2820   1.087   1.816   9.504  2.0349  1.9830  1.1219
  185MPD1    H2 2821   1.073   1.816   9.093  0.2588 -1.6042  0.6258
  185MPD1    H3 2822   0.986   1.766   9.301 -0.7010  1.8396  0.4646
  185MPD1     N 2823   1.328   1.918   9.549 -0.5607  0.1003  0.2602
  185MPD1    H5 2824   1.277   1.913   9.636 -1.6954 -2.0837 -0.5181
  185MPD1    N1 2825   1.331   1.922   9.058  0.0875  0.2398 -0.4501
  185MPD1    H6 2826   1.261   1.937   8.987  1.0605 -2.6705 -2.0187
  185MPD1    H7 2827   1.388   2.006   9.061  0.8520 -0.2773 -0.2821
  186MPD1     C 2828   3.626   1.725  15.821 -0.5633  0.1483  0.2955
  186MPD1    C1 2829   3.734   1.807  15.814  0.2497  0.4599 -0.4237
  186MPD1    C2 2830   3.770   1.889  15.920 -0.7991  0.6084  0.2495
  186MPD1    C3 2831   3.690   1.885  16.030  0.2149  0.4822 -0.9253
  186MPD1    C4 2832   3.574   1.810  16.035  0.0032 -0.1410 -0.4454
  186MPD1    C5 2833   3.543   1.731  15.927 -0.9999 -0.8137 -0.1723
  186MPD1     H 2834   3.857   1.953  15.915 -0.6265  0.1555 -2.8599
  186MPD1    H1 2835   3.519   1.806  16.129 -1.0155 -0.1898 -1.0436
  186MPD1    H2 2836   3.613   1.649  15.744 -1.8622  0.6270  0.0408
  186MPD1    H3 2837   3.449   1.677  15.922 -0.5545 -1.3228 -2.9662
  186MPD1     N 2838   3.728   1.966  16.140  0.8381 -0.0413  0.4671
  186MPD1    H5 2839   3.811   2.023  16.136  1.8086 -1.4259  1.1111
  186MPD1    N1 2840   3.829   1.785  15.712 -0.2207  0.5121  0.0655
  186MPD1    H6 2841   3.781   1.757  15.627  0.4202  1.5808 -0.6473
  186MPD1    H7 2842   3.887   1.867  15.699  0.9623 -0.4482 -0.7329
  187MPD1     C 2843   3.145   3.401   0.590  1.3229 -0.3347  0.3181
  187MPD1    C1 2844   3.207   3.519   0.568  0.3905  0.2850 -0.4989
  187MPD1    C2 2845   3.184   3.585   0.450  0.1134 -0.2362  0.4472
  187MPD1    C3 2846   3.088   3.538   0.360  0.3769  0.1242 -0.2342
  187MPD1    C4 2847   3.022   3.419   0.389  0.1135 -0.5365  0.4157
  187MPD1    C5 2848   3.052   3.353   0.507  0.7637  0.2536 -0.9616
  187MPD1     H 2849   3.245   3.671   0.425  2.0196 -1.1721  1.8494
  187MPD1    H1 2850   2.947   3.375   0.325 -0.0384  1.2086 -0.6116
  187MPD1    H2 2851   3.175   3.341   0.675  0.7774 -1.0497  0.0077
  187MPD1    H3 2852   3.002   3.257   0.507 -2.2083  1.7609  0.8839
  187MPD1     N 2853   3.063   3.592   0.230 -0.6705  0.5050 -0.5971
  187MPD1    H5 2854   3.000   3.543   0.168 -1.1287  0.4514 -0.0890
  187MPD1    N1 2855   3.316   3.565   0.646 -0.4700  0.0122  0.2490
  187MPD1    H6 2856   3.314   3.666   0.651  1.0500  0.0418  0.3077
  187MPD1    H7 2857   3.313   3.517   0.736 -2.5238 -1.8293 -0.7995
  188MPD1     C 2858   3.137   3.494   9.609 -0.2966  0.4452 -0.6672
  188MPD1    C1 2859   3.237   3.491   9.710  0.1907 -0.1867  0.5208
  188MPD1    C2 2860   3.279   3.364   9.750 -1.5393 -0.8486  1.2109
  188MPD1    C3 2861   3.209   3.250   9.720 -0.2182  0.6797  0.9276
  188MPD1    C4 2862   3.093   3.269   9.644 -0.4985 -0.6312  0.2630
  188MPD1    C5 2863   3.066   3.385   9.576 -0.2831  0.0544 -0.4212
  188MPD1     H 2864   3.374   3.353   9.801 -0.1898 -0.7280 -1.2811
  188MPD1    H1 2865   3.030   3.184   9.620  0.8592 -1.4724 -0.3043
  188MPD1    H2 2866   3.107   3.586   9.560 -1.9775 -0.8119 -2.0054
  188MPD1    H3 2867   2.987   3.384   9.502 -0.0299 -0.2214 -0.6905
  188MPD1     N 2868   3.235   3.121   9.770  0.1940  0.2394 -0.2195
  188MPD1    H5 2869   3.182   3.046   9.725  1.4931 -1.0927  0.4910
  188MPD1    N1 2870   3.318   3.603   9.733  0.5279  0.0757  0.1932
  188MPD1    H6 2871   3.266   3.690   9.722 -0.2215 -0.5023 -0.8891
  188MPD1    H7 2872   3.360   3.598   9.826  0.6033  0.3966  0.1760
  189MPD1     C 2873   0.704   4.211   0.063 -0.0026 -0.1809 -0.5062
  189MPD1    C1 2874   0.598   4.128   0.065  0.2303 -0.2730 -0.2711
  189MPD1    C2 2875   0.478   4.178   0.123 -0.4406 -0.5679 -0.6026
  189MPD1    C3 2876   0.468   4.312   0.147 -0.8396 -0.0790 -0.0087
  189MPD1    C4 2877   0.576   4.395   0.139 -0.7732 -0.4360  0.0769
  189MPD1    C5 2878   0.694   4.344   0.096 -0.0072  0.0411 -1.0514
  189MPD1     H 2879   0.396   4.110   0.142 -0.9717  0.6022  1.3702
  189MPD1    H1 2880   0.578   4.494   0.182 -1.3434  0.2692 -1.5510
  189MPD1    H2 2881   0.804   4.177   0.041  0.8442  1.1131  1.3213
  189MPD1    H3 2882   0.778   4.413   0.108 -0.6192  0.7911 -1.0590
  189MPD1     N 2883   0.341   4.354   0.203 -0.0933 -0.4474 -0.0642
  189MPD1    H5 2884   0.270   4.283   0.216  0.6476 -0.9626  1.1502
  189MPD1    N1 2885   0.617   3.992   0.048 -0.2503  0.0872 -0.8074
  189MPD1    H6 2886   0.539   3.936   0.013  0.2876 -1.5807  0.6603
  189MPD1    H7 2887   0.692   3.971  17.673 -1.6025  0.7912 -2.5882
  190MPD1     C 2888   3.808   2.403  16.062  0.0887 -0.0573  0.2491
  190MPD1    C1 2889   3.861   2.410  15.935  0.4538  0.1266 -0.3142
  190MPD1    C2 2890   3.876   2.540  15.879 -0.0633  0.5513 -0.4510
  190MPD1    C3 2891   3.849   2.652  15.949  0.3910 -0.4923 -0.1218
  190MPD1    C4 2892   3.790   2.640  16.071 -0.2061  0.0470 -0.9780
  190MPD1    C5 2893   3.769   2.517  16.124  0.5756  0.4727  0.2424
  190MPD1     H 2894   3.905   2.536  15.774  0.5491  1.0852 -0.3015
  190MPD1    H1 2895   3.750   2.723  16.129 -0.6128 -0.0328 -1.1460
  190MPD1    H2 2896   3.792   2.309  16.115  2.3985 -1.5919 -1.7936
  190MPD1    H3 2897   3.735   2.503  16.226 -1.2187 -3.7647 -0.9179
  190MPD1     N 2898   3.884   2.772  15.885 -0.0741 -0.0747  0.3993
  190MPD1    H5 2899   3.941   2.755  15.803 -1.3527 -1.4353 -0.2081
  190MPD1    N1 2900   3.880   2.292  15.864 -0.3070  0.1473 -0.5336
  190MPD1    H6 2901   3.970   2.308  15.818  0.7306  0.9847  1.7581
  190MPD1    H7 2902   3.903   2.217  15.929 -1.3492 -2.8057 -3.6432
  191MPD1     C 2903   3.120   4.599  13.456  1.1920  0.5637  0.4030
  191MPD1    C1 2904   3.229   4.665  13.411 -0.4930  0.1080  0.4309
  191MPD1    C2 2905   3.210   0.023  13.300 -0.2638  0.3749 -0.2836
  191MPD1    C3 2906   3.091   0.050  13.240  0.2158  0.1745 -0.2457
  191MPD1    C4 2907   2.982   4.715  13.295  0.1266  0.6689  0.3929
  191MPD1    C5 2908   2.998   4.627  13.399 -0.1155 -0.0298 -0.0916
  191MPD1     H 2909   3.298   0.080  13.270  0.4840 -0.8360 -0.3937
  191MPD1    H1 2910   2.886   0.009  13.248  0.6435  0.4494 -0.7169
  191MPD1    H2 2911   3.127   4.522  13.533  2.1561 -0.5393 -0.7871
  191MPD1    H3 2912   2.911   4.586  13.449  1.1688 -0.8760  1.4670
  191MPD1     N 2913   3.088   0.112  13.115 -1.1193 -0.5620  0.0720
  191MPD1    H5 2914   3.164   0.177  13.097  1.5352 -2.9243  2.5759
  191MPD1    N1 2915   3.354   4.631  13.454  0.2144  0.1678 -0.0834
  191MPD1    H6 2916   3.421   4.708  13.454  0.8888 -0.4106  0.5117
  191MPD1    H7 2917   3.346   4.598  13.550 -1.1871  2.3512  0.5661
  192MPD1     C 2918   2.357   0.644  12.505  0.4533  0.7097  0.6554
  192MPD1    C1 2919   2.351   0.523  12.559  0.3429 -0.6697 -0.8805
  192MPD1    C2 2920   2.461   0.474  12.632 -0.0468 -0.2801  0.0499
  192MPD1    C3 2921   2.578   0.548  12.635  0.2500  0.5013 -0.0239
  192MPD1    C4 2922   2.580   0.669  12.572 -0.2225 -0.5312 -0.2703
  192MPD1    C5 2923   2.464   0.716  12.517 -0.3815  0.0804  0.3302
  192MPD1     H 2924   2.448   0.383  12.690  0.0671 -0.9037 -0.9052
  192MPD1    H1 2925   2.672   0.725  12.557 -0.7319  0.3902  0.0450
  192MPD1    H2 2926   2.269   0.674  12.450 -0.1009  0.3161  1.3338
  192MPD1    H3 2927   2.461   0.816  12.475  1.8443 -0.3827 -0.9126
  192MPD1     N 2928   2.691   0.501  12.699  0.0569 -0.4904 -0.0426
  192MPD1    H5 2929   2.778   0.553  12.685  0.8420 -1.6296  0.5748
  192MPD1    N1 2930   2.225   0.451  12.558 -0.3492  0.0347  0.1582
  192MPD1    H6 2931   2.224   0.349  12.567  0.7671 -0.1413 -1.7690
  192MPD1    H7 2932   2.172   0.475  12.475 -1.4310  3.0539  1.7219
  193MPD1     C 2933   2.291   0.193  16.471  0.0279  0.5776  0.1166
  193MPD1    C1 2934   2.427   0.175  16.477 -0.1177 -0.6773  0.9455
  193MPD1    C2 2935   2.490   0.219  16.598 -0.0529  0.7245  0.4704
  193MPD1    C3 2936   2.428   0.310  16.686  0.1676  0.5352  0.2806
  193MPD1    C4 2937   2.288   0.329  16.667  0.6169  0.5581  0.1221
  193MPD1    C5 2938   2.225   0.266  16.567 -0.0941 -0.5967  0.0572
  193MPD1     H 2939   2.592   0.183  16.608  0.0466  0.6763 -0.7530
  193MPD1    H1 2940   2.226   0.397  16.725 -0.6731 -1.4829  1.1123
  193MPD1    H2 2941   2.219   0.145  16.406  0.8030 -1.3392  0.6694
  193MPD1    H3 2942   2.119   0.282  16.555  0.1424  1.0444  0.1520
  193MPD1     N 2943   2.496   0.381  16.789  0.1990 -0.1970  0.1849
  193MPD1    H5 2944   2.436   0.436  16.849  1.4293  2.5493 -1.0356
  193MPD1    N1 2945   2.491   0.082  16.396  0.6682 -0.4079  0.5821
  193MPD1    H6 2946   2.592   0.091  16.389  0.4680  1.4781  0.1818
  193MPD1    H7 2947   2.445   0.084  16.305  0.3880  0.9190  0.7542
  194MPD1     C 2948   0.917   2.639  16.890 -0.0058 -0.2080 -0.5911
  194MPD1    C1 2949   1.009   2.660  16.989 -0.2233 -0.1584 -0.1247
  194MPD1    C2 2950   1.050   2.551  17.066 -1.0938 -0.4125 -0.4943
  194MPD1    C3 2951   0.991   2.433  17.049  0.3544  0.7659 -0.5420
  194MPD1    C4 2952   0.900   2.410  16.947 -0.3916  0.6645 -0.2000
  194MPD1    C5 2953   0.858   2.517  16.873  0.8519  0.0214 -0.0223
  194MPD1     H 2954   1.122   2.557  17.147  0.0267 -0.9921 -1.4625
  194MPD1    H1 2955   0.854   2.313  16.931  1.1489  0.0330 -0.7897
  194MPD1    H2 2956   0.870   2.720  16.835  0.0991 -0.2920 -0.8043
  194MPD1    H3 2957   0.774   2.512  16.804 -0.4800 -1.7272  1.7448
  194MPD1     N 2958   1.013   2.319  17.134 -0.2887  0.0643  0.0246
  194MPD1    H5 2959   0.965   2.235  17.103 -0.8690  0.0387  1.0259
  194MPD1    N1 2960   1.073   2.784  16.997  0.5420 -0.6260  0.2240
  194MPD1    H6 2961   1.112   2.804  17.089  2.1760 -2.5832 -0.0661
  194MPD1    H7 2962   1.005   2.856  16.972  2.2637  1.5693  1.8482
  195MPD1     C 2963   2.630   3.838   1.702 -0.1587  0.5963  0.1813
  195MPD1    C1 2964   2.539   3.876   1.606 -0.3914  0.4536 -0.4171
  195MPD1    C2 2965   2.565   3.828   1.479 -0.5009  0.1945  0.1204
  195MPD1    C3 2966   2.685   3.758   1.441  0.0783  0.8889 -0.2248
  195MPD1    C4 2967   2.778   3.736   1.538 -0.2042  0.3904  0.4949
  195MPD1    C5 2968   2.749   3.774   1.664  0.0937 -0.2265  0.1153
  195MPD1     H 2969   2.485   3.858   1.412 -0.7193  0.0655  0.3247
  195MPD1    H1 2970   2.874   3.690   1.520  0.5277  1.6301  1.2201
  195MPD1    H2 2971   2.612   3.866   1.805  1.0299 -0.2698  0.6320
  195MPD1    H3 2972   2.828   3.741   1.730  1.6582  1.0849 -1.1217
  195MPD1     N 2973   2.707   3.712   1.314  0.3097  0.2138  0.3624
  195MPD1    H5 2974   2.798   3.670   1.296 -0.5705 -0.7711 -1.8558
  195MPD1    N1 2975   2.409   3.909   1.649  0.4531  0.0953  0.4559
  195MPD1    H6 2976   2.407   3.944   1.745 -0.5311 -0.3701  0.6069
  195MPD1    H7 2977   2.355   3.963   1.582 -0.0976  1.1976  1.7858
  196MPD1     C 2978   1.587   2.876   0.541  0.2238  0.3468  0.0357
  196MPD1    C1 2979   1.633   3.000   0.518  0.3160  0.1338  0.3006
  196MPD1    C2 2980   1.695   3.067   0.618 -0.2868  0.2330 -0.3732
  196MPD1    C3 2981   1.707   3.024   0.749 -0.4186 -0.0616  0.2051
  196MPD1    C4 2982   1.667   2.887   0.770  0.0192  0.7623 -0.6789
  196MPD1    C5 2983   1.608   2.818   0.667  0.1882 -0.4549  0.9247
  196MPD1     H 2984   1.728   3.169   0.600  1.1649 -0.2543 -0.4357
  196MPD1    H1 2985   1.672   2.834   0.865  1.4367  0.9696 -0.6411
  196MPD1    H2 2986   1.542   2.818   0.461  2.2243 -0.6185 -0.3784
  196MPD1    H3 2987   1.582   2.715   0.683  1.7633 -1.1474 -0.9003
  196MPD1     N 2988   1.747   3.101   0.862 -1.2675 -0.3175  0.0475
  196MPD1    H5 2989   1.762   3.057   0.952 -0.6997  0.9486  0.5677
  196MPD1    N1 2990   1.648   3.049   0.389 -0.0440  0.4254  0.2822
  196MPD1    H6 2991   1.576   3.016   0.326  0.2433 -0.3834  0.3765
  196MPD1    H7 2992   1.660   3.150   0.381 -0.9352  0.5164  0.1577
  197MPD1     C 2993   1.262   0.579   0.127  0.0541 -0.0904 -0.3825
  197MPD1    C1 2994   1.390   0.563   0.163 -0.1520 -0.9261 -0.8062
  197MPD1    C2 2995   1.489   0.629   0.096 -0.2764  0.4159 -0.2849
  197MPD1    C3 2996   1.463   0.698  17.671  0.5973 -0.0010  0.1461
  197MPD1    C4 2997   1.326   0.700  17.626 -0.1362  0.5557  0.2245
  197MPD1    C5 2998   1.222   0.646   0.012  0.8536  0.0363 -0.7349
  197MPD1     H 2999   1.583   0.642   0.147 -0.1206  0.2654 -0.5343
  197MPD1    H1 3000   1.303   0.749  17.532 -1.4764 -0.9287 -0.2280
  197MPD1    H2 3001   1.188   0.544   0.198 -0.6123  3.9908  0.9506
  197MPD1    H3 3002   1.120   0.661  17.667  0.5599 -2.2506 -0.8620
  197MPD1     N 3003   1.565   0.755  17.589 -0.2049 -0.0405 -0.2020
  197MPD1    H5 3004   1.534   0.792  17.499 -0.3100  0.0156 -0.1438
  197MPD1    N1 3005   1.422   0.507   0.287  0.6404 -0.0717 -0.8812
  197MPD1    H6 3006   1.354   0.433   0.301  1.6968 -1.4948 -3.2678
  197MPD1    H7 3007   1.518   0.476   0.281  0.8341  0.4414 -0.4505
  198MPD1     C 3008   3.265   4.322  15.757  0.0600 -0.3744 -0.6968
  198MPD1    C1 3009   3.374   4.310  15.681  0.1177 -0.3972  0.6346
  198MPD1    C2 3010   3.498   4.299  15.738  0.2901 -0.4571 -0.1619
  198MPD1    C3 3011   3.511   4.325  15.876 -0.4946  0.0377 -0.5679
  198MPD1    C4 3012   3.396   4.340  15.955  0.1586 -0.0240  1.0417
  198MPD1    C5 3013   3.274   4.338  15.895  0.1060 -0.1124  0.3014
  198MPD1     H 3014   3.592   4.277  15.689  1.3441  2.6209  0.4718
  198MPD1    H1 3015   3.402   4.358  16.061 -0.3225 -1.5757  1.3184
  198MPD1    H2 3016   3.164   4.323  15.720  1.4325  1.2919 -4.3429
  198MPD1    H3 3017   3.190   4.355  15.961 -1.7894 -3.4387 -1.2738
  198MPD1     N 3018   3.638   4.313  15.936 -0.6515  0.1114 -0.3395
  198MPD1    H5 3019   3.710   4.284  15.872  1.8103  1.8518  1.6220
  198MPD1    N1 3020   3.351   4.279  15.542  0.3255 -0.9123  0.1536
  198MPD1    H6 3021   3.268   4.325  15.503  0.5554 -2.1968 -1.8621
  198MPD1    H7 3022   3.432   4.313  15.490 -0.4904 -1.5351 -1.5198
  199MPD1     C 3023   1.587   3.475   9.637  0.2408  0.2667 -0.4383
  199MPD1    C1 3024   1.450   3.459   9.653 -0.2245 -0.6565  0.5774
  199MPD1    C2 3025   1.374   3.561   9.708  0.0732  0.0249 -0.2906
  199MPD1    C3 3026   1.432   3.674   9.764 -0.2672 -0.3247 -0.1661
  199MPD1    C4 3027   1.567   3.693   9.740  0.0245 -0.9029  0.0041
  199MPD1    C5 3028   1.641   3.593   9.686 -0.2235  0.3986  0.5385
  199MPD1     H 3029   1.266   3.548   9.712 -0.1169  1.8756  0.4461
  199MPD1    H1 3030   1.628   3.769   9.788 -1.4386 -0.1940  0.7278
  199MPD1    H2 3031   1.645   3.397   9.589 -0.3168 -0.2127 -0.3264
  199MPD1    H3 3032   1.748   3.601   9.699  0.2670 -1.6303 -2.2875
  199MPD1     N 3033   1.352   3.767   9.834 -0.4412  0.5707 -0.4632
  199MPD1    H5 3034   1.255   3.739   9.841 -0.6298  0.5430 -3.1690
  199MPD1    N1 3035   1.381   3.361   9.581 -0.3195 -0.2893  0.4010
  199MPD1    H6 3036   1.293   3.337   9.627 -0.2900  0.4853  0.8532
  199MPD1    H7 3037   1.440   3.280   9.596  2.1790  1.1934 -1.4064
  200MPD1     C 3038   4.395   0.500  15.240  0.1916 -0.1922 -0.6791
  200MPD1    C1 3039   4.476   0.387  15.257  0.5430  0.0937 -0.0286
  200MPD1    C2 3040   4.589   0.381  15.185  0.6956 -0.1033  0.0292
  200MPD1    C3 3041   4.623   0.483  15.097  0.2568 -0.5379  0.3537
  200MPD1    C4 3042   4.549   0.600  15.089  0.2619  0.1676  0.3801
  200MPD1    C5 3043   4.429   0.600  15.155  0.1139 -0.0174  0.2984
  200MPD1     H 3044   4.648   0.293  15.205  0.1534 -0.4946 -0.0738
  200MPD1    H1 3045   4.577   0.682  15.024  0.9446 -0.2230  0.1905
  200MPD1    H2 3046   4.299   0.505  15.291  0.3216  0.7816 -0.5225
  200MPD1    H3 3047   4.361   0.684  15.148 -1.1076 -1.1444 -1.4319
  200MPD1     N 3048   0.016   0.460  15.011  0.1916 -0.1235  0.0014
  200MPD1    H5 3049   0.064   0.371  15.007  1.2731  0.4224  0.8491
  200MPD1    N1 3050   4.455   0.294  15.361 -0.0284  0.5331  0.0851
  200MPD1    H6 3051   4.355   0.279  15.374  0.1536  1.5263  2.7037
  200MPD1    H7 3052   4.497   0.213  15.317  1.0802  1.4405 -0.5266
  201MPD1     C 3053   2.376   3.925  13.561 -0.4911 -0.1401  0.4139
  201MPD1    C1 3054   2.482   3.988  13.622  0.2410  0.2249 -0.3039
  201MPD1    C2 3055   2.604   3.997  13.554  0.2890 -0.7791  0.5936
  201MPD1    C3 3056   2.617   3.957  13.425  0.4079  0.6581 -0.2362
  201MPD1    C4 3057   2.501   3.918  13.354 -0.5640 -0.6326 -0.0923
  201MPD1    C5 3058   2.384   3.895  13.429 -0.1461 -1.0592  1.1114
  201MPD1     H 3059   2.693   4.041  13.599 -0.4361  1.9758 -0.6339
  201MPD1    H1 3060   2.501   3.894  13.248 -0.6411 -3.9222  0.6487
  201MPD1    H2 3061   2.277   3.921  13.606 -1.6102  1.0928 -1.8857
  201MPD1    H3 3062   2.294   3.857  13.381  1.0873  1.0023 -2.7639
  201MPD1     N 3063   2.744   3.961  13.369 -0.1868  0.2430 -0.6079
  201MPD1    H5 3064   2.810   3.977  13.444 -2.4238 -0.6080  1.5507
  201MPD1    N1 3065   2.472   4.019  13.759 -0.3000  0.5163 -0.5517
  201MPD1    H6 3066   2.533   4.099  13.775  0.6449 -0.2149 -0.4966
  201MPD1    H7 3067   2.377   4.051  13.778  0.8728  3.2285  0.6310
  202MPD1     C 3068   2.230   3.211   9.475 -0.0621  0.5496  0.1712
  202MPD1    C1 3069   2.291   3.332   9.491  0.2009  0.2780  0.5385
  202MPD1    C2 3070   2.411   3.327   9.558 -0.4307 -0.0926 -0.4615
  202MPD1    C3 3071   2.453   3.219   9.627  0.3160  0.3529  0.2066
  202MPD1    C4 3072   2.372   3.111   9.636 -0.3288 -0.4696  0.0683
  202MPD1    C5 3073   2.265   3.114   9.556  0.0147 -0.1524  0.5491
  202MPD1     H 3074   2.474   3.415   9.550  0.1667 -0.3066  2.0797
  202MPD1    H1 3075   2.399   3.016   9.681 -1.1994 -1.0563 -0.6580
  202MPD1    H2 3076   2.142   3.196   9.415  1.1338  1.3988 -1.7805
  202MPD1    H3 3077   2.209   3.021   9.550 -1.3134  0.7944 -1.8734
  202MPD1     N 3078   2.585   3.214   9.698 -0.9257  0.3381  0.3695
  202MPD1    H5 3079   2.605   3.130   9.752 -2.3395 -0.0927  0.2313
  202MPD1    N1 3080   2.267   3.429   9.397 -0.3385 -0.0303  0.7936
  202MPD1    H6 3081   2.301   3.518   9.433 -0.3217  0.6855 -0.9767
  202MPD1    H7 3082   2.169   3.444   9.371 -0.5786 -0.2429  1.5809
  203MPD1     C 3083   1.468   0.590  13.283 -0.1832 -0.0655 -0.3927
  203MPD1    C1 3084   1.463   0.500  13.388  0.3788  0.3119 -1.0769
  203MPD1    C2 3085   1.461   0.365  13.360  0.3659  0.5325 -0.4185
  203MPD1    C3 3086   1.462   0.317  13.227  0.1573 -0.0273  0.3190
  203MPD1    C4 3087   1.473   0.405  13.124  0.5049  0.0018  0.1280
  203MPD1    C5 3088   1.470   0.536  13.153 -0.0343 -0.2126 -0.1683
  203MPD1     H 3089   1.467   0.293  13.440 -0.5450 -0.2550 -1.0561
  203MPD1    H1 3090   1.483   0.373  13.021 -0.5126  1.9647 -0.5958
  203MPD1    H2 3091   1.470   0.697  13.302 -1.0024 -0.0848 -0.1745
  203MPD1    H3 3092   1.478   0.613  13.077  0.6179  1.3826  1.5115
  203MPD1     N 3093   1.461   0.177  13.207 -0.3975 -0.1451 -0.5408
  203MPD1    H5 3094   1.498   0.127  13.287  0.9656  2.9549  0.7336
  203MPD1    N1 3095   1.483   0.550  13.518  0.0346 -0.0196 -0.1212
  203MPD1    H6 3096   1.446   0.488  13.589  1.5530  0.3237  0.9556
  203MPD1    H7 3097   1.474   0.649  13.539  0.0496 -0.2051  0.7467
  204MPD1     C 3098   4.264   0.786  17.475  0.0666 -0.0318  0.7132
  204MPD1    C1 3099   4.377   0.826  17.399 -0.2707 -0.3684 -0.1879
  204MPD1    C2 3100   4.463   0.722  17.359  0.7153  0.1720 -0.1803
  204MPD1    C3 3101   4.455   0.597  17.403  0.1271 -0.0361 -0.0580
  204MPD1    C4 3102   4.352   0.567  17.496 -0.5181  0.0619 -0.6039
  204MPD1    C5 3103   4.267   0.661  17.529  0.2887  0.0424 -0.3072
  204MPD1     H 3104   4.542   0.744  17.288  1.4034  1.9321  1.1406
  204MPD1    H1 3105   4.326   0.470  17.539 -0.8170  0.8679  1.0315
  204MPD1    H2 3106   4.192   0.860  17.509  0.3610  0.9250 -0.7328
  204MPD1    H3 3107   4.193   0.628  17.602  0.1414  1.3888  0.1421
  204MPD1     N 3108   4.547   0.510  17.335  0.4923  0.1509 -0.4476
  204MPD1    H5 3109   4.610   0.557  17.270  0.4861 -1.3927 -1.5613
  204MPD1    N1 3110   4.402   0.962  17.382  0.1068  0.5962  0.1297
  204MPD1    H6 3111   4.463   0.971  17.301 -0.2460 -2.6407 -0.5079
  204MPD1    H7 3112   4.314   1.013  17.370  0.3740  1.1222  0.3972
  205MPD1     C 3113   1.254   4.663  16.843  0.0021 -0.5170 -0.9273
  205MPD1    C1 3114   1.316   4.558  16.910 -0.0101  0.8656  0.6114
  205MPD1    C2 3115   1.243   4.495  17.009 -0.8589 -0.0914  0.6546
  205MPD1    C3 3116   1.108   4.528  17.031  0.0669 -0.0726  0.0353
  205MPD1    C4 3117   1.047   4.625  16.954 -0.0510 -0.8567  0.1817
  205MPD1    C5 3118   1.119   4.689  16.858 -0.1228  0.5404  0.5345
  205MPD1     H 3119   1.296   4.422  17.067 -2.0783 -0.4898  1.2748
  205MPD1    H1 3120   0.943   4.653  16.967 -0.2414 -1.0013 -1.0502
  205MPD1    H2 3121   1.320   4.713  16.773 -1.2719  0.4210 -1.4500
  205MPD1    H3 3122   1.075   0.037  16.788 -0.5743 -0.1699  0.1063
  205MPD1     N 3123   1.023   4.471  17.135  0.1546 -0.0568 -0.0974
  205MPD1    H5 3124   0.923   4.480  17.123  0.1155  0.5722  0.7273
  205MPD1    N1 3125   1.456   4.536  16.900  0.3483  0.1590 -0.4577
  205MPD1    H6 3126   1.487   4.442  16.927  0.2329 -0.1187 -1.2760
  205MPD1    H7 3127   1.484   4.561  16.805  0.8825 -0.5913 -0.5039
  206MPD1     C 3128   1.140   2.762  16.421  0.3693 -0.3771 -0.8222
  206MPD1    C1 3129   1.085   2.709  16.528  0.3022 -0.1457  0.6026
  206MPD1    C2 3130   0.963   2.640  16.512 -0.8595  0.0397 -0.5285
  206MPD1    C3 3131   0.915   2.600  16.388  0.7692 -0.3040 -0.4589
  206MPD1    C4 3132   0.997   2.637  16.279 -0.5252  0.0102  0.2034
  206MPD1    C5 3133   1.102   2.720  16.291  0.2250  0.1072 -0.0268
  206MPD1     H 3134   0.902   2.618  16.599 -1.2999  0.6690 -0.6872
  206MPD1    H1 3135   0.962   2.613  16.180  0.6075  1.1470 -0.4763
  206MPD1    H2 3136   1.212   2.843  16.425  1.2634 -1.2288  0.4274
  206MPD1    H3 3137   1.152   2.753  16.201 -1.0317  1.3618 -0.2573
  206MPD1     N 3138   0.797   2.528  16.374 -0.3241 -0.2753 -0.3594
  206MPD1    H5 3139   0.777   2.504  16.277 -0.5989 -2.2524  0.1950
  206MPD1    N1 3140   1.114   2.763  16.645  0.2932 -0.3935  0.4243
  206MPD1    H6 3141   1.092   2.708  16.728 -0.9960 -0.0955  0.2905
  206MPD1    H7 3142   1.211   2.793  16.651  0.0013  0.4082  1.1563
  207MPD1     C 3143   3.088   0.320   9.980 -0.1024 -0.1547 -0.0917
  207MPD1    C1 3144   3.101   0.455  10.017  0.2401 -0.6155  0.2186
  207MPD1    C2 3145   3.194   0.496  10.109  0.2701 -0.5083 -0.1913
  207MPD1    C3 3146   3.264   0.401  10.178 -0.2156 -0.1792  0.6191
  207MPD1    C4 3147   3.249   0.268  10.148 -0.3360 -0.1126  0.0299
  207MPD1    C5 3148   3.155   0.224  10.056  0.0625 -0.1353  0.0039
  207MPD1     H 3149   3.208   0.601  10.129  0.6991 -1.1532  2.9661
  207MPD1    H1 3150   3.315   0.194  10.191 -0.9438 -1.0398 -0.6474
  207MPD1    H2 3151   3.029   0.287   9.895 -1.7521  1.4808  0.4065
  207MPD1    H3 3152   3.155   0.120  10.026 -0.4788 -0.0088 -0.4246
  207MPD1     N 3153   3.355   0.429  10.279 -0.0506 -0.5833  0.1365
  207MPD1    H5 3154   3.395   0.349  10.328  0.2837  0.2149  1.1756
  207MPD1    N1 3155   3.045   0.547   9.927 -0.4855 -0.2235 -0.1867
  207MPD1    H6 3156   3.033   0.638   9.971 -0.5879 -0.5998  0.5627
  207MPD1    H7 3157   2.959   0.523   9.880  0.0024 -1.9481 -0.2102
  208MPD1     C 3158   1.061   2.413  17.686 -0.1132  0.1924  0.2942
  208MPD1    C1 3159   0.979   2.486   0.074 -0.7438  0.1730  0.3565
  208MPD1    C2 3160   0.981   2.626   0.065 -0.0582  0.4868  0.4344
  208MPD1    C3 3161   1.047   2.685  17.646  0.1496  0.2429  0.5824
  208MPD1    C4 3162   1.110   2.607  17.549  0.7497  0.1610  0.4035
  208MPD1    C5 3163   1.122   2.471  17.572 -0.0930  0.9672  0.0109
  208MPD1     H 3164   0.943   2.691   0.143  0.1210  1.0699  0.0384
  208MPD1    H1 3165   1.168   2.647  17.467 -0.6089  1.0311 -0.1338
  208MPD1    H2 3166   1.071   2.306   0.009 -3.2071 -0.4365 -2.2325
  208MPD1    H3 3167   1.192   2.410  17.517  0.0494  1.6313 -0.5365
  208MPD1     N 3168   1.049   2.825  17.646 -0.5732  0.0197  0.2955
  208MPD1    H5 3169   0.999   2.871   0.031 -1.0104 -2.4900  1.5418
  208MPD1    N1 3170   0.916   2.424   0.182  0.0715  0.4898 -0.1982
  208MPD1    H6 3171   0.835   2.478   0.211 -1.7110 -2.2733 -0.1103
  208MPD1    H7 3172   0.870   2.335   0.169  0.9166  0.2045 -1.2258
  209MPD1     C 3173   3.833   3.914  11.183  0.5356 -0.5724 -0.4534
  209MPD1    C1 3174   3.917   3.996  11.113 -0.1851  0.3163  0.5435
  209MPD1    C2 3175   3.923   4.128  11.153 -0.2998  0.7799 -0.5207
  209MPD1    C3 3176   3.839   4.178  11.249 -0.2324  0.1246  0.3597
  209MPD1    C4 3177   3.770   4.093  11.329 -0.3740  0.8664 -0.0309
  209MPD1    C5 3178   3.759   3.959  11.286  0.2639  0.2919 -0.0044
  209MPD1     H 3179   3.987   4.204  11.109  1.4542 -1.2060 -1.4394
  209MPD1    H1 3180   3.705   4.130  11.407 -2.1610 -1.6226 -0.3790
  209MPD1    H2 3181   3.818   3.811  11.152  0.0978 -0.3681 -0.9291
  209MPD1    H3 3182   3.702   3.884  11.340 -0.4527  0.4361 -0.5633
  209MPD1     N 3183   3.844   4.315  11.275 -0.0311  0.2874  0.3185
  209MPD1    H5 3184   3.903   4.364  11.209  0.8536 -3.7781 -1.9040
  209MPD1    N1 3185   4.006   3.944  11.020  0.5769  0.5817  0.2239
  209MPD1    H6 3186   3.967   3.861  10.976 -1.5909  0.5205  2.3104
  209MPD1    H7 3187   4.043   4.009  10.951  0.7902  0.4555  0.2212
  210MPD1     C 3188   3.811   0.517  11.824 -0.2314 -0.4244  0.1056
  210MPD1    C1 3189   3.772   0.394  11.858  0.3328 -0.2620 -0.2241
  210MPD1    C2 3190   3.771   0.299  11.758  0.8260 -0.0741 -0.6425
  210MPD1    C3 3191   3.820   0.325  11.633 -0.3749 -0.7063 -0.3375
  210MPD1    C4 3192   3.864   0.453  11.599  0.1040 -0.3817 -0.1790
  210MPD1    C5 3193   3.850   0.546  11.698  0.1393  0.0897 -0.2752
  210MPD1     H 3194   3.730   0.201  11.781 -0.2697  0.5039 -0.1463
  210MPD1    H1 3195   3.902   0.489  11.504  0.5282  0.1972  0.2154
  210MPD1    H2 3196   3.805   0.607  11.885 -1.1392 -0.0629 -0.5150
  210MPD1    H3 3197   3.886   0.645  11.670 -1.0765  0.3726 -0.8037
  210MPD1     N 3198   3.826   0.228  11.531 -0.5645  0.1230 -0.2149
  210MPD1    H5 3199   3.856   0.264  11.441  1.4835 -2.3398 -0.5122
  210MPD1    N1 3200   3.702   0.375  11.977 -0.3878 -0.0622  0.3262
  210MPD1    H6 3201   3.687   0.281  12.015  1.4576 -1.7626 -3.2046
  210MPD1    H7 3202   3.738   0.434  12.051  2.4660  0.3000 -1.3834
  211MPD1     C 3203   1.757   4.148  16.826 -0.4328  0.3231 -0.0146
  211MPD1    C1 3204   1.705   4.253  16.745  0.5218 -0.9591  0.2820
  211MPD1    C2 3205   1.567   4.256  16.725 -0.0678  0.2935  0.3759
  211MPD1    C3 3206   1.487   4.154  16.769  0.1985  0.0877 -0.3061
  211MPD1    C4 3207   1.538   4.051  16.847  0.1960 -0.1571  0.3654
  211MPD1    C5 3208   1.673   4.053  16.871 -0.0644  0.3126 -0.5832
  211MPD1     H 3209   1.524   4.342  16.674  0.3310 -0.0352 -0.5184
  211MPD1    H1 3210   1.482   3.969  16.891 -0.4314  0.0376 -0.0611
  211MPD1    H2 3211   1.864   4.137  16.841 -0.2464 -0.3699 -1.8122
  211MPD1    H3 3212   1.715   3.974  16.933  0.2407  0.0880 -1.0772
  211MPD1     N 3213   1.351   4.180  16.764  0.3174  0.3054  0.2259
  211MPD1    H5 3214   1.322   4.267  16.720 -1.3533 -0.3931 -0.0779
  211MPD1    N1 3215   1.797   4.338  16.677  0.2345 -0.2629  0.6297
  211MPD1    H6 3216   1.886   4.334  16.725 -0.7466 -0.8757  2.3765
  211MPD1    H7 3217   1.771   4.436  16.666 -1.6308 -0.9752 -1.3963
  212MPD1     C 3218   0.269   2.799  16.709  0.3979 -0.7387 -0.4448
  212MPD1    C1 3219   0.278   2.680  16.638 -0.0291  0.1276  0.2848
  212MPD1    C2 3220   0.162   2.596  16.636 -0.6171  0.1120 -0.7988
  212MPD1    C3 3221   0.039   2.651  16.678 -0.2715 -0.1376 -0.2541
  212MPD1    C4 3222   0.036   2.778  16.728  0.7526 -0.0177  0.1107
  212MPD1    C5 3223   0.147   2.854  16.738  0.5715  0.6682  0.1043
  212MPD1     H 3224   0.159   2.495  16.598 -0.9881  0.3329 -1.3702
  212MPD1    H1 3225   4.662   2.819  16.758  0.6405 -0.7324  0.7603
  212MPD1    H2 3226   0.352   2.869  16.709  0.2189 -0.5216 -1.7461
  212MPD1    H3 3227   0.151   2.955  16.777 -0.8216 -0.7131  3.7966
  212MPD1     N 3228   4.640   2.583  16.682 -0.1591  0.0696 -0.5674
  212MPD1    H5 3229   4.563   2.626  16.733 -1.8086  1.0413 -3.8959
  212MPD1    N1 3230   0.402   2.626  16.592 -0.3021 -0.1915 -0.0411
  212MPD1    H6 3231   0.397   2.593  16.496 -0.2025 -0.4465  0.0425
  212MPD1    H7 3232   0.478   2.693  16.601  0.7087 -1.0123 -2.5699
  213MPD1     C 3233   2.979   3.598  16.012 -0.1231 -0.3340  0.7875
  213MPD1    C1 3234   3.081   3.583  15.921 -0.1302 -0.3715  0.5678
  213MPD1    C2 3235   3.040   3.593  15.788  0.0383  0.0962  0.4362
  213MPD1    C3 3236   2.904   3.571  15.752  0.3812  0.6485 -0.2359
  213MPD1    C4 3237   2.807   3.551  15.845 -0.6678  0.3165  0.5040
  213MPD1    C5 3238   2.847   3.581  15.975 -0.1402 -0.7643  0.4427
  213MPD1     H 3239   3.105   3.610  15.703 -0.3936 -0.7917 -0.0563
  213MPD1    H1 3240   2.700   3.543  15.831 -0.1425 -1.0997 -2.7605
  213MPD1    H2 3241   3.008   3.615  16.115 -0.8694 -0.9347  1.0983
  213MPD1    H3 3242   2.780   3.581  16.061 -2.1842 -2.0657 -1.1472
  213MPD1     N 3243   2.867   3.554  15.616 -0.0589 -0.2750 -0.5082
  213MPD1    H5 3244   2.936   3.570  15.544 -1.0331 -3.9410 -2.2545
  213MPD1    N1 3245   3.213   3.622  15.950 -0.3294  0.3871  0.1041
  213MPD1    H6 3246   3.274   3.590  15.876  1.9871  0.0558  2.1410
  213MPD1    H7 3247   3.215   3.724  15.943 -0.3973  0.3951  0.1975
  214MPD1     C 3248   2.296   3.039  14.844  0.2822 -0.1017 -0.1805
  214MPD1    C1 3249   2.245   3.092  14.961 -0.1532 -0.4751  0.2314
  214MPD1    C2 3250   2.325   3.163  15.042 -0.8687  0.2219 -0.1237
  214MPD1    C3 3251   2.461   3.195  14.998 -0.4150  0.3774 -0.3046
  214MPD1    C4 3252   2.509   3.148  14.877 -0.3159  0.2573 -0.0019
  214MPD1    C5 3253   2.421   3.075  14.801 -0.1421  0.0313  0.5857
  214MPD1     H 3254   2.295   3.182  15.145  2.2783 -0.0835  0.8548
  214MPD1    H1 3255   2.606   3.178  14.838  0.1606 -2.0196 -0.5499
  214MPD1    H2 3256   2.246   2.962  14.787  0.3009  0.2719 -0.7078
  214MPD1    H3 3257   2.454   3.034  14.707  0.1889  2.5788 -0.4200
  214MPD1     N 3258   2.553   3.276  15.060  0.1331  0.0803 -0.2237
  214MPD1    H5 3259   2.642   3.305  15.021  0.7045  0.1779  1.1525
  214MPD1    N1 3260   2.123   3.038  15.007  0.3480 -0.4563 -0.5022
  214MPD1    H6 3261   2.057   3.032  14.930  0.6061  0.2108 -0.7735
  214MPD1    H7 3262   2.077   3.083  15.086 -0.0090 -0.0785 -0.9261
  215MPD1     C 3263   3.521   4.182  10.338  0.4045 -0.0236  0.3042
  215MPD1    C1 3264   3.496   4.316  10.312 -0.1342  0.2874 -0.6195
  215MPD1    C2 3265   3.452   4.400  10.412  0.1862 -0.0870  0.3620
  215MPD1    C3 3266   3.455   4.355  10.545  0.5086 -0.8377 -0.0504
  215MPD1    C4 3267   3.487   4.216  10.570 -0.0625 -0.4631  0.2268
  215MPD1    C5 3268   3.524   4.133  10.467  0.0904 -0.6999  0.0938
  215MPD1     H 3269   3.443   4.506  10.388 -2.0266 -1.1298 -3.3954
  215MPD1    H1 3270   3.487   4.173  10.669 -2.2702 -1.1469 -0.0750
  215MPD1    H2 3271   3.552   4.111  10.263  1.1990  0.2353  0.3875
  215MPD1    H3 3272   3.544   4.029  10.486 -3.1469 -1.5246 -0.9990
  215MPD1     N 3273   3.447   4.456  10.644 -0.6007 -0.3178  0.1312
  215MPD1    H5 3274   3.434   4.550  10.608  2.3445 -0.4353 -1.2945
  215MPD1    N1 3275   3.510   4.358  10.177  1.1006 -0.5330 -0.0224
  215MPD1    H6 3276   3.536   4.457  10.170  2.4229 -0.8662  0.1436
  215MPD1    H7 3277   3.573   4.304  10.118  2.1422  2.6735 -1.8953
  216MPD1     C 3278   0.799   3.054  17.165 -0.3830 -0.2373 -0.0941
  216MPD1    C1 3279   0.755   2.938  17.114  0.0753 -1.1108  0.4844
  216MPD1    C2 3280   0.713   2.844  17.203 -0.9341 -0.2278 -0.3357
  216MPD1    C3 3281   0.728   2.854  17.345 -0.1595 -0.1675  0.0274
  216MPD1    C4 3282   0.787   2.971  17.391 -0.0065 -0.4666 -0.5554
  216MPD1    C5 3283   0.815   3.069  17.298  0.3950 -0.3153  0.0910
  216MPD1     H 3284   0.662   2.754  17.170  0.1026 -1.4221  1.2760
  216MPD1    H1 3285   0.800   2.991  17.496 -2.0066  3.1091 -1.0213
  216MPD1    H2 3286   0.822   3.140  17.104 -0.9145 -0.7316 -1.0023
  216MPD1    H3 3287   0.856   3.168  17.316 -2.7288  0.4312  2.9720
  216MPD1     N 3288   0.663   2.756  17.420  0.4351 -0.2158  0.0198
  216MPD1    H5 3289   0.624   2.674  17.375 -2.4330  1.3541 -0.3364
  216MPD1    N1 3290   0.715   2.934  16.986  0.0238 -0.1896  0.6052
  216MPD1    H6 3291   0.703   2.837  16.955 -1.0053  0.5744 -1.4120
  216MPD1    H7 3292   0.765   2.986  16.914 -0.9350 -1.1508 -0.7727
  217MPD1     C 3293   2.271   2.623   8.594 -0.6270  0.1938 -0.4785
  217MPD1    C1 3294   2.362   2.650   8.687  0.2221 -0.8962  0.6024
  217MPD1    C2 3295   2.319   2.658   8.821 -0.0159 -0.2100 -0.0151
  217MPD1    C3 3296   2.187   2.648   8.857  0.0119  0.8003  0.4470
  217MPD1    C4 3297   2.095   2.636   8.753 -0.3816  0.2570 -0.5305
  217MPD1    C5 3298   2.132   2.632   8.623  0.6233 -0.3468 -0.5481
  217MPD1     H 3299   2.398   2.664   8.895  0.9109 -0.5765 -0.9758
  217MPD1    H1 3300   1.989   2.636   8.779 -0.5374 -0.3053 -1.1739
  217MPD1    H2 3301   2.305   2.612   8.492 -1.0847  0.0618 -0.6130
  217MPD1    H3 3302   2.062   2.631   8.540 -0.4814 -0.5131  0.3899
  217MPD1     N 3303   2.138   2.653   8.990  0.0286 -0.2985 -0.7479
  217MPD1    H5 3304   2.038   2.650   9.009  0.5558 -2.3663  1.7787
  217MPD1    N1 3305   2.495   2.628   8.650  0.1094 -0.7221  0.4158
  217MPD1    H6 3306   2.550   2.682   8.716 -0.7825  3.0364 -1.9455
  217MPD1    H7 3307   2.520   2.671   8.562 -0.3602 -3.8705 -1.2411
  218MPD1     C 3308   2.468   4.365  13.050 -0.2871  0.2696 -0.0515
  218MPD1    C1 3309   2.497   4.497  13.051 -0.2228 -0.8207 -0.0997
  218MPD1    C2 3310   2.630   4.522  13.038  0.4500  0.2424  0.1931
  218MPD1    C3 3311   2.725   4.421  13.056  0.0429 -0.0749  0.7689
  218MPD1    C4 3312   2.686   4.290  13.083 -0.3065  0.1016 -0.1239
  218MPD1    C5 3313   2.556   4.263  13.061 -0.5012  0.4262  0.4607
  218MPD1     H 3314   2.672   4.622  13.044 -0.9321  0.9099 -1.4205
  218MPD1    H1 3315   2.760   4.211  13.084  1.1316  1.4542  0.4122
  218MPD1    H2 3316   2.365   4.343  13.024 -0.0622  0.4757 -1.0927
  218MPD1    H3 3317   2.523   4.160  13.071  0.9182  0.0760  1.5590
  218MPD1     N 3318   2.861   4.461  13.059  0.1866  0.0339 -0.0579
  218MPD1    H5 3319   2.880   4.558  13.033  1.2478  0.1567  1.1871
  218MPD1    N1 3320   2.412   4.602  13.023  0.2494 -0.4209 -0.1745
  218MPD1    H6 3321   2.329   4.588  13.080  0.8155 -0.0283  0.7567
  218MPD1    H7 3322   2.452   4.690  13.056  0.1900 -0.3492 -0.2941
  219MPD1     C 3323   3.622   0.029  12.470  0.4806  0.7276 -0.2439
  219MPD1    C1 3324   3.523   4.653  12.458 -0.1565 -0.0346  0.5616
  219MPD1    C2 3325   3.446   4.624  12.561  0.2423 -0.7636  0.1414
  219MPD1    C3 3326   3.463   4.689  12.687 -0.0747  0.8146  1.0077
  219MPD1    C4 3327   3.571   0.061  12.701 -0.0016  0.7373 -0.3922
  219MPD1    C5 3328   3.649   0.084  12.591  0.9593  0.4809  0.3399
  219MPD1     H 3329   3.374   4.543  12.548  0.2467 -0.4682 -1.7378
  219MPD1    H1 3330   3.599   0.099  12.798  1.8291  2.7921 -1.7409
  219MPD1    H2 3331   3.677   0.053  12.380  0.0465 -0.3917 -0.8034
  219MPD1    H3 3332   3.741   0.141  12.600  0.8796  0.6120  0.3113
  219MPD1     N 3333   3.388   4.658  12.802 -0.0062 -0.4765 -0.0928
  219MPD1    H5 3334   3.433   4.679  12.890  2.1200  0.8149 -1.4557
  219MPD1    N1 3335   3.488   4.599  12.331  0.1433 -0.3610 -0.3696
  219MPD1    H6 3336   3.443   4.508  12.342  1.4483 -1.1102 -1.3471
  219MPD1    H7 3337   3.572   4.586  12.275 -0.0463  0.7315 -0.8924
  220MPD1     C 3338   2.196   0.855  10.014 -0.0701 -0.6210 -0.2228
  220MPD1    C1 3339   2.289   0.888  10.105 -0.2203  0.3601  0.2054
  220MPD1    C2 3340   2.390   0.791  10.127  0.1277  0.1915 -0.2679
  220MPD1    C3 3341   2.408   0.676  10.053  0.0142  1.0383 -0.3432
  220MPD1    C4 3342   2.331   0.661   9.941 -0.0659  0.2970 -0.3201
  220MPD1    C5 3343   2.226   0.754   9.924 -0.2983  0.5417  0.2739
  220MPD1     H 3344   2.445   0.804  10.219  1.4967  2.1728 -1.3766
  220MPD1    H1 3345   2.329   0.577   9.872 -1.7849 -0.4171  0.6040
  220MPD1    H2 3346   2.102   0.910  10.008  0.5636  0.4813  0.0256
  220MPD1    H3 3347   2.151   0.738   9.847  0.0615  0.0525  0.0257
  220MPD1     N 3348   2.511   0.580  10.087 -0.4770  0.2301  0.3757
  220MPD1    H5 3349   2.566   0.611  10.166 -0.7857 -0.0276  0.6932
  220MPD1    N1 3350   2.252   0.987  10.200  0.6681 -0.1857 -0.0618
  220MPD1    H6 3351   2.193   1.053  10.150 -1.2503 -3.1413 -1.6532
  220MPD1    H7 3352   2.332   1.027  10.249 -0.7219  1.5825  0.7827
  221MPD1     C 3353   0.154   3.718  16.634 -0.0731  0.5309 -0.7126
  221MPD1    C1 3354   0.230   3.613  16.671 -0.8755  0.1345 -0.2210
  221MPD1    C2 3355   0.358   3.599  16.622 -0.2848  0.1110  0.4175
  221MPD1    C3 3356   0.409   3.699  16.537 -0.2019 -0.3943 -0.1325
  221MPD1    C4 3357   0.335   3.812  16.512 -0.9476 -0.1074 -0.9205
  221MPD1    C5 3358   0.211   3.822  16.565  0.1347  0.1797 -0.1571
  221MPD1     H 3359   0.421   3.515  16.651 -0.0416  0.0076 -0.4121
  221MPD1    H1 3360   0.366   3.897  16.453  1.2417  0.7311  1.4198
  221MPD1    H2 3361   0.053   3.728  16.673  0.1834  1.0118 -0.1785
  221MPD1    H3 3362   0.154   3.913  16.554 -0.6425 -0.3511 -0.5135
  221MPD1     N 3363   0.534   3.680  16.471 -0.9303  0.8151  0.3791
  221MPD1    H5 3364   0.575   3.756  16.418 -2.2529  1.0577 -0.2921
  221MPD1    N1 3365   0.166   3.509  16.736  0.2979  0.3999 -0.3098
  221MPD1    H6 3366   0.231   3.482  16.810  1.0244 -1.1909 -1.5206
  221MPD1    H7 3367   0.078   3.531  16.783  1.2797  1.6228  0.9478
  222MPD1     C 3368   4.387   3.196  16.804  0.6252 -0.1292  0.2910
  222MPD1    C1 3369   4.518   3.162  16.808 -1.0194 -0.2521 -0.2398
  222MPD1    C2 3370   4.559   3.073  16.906  0.1038 -0.1641 -0.5388
  222MPD1    C3 3371   4.472   3.019  17.001 -0.8933 -0.7402 -0.7241
  222MPD1    C4 3372   4.335   3.043  16.992 -0.1555  0.0702  0.0874
  222MPD1    C5 3373   4.300   3.138  16.899 -0.1112 -0.1107 -0.3326
  222MPD1     H 3374   4.660   3.035  16.904  0.6778  1.3407 -0.5708
  222MPD1    H1 3375   4.262   3.012  17.066  0.6639 -1.2506  0.3435
  222MPD1    H2 3376   4.336   3.261  16.734 -1.8572 -0.3340  1.8869
  222MPD1    H3 3377   4.198   3.174  16.897 -0.3146 -0.5586  2.3162
  222MPD1     N 3378   4.518   2.930  17.096  0.1142  0.1302 -0.1879
  222MPD1    H5 3379   4.452   2.877  17.152  0.5261 -0.5396 -0.3391
  222MPD1    N1 3380   4.610   3.193  16.709  0.1475 -0.0760 -0.3492
  222MPD1    H6 3381   4.709   3.192  16.733  0.2054  1.5197 -0.5123
  222MPD1    H7 3382   4.584   3.262  16.639  0.5581  1.3866  0.9460
  223MPD1     C 3383   4.629   2.080  16.899  0.4724 -0.1987 -0.0448
  223MPD1    C1 3384   4.711   2.180  16.857 -0.3435  0.5050 -0.6458
  223MPD1    C2 3385   4.716   2.296  16.933  0.6213 -0.0614 -0.6360
  223MPD1    C3 3386   4.622   2.314  17.033  0.3476  0.2946 -0.5993
  223MPD1    C4 3387   4.531   2.211  17.069 -0.1177  0.9054 -0.0788
  223MPD1    C5 3388   4.545   2.094  17.002 -0.0910  0.6356 -0.1065
  223MPD1     H 3389   0.057   2.378  16.899 -0.4474 -0.0899 -2.7114
  223MPD1    H1 3390   4.464   2.219  17.154 -0.1467 -0.2336 -0.0054
  223MPD1    H2 3391   4.633   1.981  16.855 -0.4439 -0.1075 -0.3305
  223MPD1    H3 3392   4.477   2.017  17.037 -2.1024  2.3797 -0.1129
  223MPD1     N 3393   4.623   2.435  17.103 -0.4708  0.2106 -0.5482
  223MPD1    H5 3394   4.673   2.511  17.059 -0.1317 -0.4487 -1.2791
  223MPD1    N1 3395   0.062   2.166  16.741 -0.3955  0.4152 -0.0474
  223MPD1    H6 3396   0.037   2.086  16.682 -1.3007 -0.0115  0.9041
  223MPD1    H7 3397   0.044   2.250  16.687 -1.1236  2.3125  3.1538
  224MPD1     C 3398   2.621   4.259   9.672  0.4382  0.6696  0.8680
  224MPD1    C1 3399   2.702   4.149   9.669  0.1341 -0.8073  0.1577
  224MPD1    C2 3400   2.658   4.018   9.692 -0.9936 -0.1000  0.0041
  224MPD1    C3 3401   2.525   3.997   9.725  0.4487  0.7446 -0.1954
  224MPD1    C4 3402   2.443   4.106   9.712 -1.0056  0.5009  0.0716
  224MPD1    C5 3403   2.484   4.233   9.689 -0.4675  0.8388  0.1950
  224MPD1     H 3404   2.730   3.937   9.687  0.3797  1.1489 -0.1379
  224MPD1    H1 3405   2.335   4.098   9.717 -0.9225 -0.3379  0.5604
  224MPD1    H2 3406   2.663   4.356   9.646  0.6709  0.0662 -0.9940
  224MPD1    H3 3407   2.412   4.314   9.683 -1.4158 -0.0966 -0.9766
  224MPD1     N 3408   2.473   3.877   9.757 -0.6415 -0.9042 -0.4489
  224MPD1    H5 3409   2.372   3.871   9.760 -0.6793 -0.5177 -0.9539
  224MPD1    N1 3410   2.839   4.157   9.638 -0.1825 -0.3018  0.1865
  224MPD1    H6 3411   2.894   4.242   9.650 -1.2701  0.2436  1.4418
  224MPD1    H7 3412   2.891   4.070   9.648  0.0308 -0.1835  0.0811
  225MPD1     C 3413   2.949   1.019  12.617 -0.2656 -0.2472  0.3170
  225MPD1    C1 3414   2.955   0.910  12.537 -0.1325 -0.4792  0.4927
  225MPD1    C2 3415   2.873   0.909  12.425  0.1132 -0.0826  0.1661
  225MPD1    C3 3416   2.792   1.012  12.392 -0.2099  0.0031 -0.3098
  225MPD1    C4 3417   2.793   1.116  12.477  0.5628  0.0409  0.7587
  225MPD1    C5 3418   2.865   1.119  12.587 -0.5340  0.3572 -0.1995
  225MPD1     H 3419   2.885   0.820  12.363 -1.5735  0.8939 -1.5922
  225MPD1    H1 3420   2.731   1.202  12.452  1.2754  0.8559  1.8045
  225MPD1    H2 3421   3.022   1.037  12.695 -0.2083  2.4207 -0.3538
  225MPD1    H3 3422   2.859   1.196  12.663 -0.1599 -0.8470  1.0392
  225MPD1     N 3423   2.703   1.016  12.284  0.1112 -0.0565  0.9408
  225MPD1    H5 3424   2.637   1.093  12.286 -0.8233 -0.8686  1.6956
  225MPD1    N1 3425   3.038   0.800  12.562  0.1022  0.7318  0.3980
  225MPD1    H6 3426   3.043   0.732  12.486 -0.8290 -0.4471  1.3887
  225MPD1    H7 3427   3.137   0.819  12.572 -0.1993  2.4094  0.1130
  226MPD1     C 3428   3.093   1.188   9.780 -0.4068  0.0043 -0.6781
  226MPD1    C1 3429   3.092   1.090   9.878 -0.2590 -0.1740 -0.2152
  226MPD1    C2 3430   2.987   1.000   9.876  0.1960 -0.0677  0.0659
  226MPD1    C3 3431   2.896   0.990   9.768 -0.2122 -0.8298  0.3452
  226MPD1    C4 3432   2.911   1.080   9.668  0.4013  0.6127  0.4979
  226MPD1    C5 3433   3.006   1.178   9.672  0.3563 -0.2905  0.2085
  226MPD1     H 3434   2.983   0.932   9.960 -0.9962 -0.3240 -0.2046
  226MPD1    H1 3435   2.846   1.079   9.581  1.8165  2.3105 -0.5775
  226MPD1    H2 3436   3.160   1.273   9.787  1.3616 -1.4259 -0.4594
  226MPD1    H3 3437   3.008   1.251   9.591 -0.9214 -0.5537 -0.0661
  226MPD1     N 3438   2.800   0.890   9.772 -0.0119 -0.3511  0.0688
  226MPD1    H5 3439   2.790   0.837   9.859 -0.0448  0.3397  0.4827
  226MPD1    N1 3440   3.161   1.118   9.993  0.0436 -0.1524 -0.4786
  226MPD1    H6 3441   3.249   1.165   9.975 -0.5385  1.2316  0.2944
  226MPD1    H7 3442   3.184   1.040  10.054  0.4865  1.6249  1.6039
  227MPD1     C 3443   1.873   0.697   9.377  0.4044 -0.2683 -0.0791
  227MPD1    C1 3444   1.901   0.585   9.446 -0.3040  0.5105  0.1418
  227MPD1    C2 3445   2.036   0.570   9.483  0.7013 -0.3531 -0.8663
  227MPD1    C3 3446   2.128   0.677   9.470  0.1093  0.1970 -0.5261
  227MPD1    C4 3447   2.082   0.797   9.419  0.2435 -0.4516  0.0455
  227MPD1    C5 3448   1.959   0.805   9.371 -0.1113 -0.1332  1.1352
  227MPD1     H 3449   2.058   0.478   9.537 -0.0969 -0.4201 -0.6670
  227MPD1    H1 3450   2.139   0.887   9.406  2.4096 -1.2580  3.8877
  227MPD1    H2 3451   1.773   0.708   9.336  1.4481  1.4381 -2.1927
  227MPD1    H3 3452   1.930   0.900   9.328 -1.4638 -1.6077 -1.1795
  227MPD1     N 3453   2.264   0.665   9.513  0.2896  0.2892  0.4314
  227MPD1    H5 3454   2.319   0.743   9.480 -1.6364  0.8987 -1.2954
  227MPD1    N1 3455   1.813   0.472   9.444  0.2995 -0.6709  0.7781
  227MPD1    H6 3456   1.831   0.401   9.515  3.0788  0.5827  1.2998
  227MPD1    H7 3457   1.716   0.504   9.450  0.1180 -0.8898 -0.9682
  228MPD1     C 3458   4.294   2.914  13.397  0.1510  0.3544  0.2910
  228MPD1    C1 3459   4.193   3.009  13.385  0.0591  0.0566  0.2858
  228MPD1    C2 3460   4.064   2.973  13.374  0.3613  0.1664 -0.0294
  228MPD1    C3 3461   4.034   2.836  13.379  0.2367 -0.4759  0.9163
  228MPD1    C4 3462   4.138   2.748  13.398 -0.0752 -0.3679 -0.8549
  228MPD1    C5 3463   4.267   2.786  13.406 -0.9222  0.0681 -0.1273
  228MPD1     H 3464   3.990   3.042  13.335  0.6573  0.6162  0.2142
  228MPD1    H1 3465   4.129   2.642  13.417  0.0386 -0.0862  0.7935
  228MPD1    H2 3466   4.397   2.947  13.405  0.9338 -2.2588  1.1629
  228MPD1    H3 3467   4.349   2.716  13.412 -0.0053  1.2386  1.0507
  228MPD1     N 3468   3.902   2.786  13.361  0.2683  0.2001  0.1764
  228MPD1    H5 3469   3.821   2.845  13.343  1.1774  0.5767 -2.5519
  228MPD1    N1 3470   4.232   3.137  13.354  0.1138  0.0055  0.2334
  228MPD1    H6 3471   4.156   3.200  13.379  0.3278 -0.1222  1.2039
  228MPD1    H7 3472   4.311   3.163  13.412  0.4024  0.2373 -0.2654
  229MPD1     C 3473   3.679   1.975  14.385 -0.1051  0.8852  0.1335
  229MPD1    C1 3474   3.770   1.883  14.341  0.4066 -0.0897  0.7228
  229MPD1    C2 3475   3.817   1.792  14.429  0.0237 -0.3730  0.6952
  229MPD1    C3 3476   3.777   1.794  14.563  0.3461  0.0168  0.2237
  229MPD1    C4 3477   3.680   1.883  14.604  0.2234 -0.1298  0.5421
  229MPD1    C5 3478   3.629   1.974  14.511  0.2908  0.3295  0.4925
  229MPD1     H 3479   3.894   1.723  14.395 -0.1195 -0.3387  0.2986
  229MPD1    H1 3480   3.653   1.894  14.708  2.5256 -2.5437  1.3866
  229MPD1    H2 3481   3.635   2.045  14.314 -1.1503 -0.2720 -0.3470
  229MPD1    H3 3482   3.555   2.050  14.532  1.7744  1.6008  1.1339
  229MPD1     N 3483   3.825   1.699  14.662  0.6200  0.5459 -0.1799
  229MPD1    H5 3484   3.779   1.705  14.752  1.0572  1.7292 -0.0307
  229MPD1    N1 3485   3.828   1.905  14.214  0.5965 -0.0135 -0.4618
  229MPD1    H6 3486   3.764   1.935  14.141  0.1176 -0.8928 -0.4066
  229MPD1    H7 3487   3.869   1.824  14.168 -0.6966 -0.4635 -0.8311
  230MPD1     C 3488   4.213   1.507  15.538  0.6187  0.0151 -0.4364
  230MPD1    C1 3489   4.283   1.417  15.465 -0.4164  0.1179 -0.0103
  230MPD1    C2 3490   4.234   1.386  15.336 -0.2361  0.2723 -0.3956
  230MPD1    C3 3491   4.117   1.442  15.282  0.2158 -0.7012  0.1538
  230MPD1    C4 3492   4.050   1.529  15.363 -0.0518 -0.3811 -0.3954
  230MPD1    C5 3493   4.098   1.563  15.487  0.1617  0.0476  0.1084
  230MPD1     H 3494   4.290   1.319  15.271 -0.4179  0.1862 -0.4642
  230MPD1    H1 3495   3.959   1.587  15.347 -1.1427 -2.0090 -0.1395
  230MPD1    H2 3496   4.234   1.536  15.641 -0.6353 -2.3272  0.4661
  230MPD1    H3 3497   4.051   1.644  15.542 -1.1697  0.4750 -1.6557
  230MPD1     N 3498   4.084   1.410  15.152 -0.2587 -0.6372 -0.2421
  230MPD1    H5 3499   4.134   1.332  15.110  0.4099  0.4443 -1.4464
  230MPD1    N1 3500   4.395   1.352  15.512  0.6681  0.0409  0.9098
  230MPD1    H6 3501   4.443   1.384  15.597  0.6924 -0.1121  0.9537
  230MPD1    H7 3502   4.465   1.357  15.439 -0.0302  1.1464  0.3101
  231MPD1     C 3503   1.968   3.489  15.075 -0.8560  0.1761 -0.2671
  231MPD1    C1 3504   1.958   3.607  15.005  0.7270  0.0661 -0.0722
  231MPD1    C2 3505   2.065   3.666  14.930  0.0551 -0.5624  0.1321
  231MPD1    C3 3506   2.187   3.610  14.959 -0.0106 -0.2761 -0.2914
  231MPD1    C4 3507   2.199   3.499  15.041  0.4217  0.0057  0.1908
  231MPD1    C5 3508   2.097   3.431  15.089 -0.3041 -0.6141 -0.4691
  231MPD1     H 3509   2.064   3.756  14.870 -2.4838 -0.4913  0.2720
  231MPD1    H1 3510   2.299   3.462  15.059 -0.5782 -3.6669 -1.7035
  231MPD1    H2 3511   1.885   3.436  15.118 -1.1671 -0.0776 -1.1732
  231MPD1    H3 3512   2.115   3.339  15.142  2.3188  0.7005  0.8846
  231MPD1     N 3513   2.305   3.671  14.909  0.5282 -0.0471  0.2022
  231MPD1    H5 3514   2.294   3.730  14.827 -1.1054  2.4372  2.1779
  231MPD1    N1 3515   1.831   3.657  15.000 -0.4420 -0.1952  0.4625
  231MPD1    H6 3516   1.787   3.650  15.091 -1.3983 -3.7773 -0.2743
  231MPD1    H7 3517   1.819   3.749  14.958  0.7744 -0.9397 -1.5040
  232MPD1     C 3518   3.351   1.443  17.055  0.6095  0.5055 -0.1854
  232MPD1    C1 3519   3.419   1.394  17.164 -0.5456  0.5495 -0.3059
  232MPD1    C2 3520   3.361   1.292  17.237  0.8236 -0.0987 -0.4521
  232MPD1    C3 3521   3.238   1.240  17.211  0.6470 -0.3060  0.3328
  232MPD1    C4 3522   3.168   1.298  17.101  0.9924 -0.8096  1.6264
  232MPD1    C5 3523   3.231   1.395  17.019  0.1345 -0.3290 -0.1161
  232MPD1     H 3524   3.409   1.268  17.331  0.5601 -2.1258 -0.8282
  232MPD1    H1 3525   3.070   1.267  17.067  0.3006  1.1740  1.8065
  232MPD1    H2 3526   3.388   1.526  16.996  1.1652  2.1679  2.4814
  232MPD1    H3 3527   3.182   1.439  16.932 -0.9382 -2.2683 -0.4747
  232MPD1     N 3528   3.185   1.140  17.293 -0.2037 -0.5722 -0.1905
  232MPD1    H5 3529   3.240   1.118  17.376  0.8231 -1.4140 -1.0935
  232MPD1    N1 3530   3.533   1.471  17.207 -0.4123 -0.4978 -0.0679
  232MPD1    H6 3531   3.597   1.412  17.259  0.4136 -2.1627 -2.9718
  232MPD1    H7 3532   3.582   1.525  17.136  0.8705 -1.2638  0.2549
  233MPD1     C 3533   4.123   4.405   0.783 -0.2594 -1.0235  0.1351
  233MPD1    C1 3534   4.222   4.370   0.693 -0.2261 -0.5956  0.1042
  233MPD1    C2 3535   4.341   4.344   0.752 -0.2478  0.1241  1.2613
  233MPD1    C3 3536   4.365   4.346   0.893  0.1248 -0.0998  0.2048
  233MPD1    C4 3537   4.257   4.376   0.972  0.9211 -0.7093  0.5079
  233MPD1    C5 3538   4.134   4.392   0.916 -0.4014  0.2076  0.7274
  233MPD1     H 3539   4.425   4.314   0.690 -0.6127  0.7818  0.4395
  233MPD1    H1 3540   4.264   4.369   1.080  1.1747  0.6099  0.5736
  233MPD1    H2 3541   4.030   4.446   0.745 -0.1985 -1.0216 -0.0136
  233MPD1    H3 3542   4.051   4.406   0.984  0.1912  0.6472  1.3714
  233MPD1     N 3543   4.486   4.338   0.954 -0.0115  0.5869 -0.5599
  233MPD1    H5 3544   4.485   4.352   1.055 -0.4966 -1.6524 -0.2548
  233MPD1    N1 3545   4.203   4.391   0.553 -0.5624 -0.0468  0.2016
  233MPD1    H6 3546   4.104   4.375   0.535 -0.4213 -0.1392 -0.4995
  233MPD1    H7 3547   4.260   4.327   0.497  0.8214  1.2978  0.0858
  234MPD1     C 3548   2.261   2.380  10.971  0.3481  0.0193 -0.1101
  234MPD1    C1 3549   2.340   2.490  10.981  0.1954 -0.3106  0.1881
  234MPD1    C2 3550   2.402   2.540  10.866  0.1076 -0.5918 -0.0305
  234MPD1    C3 3551   2.377   2.484  10.748 -0.5482  0.4265  0.2781
  234MPD1    C4 3552   2.300   2.369  10.742  0.2392  0.8539 -0.0056
  234MPD1    C5 3553   2.237   2.322  10.851  0.3702 -0.0495 -0.4931
  234MPD1     H 3554   2.467   2.627  10.870 -0.9399  0.1048  1.5721
  234MPD1    H1 3555   2.281   2.317  10.648  2.0298  1.4196 -0.6765
  234MPD1    H2 3556   2.206   2.340  11.055 -2.1180 -0.4516 -1.9750
  234MPD1    H3 3557   2.173   2.235  10.842  0.2002  0.3519 -3.1394
  234MPD1     N 3558   2.435   2.534  10.630 -0.0551 -0.8434  0.0929
  234MPD1    H5 3559   2.496   2.613  10.647 -1.1588  0.2883 -1.1923
  234MPD1    N1 3560   2.377   2.538  11.105 -0.2000 -0.4707  0.0357
  234MPD1    H6 3561   2.300   2.537  11.172 -0.1513 -1.4161  0.0791
  234MPD1    H7 3562   2.395   2.638  11.096 -0.8393 -0.2305  1.4644
  235MPD1     C 3563   2.586   0.517   9.243  0.4497 -0.2408  0.1555
  235MPD1    C1 3564   2.567   0.650   9.258 -0.1637 -0.2575 -0.4006
  235MPD1    C2 3565   2.675   0.725   9.302  0.1162 -0.3134 -0.2931
  235MPD1    C3 3566   2.780   0.675   9.372  0.4111 -0.3984  0.8638
  235MPD1    C4 3567   2.792   0.534   9.360  1.0464 -0.3261 -1.0464
  235MPD1    C5 3568   2.698   0.456   9.286 -0.4027 -0.3638 -0.2145
  235MPD1     H 3569   2.668   0.831   9.279  1.5975 -0.5641 -1.8637
  235MPD1    H1 3570   2.868   0.490   9.422  0.6739  3.1048  1.8512
  235MPD1    H2 3571   2.506   0.451   9.209  1.0017 -0.3934 -0.8361
  235MPD1    H3 3572   2.704   0.348   9.296  1.0563 -0.3251 -0.7208
  235MPD1     N 3573   2.880   0.758   9.428 -0.1756 -1.0479 -0.1125
  235MPD1    H5 3574   2.864   0.858   9.420  2.0826 -0.5886  1.0331
  235MPD1    N1 3575   2.461   0.709   9.184  0.4924  0.2912  0.2053
  235MPD1    H6 3576   2.443   0.806   9.209 -1.2866 -0.4209  1.7497
  235MPD1    H7 3577   2.376   0.655   9.171  1.5602 -0.7331 -2.4537
  236MPD1     C 3578   2.552   1.398   9.665 -0.3138  0.2345  0.7898
  236MPD1    C1 3579   2.581   1.530   9.708  0.8339  0.2953  0.1360
  236MPD1    C2 3580   2.694   1.555   9.781 -0.6489 -0.4990  0.5168
  236MPD1    C3 3581   2.763   1.453   9.843 -0.0253 -0.4626 -0.6703
  236MPD1    C4 3582   2.728   1.323   9.814 -0.0049  0.2089  0.1355
  236MPD1    C5 3583   2.624   1.300   9.726 -0.0463  0.4434 -0.2035
  236MPD1     H 3584   2.728   1.658   9.791 -0.2444 -0.3767 -2.0347
  236MPD1    H1 3585   2.776   1.235   9.855  0.5064  1.1930  1.6328
  236MPD1    H2 3586   2.482   1.366   9.588  2.1979 -0.7849 -1.0404
  236MPD1    H3 3587   2.590   1.200   9.703 -0.3314  0.6414 -0.6386
  236MPD1     N 3588   2.870   1.472   9.932  0.1172  0.1104  0.1436
  236MPD1    H5 3589   2.893   1.395   9.994  0.2966  0.4471  0.4911
  236MPD1    N1 3590   2.515   1.641   9.653  0.2554  0.5774  0.1431
  236MPD1    H6 3591   2.539   1.725   9.705 -0.5652  0.9718 -0.1225
  236MPD1    H7 3592   2.414   1.630   9.652  0.4417 -1.0663 -0.6116
  237MPD1     C 3593   2.503   0.551  15.988 -0.5687  0.2818 -0.2514
  237MPD1    C1 3594   2.516   0.422  16.028  0.1383  0.2542  0.5818
  237MPD1    C2 3595   2.476   0.327  15.937 -0.2276  0.1274  0.2350
  237MPD1    C3 3596   2.428   0.352  15.806  0.6994  0.5142 -0.5416
  237MPD1    C4 3597   2.423   0.486  15.772  0.6740  0.3458  0.0540
  237MPD1    C5 3598   2.468   0.581  15.861 -0.2265 -0.1522  0.2128
  237MPD1     H 3599   2.479   0.224  15.972  0.1972  0.2416  0.5274
  237MPD1    H1 3600   2.398   0.516  15.671 -0.2433  2.0038  0.7610
  237MPD1    H2 3601   2.524   0.629  16.060  0.1518 -0.7750  0.6834
  237MPD1    H3 3602   2.458   0.685  15.831  1.0610 -0.7211 -2.2369
  237MPD1     N 3603   2.396   0.250  15.717 -0.5621  0.2648 -0.1865
  237MPD1    H5 3604   2.351   0.273  15.629 -0.0596  2.1114  0.0183
  237MPD1    N1 3605   2.531   0.381  16.161  0.7394  0.0744  0.0998
  237MPD1    H6 3606   2.591   0.443  16.215  1.5613  1.5800 -2.5568
  237MPD1    H7 3607   2.572   0.288  16.172 -1.1163 -0.9361 -1.6228
  238MPD1     C 3608   3.542   3.089  15.908 -0.0179 -0.1311  0.1723
  238MPD1    C1 3609   3.516   3.218  15.954  0.5772 -0.4976  0.4668
  238MPD1    C2 3610   3.492   3.311  15.852 -0.7827  0.6397 -0.0405
  238MPD1    C3 3611   3.511   3.285  15.714  0.1830 -0.4493 -0.8896
  238MPD1    C4 3612   3.545   3.153  15.679  0.6165  0.0647 -0.0809
  238MPD1    C5 3613   3.555   3.059  15.776  0.9265  0.5105 -0.7714
  238MPD1     H 3614   3.477   3.413  15.886 -0.2396  0.0905  1.8317
  238MPD1    H1 3615   3.552   3.129  15.574  0.3383  1.2875 -0.3809
  238MPD1    H2 3616   3.551   3.008  15.979  0.0563  0.2274  0.5765
  238MPD1    H3 3617   3.581   2.957  15.751 -0.6793  0.3561 -1.8659
  238MPD1     N 3618   3.506   3.382  15.613  0.7240 -0.9065  0.2164
  238MPD1    H5 3619   3.526   3.357  15.516 -1.0581  2.0882 -0.9052
  238MPD1    N1 3620   3.487   3.226  16.089 -0.5041  0.3235 -0.1849
  238MPD1    H6 3621   3.496   3.322  16.123 -0.1339 -0.1672  1.1101
  238MPD1    H7 3622   3.543   3.158  16.139  1.8834  1.7052 -0.9649
  239MPD1     C 3623   4.521   4.308  15.320  0.3056 -0.1709 -0.5124
  239MPD1    C1 3624   4.627   4.264  15.237 -0.2638  0.5511 -0.2958
  239MPD1    C2 3625   4.620   4.293  15.102 -0.5545 -0.0360  0.6779
  239MPD1    C3 3626   4.520   4.374  15.058 -0.0328  0.3991 -0.2162
  239MPD1    C4 3627   4.423   4.419  15.141  0.3385  0.1056 -0.4932
  239MPD1    C5 3628   4.422   4.388  15.277 -0.1821  0.4888 -0.3986
  239MPD1     H 3629   4.698   4.247  15.042 -0.2856  1.8519 -0.4109
  239MPD1    H1 3630   4.330   4.465  15.110  0.0654 -0.1440 -0.0455
  239MPD1    H2 3631   4.519   4.286  15.426 -2.8756 -1.3140 -0.8246
  239MPD1    H3 3632   4.344   4.427  15.342 -0.2067 -0.4242  0.1222
  239MPD1     N 3633   4.505   4.407  14.919  0.5522  0.4802  0.0153
  239MPD1    H5 3634   4.419   4.458  14.899 -0.5294 -0.5364  2.1330
  239MPD1    N1 3635   4.714   4.174  15.296 -0.0012  0.5591  0.2335
  239MPD1    H6 3636   0.086   4.177  15.257 -0.4610  0.9175 -0.8768
  239MPD1    H7 3637   0.011   4.193  15.394  2.0977  0.2397 -0.1178
  240MPD1     C 3638   4.584   3.516  14.732  0.1980  0.0830 -0.2892
  240MPD1    C1 3639   4.543   3.498  14.865  0.4627  0.2302  0.2433
  240MPD1    C2 3640   4.418   3.551  14.898 -0.2866  0.4059 -0.1976
  240MPD1    C3 3641   4.343   3.625  14.808 -0.2467 -0.0911  0.3455
  240MPD1    C4 3642   4.396   3.650  14.682  0.4913 -0.4467  0.1453
  240MPD1    C5 3643   4.517   3.602  14.652 -0.0853  0.2706  0.7475
  240MPD1     H 3644   4.386   3.532  15.000 -1.7121  2.7404 -0.1996
  240MPD1    H1 3645   4.353   3.725  14.617  1.2602  0.1228  0.2935
  240MPD1    H2 3646   4.678   3.480  14.691 -0.2673 -0.3551 -0.9743
  240MPD1    H3 3647   4.567   3.622  14.558 -3.0909  0.0535 -0.8654
  240MPD1     N 3648   4.228   3.682  14.847 -0.6372  0.2347  0.2711
  240MPD1    H5 3649   4.207   3.687  14.946 -0.2337  2.3555  0.2431
  240MPD1    N1 3650   4.625   3.450  14.962  0.1248  0.2573 -0.0967
  240MPD1    H6 3651   4.694   3.387  14.923  1.0340  1.7077 -0.8568
  240MPD1    H7 3652   4.584   3.421  15.051 -1.8124 -0.3117 -1.1707
  241MPD1     C 3653   3.638   3.982  15.573  0.2336 -0.9156  0.0951
  241MPD1    C1 3654   3.768   3.953  15.556 -0.7640  0.5770  0.5034
  241MPD1    C2 3655   3.806   3.912  15.427 -0.6407  0.5243  0.0965
  241MPD1    C3 3656   3.721   3.902  15.323 -0.4465 -0.2750  0.2178
  241MPD1    C4 3657   3.593   3.943  15.345 -0.3800 -0.5592  0.2863
  241MPD1    C5 3658   3.554   3.980  15.467 -0.2938 -0.4885 -0.0096
  241MPD1     H 3659   3.906   3.871  15.415 -1.4949 -0.7536 -2.5888
  241MPD1    H1 3660   3.516   3.933  15.269  0.4486 -1.6921 -0.3991
  241MPD1    H2 3661   3.598   4.025  15.664  4.0688  0.0958  1.2772
  241MPD1    H3 3662   3.459   4.032  15.478  0.0680  0.4201 -1.0937
  241MPD1     N 3663   3.751   3.860  15.186  0.0689 -0.0042 -0.2585
  241MPD1    H5 3664   3.667   3.854  15.128 -1.4327  2.0274  1.6789
  241MPD1    N1 3665   3.865   3.995  15.648 -0.2888  0.3145  0.0418
  241MPD1    H6 3666   3.959   3.959  15.628 -0.4270  0.9764 -1.7806
  241MPD1    H7 3667   3.844   3.970  15.744  0.1848  1.4978  0.4514
  242MPD1     C 3668   2.908   2.580  15.883 -0.2190 -0.2758  0.4146
  242MPD1    C1 3669   2.975   2.468  15.913  0.2451  1.3530  0.2507
  242MPD1    C2 3670   3.014   2.383  15.807 -0.7676  0.0421 -0.0901
  242MPD1    C3 3671   2.980   2.406  15.675 -0.3163 -0.0674  0.2594
  242MPD1    C4 3672   2.908   2.518  15.650 -0.4364 -0.4501 -0.2139
  242MPD1    C5 3673   2.883   2.605  15.747  0.6173  1.0855  0.1927
  242MPD1     H 3674   3.055   2.285  15.829 -1.5135 -0.2239  0.1246
  242MPD1    H1 3675   2.874   2.536  15.548  0.1454  1.4469 -0.0740
  242MPD1    H2 3676   2.890   2.662  15.951  0.9703  1.2022 -1.0387
  242MPD1    H3 3677   2.843   2.703  15.728 -2.3552 -0.1097  0.3795
  242MPD1     N 3678   3.019   2.336  15.565 -0.3449 -0.0568  0.2368
  242MPD1    H5 3679   2.977   2.363  15.476 -0.4007 -1.2466 -0.1104
  242MPD1    N1 3680   3.028   2.443  16.043 -0.4234 -0.1249 -0.2285
  242MPD1    H6 3681   2.972   2.488  16.115  1.3828  0.6038  0.7348
  242MPD1    H7 3682   3.031   2.342  16.052  2.9560  0.0019  0.0600
  243MPD1     C 3683   0.795   2.364  17.375  0.3198 -0.0238 -0.3734
  243MPD1    C1 3684   0.707   2.375  17.269  0.6444  0.1278  0.4039
  243MPD1    C2 3685   0.603   2.282  17.265  0.0194 -0.4375  0.5842
  243MPD1    C3 3686   0.598   2.175  17.357 -0.7484  0.4905 -0.5472
  243MPD1    C4 3687   0.677   2.172  17.462 -0.0793  0.5167 -0.2167
  243MPD1    C5 3688   0.776   2.269  17.469 -0.2201  0.2074 -0.2212
  243MPD1     H 3689   0.526   2.295  17.190  1.2016  1.2025 -0.3494
  243MPD1    H1 3690   0.670   2.102  17.545 -0.0301  1.0337  0.2288
  243MPD1    H2 3691   0.868   2.443  17.379  0.6842 -0.2609 -2.3733
  243MPD1    H3 3692   0.844   2.272  17.554 -0.9496  0.8372  0.3473
  243MPD1     N 3693   0.493   2.082  17.331  0.9496  0.0253  0.0714
  243MPD1    H5 3694   0.438   2.094  17.247  1.0705 -0.0181 -0.0149
  243MPD1    N1 3695   0.699   2.493  17.202  0.2706  0.2442  1.1720
  243MPD1    H6 3696   0.789   2.537  17.183 -0.1649  0.6510  0.0399
  243MPD1    H7 3697   0.657   2.463  17.115  0.3903  0.9892  0.8584
  244MPD1     C 3698   0.056   1.281   0.179 -0.4290  0.0300 -0.0567
  244MPD1    C1 3699   0.064   1.415   0.216  0.7728  0.3109  0.5251
  244MPD1    C2 3700   0.104   1.509   0.118  0.4793 -0.3227  0.0652
  244MPD1    C3 3701   0.153   1.470  17.688 -0.4843  0.3606 -0.2205
  244MPD1    C4 3702   0.158   1.336  17.659  0.3385 -0.5184 -0.0614
  244MPD1    C5 3703   0.103   1.246   0.057  0.6934  0.2769  0.1275
  244MPD1     H 3704   0.094   1.615   0.140 -0.9635 -0.8219  1.8805
  244MPD1    H1 3705   0.182   1.298  17.561  0.4346 -0.9681  0.1393
  244MPD1    H2 3706   0.041   1.201   0.250 -0.1200  1.2378  1.3723
  244MPD1    H3 3707   0.091   1.142   0.028  1.4472 -0.0564  1.0287
  244MPD1     N 3708   0.200   1.574  17.599  0.3279  0.1401  0.1527
  244MPD1    H5 3709   0.194   1.671  17.627 -1.1108  0.1154 -0.0767
  244MPD1    N1 3710   0.015   1.453   0.341  0.1162 -0.3670  0.2098
  244MPD1    H6 3711   0.074   1.533   0.365  1.1451 -1.2244  0.5774
  244MPD1    H7 3712   0.032   1.374   0.403 -3.1108 -0.8278  0.4593
  245MPD1     C 3713   1.646   1.606  13.346  0.8083  0.0679 -0.0720
  245MPD1    C1 3714   1.689   1.665  13.468  0.0862 -0.2368  1.3736
  245MPD1    C2 3715   1.796   1.749  13.457 -0.3056  0.0625 -0.0257
  245MPD1    C3 3716   1.863   1.760  13.339 -0.3783  0.2023  0.4637
  245MPD1    C4 3717   1.829   1.695  13.220  0.1342 -0.6957  0.3015
  245MPD1    C5 3718   1.716   1.620  13.231 -0.5241 -0.7356  0.4923
  245MPD1     H 3719   1.815   1.817  13.539  0.2991 -2.3578  1.8389
  245MPD1    H1 3720   1.877   1.703  13.123 -0.0383 -0.6408  0.2206
  245MPD1    H2 3721   1.556   1.546  13.343  0.1384  0.9197  2.8735
  245MPD1    H3 3722   1.676   1.570  13.144 -0.6330 -0.0795  0.1615
  245MPD1     N 3723   1.971   1.852  13.344  0.8056  0.1072 -0.1037
  245MPD1    H5 3724   1.996   1.895  13.433 -0.9405  0.0204  0.4245
  245MPD1    N1 3725   1.603   1.666  13.572  0.3525 -0.1654 -0.7334
  245MPD1    H6 3726   1.645   1.688  13.662 -0.5303  2.9418 -1.0674
  245MPD1    H7 3727   1.539   1.587  13.567 -1.1097  0.9409  1.0182
  246MPD1     C 3728   3.792   3.462   9.522 -1.2983  0.3484  0.3539
  246MPD1    C1 3729   3.706   3.416   9.427 -0.0412 -0.0229  0.2687
  246MPD1    C2 3730   3.633   3.302   9.468  0.4846 -0.1944 -0.2867
  246MPD1    C3 3731   3.670   3.221   9.576 -0.0143 -0.7915  0.3547
  246MPD1    C4 3732   3.769   3.270   9.658  0.0551 -0.1370  0.3428
  246MPD1    C5 3733   3.821   3.396   9.635  0.0708 -0.6526  0.7232
  246MPD1     H 3734   3.559   3.253   9.406 -0.8600 -0.3035  1.4194
  246MPD1    H1 3735   3.786   3.230   9.757  0.3692  0.8600  0.6852
  246MPD1    H2 3736   3.853   3.550   9.505  1.3526 -1.2426  1.6229
  246MPD1    H3 3737   3.904   3.437   9.692 -1.0605  1.4803  0.8283
  246MPD1     N 3738   3.599   3.099   9.605  0.0522 -0.9977 -0.0834
  246MPD1    H5 3739   3.543   3.072   9.525 -1.0369 -0.0371  0.3590
  246MPD1    N1 3740   3.667   3.481   9.309 -0.0010 -0.2236 -0.0499
  246MPD1    H6 3741   3.648   3.414   9.234  1.1052  1.2311 -1.6293
  246MPD1    H7 3742   3.753   3.520   9.271  0.6232  0.1226  1.7503
  247MPD1     C 3743   1.661   0.675  15.855 -0.6044 -0.8971  0.0427
  247MPD1    C1 3744   1.722   0.685  15.979 -0.7015 -0.2792 -0.7116
  247MPD1    C2 3745   1.693   0.796  16.059 -0.0196  0.5457 -0.7917
  247MPD1    C3 3746   1.613   0.898  16.010 -0.6912 -0.6254 -0.0310
  247MPD1    C4 3747   1.564   0.894  15.880 -0.6176  0.9083  0.6835
  247MPD1    C5 3748   1.579   0.780  15.812 -0.1040  0.0041  0.9104
  247MPD1     H 3749   1.729   0.794  16.161 -1.7925 -1.2977 -0.2062
  247MPD1    H1 3750   1.528   0.981  15.826  1.2105 -0.1738 -2.2714
  247MPD1    H2 3751   1.681   0.587  15.796  5.7644  1.0070 -0.6820
  247MPD1    H3 3752   1.537   0.776  15.712 -1.0723 -2.3641  1.3981
  247MPD1     N 3753   1.571   1.007  16.094 -0.3723 -0.2369  0.4805
  247MPD1    H5 3754   1.497   1.067  16.060 -2.4383 -1.8747  2.1130
  247MPD1    N1 3755   1.784   0.573  16.038  0.0878  0.6575 -0.1458
  247MPD1    H6 3756   1.861   0.601  16.099 -0.9511  2.1827  0.4760
  247MPD1    H7 3757   1.842   0.531  15.966 -1.0768 -0.2661 -0.5438
  248MPD1     C 3758   2.428   2.567   0.491 -0.2386 -0.7489 -0.1687
  248MPD1    C1 3759   2.295   2.564   0.512 -0.1575 -0.2115 -0.5618
  248MPD1    C2 3760   2.257   2.477   0.619  0.7144  0.4954  0.0374
  248MPD1    C3 3761   2.341   2.394   0.692 -0.6392 -0.8877 -0.3145
  248MPD1    C4 3762   2.476   2.405   0.666 -0.3078  0.1684 -0.7354
  248MPD1    C5 3763   2.516   2.495   0.567 -0.0506  0.4719 -0.9788
  248MPD1     H 3764   2.151   2.487   0.640  0.5312  0.9953 -1.1045
  248MPD1    H1 3765   2.549   2.341   0.715  0.2781  0.1927 -1.5779
  248MPD1    H2 3766   2.466   2.633   0.414  0.7628  0.1157  1.0483
  248MPD1    H3 3767   2.621   2.514   0.548  0.8602 -0.3775  3.2422
  248MPD1     N 3768   2.280   2.308   0.787  0.5410 -0.6619  0.0625
  248MPD1    H5 3769   2.179   2.317   0.791  0.9122  2.9205  1.2338
  248MPD1    N1 3770   2.214   2.666   0.463 -0.6698  0.2934 -0.1595
  248MPD1    H6 3771   2.243   2.678   0.366 -3.2005 -0.3375 -0.9927
  248MPD1    H7 3772   2.117   2.633   0.465 -0.2132 -1.0389 -0.1485
  249MPD1     C 3773   3.488   0.712   9.255  0.7210  0.4598 -0.0313
  249MPD1    C1 3774   3.396   0.644   9.337  0.0642 -0.2683  0.4591
  249MPD1    C2 3775   3.441   0.590   9.452  0.4347 -0.2588 -0.6222
  249MPD1    C3 3776   3.572   0.603   9.498 -0.0963 -1.2559 -0.3149
  249MPD1    C4 3777   3.660   0.680   9.414 -0.3241  0.4894 -0.0012
  249MPD1    C5 3778   3.615   0.741   9.299  0.7214 -0.5210  0.0151
  249MPD1     H 3779   3.377   0.526   9.512 -1.3335  0.4968 -1.6860
  249MPD1    H1 3780   3.763   0.702   9.441 -0.2487 -0.5480  0.5689
  249MPD1    H2 3781   3.453   0.762   9.165 -2.7576  3.1243  2.7797
  249MPD1    H3 3782   3.688   0.783   9.231  0.5236 -0.7303 -0.3294
  249MPD1     N 3783   3.609   0.554   9.622  0.3042  0.6322  0.2793
  249MPD1    H5 3784   3.536   0.510   9.677 -0.1452  0.9838 -0.0315
  249MPD1    N1 3785   3.268   0.605   9.289 -0.0490 -0.0510  0.0094
  249MPD1    H6 3786   3.200   0.603   9.365 -1.4521 -2.8148 -1.3446
  249MPD1    H7 3787   3.246   0.667   9.212 -1.7937 -0.5815  0.0906
  250MPD2     C 3788   0.328   0.344  13.550  1.0184 -0.0828 -0.4845
  250MPD2    C1 3789   0.286   0.354  13.418 -0.0346 -0.1232 -0.4761
  250MPD2    C2 3790   0.227   0.244  13.359  0.7162 -1.1186  0.7525
  250MPD2    C3 3791   0.200   0.130  13.427  0.1242  1.1351 -0.6559
  250MPD2    C4 3792   0.243   0.118  13.556 -0.2463 -0.6360 -0.0972
  250MPD2    C5 3793   0.305   0.227  13.621  0.2020  0.0694  0.0111
  250MPD2     H 3794   0.205   0.252  13.253 -0.0845  0.8109  1.0639
  250MPD2    H1 3795   0.217   0.031  13.615  0.8513 -0.0242  1.2788
  250MPD2    H2 3796   0.373   0.426  13.605 -0.8441  0.6186 -0.0281
  250MPD2    H3 3797   0.323   0.219  13.728  1.0048  1.4044 -0.0267
  250MPD2     N 3798   0.137   0.019  13.362 -0.7857  0.2972  0.0114
  250MPD2    H5 3799   0.126   4.655  13.416 -0.2524 -0.7346 -1.5229
  250MPD2    N1 3800   0.317   0.483  13.352 -0.4138  0.2019  0.1385
  250MPD2    H7 3801   0.378   0.547  13.402 -2.0163 -0.9491  3.5688
  251TMC3    C1 3802   0.304   0.655  13.181 -0.0518  0.1892  0.0977
  251TMC3    C2 3803   0.327   0.755  13.268 -0.4684  0.5576  1.3795
  251TMC3    C3 3804   0.384   0.861  13.212 -0.0170  0.0145  0.2811
  251TMC3    C4 3805   0.329   0.660  13.050 -0.5487 -0.1768 -0.1969
  251TMC3    C5 3806   0.403   0.765  13.000 -0.1329  0.8847  0.0077
  251TMC3    C6 3807   0.431   0.875  13.082  0.3739 -0.1673 -0.6758
  251TMC3     C 3808   0.262   0.520  13.231 -0.2897  0.0485 -0.6251
  251TMC3     O 3809   0.201   0.449  13.149 -0.0618  0.2430 -0.3777
  251TMC3     H 3810   0.296   0.749  13.372 -0.8480  1.4455  1.3179
  251TMC3    H1 3811   0.323   0.563  13.001  2.0075 -0.1248 -0.6085
  251TMC3    H2 3812   0.485   0.967  13.060 -0.6293  0.2729 -1.3394
  251TMC3    C7 3813   0.516   0.719  12.932  0.3920 -0.2484 -0.8565
  251TMC3    C8 3814   0.438   0.964  13.295 -0.8635 -0.2307  0.0477
  251TMC3    O1 3815   0.535   0.598  12.933 -0.6846  1.2722 -0.0841
  251TMC3    O2 3816   0.439   1.076  13.249  0.2701  0.1273 -0.3055
  252TMC3    C1 3817   1.020   0.213   9.515 -0.3340 -0.4546 -0.6407
  252TMC3    C2 3818   1.072   0.329   9.467 -0.3741  1.3714  0.2391
  252TMC3    C3 3819   1.126   0.421   9.552  0.2252  0.5624  0.7994
  252TMC3    C4 3820   1.042   0.176   9.643  0.3340 -0.6295 -0.3927
  252TMC3    C5 3821   1.113   0.260   9.722 -0.3974  0.1232  0.5893
  252TMC3    C6 3822   1.135   0.390   9.683 -0.6066 -0.4175  0.0572
  252TMC3     C 3823   0.951   0.110   9.439  0.2968 -0.9494 -0.3289
  252TMC3     O 3824   0.927   0.003   9.490 -0.4238 -0.3430 -0.0945
  252TMC3     H 3825   1.069   0.349   9.361  1.2285  0.8381  0.0940
  252TMC3    H1 3826   0.992   0.090   9.686 -0.7823 -0.4610 -1.3791
  252TMC3    H2 3827   1.180   0.452   9.760  0.1049 -0.6974 -0.1337
  252TMC3    C7 3828   1.142   0.222   9.862  0.7898 -0.9076  0.9492
  252TMC3    C8 3829   1.139   0.556   9.496  0.3708 -0.0179  0.6430
  252TMC3    O1 3830   1.145   0.302   9.952  0.1002  0.5273  0.2647
  252TMC3    O2 3831   1.087   0.584   9.391 -0.3148 -0.3809  0.5738
  253MPD2     C 3832   1.951   0.409  15.705 -0.1865  1.1056  0.1699
  253MPD2    C1 3833   1.862   0.301  15.689 -0.4124  0.1827 -0.2127
  253MPD2    C2 3834   1.830   0.219  15.805 -0.1185 -1.3835 -0.3666
  253MPD2    C3 3835   1.894   0.250  15.921 -0.1967 -0.1174 -0.2789
  253MPD2    C4 3836   1.989   0.348  15.932 -0.5204  0.0188 -0.0931
  253MPD2    C5 3837   2.021   0.423  15.823  0.4701  0.0045 -0.2489
  253MPD2     H 3838   1.762   0.135  15.803  0.4657 -1.8337 -1.1142
  253MPD2    H1 3839   2.027   0.383  16.027  0.7154  0.5027 -0.7672
  253MPD2    H2 3840   1.972   0.466  15.616 -0.0649  0.7885 -0.0045
  253MPD2    H3 3841   2.086   0.510  15.825  0.9452 -0.3675  0.5446
  253MPD2     N 3842   1.848   0.198  16.046 -0.1481  0.4307  0.6633
  253MPD2    H5 3843   1.904   0.204  16.130 -0.2926  1.9715  0.6500
  253MPD2    N1 3844   1.811   0.271  15.558  0.1200 -0.2111 -0.0361
  253MPD2    H7 3845   1.826   0.343  15.488  0.5997 -0.1485  0.1315
  254TMC3    C1 3846   1.692   0.110  16.190  0.4254 -0.0739  0.2575
  254TMC3    C2 3847   1.559   0.137  16.212 -0.4791 -0.4191  0.2616
  254TMC3    C3 3848   1.529   0.203  16.335 -0.0150  0.5359 -0.1171
  254TMC3    C4 3849   1.786   0.125  16.289 -0.7770  0.0829 -0.6419
  254TMC3    C5 3850   1.762   0.189  16.400  0.8578  0.6067  0.3874
  254TMC3    C6 3851   1.629   0.222  16.421  0.3290  0.5271  0.5704
  254TMC3     C 3852   1.735   0.119  16.056  0.4159 -0.3644 -0.2985
  254TMC3     O 3853   1.649   0.085  15.980 -0.3142 -0.3495 -0.5867
  254TMC3     H 3854   1.484   0.138  16.133  0.4119  1.4862 -0.5465
  254TMC3    H1 3855   1.883   0.083  16.264 -0.2949  0.0886  1.2090
  254TMC3    H2 3856   1.608   0.271  16.516  2.1085  0.0982  1.1815
  254TMC3    C7 3857   1.850   0.173  16.502  1.1148  0.8204 -0.1127
  254TMC3    C8 3858   1.406   0.274  16.351 -0.7240 -0.3894  0.1203
  254TMC3    O1 3859   1.901   0.062  16.515 -0.0996 -0.2103  0.4181
  254TMC3    O2 3860   1.402   0.348  16.447  0.3292  0.0833  0.0569
  255MPD2     C 3861   0.408   2.479  10.317  0.5393  0.0975 -0.3145
  255MPD2    C1 3862   0.499   2.564  10.381 -0.8560 -0.2093  0.9008
  255MPD2    C2 3863   0.622   2.513  10.425  0.0792  0.8955  0.4746
  255MPD2    C3 3864   0.656   2.387  10.385 -0.2790  0.3210  0.4565
  255MPD2    C4 3865   0.572   2.309  10.312  0.4909  0.2587  0.0530
  255MPD2    C5 3866   0.446   2.355  10.283  0.7900  0.0640  0.0921
  255MPD2     H 3867   0.677   2.569  10.499 -0.8180 -1.7229  3.1197
  255MPD2    H1 3868   0.603   2.207  10.293  0.2516  0.1940  0.0129
  255MPD2    H2 3869   0.303   2.501  10.299  1.0599  1.7047 -1.4088
  255MPD2    H3 3870   0.368   2.291  10.244 -1.5193  2.0853  1.3858
  255MPD2     N 3871   0.788   2.357  10.421  0.2812 -0.5997 -0.4112
  255MPD2    H5 3872   0.836   2.423  10.481  0.8508 -0.9151 -0.5144
  255MPD2    N1 3873   0.450   2.701  10.405 -0.3006 -0.0656 -0.1924
  255MPD2    H7 3874   0.352   2.723  10.400 -0.0722  1.3214  1.4916
  256TMC3    C1 3875   0.470   2.932  10.450  0.0816 -0.0757  0.2404
  256TMC3    C2 3876   0.544   3.020  10.374  0.5314 -0.4104 -0.3654
  256TMC3    C3 3877   0.488   3.053  10.252 -0.5335 -0.4208 -0.2155
  256TMC3    C4 3878   0.331   2.913  10.434  0.6578 -0.6957  0.1076
  256TMC3    C5 3879   0.273   2.971  10.318 -0.1697  0.2231 -0.0894
  256TMC3    C6 3880   0.357   3.032  10.224  0.7038  0.1099 -0.0996
  256TMC3     C 3881   0.535   2.806  10.439 -1.2081 -0.2952 -0.2753
  256TMC3     O 3882   0.657   2.810  10.444  0.1488 -0.3745 -0.2873
  256TMC3     H 3883   0.651   3.027  10.391  0.1236  0.7639  1.7196
  256TMC3    H1 3884   0.277   2.844  10.498 -1.6855 -0.6465 -1.8057
  256TMC3    H2 3885   0.328   3.056  10.122 -2.9802 -0.7929  0.7184
  256TMC3    C7 3886   0.154   2.907  10.262  0.3087 -0.1515  0.1562
  256TMC3    C8 3887   0.573   3.082  10.133 -0.3340  0.2227  0.5321
  256TMC3    O1 3888   0.150   2.895  10.140  0.4551  0.1080  0.5686
  256TMC3    O2 3889   0.539   3.041  10.023  0.0517  0.7898  0.4773
  257MPD2     C 3890   4.244   0.335  13.633  0.0314 -0.3488  0.1872
  257MPD2    C1 3891   4.191   0.259  13.533 -0.3414  0.1093  0.3061
  257MPD2    C2 3892   4.221   0.120  13.529 -0.6938  0.3599 -0.3278
  257MPD2    C3 3893   4.272   0.062  13.648  0.1547 -0.0649  0.0244
  257MPD2    C4 3894   4.314   0.141  13.756 -0.4189  0.6815 -0.3296
  257MPD2    C5 3895   4.304   0.278  13.751  0.1292 -0.4489  0.0122
  257MPD2     H 3896   4.201   0.048  13.450  3.1173 -2.9756  1.7861
  257MPD2    H1 3897   4.352   0.105  13.851 -0.8559  0.1775 -0.3547
  257MPD2    H2 3898   4.238   0.443  13.619 -0.5929 -0.2872  0.9815
  257MPD2    H3 3899   4.323   0.347  13.832 -0.0833 -0.0066 -0.3133
  257MPD2     N 3900   4.277   4.641  13.657  0.3767  1.2953  0.6429
  257MPD2    H5 3901   4.242   4.583  13.581 -2.7621  1.7827  1.7176
  257MPD2    N1 3902   4.137   0.327  13.418  0.5071 -0.2956  0.9284
  257MPD2    H7 3903   4.116   0.426  13.424  3.6271  0.4519 -0.5857
  258TMC3    C1 3904   4.316   4.432  13.763  0.2600  0.3211  0.1207
  258TMC3    C2 3905   4.247   4.374  13.658 -0.2936 -0.3633  0.0799
  258TMC3    C3 3906   4.155   4.272  13.682  0.6935 -0.0948 -0.0332
  258TMC3    C4 3907   4.303   4.377  13.888 -0.5948 -0.0635 -0.2444
  258TMC3    C5 3908   4.214   4.274  13.907  0.0808  0.1207  0.5049
  258TMC3    C6 3909   4.141   4.217  13.813  0.5422  0.4794 -0.2959
  258TMC3     C 3910   4.328   4.569  13.768  0.1015 -0.3114  0.0905
  258TMC3     O 3911   4.363   4.609  13.879  0.6821 -0.3543  0.2513
  258TMC3     H 3912   4.268   4.405  13.557 -0.5416 -0.4842 -0.0105
  258TMC3    H1 3913   4.353   4.420  13.973  1.4834 -2.7671 -0.0918
  258TMC3    H2 3914   4.089   4.125  13.835 -1.4691  2.0502  1.5920
  258TMC3    C7 3915   4.231   4.198  14.036  0.2384 -0.3172  0.1368
  258TMC3    C8 3916   4.121   4.186  13.573 -0.6996 -0.3202 -0.6975
  258TMC3    O1 3917   4.149   4.112  14.057 -0.6329  0.1879  0.2934
  258TMC3    O2 3918   4.070   4.075  13.596 -0.4729  0.4789 -0.1758
  259MPD2     C 3919   3.224   0.794   1.585  1.4315  0.3108  0.4255
  259MPD2    C1 3920   3.115   0.859   1.523 -0.1380  0.1713  0.5140
  259MPD2    C2 3921   3.081   0.832   1.387 -0.8025 -0.1082  0.1205
  259MPD2    C3 3922   3.160   0.741   1.319  0.1513 -0.3964 -0.1857
  259MPD2    C4 3923   3.269   0.677   1.380  0.3281  0.4449  0.0637
  259MPD2    C5 3924   3.295   0.700   1.513 -0.5925 -0.1614  0.1471
  259MPD2     H 3925   3.008   0.896   1.339  0.7350  0.7051 -1.1783
  259MPD2    H1 3926   3.333   0.605   1.331  1.0788  1.5473 -0.5671
  259MPD2    H2 3927   3.261   0.819   1.684 -1.6026 -0.7327  1.8206
  259MPD2    H3 3928   3.367   0.634   1.560 -0.4094 -1.5513 -2.0698
  259MPD2     N 3929   3.122   0.728   1.178  0.6083 -0.5304 -0.3443
  259MPD2    H5 3930   3.034   0.774   1.158  1.0973  0.2525 -0.6868
  259MPD2    N1 3931   3.052   0.946   1.607 -0.2344  0.0517  0.4037
  259MPD2    H7 3932   3.097   0.968   1.696  0.1859 -2.8002  0.8823
  260TMC3    C1 3933   3.159   0.697   0.953 -0.1487 -0.1021 -0.5813
  260TMC3    C2 3934   3.248   0.707   0.848  0.0916  0.7870  0.3299
  260TMC3    C3 3935   3.197   0.735   0.716 -1.0702  0.3972 -0.2590
  260TMC3    C4 3936   3.023   0.712   0.937  0.1045  0.1414  0.0966
  260TMC3    C5 3937   2.982   0.729   0.807 -0.0568 -0.6950 -0.1894
  260TMC3    C6 3938   3.064   0.741   0.701  0.3923  0.1231 -0.4771
  260TMC3     C 3939   3.206   0.676   1.087 -0.4668  0.1114 -0.0584
  260TMC3     O 3940   3.319   0.640   1.105  0.8332  0.0802  0.1995
  260TMC3     H 3941   3.355   0.708   0.867 -0.4274  1.2132  3.2126
  260TMC3    H1 3942   2.958   0.675   1.015  1.3985 -1.3659  0.4594
  260TMC3    H2 3943   3.021   0.764   0.604 -3.1004  0.2407  1.0807
  260TMC3    C7 3944   2.841   0.717   0.780  0.1506 -0.8378  0.0331
  260TMC3    C8 3945   3.295   0.760   0.612 -0.4090  0.1318 -0.5069
  260TMC3    O1 3946   2.797   0.750   0.667  0.1274 -0.2447 -1.1518
  260TMC3    O2 3947   3.412   0.760   0.648 -0.5639 -0.3574 -0.1380
  261MPD2     C 3948   4.610   4.362  12.612  0.1201  0.6003 -0.2614
  261MPD2    C1 3949   4.611   4.486  12.665 -0.2181  0.4291 -0.1530
  261MPD2    C2 3950   4.599   4.586  12.573  0.2036 -0.3072 -0.4966
  261MPD2    C3 3951   4.588   4.561  12.438  0.1251  0.3854  0.1580
  261MPD2    C4 3952   4.579   4.440  12.387  0.2177  0.5718 -0.6763
  261MPD2    C5 3953   4.594   4.339  12.481 -0.1809 -0.9335 -0.5213
  261MPD2     H 3954   4.623   4.687  12.607  0.7472 -0.3822 -0.6650
  261MPD2    H1 3955   4.564   4.419  12.282 -0.8538  3.0551 -1.0170
  261MPD2    H2 3956   4.632   4.275  12.672  0.3647  0.0772 -1.1135
  261MPD2    H3 3957   4.608   4.237  12.445  0.8763 -1.3601  1.1250
  261MPD2     N 3958   4.593   4.669  12.346  0.2446  0.1760  0.2879
  261MPD2    H5 3959   4.623   4.652  12.251 -0.6139  2.3267 -0.3592
  261MPD2    N1 3960   4.635   4.507  12.805 -0.1617  0.5281 -0.3356
  261MPD2    H7 3961   4.651   4.605  12.825 -0.5476  0.8154 -1.4555
  262TMC3    C1 3962   4.586   0.161  12.267  0.1242 -0.1325  0.0155
  262TMC3    C2 3963   4.520   0.280  12.267  0.1809 -0.3254 -0.2207
  262TMC3    C3 3964   4.572   0.378  12.185 -0.6228  0.0473 -0.0544
  262TMC3    C4 3965   4.702   0.138  12.198 -0.1089  0.5216  0.2541
  262TMC3    C5 3966   0.035   0.242  12.135  0.4034 -0.0074  0.5715
  262TMC3    C6 3967   4.695   0.362  12.123 -0.2114  0.0005 -0.2921
  262TMC3     C 3968   4.553   0.074  12.375  0.1997 -0.4001  0.1393
  262TMC3     O 3969   4.494   0.121  12.471  0.0014  0.0746  0.6830
  262TMC3     H 3970   4.436   0.296  12.333  0.8696  1.9926  0.0971
  262TMC3    H1 3971   0.035   0.046  12.212 -1.4775 -0.2582  0.5381
  262TMC3    H2 3972   0.029   0.434  12.065 -1.1208  0.9503  0.0162
  262TMC3    C7 3973   0.177   0.243  12.115 -0.2503 -0.0238 -0.0645
  262TMC3    C8 3974   4.532   0.515  12.192  0.2739  0.3883 -0.1117
  262TMC3    O1 3975   0.224   0.125  12.105  0.0814 -0.4595  0.0459
  262TMC3    O2 3976   4.585   0.594  12.114  0.3345  0.2477 -0.3552
  263MPD2     C 3977   1.192   3.766  11.750  0.5435 -0.5153  0.2938
  263MPD2    C1 3978   1.264   3.884  11.789  0.0005  0.4350  0.5813
  263MPD2    C2 3979   1.280   3.986  11.692 -1.0556  0.2056  0.2404
  263MPD2    C3 3980   1.239   3.969  11.562 -0.2443  0.2596  0.3868
  263MPD2    C4 3981   1.167   3.856  11.532 -0.4872 -0.6722 -0.0703
  263MPD2    C5 3982   1.140   3.757  11.624  0.6671 -0.4621  0.2327
  263MPD2     H 3983   1.333   4.079  11.711  0.9461 -1.1602  1.2894
  263MPD2    H1 3984   1.129   3.850  11.430 -0.1399  0.6336 -0.2840
  263MPD2    H2 3985   1.168   3.693  11.826  0.3732 -2.9458 -2.1165
  263MPD2    H3 3986   1.086   3.673  11.582 -1.1898 -0.5268  2.7816
  263MPD2     N 3987   1.269   4.070  11.468  0.1170  0.0120  0.1416
  263MPD2    H5 3988   1.311   4.156  11.500  0.8382 -0.1297 -0.4256
  263MPD2    N1 3989   1.324   3.891  11.919  0.0833  0.1720  0.6941
  263MPD2    H7 3990   1.311   3.814  11.985  0.3810 -0.0452  0.5007
  264TMC3    C1 3991   1.327   4.178  11.268  0.4518  0.1691  0.7011
  264TMC3    C2 3992   1.262   4.294  11.314 -0.2287  0.8189 -0.4765
  264TMC3    C3 3993   1.213   4.374  11.210  0.2286 -0.5691 -0.1120
  264TMC3    C4 3994   1.353   4.148  11.136 -0.6342 -0.3340 -0.2073
  264TMC3    C5 3995   1.312   4.239  11.041 -0.1663  0.5013  0.4241
  264TMC3    C6 3996   1.239   4.347  11.078 -0.2823  0.1699 -0.1875
  264TMC3     C 3997   1.289   4.054  11.330  0.1375 -0.2916  0.5638
  264TMC3     O 3998   1.263   3.960  11.256 -0.1068 -0.1007  0.6771
  264TMC3     H 3999   1.231   4.306  11.417 -0.9003 -0.0379 -0.5776
  264TMC3    H1 4000   1.407   4.058  11.108  1.3838  0.7764  0.0739
  264TMC3    H2 4001   1.202   4.419  11.007 -1.6346 -0.7179 -0.3649
  264TMC3    C7 4002   1.419   4.262  10.949  0.2599  0.0301 -0.4596
  264TMC3    C8 4003   1.231   4.517  11.226  0.2570  0.2611 -0.6016
  264TMC3    O1 4004   1.495   4.168  10.924 -0.1496  0.5259 -0.1694
  264TMC3    O2 4005   1.302   4.563  11.134  0.3392 -0.2008 -0.5027
  265MPD2     C 4006   3.217   0.305  15.176 -1.0943 -0.1290 -0.2867
  265MPD2    C1 4007   3.166   0.199  15.254 -0.0645  0.5724  0.0236
  265MPD2    C2 4008   3.237   0.077  15.244 -0.7402 -0.1762 -0.0440
  265MPD2    C3 4009   3.355   0.064  15.175  0.8050 -0.5928 -0.1332
  265MPD2    C4 4010   3.402   0.169  15.104  0.4970 -0.0765  0.4849
  265MPD2    C5 4011   3.330   0.282  15.102 -0.3152  1.1038  0.3870
  265MPD2     H 4012   3.201   4.717  15.306  0.4013 -0.6532 -0.0106
  265MPD2    H1 4013   3.492   0.162  15.045 -0.8294 -0.4318 -1.4781
  265MPD2    H2 4014   3.156   0.394  15.163 -1.2962 -0.0756  1.0721
  265MPD2    H3 4015   3.376   0.363  15.046 -1.9569  1.5615 -0.2840
  265MPD2     N 4016   3.433   4.667  15.164  0.6930  0.3656 -0.2698
  265MPD2    H5 4017   3.518   4.668  15.108  0.8833  2.8435  0.0617
  265MPD2    N1 4018   3.050   0.210  15.330  0.2112 -0.4640  0.3390
  265MPD2    H7 4019   3.021   0.121  15.370  1.7755 -0.5761  1.2189
  266TMC3    C1 4020   2.859   0.321  15.423 -0.6153 -0.0114 -0.5771
  266TMC3    C2 4021   2.851   0.239  15.528 -1.0880  0.0145  0.1950
  266TMC3    C3 4022   2.803   0.281  15.651 -0.4057  0.2193 -0.3439
  266TMC3    C4 4023   2.793   0.441  15.429 -0.2704 -0.3632 -0.2176
  266TMC3    C5 4024   2.736   0.476  15.552 -0.1451 -0.6964 -0.1451
  266TMC3    C6 4025   2.745   0.398  15.666 -0.2220 -0.1276  1.0889
  266TMC3     C 4026   2.985   0.329  15.352 -0.3253  0.2251  1.2510
  266TMC3     O 4027   3.015   0.443  15.322  0.0319  0.4036 -0.4381
  266TMC3     H 4028   2.908   0.146  15.528  0.4789  0.9770 -0.6765
  266TMC3    H1 4029   2.790   0.500  15.338 -0.0200  3.1695  2.0665
  266TMC3    H2 4030   2.700   0.429  15.759  0.4472 -2.0106  2.0443
  266TMC3    C7 4031   2.735   0.616  15.588  0.2672  0.1403 -0.8800
  266TMC3    C8 4032   2.838   0.196  15.769 -0.1237 -0.3112  0.4288
  266TMC3    O1 4033   2.763   0.649  15.702  0.5527 -0.4062  0.2205
  266TMC3    O2 4034   2.882   0.083  15.753 -0.0859 -0.2799 -0.1030
  267MPD2     C 4035   0.502   2.221   0.674  0.1608  0.3722 -0.3851
  267MPD2    C1 4036   0.615   2.285   0.625 -1.0416 -0.0119  0.3236
  267MPD2    C2 4037   0.604   2.332   0.496 -0.3290  0.3724 -0.2915
  267MPD2    C3 4038   0.487   2.328   0.420  0.1698  0.6154  0.6631
  267MPD2    C4 4039   0.380   2.270   0.475  0.1950  0.8016  0.6731
  267MPD2    C5 4040   0.385   2.222   0.605 -0.3359  0.3723 -0.0037
  267MPD2     H 4041   0.694   2.364   0.444  0.6750  0.2530  1.3643
  267MPD2    H1 4042   0.282   2.277   0.429  0.6976  1.6831 -0.2713
  267MPD2    H2 4043   0.508   2.160   0.764  1.6738 -0.7123 -1.2181
  267MPD2    H3 4044   0.287   2.195   0.642 -1.0518 -0.0127 -2.1344
  267MPD2     N 4045   0.477   2.381   0.294  0.0188  0.7612 -0.0195
  267MPD2    H5 4046   0.394   2.360   0.239 -0.5589  0.7993  0.8247
  267MPD2    N1 4047   0.738   2.261   0.697 -0.0180  0.0799  0.3197
  267MPD2    H7 4048   0.737   2.183   0.762  1.2943 -0.0924  0.1256
  268TMC3    C1 4049   0.976   2.248   0.713  1.0125 -0.0756 -0.0512
  268TMC3    C2 4050   1.073   2.220   0.623  0.5876 -0.1187 -0.2514
  268TMC3    C3 4051   1.184   2.165   0.683  0.0786  0.1987  0.0209
  268TMC3    C4 4052   0.985   2.242   0.850  0.1754  0.1102 -0.2020
  268TMC3    C5 4053   1.106   2.200   0.899  0.1357  0.4496 -0.1128
  268TMC3    C6 4054   1.206   2.161   0.814 -0.1816  0.0907 -0.2322
  268TMC3     C 4055   0.859   2.312   0.659 -0.2109  0.0007 -0.7204
  268TMC3     O 4056   0.879   2.405   0.577  0.5720 -0.1738  0.1864
  268TMC3     H 4057   1.053   2.238   0.518 -0.9547 -2.5178 -0.3583
  268TMC3    H1 4058   0.904   2.274   0.914  0.0084  1.9282 -1.3306
  268TMC3    H2 4059   1.296   2.123   0.860  1.5036  0.9414 -2.8310
  268TMC3    C7 4060   1.097   2.120   1.016  0.1508 -0.6140 -0.1127
  268TMC3    C8 4061   1.281   2.101   0.594 -1.1021  0.1247  0.2292
  268TMC3    O1 4062   1.155   2.016   1.009  0.6565 -0.2718  0.4838
  268TMC3    O2 4063   1.382   2.056   0.643  0.6144 -0.7084  0.2713
  269MPD2     C 4064   0.844   0.300  15.902  0.2027  0.7604  0.2650
  269MPD2    C1 4065   0.719   0.291  15.848  0.3346 -0.0889  0.4198
  269MPD2    C2 4066   0.663   0.402  15.790 -0.2848  0.0923 -0.2655
  269MPD2    C3 4067   0.731   0.526  15.789 -0.0075  0.6343 -0.3973
  269MPD2    C4 4068   0.858   0.531  15.841 -0.2617  0.3996 -0.5468
  269MPD2    C5 4069   0.910   0.417  15.897 -0.1201  0.1900 -0.5547
  269MPD2     H 4070   0.559   0.403  15.757 -0.2070 -2.9712 -0.6408
  269MPD2    H1 4071   0.918   0.621  15.850 -0.5410  0.5667 -0.3487
  269MPD2    H2 4072   0.895   0.215  15.947 -1.3688 -0.5247 -0.3656
  269MPD2    H3 4073   1.013   0.423  15.932  0.0824 -0.7584 -0.9908
  269MPD2     N 4074   0.666   0.632  15.726 -0.7196  0.0604 -0.1688
  269MPD2    H5 4075   0.569   0.623  15.699 -1.1898  0.2539  1.4434
  269MPD2    N1 4076   0.659   0.165  15.844 -0.1601 -0.6086  0.1718
  269MPD2    H7 4077   0.724   0.093  15.872 -1.5149 -2.0920 -0.4763
  270TMC3    C1 4078   0.494   0.004  15.808  0.6481 -0.0211  0.6673
  270TMC3    C2 4079   0.394   4.696  15.723 -1.0220  0.7712 -0.7486
  270TMC3    C3 4080   0.364   4.565  15.703 -0.2722  0.2241  0.6422
  270TMC3    C4 4081   0.573   4.637  15.870  0.3559 -0.1289  0.5953
  270TMC3    C5 4082   0.548   4.509  15.837  0.0001 -0.3515  0.0924
  270TMC3    C6 4083   0.443   4.472  15.764 -0.3913  0.0480 -0.4516
  270TMC3     C 4084   0.531   0.137  15.801 -0.3122 -0.2264 -0.7315
  270TMC3     O 4085   0.447   0.213  15.753  0.3247  0.7165 -0.2308
  270TMC3     H 4086   0.350   0.046  15.655  0.1510  0.5129 -1.7848
  270TMC3    H1 4087   0.647   4.663  15.944 -2.1266  2.4544  2.1746
  270TMC3    H2 4088   0.423   4.368  15.740 -1.5717  0.6381 -2.0335
  270TMC3    C7 4089   0.638   4.402  15.869  1.0850 -0.1522 -0.1381
  270TMC3    C8 4090   0.296   4.537  15.587 -0.7903  0.0618 -0.7797
  270TMC3    O1 4091   0.754   4.436  15.860 -0.1922 -0.2183  0.2776
  270TMC3    O2 4092   0.182   4.495  15.583 -0.4141  0.2529  0.2661
  271MPD2     C 4093   4.713   0.449  14.045 -0.3232  0.2950  0.0695
  271MPD2    C1 4094   4.656   0.340  14.098  0.5839  0.1447 -0.1727
  271MPD2    C2 4095   4.521   0.326  14.113  0.0284 -0.6135 -0.4498
  271MPD2    C3 4096   4.435   0.422  14.064  0.0587  0.0580 -0.8264
  271MPD2    C4 4097   4.485   0.539  14.007  0.2068  0.0466  0.0855
  271MPD2    C5 4098   4.624   0.549  14.007  0.0244 -0.5100  0.2625
  271MPD2     H 4099   4.477   0.249  14.175 -2.4270  0.6402 -0.6455
  271MPD2    H1 4100   4.422   0.611  13.957 -0.4181  0.5274  1.5616
  271MPD2    H2 4101   0.098   0.465  14.041 -0.1413 -0.5465  1.6864
  271MPD2    H3 4102   4.653   0.638  13.953 -1.1813 -0.4845 -0.3480
  271MPD2     N 4103   4.298   0.406  14.081 -0.0427 -0.0964 -0.2015
  271MPD2    H5 4104   4.239   0.488  14.070 -0.0257 -0.3841 -2.4401
  271MPD2    N1 4105   0.011   0.239  14.158  0.5016  0.3067  0.2465
  271MPD2    H7 4106   4.679   0.174  14.214 -0.6190  1.0948  0.0776
  272TMC3    C1 4107   0.196   0.120  14.226 -0.4402 -0.3408  0.0420
  272TMC3    C2 4108   0.321   0.079  14.205  0.0855  0.1954 -0.2998
  272TMC3    C3 4109   0.379   4.717  14.302 -0.1450  0.0574  0.1174
  272TMC3    C4 4110   0.133   0.103  14.349  0.2941 -0.7221  1.3522
  272TMC3    C5 4111   0.199   0.029  14.438 -0.6137  0.3405  0.2108
  272TMC3    C6 4112   0.317   4.689  14.415 -0.0298 -0.8753  0.6615
  272TMC3     C 4113   0.141   0.215  14.134 -0.6208 -0.6116 -0.1249
  272TMC3     O 4114   0.218   0.256  14.051 -0.1696  0.3325  0.6488
  272TMC3     H 4115   0.372   0.098  14.112  1.4223 -0.6647  0.2628
  272TMC3    H1 4116   0.036   0.144  14.376 -0.1456 -0.5104 -0.5247
  272TMC3    H2 4117   0.361   4.627  14.492  1.9371 -2.2348 -1.5683
  272TMC3    C7 4118   0.131   0.001  14.565  0.3214 -0.1523  0.4680
  272TMC3    C8 4119   0.517   4.688  14.292 -0.1929 -0.5459  0.4079
  272TMC3    O1 4120   0.010   4.691  14.561  0.0370  0.0036  0.1734
  272TMC3    O2 4121   0.577   0.018  14.201  0.1427 -0.7443 -0.0349
  273MPD2     C 4122   1.455   3.363  12.112 -0.1478  0.7903  0.1358
  273MPD2    C1 4123   1.580   3.309  12.157 -0.0085  0.0757  0.4444
  273MPD2    C2 4124   1.608   3.175  12.136 -0.1611 -0.8382 -0.1936
  273MPD2    C3 4125   1.520   3.093  12.064 -0.0215  0.1326  0.9518
  273MPD2    C4 4126   1.401   3.141  12.018  0.8498  0.1832  0.7948
  273MPD2    C5 4127   1.377   3.277  12.035 -0.0376  0.0383 -0.8249
  273MPD2     H 4128   1.695   3.133  12.186 -1.3954 -3.4691 -0.2291
  273MPD2    H1 4129   1.321   3.084  11.972  0.0320  0.8709  1.3660
  273MPD2    H2 4130   1.433   3.468  12.120  0.7250  0.9061  1.0210
  273MPD2    H3 4131   1.284   3.310  11.989 -0.3739  0.3668  0.0746
  273MPD2     N 4132   1.558   2.967  12.023  0.8099 -0.0459 -0.3530
  273MPD2    H5 4133   1.506   2.929  11.945  0.3494 -2.6019  1.2098
  273MPD2    N1 4134   1.678   3.393  12.228  0.2324 -0.1718 -0.0738
  273MPD2    H7 4135   1.647   3.487  12.252 -1.6607 -0.5195 -1.1692
  274TMC3    C1 4136   1.755   2.968  11.912  0.0053 -0.0751 -0.5902
  274TMC3    C2 4137   1.698   2.927  11.795  0.9106  0.3188 -0.0111
  274TMC3    C3 4138   1.743   2.981  11.678  0.0344  0.1489 -0.0927
  274TMC3    C4 4139   1.847   3.067  11.919 -0.3960 -0.3956 -0.5641
  274TMC3    C5 4140   1.888   3.118  11.800 -0.1052  0.0633 -0.6702
  274TMC3    C6 4141   1.854   3.066  11.677 -0.0330 -0.7787 -0.3411
  274TMC3     C 4142   1.696   2.925  12.035  0.0474 -0.0828 -0.2299
  274TMC3     O 4143   1.771   2.935  12.132 -0.3753  0.1180  0.4808
  274TMC3     H 4144   1.614   2.858  11.798  1.2303 -0.0862 -0.3736
  274TMC3    H1 4145   1.878   3.109  12.014  1.3479 -1.5006 -0.6352
  274TMC3    H2 4146   1.891   3.118  11.590 -0.7359 -0.8611 -0.6902
  274TMC3    C7 4147   1.968   3.233  11.802 -0.6049  1.0493 -0.1558
  274TMC3    C8 4148   1.658   2.965  11.562 -0.3961  0.2137 -0.3119
  274TMC3    O1 4149   2.054   3.231  11.712 -0.3706  0.3743  0.0009
  274TMC3    O2 4150   1.570   2.878  11.565  0.3539 -0.1568  0.1662
  275MPD2     C 4151   1.416   1.372  14.534 -0.3345  0.2114  0.8938
  275MPD2    C1 4152   1.395   1.286  14.637  0.1959  0.9523 -0.0977
  275MPD2    C2 4153   1.284   1.199  14.624 -0.3430  0.5311 -0.0041
  275MPD2    C3 4154   1.203   1.213  14.508 -0.5617 -0.1372 -0.2470
  275MPD2    C4 4155   1.246   1.295  14.408  0.1906  0.2502 -0.9322
  275MPD2    C5 4156   1.351   1.378  14.415 -0.4158 -0.4443 -0.0512
  275MPD2     H 4157   1.258   1.139  14.710  1.4572 -1.3414 -0.7546
  275MPD2    H1 4158   1.184   1.308  14.320 -0.5237  2.6927 -0.0586
  275MPD2    H2 4159   1.501   1.439  14.544 -0.1998 -0.0287  1.3841
  275MPD2    H3 4160   1.376   1.451  14.338 -0.2311  0.3150  0.7309
  275MPD2     N 4161   1.072   1.153  14.490 -0.4269 -0.8573  0.0639
  275MPD2    H5 4162   1.031   1.163  14.398  3.9663  0.2087 -1.7575
  275MPD2    N1 4163   1.448   1.294  14.766 -0.0892 -0.2729  0.2606
  275MPD2    H7 4164   1.395   1.233  14.828 -0.1423 -2.4639 -1.9395
  276TMC3    C1 4165   1.605   1.319  14.929 -0.0210  0.7272 -0.2439
  276TMC3    C2 4166   1.598   1.181  14.958  0.1928  0.1091  0.0011
  276TMC3    C3 4167   1.665   1.122  15.059 -0.2938 -0.2232  0.2099
  276TMC3    C4 4168   1.698   1.388  14.998  0.1417  0.2779 -0.2590
  276TMC3    C5 4169   1.769   1.327  15.096 -0.1590  0.4940 -0.7056
  276TMC3    C6 4170   1.750   1.201  15.137 -0.4292 -0.7741  0.3454
  276TMC3     C 4171   1.552   1.372  14.805  0.2930 -0.0558  0.2053
  276TMC3     O 4172   1.618   1.460  14.745  0.0918 -0.1690  0.4918
  276TMC3     H 4173   1.535   1.114  14.900 -1.3609  1.8386 -0.3286
  276TMC3    H1 4174   1.712   1.494  14.980 -2.2265  0.4805 -0.9655
  276TMC3    H2 4175   1.798   1.166  15.228  0.9240  0.1328 -0.0257
  276TMC3    C7 4176   1.844   1.418  15.180  0.0370 -0.1229 -0.4058
  276TMC3    C8 4177   1.614   1.006  15.122 -0.5912 -0.4785 -0.1824
  276TMC3    O1 4178   1.840   1.417  15.303  0.1095  0.3383 -1.1063
  276TMC3    O2 4179   1.682   0.935  15.196  0.3820 -0.3204  0.0597
  277MPD2     C 4180   2.567   0.083  13.382 -0.2193 -0.8028  0.1044
  277MPD2    C1 4181   2.684   0.149  13.404 -0.2104 -0.5061 -0.3090
  277MPD2    C2 4182   2.750   0.130  13.526 -0.1802 -0.3365 -0.5904
  277MPD2    C3 4183   2.695   0.035  13.616  0.0219 -0.6403  0.1432
  277MPD2    C4 4184   2.579   4.693  13.594 -0.2710  0.2787  0.7451
  277MPD2    C5 4185   2.512   0.003  13.479 -0.1977  0.1440 -0.3269
  277MPD2     H 4186   2.849   0.172  13.540  0.2975 -1.6725  0.0508
  277MPD2    H1 4187   2.534   4.624  13.665  0.1121 -1.8646 -1.1036
  277MPD2    H2 4188   2.519   0.099  13.287 -2.4487 -1.0218  1.2009
  277MPD2    H3 4189   2.420   4.672  13.459 -0.0542  0.1100 -0.8815
  277MPD2     N 4190   2.771   0.012  13.733 -0.1007 -0.1671  0.1463
  277MPD2    H5 4191   2.866   0.048  13.725 -0.6914  1.1698 -0.7747
  277MPD2    N1 4192   2.723   0.239  13.301  0.1138  0.1820 -0.2702
  277MPD2    H7 4193   2.667   0.242  13.216 -0.4277  0.0468  0.0781
  278TMC3    C1 4194   2.830   4.649  13.941  0.2448  0.1886  0.2869
  278TMC3    C2 4195   2.960   4.612  13.902  0.2766  0.4605  1.1810
  278TMC3    C3 4196   3.059   4.611  13.995 -0.3716  0.3071  0.6944
  278TMC3    C4 4197   2.799   4.701  14.060  0.3323 -0.4464  0.4156
  278TMC3    C5 4198   2.903   4.707  14.148 -0.0475 -0.4407 -0.6259
  278TMC3    C6 4199   3.034   4.656  14.118 -0.8152 -0.4390  0.3857
  278TMC3     C 4200   2.720   4.672  13.846 -0.0064 -0.1096 -0.1069
  278TMC3     O 4201   2.607   4.652  13.885  0.1007  0.1650 -0.0356
  278TMC3     H 4202   2.970   4.577  13.800  0.6539 -2.1146  2.1076
  278TMC3    H1 4203   2.694   0.003  14.076  0.1644 -2.2436  1.9733
  278TMC3    H2 4204   3.110   4.654  14.194 -0.6026 -0.6937  0.1661
  278TMC3    C7 4205   2.881   0.034  14.286 -0.6840  0.1737 -0.4003
  278TMC3    C8 4206   3.170   4.522  13.966  0.4722  1.1728  0.0435
  278TMC3    O1 4207   2.968   0.016  14.372 -0.9501  0.2562  0.0191
  278TMC3    O2 4208   3.267   4.517  14.042 -0.5712 -0.1157 -0.0203
  279MPD2     C 4209   1.916   4.453   0.233 -0.3642  0.1392 -0.6178
  279MPD2    C1 4210   1.927   4.390   0.356 -0.3206  0.2677  0.4457
  279MPD2    C2 4211   1.974   4.261   0.365  1.2371 -0.5765 -0.6426
  279MPD2    C3 4212   2.010   4.198   0.245  0.2946 -0.6421 -0.3156
  279MPD2    C4 4213   2.003   4.263   0.125  0.4748  0.1709  0.3549
  279MPD2    C5 4214   1.961   4.393   0.115 -0.0527 -0.5074  0.2128
  279MPD2     H 4215   1.992   4.220   0.464  0.1008  1.2792  0.3360
  279MPD2    H1 4216   2.039   4.218   0.033  0.0221  0.1574  0.1843
  279MPD2    H2 4217   1.887   4.557   0.226 -1.3016 -0.1834 -1.5211
  279MPD2    H3 4218   1.976   4.447   0.022  1.9905 -0.6041  0.4869
  279MPD2     N 4219   2.097   4.083   0.244 -0.3079  0.3011  0.0907
  279MPD2    H5 4220   2.142   4.065   0.155 -0.4413 -4.6241  1.0573
  279MPD2    N1 4221   1.876   4.465   0.469 -0.0053 -0.0230 -0.3177
  279MPD2    H7 4222   1.854   4.562   0.450 -0.0342  0.7030  3.2958
  280TMC3    C1 4223   1.792   4.512   0.669 -0.0737  0.7001  0.3042
  280TMC3    C2 4224   1.658   4.494   0.697  0.4760 -0.1535  0.1169
  280TMC3    C3 4225   1.577   4.603   0.721  0.4042 -0.1812  0.3367
  280TMC3    C4 4226   1.832   4.646   0.647 -0.0565 -0.4229 -0.3503
  280TMC3    C5 4227   1.744   0.027   0.669 -0.4052  0.2995  0.7637
  280TMC3    C6 4228   1.610   0.010   0.708  0.3784 -0.5980 -0.9884
  280TMC3     C 4229   1.843   4.407   0.591  0.7857 -0.8173  1.1458
  280TMC3     O 4230   1.819   4.287   0.618 -0.6869  0.2150  0.2415
  280TMC3     H 4231   1.628   4.392   0.714 -0.0145 -0.1671 -0.8247
  280TMC3    H1 4232   1.930   4.675   0.610 -0.9597  0.3918 -2.0940
  280TMC3    H2 4233   1.541   0.093   0.720  0.4422 -0.4633 -1.5501
  280TMC3    C7 4234   1.801   0.162   0.671  0.1656 -0.7578 -0.1714
  280TMC3    C8 4235   1.450   4.582   0.780  1.2859 -0.2720  0.0328
  280TMC3    O1 4236   1.922   0.171   0.675 -0.4914  0.2503  0.0786
  280TMC3    O2 4237   1.363   4.507   0.734  0.1693 -0.1711 -0.4119
  281TMC3    C1 4238   1.112   0.497  13.326  0.0050  0.3992  0.2313
  281TMC3    C2 4239   1.063   0.540  13.205 -0.7498  0.4865  0.7017
  281TMC3    C3 4240   1.054   0.445  13.105  0.5901 -0.0057 -0.2450
  281TMC3    C4 4241   1.115   0.369  13.357  0.1880 -0.3119 -0.4348
  281TMC3    C5 4242   1.089   0.280  13.258  0.0840  0.0933 -0.0163
  281TMC3    C6 4243   1.056   0.310  13.133 -1.1933 -0.3878  0.0862
  281TMC3     C 4244   1.133   0.600  13.433  0.2547 -0.2158  1.0419
  281TMC3     O 4245   1.104   0.558  13.545 -0.5784  0.2155 -0.0498
  281TMC3     H 4246   1.064   0.644  13.174 -0.2133  0.3412  0.2335
  281TMC3    H1 4247   1.147   0.342  13.457 -0.6150 -1.2759 -0.4315
  281TMC3    H2 4248   1.029   0.234  13.061 -1.3549 -2.0339  1.8702
  281TMC3    C7 4249   1.105   0.137  13.276 -0.2556 -0.2998 -0.3205
  281TMC3    C8 4250   0.977   0.486  12.994 -0.0527 -0.5509 -0.1358
  281TMC3    O1 4251   1.128   0.061  13.183  0.8237  0.3932  0.0220
  281TMC3    O2 4252   0.884   0.412  12.968 -0.3765  0.1674  0.5120
  282MPD2     C 4253   2.891   1.966  15.501  0.1520  0.5354  0.2316
  282MPD2    C1 4254   2.783   2.046  15.528 -0.5576 -0.2210 -0.2602
  282MPD2    C2 4255   2.683   2.044  15.431 -0.3489 -0.4375  0.3885
  282MPD2    C3 4256   2.702   1.975  15.314 -0.6077  0.0810 -0.5385
  282MPD2    C4 4257   2.822   1.918  15.290 -0.0518  1.0955  0.2218
  282MPD2    C5 4258   2.917   1.902  15.383  0.0564  0.0451 -0.3248
  282MPD2     H 4259   2.594   2.096  15.462  1.6873  2.1916  1.8053
  282MPD2    H1 4260   2.841   1.867  15.196  0.6192  2.0517 -0.1603
  282MPD2    H2 4261   2.975   1.948  15.567 -0.1122 -0.2599  0.3551
  282MPD2    H3 4262   3.009   1.851  15.358  0.8804  0.5750  1.5806
  282MPD2     N 4263   2.607   1.983  15.215  0.5729  0.0142 -0.1418
  282MPD2    H5 4264   2.524   2.041  15.226  0.5104 -0.3176  1.1726
  282MPD2    N1 4265   2.757   2.109  15.650  0.6442  0.4806  0.1743
  282MPD2    H7 4266   2.673   2.165  15.647  0.9402  1.0236  2.3590
  283TMC3    C1 4267   2.726   2.109  15.878 -0.2819  0.2468 -0.0962
  283TMC3    C2 4268   2.673   2.238  15.872  0.1470  0.0414 -0.2742
  283TMC3    C3 4269   2.586   2.270  15.978 -0.4278 -0.3494  0.0618
  283TMC3    C4 4270   2.673   2.013  15.953  0.1825  0.6613 -0.3543
  283TMC3    C5 4271   2.595   2.047  16.064  0.0445 -0.9401  0.6138
  283TMC3    C6 4272   2.555   2.179  16.077  0.3998 -0.9247 -0.1178
  283TMC3     C 4273   2.804   2.068  15.770 -0.1201  0.3148  0.5983
  283TMC3     O 4274   2.878   1.972  15.786 -0.1573 -0.2865  0.6308
  283TMC3     H 4275   2.721   2.312  15.809 -1.1908  0.3339 -0.9304
  283TMC3    H1 4276   2.715   1.914  15.941 -1.7981 -0.2808  0.5132
  283TMC3    H2 4277   2.504   2.213  16.167  0.0148 -0.2518 -0.5871
  283TMC3    C7 4278   2.503   1.946  16.121 -0.7101  0.8261 -0.6637
  283TMC3    C8 4279   2.573   2.408  16.012  0.9017 -0.7023  0.1752
  283TMC3    O1 4280   2.397   1.987  16.167 -0.1114  0.4057  0.4059
  283TMC3    O2 4281   2.573   2.439  16.132  0.0395  0.0647 -0.2205
  284MPD2     C 4282   1.080   1.089  11.456  0.3701  0.7488  0.1384
  284MPD2    C1 4283   1.181   1.176  11.483 -0.1320  0.0185 -0.1277
  284MPD2    C2 4284   1.210   1.193  11.617  0.0564  0.5434  0.0962
  284MPD2    C3 4285   1.140   1.135  11.720  0.6238 -0.4850 -0.4609
  284MPD2    C4 4286   1.035   1.045  11.691  0.3273  0.0610  0.3471
  284MPD2    C5 4287   1.005   1.021  11.553  0.0781  0.7488  0.3793
  284MPD2     H 4288   1.286   1.270  11.625 -0.2235  0.8329 -0.0426
  284MPD2    H1 4289   0.967   0.997  11.760 -0.6663  1.1195  0.1043
  284MPD2    H2 4290   1.044   1.078  11.355 -0.9892  1.5475  0.5397
  284MPD2    H3 4291   0.919   0.966  11.516  0.8040  1.4656 -2.3517
  284MPD2     N 4292   1.193   1.164  11.853  0.1436 -0.3497  0.0239
  284MPD2    H5 4293   1.259   1.240  11.868 -2.4323  1.7504  0.9701
  284MPD2    N1 4294   1.260   1.242  11.389 -0.1523  0.3844 -0.5958
  284MPD2    H7 4295   1.325   1.311  11.425  1.2997 -1.1032 -0.3685
  285TMC3    C1 4296   1.360   1.296  11.190  0.2344  0.5306 -0.1874
  285TMC3    C2 4297   1.459   1.215  11.143  0.6318  0.3732  0.1281
  285TMC3    C3 4298   1.591   1.233  11.165 -0.3669  0.2220  0.0079
  285TMC3    C4 4299   1.408   1.410  11.255 -0.4696  0.2264  0.3139
  285TMC3    C5 4300   1.544   1.434  11.274  0.4427 -0.2490  0.6359
  285TMC3    C6 4301   1.636   1.337  11.235 -0.1123  1.1518 -0.1776
  285TMC3     C 4302   1.267   1.209  11.255 -0.7931 -1.0734 -0.2855
  285TMC3     O 4303   1.219   1.116  11.188  0.4121 -0.5160 -0.3092
  285TMC3     H 4304   1.438   1.130  11.080  1.3135  0.2965  0.0011
  285TMC3    H1 4305   1.335   1.481  11.292 -1.0843 -0.0124 -0.4483
  285TMC3    H2 4306   1.738   1.374  11.235 -0.1226  1.1736  0.7545
  285TMC3    C7 4307   1.577   1.472  11.410 -0.9704  0.2489 -0.1618
  285TMC3    C8 4308   1.678   1.122  11.151  0.5808  0.2280  0.0207
  285TMC3    O1 4309   1.523   1.418  11.508  0.0477  0.8219 -0.2162
  285TMC3    O2 4310   1.644   1.022  11.085  0.0720 -0.1338  0.4232
  286MPD2     C 4311   0.538   4.239   1.445  0.1404 -0.0362 -0.5559
  286MPD2    C1 4312   0.627   4.336   1.391  0.3369  0.2121  0.1490
  286MPD2    C2 4313   0.759   4.301   1.376 -0.0236  0.4314  0.3256
  286MPD2    C3 4314   0.804   4.172   1.385  0.0857 -0.5494 -0.1093
  286MPD2    C4 4315   0.717   4.085   1.449 -0.1091  0.1863  0.1759
  286MPD2    C5 4316   0.593   4.119   1.485  0.0967 -0.2403 -0.1325
  286MPD2     H 4317   0.827   4.375   1.336  0.3751 -0.3124 -0.3741
  286MPD2    H1 4318   0.746   3.982   1.467  1.2264  0.1530 -2.1332
  286MPD2    H2 4319   0.439   4.274   1.472  1.5271  1.3727  2.7660
  286MPD2    H3 4320   0.533   4.048   1.540 -1.6226  1.5727  0.3328
  286MPD2     N 4321   0.935   4.123   1.364  0.3372 -0.3930 -0.0447
  286MPD2    H5 4322   0.955   4.025   1.382  2.0248  0.2055  1.3919
  286MPD2    N1 4323   0.579   4.456   1.342  0.1094 -0.1350 -0.5682
  286MPD2    H7 4324   0.648   4.518   1.301 -2.1521  2.3841 -0.5396
  287TMC3    C1 4325   1.165   4.145   1.347 -0.3159 -0.4496 -0.4198
  287TMC3    C2 4326   1.178   4.029   1.280 -0.5121  0.0461  0.0330
  287TMC3    C3 4327   1.308   3.976   1.269  1.0092  0.3008 -0.8386
  287TMC3    C4 4328   1.272   4.208   1.405  0.2560 -0.6646  0.6349
  287TMC3    C5 4329   1.391   4.149   1.393  0.2909  0.8409 -0.1736
  287TMC3    C6 4330   1.411   4.033   1.327  0.5567 -0.0875  0.5552
  287TMC3     C 4331   1.041   4.208   1.360 -0.6867 -0.0230 -0.2897
  287TMC3     O 4332   1.038   4.327   1.383 -0.1618 -0.1822 -0.9224
  287TMC3     H 4333   1.097   3.994   1.218 -1.2650  2.0470 -0.1290
  287TMC3    H1 4334   1.250   4.291   1.471  3.3813  0.6546 -0.0053
  287TMC3    H2 4335   1.509   3.988   1.324  0.4717 -0.2296 -0.0434
  287TMC3    C7 4336   1.496   4.192   1.483  0.6508  0.1267  0.4623
  287TMC3    C8 4337   1.330   3.889   1.163  0.0957 -0.1253  0.2994
  287TMC3    O1 4338   1.478   4.305   1.526 -0.1296 -0.0418  0.1514
  287TMC3    O2 4339   1.433   3.825   1.185 -0.5035 -0.9934  0.0588
  288TMC3    C1 4340   3.798   4.071  14.649 -0.6954 -0.2844 -0.2694
  288TMC3    C2 4341   3.675   4.079  14.706  0.2990  0.9630 -0.1259
  288TMC3    C3 4342   3.565   4.094  14.624  0.2402  0.7984 -0.0336
  288TMC3    C4 4343   3.809   4.083  14.508 -0.7133  0.2745  0.6378
  288TMC3    C5 4344   3.701   4.110  14.437  0.8349  1.0027  0.2407
  288TMC3    C6 4345   3.574   4.112  14.493  0.1313 -0.2525 -0.1363
  288TMC3     C 4346   3.911   4.087  14.744  0.3716 -0.9854 -0.0322
  288TMC3     O 4347   3.878   4.109  14.861  0.1218  0.1795  0.3455
  288TMC3     H 4348   3.651   4.073  14.811 -1.8031  0.3662 -0.6336
  288TMC3    H1 4349   3.908   4.063  14.469 -1.7804 -3.3877 -0.1760
  288TMC3    H2 4350   3.486   4.132  14.434 -0.9302 -4.0639  0.1728
  288TMC3    C7 4351   3.710   4.153  14.292  0.0525 -0.0460 -0.0382
  288TMC3    C8 4352   3.455   4.164  14.679  0.6514  0.7839  0.0834
  288TMC3    O1 4353   3.632   4.109  14.214 -0.0969  0.1447 -0.4716
  288TMC3    O2 4354   3.492   4.238  14.768 -0.8551  0.4857  0.2250
  289MPD2     C 4355   3.415   3.439  14.810 -0.1157  0.2680  0.0036
  289MPD2    C1 4356   3.461   3.547  14.735  0.2118  0.8364  0.5119
  289MPD2    C2 4357   3.401   3.578  14.614 -0.6515  0.1840  1.1432
  289MPD2    C3 4358   3.290   3.509  14.565  0.5212  0.9861 -0.0081
  289MPD2    C4 4359   3.241   3.408  14.647  0.4661 -0.5355  0.1582
  289MPD2    C5 4360   3.307   3.373  14.764  0.3413 -0.3662 -0.7652
  289MPD2     H 4361   3.434   3.664  14.556 -1.0573 -1.0510 -0.9112
  289MPD2    H1 4362   3.150   3.356  14.620  0.1957  0.1776 -0.2873
  289MPD2    H2 4363   3.467   3.412  14.901  0.8558  0.1848 -0.5811
  289MPD2    H3 4364   3.262   3.293  14.822 -1.3072  2.1324  1.4752
  289MPD2     N 4365   3.227   3.535  14.445  0.0502 -0.0615 -0.3483
  289MPD2    H5 4366   3.140   3.487  14.423 -0.1136  0.6782 -1.2979
  289MPD2    N1 4367   3.573   3.611  14.789  0.1156 -0.1675 -0.8011
  289MPD2    H7 4368   3.606   3.600  14.884  0.7326  2.2223 -0.7500
  290TMC3    C1 4369   3.178   3.606  14.226 -0.3891  0.5272 -0.2050
  290TMC3    C2 4370   3.148   3.720  14.168  0.3558  0.4231 -1.0101
  290TMC3    C3 4371   3.032   3.727  14.094  0.5108  0.2680  0.1462
  290TMC3    C4 4372   3.092   3.502  14.232  0.0488  0.1879  0.6810
  290TMC3    C5 4373   2.985   3.509  14.148  0.2325  0.2038  0.2053
  290TMC3    C6 4374   2.947   3.625  14.080 -0.5241  0.0030  0.1290
  290TMC3     C 4375   3.269   3.619  14.344 -0.5548 -0.2715 -0.6209
  290TMC3     O 4376   3.367   3.689  14.336  1.1086 -0.7859 -0.2264
  290TMC3     H 4377   3.223   3.794  14.143  0.3313  0.6797 -0.3241
  290TMC3    H1 4378   3.113   3.404  14.273  0.3434 -0.0726 -0.0966
  290TMC3    H2 4379   2.858   3.640  14.020  0.1888  0.6393 -0.7727
  290TMC3    C7 4380   2.894   3.391  14.144  0.7058 -0.5589  0.7354
  290TMC3    C8 4381   2.969   3.860  14.077 -0.2051  0.5277 -0.6644
  290TMC3    O1 4382   2.882   3.321  14.242 -0.5876 -0.1013 -0.1778
  290TMC3    O2 4383   2.858   3.858  14.023  0.5002 -0.0470  0.1253
  291MPD2     C 4384   2.105   3.505   0.501  0.3867 -0.1657  0.4872
  291MPD2    C1 4385   2.185   3.416   0.575  0.8853  0.1664  0.5499
  291MPD2    C2 4386   2.289   3.461   0.641  0.0447 -0.4723  0.1733
  291MPD2    C3 4387   2.320   3.593   0.642  0.5902 -0.1599 -0.4705
  291MPD2    C4 4388   2.245   3.681   0.576 -0.7344 -0.1986 -0.4591
  291MPD2    C5 4389   2.138   3.635   0.501  0.2998  0.1221 -0.2828
  291MPD2     H 4390   2.343   3.388   0.701  1.6102  0.8190  0.3351
  291MPD2    H1 4391   2.265   3.788   0.570 -0.8312 -0.1422  0.2504
  291MPD2    H2 4392   2.009   3.487   0.453  0.5861 -0.6931  0.2858
  291MPD2    H3 4393   2.079   3.702   0.440 -0.5706  1.0195  1.5642
  291MPD2     N 4394   2.430   3.650   0.716 -0.2223 -0.6157 -0.2231
  291MPD2    H5 4395   2.441   3.750   0.725  0.9912 -1.0486  3.1982
  291MPD2    N1 4396   2.168   3.276   0.575  0.3348  0.5842  0.9766
  291MPD2    H7 4397   2.235   3.219   0.625  2.8656  0.1306 -2.8706
  292TMC3    C1 4398   2.050   3.078   0.566 -0.2258  0.2009  0.2168
  292TMC3    C2 4399   2.090   3.050   0.692 -0.2448  0.0972 -0.2213
  292TMC3    C3 4400   2.076   2.920   0.736 -0.1356 -0.1705  0.4865
  292TMC3    C4 4401   1.983   2.999   0.479  0.3318  0.6321 -0.4067
  292TMC3    C5 4402   1.956   2.878   0.531  0.1538  0.2180 -0.1658
  292TMC3    C6 4403   2.006   2.839   0.653 -0.1231  0.7498 -0.0813
  292TMC3     C 4404   2.054   3.219   0.531  0.2808  0.1047 -0.2403
  292TMC3     O 4405   1.960   3.264   0.465 -0.0640  0.4979  0.5408
  292TMC3     H 4406   2.149   3.121   0.749  0.6032 -0.2207 -0.7018
  292TMC3    H1 4407   1.953   3.025   0.378 -2.0389  1.2833  0.4666
  292TMC3    H2 4408   2.009   2.733   0.676 -0.4671  0.5856 -0.8060
  292TMC3    C7 4409   1.909   2.767   0.445  1.1160 -0.2275  0.0468
  292TMC3    C8 4410   2.200   2.859   0.788 -0.1474 -0.8815  0.2103
  292TMC3    O1 4411   1.933   2.653   0.493  0.3104  0.1539  0.2947
  292TMC3    O2 4412   2.306   2.910   0.750 -0.5782  0.3614 -0.5772
  293MPD2     C 4413   4.434   0.101  12.799  0.2836 -0.3879  0.9027
  293MPD2    C1 4414   4.345   0.024  12.872  0.8330  0.6880 -0.6800
  293MPD2    C2 4415   4.366   0.037  13.008  0.3801  0.0513  0.7866
  293MPD2    C3 4416   4.464   0.113  13.062 -0.0431  0.3129  0.7026
  293MPD2    C4 4417   4.554   0.180  12.985  0.1812  0.2411  0.2928
  293MPD2    C5 4418   4.535   0.171  12.851 -0.2076  0.1860  0.9055
  293MPD2     H 4419   4.293   4.719  13.077 -1.2643 -0.8441 -1.4687
  293MPD2    H1 4420   4.638   0.223  13.037  0.6236 -1.2867  0.8472
  293MPD2    H2 4421   4.424   0.101  12.691  1.3468 -0.9947  0.8000
  293MPD2    H3 4422   4.601   0.231  12.790  1.4502 -1.6641  0.8771
  293MPD2     N 4423   4.474   0.123  13.209 -0.6198 -0.1126 -0.1404
  293MPD2    H5 4424   4.440   0.047  13.268 -0.4527  1.8978  2.5243
  293MPD2    N1 4425   4.245   4.682  12.804 -0.7741  0.0226 -0.2271
  293MPD2    H7 4426   4.255   4.685  12.703  3.1759 -3.7453  0.0151
  294TMC3    C1 4427   4.055   4.572  12.739 -0.5400  0.0292 -0.0562
  294TMC3    C2 4428   3.919   4.562  12.765 -0.7984 -0.4507  0.2055
  294TMC3    C3 4429   3.832   4.539  12.662  0.2382 -1.7952 -0.3250
  294TMC3    C4 4430   4.100   4.567  12.609  0.3537 -0.0243  0.2211
  294TMC3    C5 4431   4.009   4.560  12.507  0.5978 -0.2542  1.1797
  294TMC3    C6 4432   3.882   4.539  12.537 -0.3006 -0.1545 -0.2388
  294TMC3     C 4433   4.142   4.603  12.848  0.3233 -0.2668 -1.1109
  294TMC3     O 4434   4.108   4.575  12.960 -0.0407  0.3830  0.5531
  294TMC3     H 4435   3.888   4.551  12.868  0.2570 -0.0364  0.5736
  294TMC3    H1 4436   4.206   4.562  12.590  0.4225  0.3456  0.5270
  294TMC3    H2 4437   3.810   4.525  12.457  1.1873 -0.7781 -1.4707
  294TMC3    C7 4438   4.049   4.492  12.382 -0.1100  0.1526 -0.0344
  294TMC3    C8 4439   3.728   4.450  12.693  0.0904  0.0270 -0.0420
  294TMC3    O1 4440   3.972   4.408  12.338  1.0438 -0.0802  0.0342
  294TMC3    O2 4441   3.689   4.441  12.811  0.5331 -0.1851 -0.5144
  295MPD2     C 4442   0.524   3.086   0.945  0.2140  0.4374  0.4421
  295MPD2    C1 4443   0.507   3.209   0.878 -0.0567  0.3428  0.5197
  295MPD2    C2 4444   0.445   3.308   0.954 -0.3394  0.1989 -0.4255
  295MPD2    C3 4445   0.411   3.292   1.091  0.1198  0.1863  0.3545
  295MPD2    C4 4446   0.433   3.174   1.149  0.0939 -0.1034 -0.3477
  295MPD2    C5 4447   0.485   3.071   1.076  0.6026  0.0730 -0.2300
  295MPD2     H 4448   0.424   3.402   0.904 -1.9746 -0.3795 -0.8010
  295MPD2    H1 4449   0.390   3.141   1.243  1.4674  0.1262  0.3486
  295MPD2    H2 4450   0.566   2.997   0.898 -0.2862  1.1018 -1.2531
  295MPD2    H3 4451   0.495   2.973   1.120  0.4477 -0.6457 -1.8154
  295MPD2     N 4452   0.334   3.387   1.165  0.1050  0.0357  0.2811
  295MPD2    H5 4453   0.304   3.349   1.254 -1.0878 -3.2139 -1.4982
  295MPD2    N1 4454   0.525   3.224   0.736  0.1133  0.2628  0.4125
  295MPD2    H7 4455   0.527   3.317   0.697 -0.9006  0.5007  0.9021
  296TMC3    C1 4456   0.191   3.572   1.216  0.1084  0.5135  0.1237
  296TMC3    C2 4457   0.229   3.555   1.348  1.2277 -0.3195 -0.1562
  296TMC3    C3 4458   0.140   3.590   1.443 -0.0823 -0.0856  0.4168
  296TMC3    C4 4459   0.072   3.628   1.181 -0.8151 -0.4887 -0.1423
  296TMC3    C5 4460   4.702   3.652   1.280 -0.7071  0.4714 -1.0371
  296TMC3    C6 4461   0.008   3.634   1.412  0.0252  0.0648 -0.0911
  296TMC3     C 4462   0.271   3.500   1.117  0.3890 -0.6353  0.4138
  296TMC3     O 4463   0.255   3.538   1.000  0.0216  0.1029 -0.5553
  296TMC3     H 4464   0.330   3.527   1.373  1.8985  2.6015  0.3920
  296TMC3    H1 4465   0.036   3.636   1.079  2.7594 -1.0357 -1.4447
  296TMC3    H2 4466   4.656   3.661   1.487  0.0824  0.4555 -0.1744
  296TMC3    C7 4467   4.568   3.593   1.244 -0.3217  0.3605  0.0360
  296TMC3    C8 4468   0.173   3.551   1.580  0.1978  0.1389  0.2754
  296TMC3    O1 4469   4.519   3.641   1.147 -0.4843 -0.0123  0.1668
  296TMC3    O2 4470   0.252   3.456   1.592  0.0234 -0.5206 -1.0495
  297MPD2     C 4471   2.011   0.597  16.439 -0.4984 -0.2474 -0.1797
  297MPD2    C1 4472   1.938   0.712  16.407 -0.3243 -0.6853 -0.4422
  297MPD2    C2 4473   2.004   0.835  16.393  0.0862  0.4522 -0.0852
  297MPD2    C3 4474   2.141   0.842  16.411  0.2258  0.0658  0.5396
  297MPD2    C4 4475   2.208   0.728  16.447 -0.6052 -0.8144 -0.1778
  297MPD2    C5 4476   2.147   0.605  16.460  0.6581  0.2079  0.3604
  297MPD2     H 4477   1.946   0.923  16.366  1.3457  0.5749 -2.3608
  297MPD2    H1 4478   2.315   0.725  16.460 -0.5708 -2.1389 -0.7308
  297MPD2    H2 4479   1.964   0.499  16.437 -0.9786 -0.0686  2.1867
  297MPD2    H3 4480   2.199   0.516  16.492 -0.7666  0.3032  2.9177
  297MPD2     N 4481   2.203   0.964  16.388  0.3570  0.4869 -0.7940
  297MPD2    H5 4482   2.144   1.045  16.367 -0.8381 -0.2080 -0.1465
  297MPD2    N1 4483   1.794   0.709  16.404  0.1732  0.7759 -0.2031
  297MPD2    H7 4484   1.745   0.794  16.376 -0.6400  0.3354 -0.1272
  298TMC3    C1 4485   1.587   0.630  16.393  0.6896 -0.7015 -0.4587
  298TMC3    C2 4486   1.540   0.578  16.273 -0.3000  0.0194 -1.4104
  298TMC3    C3 4487   1.427   0.631  16.224 -0.2957 -0.1974  0.0022
  298TMC3    C4 4488   1.510   0.719  16.468  0.8306 -0.0268  0.0428
  298TMC3    C5 4489   1.404   0.777  16.406  0.3637 -0.4625  0.5152
  298TMC3    C6 4490   1.350   0.725  16.289 -1.3824 -0.2984  0.7927
  298TMC3     C 4491   1.721   0.598  16.411 -0.7863 -0.7179  0.6931
  298TMC3     O 4492   1.749   0.487  16.449  0.5324  0.4749 -0.7843
  298TMC3     H 4493   1.610   0.511  16.223  0.2572 -1.9799  2.0709
  298TMC3    H1 4494   1.554   0.760  16.557 -1.6342 -0.2895  1.3950
  298TMC3    H2 4495   1.263   0.768  16.242  0.6566  1.3824 -1.4763
  298TMC3    C7 4496   1.322   0.865  16.482 -0.1518  0.1459  0.3947
  298TMC3    C8 4497   1.372   0.571  16.109  0.0204 -0.5287  0.2185
  298TMC3    O1 4498   1.359   0.893  16.592 -0.2010  0.1778  0.0021
  298TMC3    O2 4499   1.255   0.596  16.099  0.1601  0.1901 -0.7386
  299MPD2     C 4500   3.094   4.541  11.265 -0.0472 -0.0206  1.2586
  299MPD2    C1 4501   3.080   4.642  11.184  0.3254 -0.2295  0.1628
  299MPD2    C2 4502   3.031   4.620  11.056  0.2464  0.2841 -0.3521
  299MPD2    C3 4503   3.004   4.491  11.013  0.7142 -0.0696 -0.3239
  299MPD2    C4 4504   3.008   4.385  11.102 -0.1886 -0.2380  0.3819
  299MPD2    C5 4505   3.043   4.418  11.229  0.8588 -0.0291  0.4219
  299MPD2     H 4506   3.009   4.705  10.993  0.6052 -0.1837 -1.1129
  299MPD2    H1 4507   2.962   4.289  11.080  0.7168 -0.1858 -1.7248
  299MPD2    H2 4508   3.132   4.545  11.366 -0.6749  0.7407  1.4571
  299MPD2    H3 4509   3.059   4.337  11.299  3.6302  0.3301  0.1903
  299MPD2     N 4510   2.949   4.460  10.888 -0.2070  0.3422 -0.0762
  299MPD2    H5 4511   2.908   4.371  10.864  0.5694 -0.0437  0.0610
  299MPD2    N1 4512   3.091   0.048  11.235  0.3473 -0.1007  0.2976
  299MPD2    H7 4513   3.121   0.063  11.330  0.1713  1.9495  0.0239
  300TMC3    C1 4514   2.806   4.531  10.712  0.1103 -0.3736 -1.2178
  300TMC3    C2 4515   2.793   4.612  10.607 -0.7625 -0.1489 -0.3452
  300TMC3    C3 4516   2.672   4.664  10.592 -0.1380  0.4147 -0.1777
  300TMC3    C4 4517   2.704   4.471  10.783  0.2471 -0.0604 -0.5227
  300TMC3    C5 4518   2.579   4.519  10.758 -0.5219 -0.4669 -0.2737
  300TMC3    C6 4519   2.562   4.619  10.663  0.8845 -0.4740  0.4318
  300TMC3     C 4520   2.926   4.556  10.789  0.5367  0.0230  0.2497
  300TMC3     O 4521   2.979   4.664  10.770 -0.1078  0.0614 -0.5324
  300TMC3     H 4522   2.885   4.658  10.574 -0.0085  1.0843  3.5029
  300TMC3    H1 4523   2.707   4.396  10.861 -1.4642 -0.0542 -0.4352
  300TMC3    H2 4524   2.467   4.650  10.619  1.5020 -1.6991 -1.7531
  300TMC3    C7 4525   2.464   4.468  10.823 -0.2008 -0.4273  0.5171
  300TMC3    C8 4526   2.671   0.073  10.523  0.2272  0.0840 -0.0361
  300TMC3    O1 4527   2.488   4.371  10.892 -0.5705  0.6594  0.0531
  300TMC3    O2 4528   2.777   0.131  10.508 -0.0509  0.2231 -0.2886
  301MPD2     C 4529   4.481   1.514   1.339 -0.5539 -0.0413  0.1216
  301MPD2    C1 4530   4.400   1.471   1.242  0.5153  0.5674 -0.0068
  301MPD2    C2 4531   4.448   1.365   1.169 -0.1452 -0.0216 -0.6635
  301MPD2    C3 4532   4.564   1.298   1.195 -0.0521  0.0620 -0.6797
  301MPD2    C4 4533   4.635   1.334   1.308  0.2386  0.1740  0.1193
  301MPD2    C5 4534   4.599   1.450   1.372  0.2056  0.2522 -0.3845
  301MPD2     H 4535   4.371   1.322   1.104 -0.7537 -0.3550  0.2777
  301MPD2    H1 4536   0.004   1.284   1.340 -0.1997 -0.2935  0.6091
  301MPD2    H2 4537   4.454   1.599   1.400 -1.5295 -2.2467  2.7701
  301MPD2    H3 4538   4.657   1.479   1.459  1.7828 -0.0070 -1.3569
  301MPD2     N 4539   4.605   1.183   1.125 -0.0013 -0.3502  0.0046
  301MPD2    H5 4540   4.682   1.128   1.162 -0.1644 -1.4314 -1.2554
  301MPD2    N1 4541   4.273   1.529   1.202 -0.1633  0.2560 -0.1564
  301MPD2    H7 4542   4.223   1.492   1.122 -1.0775 -0.9085  0.9425
  302TMC3    C1 4543   4.610   1.017   0.958  0.8967  0.3706  0.1275
  302TMC3    C2 4544   0.004   0.968   1.009  1.0761  0.5798 -0.4064
  302TMC3    C3 4545   0.047   0.859   0.956  0.7320  0.1863 -0.0477
  302TMC3    C4 4546   4.550   0.960   0.850 -0.1192  0.1723 -0.3504
  302TMC3    C5 4547   4.594   0.841   0.800  0.6169  0.1624  0.0856
  302TMC3    C6 4548   4.710   0.791   0.855 -0.8397 -0.0996  0.1885
  302TMC3     C 4549   4.562   1.146   1.003 -0.0057 -0.0856  0.1328
  302TMC3     O 4550   4.460   1.187   0.944  0.0716  0.0746  0.9079
  302TMC3     H 4551   0.057   0.999   1.099  0.4824  1.0047 -0.2069
  302TMC3    H1 4552   4.472   1.016   0.799 -1.5623 -1.0584  0.5021
  302TMC3    H2 4553   0.033   0.696   0.829 -0.5617 -0.3672  1.6269
  302TMC3    C7 4554   4.551   0.795   0.671 -0.2044  0.2285  0.5228
  302TMC3    C8 4555   0.135   0.778   1.034  0.0946  0.0973  0.4723
  302TMC3    O1 4556   4.619   0.702   0.626 -0.9239  0.0794 -0.3097
  302TMC3    O2 4557   0.218   0.835   1.098  0.5766  0.0416 -0.2082
  303MPD2     C 4558   0.614   4.119  11.004 -0.1895 -0.1244  0.1695
  303MPD2    C1 4559   0.594   4.004  11.070 -0.4872 -0.3246  0.2582
  303MPD2    C2 4560   0.581   3.886  10.993  0.4382 -0.8080  0.2483
  303MPD2    C3 4561   0.574   3.888  10.849 -0.4152  0.1418 -0.1416
  303MPD2    C4 4562   0.584   4.011  10.793  0.3054 -0.1409  0.0959
  303MPD2    C5 4563   0.610   4.125  10.869 -0.8134 -0.7319  0.6475
  303MPD2     H 4564   0.575   3.787  11.037  0.7438 -2.1843 -2.7741
  303MPD2    H1 4565   0.583   4.023  10.686 -2.3718 -1.7156 -0.0600
  303MPD2    H2 4566   0.622   4.210  11.063  1.3408  1.2339 -2.1528
  303MPD2    H3 4567   0.622   4.219  10.816  0.2232 -1.2342  0.0101
  303MPD2     N 4568   0.554   3.772  10.767 -0.2975 -0.9231  0.1910
  303MPD2    H5 4569   0.564   3.773  10.666  0.0546 -1.2275  0.2226
  303MPD2    N1 4570   0.592   4.002  11.216  0.3540  0.0276 -0.1931
  303MPD2    H7 4571   0.607   4.090  11.265 -0.5875  1.8427 -3.0996
  304TMC3    C1 4572   0.522   3.930  11.426  0.4014 -0.1409 -0.6680
  304TMC3    C2 4573   0.430   4.034  11.441 -0.8991  0.2696  0.2281
  304TMC3    C3 4574   0.343   4.029  11.544 -0.4062 -0.5781  0.2792
  304TMC3    C4 4575   0.543   3.837  11.527  1.0846  0.7593 -0.3747
  304TMC3    C5 4576   0.462   3.842  11.638  0.0507 -0.4873 -0.7384
  304TMC3    C6 4577   0.371   3.947  11.652 -0.2970 -0.3242  0.7013
  304TMC3     C 4578   0.558   3.892  11.294 -0.1323  0.2306 -0.3455
  304TMC3     O 4579   0.565   3.770  11.264 -0.4299  0.2848  0.0021
  304TMC3     H 4580   0.406   4.086  11.349  0.9070  1.0264  0.1754
  304TMC3    H1 4581   0.581   3.739  11.505 -0.5341  0.2319 -0.8164
  304TMC3    H2 4582   0.300   3.948  11.734 -0.0935 -0.8206  0.8799
  304TMC3    C7 4583   0.417   3.717  11.690  0.3089 -0.0855  0.2734
  304TMC3    C8 4584   0.201   4.024  11.497  0.4565  0.4698 -0.0306
  304TMC3    O1 4585   0.416   3.621  11.618 -0.1410  0.2923  0.5178
  304TMC3    O2 4586   0.164   3.962  11.398 -0.0251  0.5967 -0.1465
  305MPD2     C 4587   2.368   1.623  14.112  0.4527  0.2376  0.2313
  305MPD2    C1 4588   2.503   1.607  14.105 -0.2453  0.0828  0.6439
  305MPD2    C2 4589   2.549   1.566  13.979  0.5922 -0.2278 -0.4163
  305MPD2    C3 4590   2.468   1.546  13.868  0.1273  0.2659  0.3684
  305MPD2    C4 4591   2.334   1.568  13.876  0.1617  0.3211  0.1703
  305MPD2    C5 4592   2.285   1.603  14.000 -0.0443  0.3648 -0.2593
  305MPD2     H 4593   2.655   1.550  13.964  1.4764  1.2419  4.1791
  305MPD2    H1 4594   2.269   1.557  13.791 -0.2404 -2.5996  0.8521
  305MPD2    H2 4595   2.324   1.652  14.206  0.6636 -1.8625  0.9752
  305MPD2    H3 4596   2.177   1.616  14.000 -0.1673 -0.6632  1.5273
  305MPD2     N 4597   2.519   1.501  13.745 -0.1279  0.1019 -0.3997
  305MPD2    H5 4598   2.456   1.511  13.667  0.2520  1.0569 -0.5912
  305MPD2    N1 4599   2.584   1.638  14.222 -0.7335 -0.0700  0.2227
  305MPD2    H7 4600   2.534   1.652  14.309 -0.5649  1.1523  0.1303
  306TMC3    C1 4601   2.763   1.748  14.319 -0.1306 -0.0035  0.5172
  306TMC3    C2 4602   2.898   1.761  14.325 -0.2005 -0.2205 -0.4010
  306TMC3    C3 4603   2.953   1.862  14.396 -0.0171 -0.2831  0.5929
  306TMC3    C4 4604   2.677   1.828  14.397  0.1109 -0.4491 -0.8725
  306TMC3    C5 4605   2.739   1.923  14.466  0.8491 -0.1775 -0.1189
  306TMC3    C6 4606   2.874   1.951  14.465  0.9173 -0.7079  0.8660
  306TMC3     C 4607   2.715   1.653  14.221  0.7530 -0.3654  0.0033
  306TMC3     O 4608   2.795   1.616  14.139 -0.0928  0.7568 -0.7127
  306TMC3     H 4609   2.960   1.691  14.271 -0.5627 -1.4438  0.7687
  306TMC3    H1 4610   2.570   1.818  14.409 -0.1077  2.8941  0.1656
  306TMC3    H2 4611   2.915   2.033  14.523  0.1854 -0.2082  0.6706
  306TMC3    C7 4612   2.665   2.001  14.568 -0.9504 -0.3925  0.6938
  306TMC3    C8 4613   3.084   1.835  14.457 -0.2102  0.3441  0.0216
  306TMC3    O1 4614   2.559   2.058  14.543  0.1894  0.1873 -0.1051
  306TMC3    O2 4615   3.130   1.722  14.464  0.0306 -0.3838 -0.0471
  307MPD2     C 4616   1.041   4.299   0.602 -0.2586  0.5513  0.2817
  307MPD2    C1 4617   0.966   4.354   0.502  0.1010  0.0579 -0.3943
  307MPD2    C2 4618   0.856   4.427   0.530 -0.1115  0.0891  0.3142
  307MPD2    C3 4619   0.820   4.447   0.660  0.0871 -0.0411  0.3874
  307MPD2    C4 4620   0.891   4.390   0.758 -0.2900 -0.9735  0.0425
  307MPD2    C5 4621   0.997   4.313   0.732  0.8413 -0.5929 -0.2550
  307MPD2     H 4622   0.789   4.464   0.454 -0.2244 -0.7132  0.0262
  307MPD2    H1 4623   0.856   4.408   0.859  0.1535 -1.8068  0.3407
  307MPD2    H2 4624   1.127   4.233   0.591  0.0916  0.7594  1.7392
  307MPD2    H3 4625   1.042   4.252   0.809  0.2524  1.8656  2.0560
  307MPD2     N 4626   0.711   4.535   0.684  0.0046  0.4850  0.1411
  307MPD2    H5 4627   0.649   4.556   0.606 -0.5995 -0.9863  0.2177
  307MPD2    N1 4628   0.999   4.340   0.369  0.7465  0.1667  0.2284
  307MPD2    H7 4629   0.936   4.375   0.297  0.4817 -1.3397 -0.2661
  308TMC3    C1 4630   0.387   0.007   0.671  0.0660  0.0167  0.1878
  308TMC3    C2 4631   0.395   0.147   0.678  0.0656  0.0081 -0.1384
  308TMC3    C3 4632   0.509   0.192   0.747 -0.3884 -0.3518 -0.7251
  308TMC3    C4 4633   0.482   4.650   0.724  0.3588  0.1549  0.2648
  308TMC3    C5 4634   0.595   4.701   0.776  0.4788 -1.1184  0.0096
  308TMC3    C6 4635   0.600   0.110   0.808 -0.5857 -0.8572  0.3975
  308TMC3     C 4636   0.266   4.667   0.626 -0.3064  0.6510  0.1346
  308TMC3     O 4637   0.255   4.545   0.648 -0.1349 -0.2418 -0.4501
  308TMC3     H 4638   0.322   0.210   0.628 -2.6490 -3.2440 -0.2302
  308TMC3    H1 4639   0.474   4.541   0.721  0.5804  0.1118  1.6230
  308TMC3    H2 4640   0.700   0.149   0.822 -1.6583  2.5051 -1.4551
  308TMC3    C7 4641   0.703   4.610   0.797  0.1418 -0.3235 -0.4419
  308TMC3    C8 4642   0.564   0.325   0.729  0.6820 -0.4716 -0.1687
  308TMC3    O1 4643   0.787   4.630   0.883  0.0811 -0.3444 -0.1493
  308TMC3    O2 4644   0.616   0.392   0.814 -0.1278  0.2314 -0.5821
  309MPD2     C 4645   4.500   0.198  17.035  0.0665  0.0223  0.2207
  309MPD2    C1 4646   4.537   0.311  16.969 -0.0299 -0.2312  0.4621
  309MPD2    C2 4647   4.461   0.421  16.966  0.1741 -0.5864  0.3417
  309MPD2    C3 4648   4.352   0.425  17.052  0.4924  0.0989 -0.3092
  309MPD2    C4 4649   4.325   0.316  17.135 -0.3515 -0.5067 -0.2538
  309MPD2    C5 4650   4.394   0.201  17.122  0.5082  0.0221 -0.5795
  309MPD2     H 4651   4.490   0.508  16.908  0.5323 -0.8822  0.0658
  309MPD2    H1 4652   4.259   0.320  17.221  1.2000 -2.7376  1.0323
  309MPD2    H2 4653   4.568   0.113  17.035  1.7076  1.3245 -2.3766
  309MPD2    H3 4654   4.382   0.116  17.188 -0.2974 -0.3304 -1.1722
  309MPD2     N 4655   4.269   0.538  17.075 -0.2900  0.2191  0.0419
  309MPD2    H5 4656   4.185   0.525  17.130  0.3050 -0.4472  0.7904
  309MPD2    N1 4657   4.641   0.308  16.872  0.1114  0.2635  0.4797
  309MPD2    H7 4658   4.647   0.386  16.807 -1.1911 -0.6251 -0.6995
  310TMC3    C1 4659   0.076   0.222  16.727 -0.2768 -0.2144 -0.4100
  310TMC3    C2 4660   0.007   0.268  16.621  0.2968  0.1646 -0.5714
  310TMC3    C3 4661   0.046   0.221  16.498  0.2882 -0.1209 -0.7277
  310TMC3    C4 4662   0.190   0.148  16.720 -1.0589 -1.1339 -0.1531
  310TMC3    C5 4663   0.230   0.115  16.593  0.1332 -0.4729 -0.0908
  310TMC3    C6 4664   0.159   0.150  16.477 -0.0821 -0.5073  0.6360
  310TMC3     C 4665   0.013   0.208  16.855 -0.6277 -0.0059  0.2148
  310TMC3     O 4666   0.047   0.118  16.931 -0.3608  0.1425 -0.1555
  310TMC3     H 4667   4.640   0.331  16.620  0.0688 -0.1430  0.3873
  310TMC3    H1 4668   0.246   0.118  16.807 -0.5863  0.9352  0.2584
  310TMC3    H2 4669   0.175   0.102  16.381  0.5442  0.1512  0.4072
  310TMC3    C7 4670   0.342   0.017  16.598 -0.6155 -0.3930  0.0452
  310TMC3    C8 4671   4.676   0.231  16.390  0.2181 -0.9257  0.9358
  310TMC3    O1 4672   0.356   4.670  16.701 -0.3775  0.6765  0.1736
  310TMC3    O2 4673   4.722   0.214  16.278 -0.0215 -0.2262  0.2768
  311MPD2     C 4674   2.205   1.748  12.574  0.1182 -0.1225 -0.0991
  311MPD2    C1 4675   2.234   1.757  12.708 -0.0187  0.1929 -0.3355
  311MPD2    C2 4676   2.132   1.768  12.803  0.2430 -0.3337  0.4966
  311MPD2    C3 4677   2.005   1.794  12.756 -0.2215  0.3257 -0.1844
  311MPD2    C4 4678   1.979   1.801  12.622  0.9443 -0.1631  0.0020
  311MPD2    C5 4679   2.073   1.768  12.528 -0.8335 -0.2587  0.3240
  311MPD2     H 4680   2.150   1.767  12.910  1.1123 -0.4499  0.3468
  311MPD2    H1 4681   1.880   1.816  12.581  1.0431 -0.5266 -0.3710
  311MPD2    H2 4682   2.280   1.728  12.498 -0.3437 -2.5943  0.1109
  311MPD2    H3 4683   2.040   1.756  12.426  0.0007  1.3261 -0.1377
  311MPD2     N 4684   1.914   1.833  12.859  0.4844  0.0622  0.1662
  311MPD2    H5 4685   1.957   1.840  12.951 -0.7251 -5.1203  1.1847
  311MPD2    N1 4686   2.375   1.763  12.735  0.0424 -0.5375 -0.3432
  311MPD2    H7 4687   2.430   1.802  12.659 -2.4969  2.1610 -0.7664
  312TMC3    C1 4688   1.716   1.892  12.958  0.0980  0.0213  0.2725
  312TMC3    C2 4689   1.598   1.833  12.977 -0.0534 -0.7204  0.0076
  312TMC3    C3 4690   1.521   1.880  13.077  0.7174  0.1948 -0.2161
  312TMC3    C4 4691   1.778   1.979  13.046  0.1207 -0.0739  0.2563
  312TMC3    C5 4692   1.701   2.013  13.149 -0.0111  1.0565 -0.1087
  312TMC3    C6 4693   1.566   1.971  13.162 -0.4710 -0.3302 -0.4404
  312TMC3     C 4694   1.781   1.861  12.832  0.2317 -0.1304 -0.7272
  312TMC3     O 4695   1.712   1.854  12.732 -0.0541  0.5556 -0.5010
  312TMC3     H 4696   1.577   1.750  12.910 -0.5396  1.7380 -2.8575
  312TMC3    H1 4697   1.876   2.018  13.022  0.3993 -0.6675  0.4287
  312TMC3    H2 4698   1.503   2.016  13.238  0.0423  0.8118 -0.6915
  312TMC3    C7 4699   1.765   2.089  13.253 -0.2273 -0.0893  0.1956
  312TMC3    C8 4700   1.381   1.841  13.066  0.6521 -0.2381 -0.1190
  312TMC3    O1 4701   1.867   2.151  13.218  0.2351 -0.6740  0.2913
  312TMC3    O2 4702   1.356   1.785  12.956 -0.0042  0.8293 -0.3446
  313MPD2     C 4703   2.090   0.494  10.810  0.3572  0.4964  0.4135
  313MPD2    C1 4704   1.974   0.563  10.844  0.1063 -0.0140  0.3022
  313MPD2    C2 4705   1.853   0.500  10.838  0.6239  0.3241 -0.3377
  313MPD2    C3 4706   1.846   0.364  10.800 -0.3962  0.5094  0.0319
  313MPD2    C4 4707   1.963   0.293  10.780 -0.0466 -0.1124  0.3532
  313MPD2    C5 4708   2.081   0.356  10.784  0.0117  0.0222 -0.3680
  313MPD2     H 4709   1.762   0.555  10.856  0.5889 -0.1928  0.9851
  313MPD2    H1 4710   1.961   0.186  10.761  0.7079  0.0070 -0.4114
  313MPD2    H2 4711   2.185   0.546  10.809  1.5990 -1.7708  2.2283
  313MPD2    H3 4712   2.168   0.293  10.770  0.8375  1.1717 -0.4298
  313MPD2     N 4713   1.726   0.295  10.787 -0.4556 -0.4023  0.6474
  313MPD2    H5 4714   1.739   0.201  10.751 -0.3147  0.3838 -1.3478
  313MPD2    N1 4715   1.966   0.699  10.881  0.2104 -0.0730  0.0247
  313MPD2    H7 4716   1.870   0.729  10.893  0.4811  0.5734  0.5605
  314TMC3    C1 4717   2.010   0.920  10.912  0.3852  0.2285 -0.0062
  314TMC3    C2 4718   2.087   1.014  10.979  0.2705  0.5805  0.1625
  314TMC3    C3 4719   2.046   1.140  10.972  0.7698 -0.2953 -0.0046
  314TMC3    C4 4720   1.907   0.951  10.833 -0.7825 -0.4574  0.1273
  314TMC3    C5 4721   1.874   1.082  10.830  1.0047  0.0244  0.0954
  314TMC3    C6 4722   1.937   1.180  10.897  0.6459  0.8624 -0.4627
  314TMC3     C 4723   2.065   0.791  10.891 -0.7133 -0.6893  0.0294
  314TMC3     O 4724   2.186   0.768  10.895 -0.0849  0.4602  0.0904
  314TMC3     H 4725   2.166   0.970  11.038 -1.3404  0.3932  2.1797
  314TMC3    H1 4726   1.855   0.877  10.773  1.2228 -1.0599 -0.8988
  314TMC3    H2 4727   1.891   1.278  10.896 -1.0097  0.0839 -1.1042
  314TMC3    C7 4728   1.756   1.120  10.760 -0.4834 -0.0492  0.3946
  314TMC3    C8 4729   2.088   1.231  11.073  0.7018  0.2141 -0.3308
  314TMC3    O1 4730   1.751   1.232  10.701  0.4936 -0.2604 -0.2281
  314TMC3    O2 4731   2.020   1.331  11.085 -0.1645  0.2212  0.7493
  315MPD2     C 4732   0.884   0.451   0.323 -0.8432  0.0543 -0.0017
  315MPD2    C1 4733   0.938   0.466   0.452  0.8910  0.4299  0.3783
  315MPD2    C2 4734   1.012   0.582   0.476 -0.9868  1.2211 -0.0304
  315MPD2    C3 4735   1.025   0.685   0.387  0.2127 -0.0522  0.2066
  315MPD2    C4 4736   0.950   0.674   0.268 -0.0104 -0.8174  0.0596
  315MPD2    C5 4737   0.896   0.554   0.235  0.0977 -0.2876 -0.1205
  315MPD2     H 4738   1.057   0.587   0.574  1.5625  0.3107 -1.1394
  315MPD2    H1 4739   0.956   0.749   0.190 -0.4854 -1.9590 -1.0674
  315MPD2    H2 4740   0.824   0.365   0.296 -0.0308 -0.7049  0.6290
  315MPD2    H3 4741   0.851   0.549   0.137 -1.0977  2.2736  0.2906
  315MPD2     N 4742   1.118   0.790   0.403 -0.4053  0.7227 -0.1049
  315MPD2    H5 4743   1.189   0.779   0.476  0.7407 -2.8948 -1.7547
  315MPD2    N1 4744   0.938   0.372   0.561 -0.4973  0.0142  0.1922
  315MPD2    H7 4745   1.008   0.387   0.632 -2.3541 -1.0255  2.2703
  316TMC3    C1 4746   1.290   0.930   0.314 -0.2510  0.2099  1.1180
  316TMC3    C2 4747   1.380   0.858   0.388  0.3707  0.3437  0.1506
  316TMC3    C3 4748   1.509   0.875   0.356 -0.3858 -0.2155 -0.6749
  316TMC3    C4 4749   1.328   1.014   0.209  0.4618  0.1989  0.3575
  316TMC3    C5 4750   1.464   1.036   0.192 -0.2363  0.5149 -0.4784
  316TMC3    C6 4751   1.553   0.962   0.267  0.7900 -0.7107 -0.1569
  316TMC3     C 4752   1.158   0.875   0.298  0.4794  0.5712 -0.2165
  316TMC3     O 4753   1.084   0.928   0.218 -0.2483 -0.4326 -0.1331
  316TMC3     H 4754   1.356   0.777   0.455 -1.4043 -0.3826 -1.3627
  316TMC3    H1 4755   1.252   1.077   0.164  1.1204  0.7734  0.0632
  316TMC3    H2 4756   1.659   0.980   0.258  1.1965 -4.1430 -2.0442
  316TMC3    C7 4757   1.493   1.082   0.054  0.3455 -0.3554  0.2885
  316TMC3    C8 4758   1.600   0.832   0.453 -0.5054 -0.2145  0.7012
  316TMC3    O1 4759   1.602   1.128   0.032 -0.0304  0.3586  0.4143
  316TMC3    O2 4760   1.675   0.920   0.486  0.1921  0.2277 -0.3668
  317MPD2     C 4761   3.496   3.718  13.129  0.3783 -0.4456 -0.4319
  317MPD2    C1 4762   3.506   3.577  13.122 -0.9557 -0.2878 -0.3582
  317MPD2    C2 4763   3.490   3.503  13.239 -0.1807  0.4144 -0.4776
  317MPD2    C3 4764   3.505   3.562  13.367 -0.2350  0.2734  0.2453
  317MPD2    C4 4765   3.518   3.696  13.370 -0.1017 -0.1395  0.2538
  317MPD2    C5 4766   3.518   3.772  13.254  1.0091 -0.0027  0.6186
  317MPD2     H 4767   3.479   3.396  13.233  0.0115  0.4047 -0.6596
  317MPD2    H1 4768   3.538   3.751  13.461 -0.2343 -0.4673  0.4781
  317MPD2    H2 4769   3.506   3.794  13.053 -0.6797 -0.9680 -1.0883
  317MPD2    H3 4770   3.526   3.880  13.261  0.4571  0.2479 -2.2641
  317MPD2     N 4771   3.507   3.473  13.477 -0.1177  0.4158  0.2208
  317MPD2    H5 4772   3.499   3.373  13.461  1.2209  0.5801 -1.4700
  317MPD2    N1 4773   3.501   3.516  12.996 -0.5583  0.1209 -0.5426
  317MPD2    H7 4774   3.489   3.415  13.005 -2.8279  0.6332  2.1021
  318TMC3    C1 4775   3.508   3.400  13.700 -0.3889  0.2484  0.0226
  318TMC3    C2 4776   3.452   3.288  13.657  0.1672 -0.0634  0.0958
  318TMC3    C3 4777   3.479   3.168  13.719  0.1522  0.0587  0.8272
  318TMC3    C4 4778   3.580   3.407  13.813  0.6827  0.8085 -0.0954
  318TMC3    C5 4779   3.605   3.286  13.877  0.0513 -0.2064  0.5488
  318TMC3    C6 4780   3.551   3.169  13.834 -0.3194  0.7574 -0.7886
  318TMC3     C 4781   3.521   3.512  13.611 -0.1509 -0.4035 -0.9612
  318TMC3     O 4782   3.548   3.621  13.659  0.6437 -0.4782  0.5225
  318TMC3     H 4783   3.383   3.289  13.574 -0.4419  1.9322  0.6239
  318TMC3    H1 4784   3.618   3.505  13.839  0.9570  0.7907 -0.4321
  318TMC3    H2 4785   3.578   3.082  13.893  1.7330  1.1528 -1.1403
  318TMC3    C7 4786   3.696   3.276  13.990  0.4651 -0.7200  0.2191
  318TMC3    C8 4787   3.398   3.050  13.695  0.0866  0.3094 -0.2690
  318TMC3    O1 4788   3.680   3.367  14.072  0.3930  0.6133  0.4299
  318TMC3    O2 4789   3.398   2.963  13.781 -0.7369 -0.0730  0.6956
  319MPD2     C 4790   3.530   0.014  17.432  0.3011  0.2117 -0.1073
  319MPD2    C1 4791   3.517   4.635  17.333 -0.0297 -0.3790  0.1085
  319MPD2    C2 4792   3.462   4.673  17.215 -0.3634 -0.5819 -0.3943
  319MPD2    C3 4793   3.417   0.073  17.187 -0.3043  0.4364 -0.0008
  319MPD2    C4 4794   3.436   0.167  17.291 -0.4525  0.5211  0.0757
  319MPD2    C5 4795   3.485   0.139  17.410 -0.2853  0.0455  0.4253
  319MPD2     H 4796   3.441   4.598  17.139 -1.7736 -1.6177  1.0285
  319MPD2    H1 4797   3.403   0.269  17.275 -0.4008  0.4311 -0.6145
  319MPD2    H2 4798   3.576   4.716  17.528  0.2882  1.9335  0.2552
  319MPD2    H3 4799   3.482   0.220  17.482  1.0917 -0.0441  0.5772
  319MPD2     N 4800   3.346   0.098  17.062  0.3763  0.3326 -0.7890
  319MPD2    H5 4801   3.322   0.018  17.005 -1.8458  2.0894 -2.3270
  319MPD2    N1 4802   3.546   4.503  17.364  0.3522 -0.2070 -0.0336
  319MPD2    H7 4803   3.542   4.444  17.282  0.0959 -0.8593  0.4494
  320TMC3    C1 4804   3.267   0.206  16.878 -0.8144 -0.3593 -0.2760
  320TMC3    C2 4805   3.288   0.299  16.782 -0.0710 -0.7124  0.7354
  320TMC3    C3 4806   3.227   0.274  16.665 -0.7041 -0.1886  0.3511
  320TMC3    C4 4807   3.187   0.088  16.865 -0.5649  0.2016  1.0078
  320TMC3    C5 4808   3.133   0.069  16.743  0.1236 -0.2211  0.6512
  320TMC3    C6 4809   3.153   0.161  16.640  0.3675  0.0859  0.0048
  320TMC3     C 4810   3.326   0.220  17.011  1.0780  0.5888  0.6303
  320TMC3     O 4811   3.384   0.325  17.037 -0.3041 -0.2035  0.6155
  320TMC3     H 4812   3.342   0.390  16.807 -1.8770 -0.1391  2.5937
  320TMC3    H1 4813   3.159   0.021  16.945 -1.9475 -2.5101 -1.7135
  320TMC3    H2 4814   3.107   0.141  16.544 -0.7556  0.5389  0.4574
  320TMC3    C7 4815   3.102   4.653  16.695 -0.3523 -0.2714 -0.1239
  320TMC3    C8 4816   3.251   0.374  16.557 -0.0160 -0.1617  0.0959
  320TMC3    O1 4817   3.104   4.636  16.573 -0.4271 -0.0632  0.1229
  320TMC3    O2 4818   3.332   0.461  16.582  0.3012 -0.3530 -0.4159
  321TMC3    C1 4819   3.635   4.319  17.466 -0.6185 -0.0049  0.5041
  321TMC3    C2 4820   3.712   4.297  17.353  0.4582  0.1990  0.3153
  321TMC3    C3 4821   3.752   4.170  17.330  0.1773 -0.2023 -0.1668
  321TMC3    C4 4822   3.591   4.209  17.540 -0.5187  0.2562  0.1199
  321TMC3    C5 4823   3.616   4.079  17.504 -0.0128 -0.2559 -0.5014
  321TMC3    C6 4824   3.697   4.062  17.392 -0.1430 -0.0180  0.1123
  321TMC3     C 4825   3.578   4.449  17.486  1.1653 -0.1110 -0.7131
  321TMC3     O 4826   3.554   4.487  17.598  0.0244  0.1216 -0.0688
  321TMC3     H 4827   3.757   4.383  17.305 -0.8545  1.2137  0.8927
  321TMC3    H1 4828   3.528   4.227  17.626 -1.1978 -1.1310 -0.0750
  321TMC3    H2 4829   3.721   3.959  17.366  1.5316  0.4227 -0.0334
  321TMC3    C7 4830   3.661   3.996  17.617  1.1849  0.4932 -0.0776
  321TMC3    C8 4831   3.893   4.148  17.311  0.5434 -0.1751 -0.1748
  321TMC3    O1 4832   3.597   4.003   0.031  0.2723  0.2612 -0.3653
  321TMC3    O2 4833   3.933   4.048  17.365 -0.3125 -0.1220  0.4044
  322MPD2     C 4834   2.759   1.063  13.722 -0.4729  0.3916 -0.6198
  322MPD2    C1 4835   2.825   1.036  13.840  0.0473  0.1678 -0.5532
  322MPD2    C2 4836   2.852   0.903  13.874 -0.0911  0.2271  0.1790
  322MPD2    C3 4837   2.829   0.803  13.778 -0.3830 -0.3890  0.3912
  322MPD2    C4 4838   2.768   0.837  13.655  0.3727 -0.3115 -0.1745
  322MPD2    C5 4839   2.742   0.967  13.627  0.5404 -0.4821 -0.3288
  322MPD2     H 4840   2.908   0.875  13.962  1.4816 -0.9042 -1.1859
  322MPD2    H1 4841   2.750   0.759  13.581 -0.7335 -0.0155 -0.2221
  322MPD2    H2 4842   2.724   1.164  13.705 -0.7213  0.3231 -0.5208
  322MPD2    H3 4843   2.702   1.004  13.534 -0.2322  1.2307  0.6766
  322MPD2     N 4844   2.856   0.670  13.814  0.2317  0.8725  0.3491
  322MPD2    H5 4845   2.900   0.649  13.903  0.4085 -2.6734 -0.5816
  322MPD2    N1 4846   2.846   1.145  13.929  0.2409  0.1987 -0.4988
  322MPD2    H7 4847   2.844   1.238  13.890 -0.2036  0.5436  0.3534
  323TMC3    C1 4848   2.920   1.267  14.113 -0.2580 -0.4371  0.2675
  323TMC3    C2 4849   3.020   1.338  14.041 -0.4916  0.3212 -0.5292
  323TMC3    C3 4850   3.086   1.436  14.111  0.3030  0.0441 -0.2321
  323TMC3    C4 4851   2.905   1.275  14.250 -0.3695 -0.2509  0.1919
  323TMC3    C5 4852   2.992   1.360  14.319 -0.0658 -0.0815 -1.0675
  323TMC3    C6 4853   3.086   1.440  14.250  0.7548 -0.6227  0.2824
  323TMC3     C 4854   2.883   1.139  14.063  0.6454  0.3583 -0.3822
  323TMC3     O 4855   2.870   1.040  14.136  0.0280 -0.2987  0.0044
  323TMC3     H 4856   3.034   1.327  13.934 -0.0634 -2.1300 -0.2273
  323TMC3    H1 4857   2.853   1.196  14.303  0.7134  0.5670  2.4714
  323TMC3    H2 4858   3.168   1.483  14.307  0.1864 -0.3328  0.8834
  323TMC3    C7 4859   3.035   1.312  14.447  0.7648  0.1990  0.2762
  323TMC3    C8 4860   3.210   1.468  14.056  0.2664  0.3376 -0.4783
  323TMC3    O1 4861   3.022   1.194  14.471  0.6560  0.1923  0.1508
  323TMC3    O2 4862   3.312   1.449  14.126 -0.4031  0.5048  0.5075
  324MPD2     C 4863   0.214   2.476  14.310  0.1738 -0.0692  0.0547
  324MPD2    C1 4864   0.190   2.556  14.419 -0.4789 -0.2110 -0.3753
  324MPD2    C2 4865   0.072   2.539  14.483 -0.5833  0.4590  0.1144
  324MPD2    C3 4866   4.700   2.449  14.442 -0.1052 -0.2978  0.4279
  324MPD2    C4 4867   0.004   2.366  14.331 -0.5500 -1.2383  0.4679
  324MPD2    C5 4868   0.123   2.375  14.271  0.2309 -0.0206 -0.0053
  324MPD2     H 4869   0.062   2.579  14.583 -2.1521  0.3842 -0.0233
  324MPD2    H1 4870   4.652   2.294  14.297  0.0542 -1.8863  0.5037
  324MPD2    H2 4871   0.314   2.473  14.267 -0.0880  0.5264 -0.6081
  324MPD2    H3 4872   0.155   2.307  14.194 -0.6718 -2.4534  1.7565
  324MPD2     N 4873   4.581   2.434  14.511  0.2483 -0.0932 -0.1920
  324MPD2    H5 4874   4.526   2.354  14.483  2.7709 -1.2148 -1.9177
  324MPD2    N1 4875   0.289   2.641  14.477  0.8883 -0.7508  0.0117
  324MPD2    H7 4876   0.280   2.672  14.574  0.0202 -0.4179 -0.1813
  325TMC3    C1 4877   4.397   2.464  14.648 -0.7123  0.4341  0.5315
  325TMC3    C2 4878   4.318   2.410  14.553  0.1908  0.2524 -0.4481
  325TMC3    C3 4879   4.177   2.423  14.567  0.0503  0.1386  1.1034
  325TMC3    C4 4880   4.351   2.520  14.763 -0.2038  0.0292 -0.0698
  325TMC3    C5 4881   4.213   2.513  14.784  0.4846  1.0261 -0.2849
  325TMC3    C6 4882   4.119   2.472  14.688 -0.6772  0.1449 -0.4575
  325TMC3     C 4883   4.524   2.514  14.606  0.1081 -0.1623 -0.5519
  325TMC3     O 4884   4.584   2.612  14.660  0.4383 -0.1225 -1.1425
  325TMC3     H 4885   4.352   2.393  14.451 -0.6505  0.3724 -0.7512
  325TMC3    H1 4886   4.425   2.563  14.829  0.4071 -1.1818  0.0422
  325TMC3    H2 4887   4.014   2.497  14.685 -1.4831 -3.1921 -0.7959
  325TMC3    C7 4888   4.183   2.642  14.844  0.4263  0.6367 -0.6771
  325TMC3    C8 4889   4.092   2.374  14.455 -0.0252  0.0960  0.5916
  325TMC3    O1 4890   4.272   2.721  14.879 -0.1014  1.1609  0.0222
  325TMC3    O2 4891   4.160   2.345  14.355 -0.0358  0.0537  0.0751
  326MPD2     C 4892   1.106   3.300  11.694 -0.9610 -0.4568  0.7085
  326MPD2    C1 4893   1.143   3.268  11.563 -0.3880  0.2075 -0.1320
  326MPD2    C2 4894   1.248   3.331  11.500 -0.7291  0.1501  0.4255
  326MPD2    C3 4895   1.311   3.433  11.566  0.0829 -0.6638 -0.5150
  326MPD2    C4 4896   1.281   3.458  11.696  0.5363  0.1080 -0.0922
  326MPD2    C5 4897   1.177   3.398  11.759 -0.5953 -0.3680 -0.7261
  326MPD2     H 4898   1.262   3.312  11.394  0.9975  0.5734  0.5700
  326MPD2    H1 4899   1.335   3.532  11.753 -0.2626  1.1150 -0.6360
  326MPD2    H2 4900   1.024   3.249  11.743 -1.6540  0.0341  0.0641
  326MPD2    H3 4901   1.152   3.427  11.860  0.6431  0.3526 -0.6111
  326MPD2     N 4902   1.404   3.512  11.499 -0.3247 -0.0786  0.1339
  326MPD2    H5 4903   1.458   3.574  11.558 -1.1235 -2.6838  3.6338
  326MPD2    N1 4904   1.082   3.163  11.490 -0.0685  0.2679  0.0249
  326MPD2    H7 4905   1.114   3.148  11.395  0.2723  0.6738  0.0738
  327TMC3    C1 4906   0.926   3.007  11.417  0.2304  0.1419  0.0919
  327TMC3    C2 4907   0.819   3.064  11.357 -0.8843 -0.0286 -0.4673
  327TMC3    C3 4908   0.824   3.088  11.221 -0.1999 -0.1174  0.1259
  327TMC3    C4 4909   1.034   2.969  11.348 -0.8145 -0.7527 -0.3440
  327TMC3    C5 4910   1.042   2.983  11.208  0.3092  0.9489  0.1096
  327TMC3    C6 4911   0.929   3.032  11.150  0.0540  0.8228 -0.1681
  327TMC3     C 4912   0.972   3.085  11.532  0.3222  0.3876 -0.6711
  327TMC3     O 4913   0.876   3.113  11.608  0.2448 -0.4698  0.2433
  327TMC3     H 4914   0.729   3.100  11.407 -0.4542 -1.2653  1.2107
  327TMC3    H1 4915   1.115   2.927  11.406 -0.6540  0.1922  0.1123
  327TMC3    H2 4916   0.945   3.067  11.049  0.5029 -4.4052 -1.9093
  327TMC3    C7 4917   1.168   3.009  11.139 -0.7188  0.7823  0.4895
  327TMC3    C8 4918   0.814   3.230  11.189  0.1991  0.4487 -0.8897
  327TMC3    O1 4919   1.171   3.077  11.035 -0.6006  0.1556  0.2903
  327TMC3    O2 4920   0.826   3.265  11.071  0.8346  0.8632  0.0934
  328MPD2     C 4921   3.254   3.284   0.103  0.3850 -0.0192 -0.0622
  328MPD2    C1 4922   3.181   3.179   0.056 -0.3664 -0.0025  0.1458
  328MPD2    C2 4923   3.157   3.170  17.612  0.1134  0.3670  0.2753
  328MPD2    C3 4924   3.198   3.268  17.521 -0.3155 -0.1414  0.0951
  328MPD2    C4 4925   3.273   3.372  17.569 -0.5625  0.7333  0.4706
  328MPD2    C5 4926   3.296   3.379   0.015 -0.4351 -0.1713 -0.5147
  328MPD2     H 4927   3.103   3.086  17.571  0.9693 -0.6246  1.1476
  328MPD2    H1 4928   3.310   3.453  17.508 -1.0759  0.0627 -0.7262
  328MPD2    H2 4929   3.289   3.306   0.203  1.2255  1.2342 -0.6218
  328MPD2    H3 4930   3.356   3.459   0.057 -0.2407  0.2570 -1.6295
  328MPD2     N 4931   3.182   3.262  17.379  0.4413 -0.3899  0.1296
  328MPD2    H5 4932   3.203   3.342  17.320  0.2842 -0.6500 -0.2884
  328MPD2    N1 4933   3.142   3.077   0.156  0.0622 -0.0161  0.1280
  328MPD2    H7 4934   3.192   3.089   0.244 -2.0227 -0.6259  1.4175
  329TMC3    C1 4935   3.067   2.868   0.243 -0.5727  0.8152 -0.1346
  329TMC3    C2 4936   3.076   2.915   0.370  0.1151  0.0100  0.2920
  329TMC3    C3 4937   3.082   2.820   0.468  0.2941 -0.4272 -0.0140
  329TMC3    C4 4938   3.050   2.732   0.209 -0.2782 -0.0858  0.1022
  329TMC3    C5 4939   3.065   2.640   0.309 -0.3853  0.1097  0.6460
  329TMC3    C6 4940   3.084   2.681   0.441 -0.3976  0.2303  0.0505
  329TMC3     C 4941   3.062   2.967   0.134 -0.1705 -0.9572 -0.3038
  329TMC3     O 4942   3.019   2.924   0.029 -0.0358  0.6461 -0.0471
  329TMC3     H 4943   3.072   3.020   0.395 -0.1859  0.0002  0.2847
  329TMC3    H1 4944   3.047   2.701   0.106  0.8944  2.5717 -0.7459
  329TMC3    H2 4945   3.089   2.613   0.525 -1.6586 -0.2708 -0.2699
  329TMC3    C7 4946   3.093   2.507   0.269 -0.6060  0.2741 -0.0969
  329TMC3    C8 4947   3.117   2.860   0.599  0.1312  1.0349  0.5287
  329TMC3    O1 4948   3.090   2.489   0.149 -0.3553 -0.1242 -0.6583
  329TMC3    O2 4949   3.190   2.788   0.668  0.4908 -0.4996  0.9372
  330TMC3    C1 4950   1.780   1.779   9.496  0.2466  0.0141 -0.1378
  330TMC3    C2 4951   1.665   1.732   9.442 -0.2065 -0.0794 -0.3261
  330TMC3    C3 4952   1.586   1.651   9.520 -0.0553 -0.5070 -0.2667
  330TMC3    C4 4953   1.829   1.734   9.615 -0.2643 -0.5545 -1.1823
  330TMC3    C5 4954   1.751   1.644   9.691 -0.3393  0.4098  0.3258
  330TMC3    C6 4955   1.630   1.607   9.642  0.0151  0.1474 -0.2049
  330TMC3     C 4956   1.853   1.888   9.431  0.9375  0.8980 -0.5882
  330TMC3     O 4957   1.973   1.887   9.451  0.1843 -0.7697  0.5091
  330TMC3     H 4958   1.637   1.779   9.348  1.6484  1.9153  0.1184
  330TMC3    H1 4959   1.930   1.764   9.644 -0.0226  0.8133 -3.4428
  330TMC3    H2 4960   1.567   1.538   9.698  0.7127  1.0806  1.7132
  330TMC3    C7 4961   1.769   1.648   9.840  1.1995 -0.2216 -0.1309
  330TMC3    C8 4962   1.464   1.603   9.459  0.2362 -0.1294  0.0401
  330TMC3    O1 4963   1.674   1.604   9.903 -0.4417  0.0057  0.4721
  330TMC3    O2 4964   1.473   1.616   9.336  0.2149  0.3142 -0.3901
  331MPD2     C 4965   4.392   2.090  13.165 -0.1889  0.3669  0.2279
  331MPD2    C1 4966   4.274   2.030  13.117  0.4486 -0.6010 -0.3837
  331MPD2    C2 4967   4.276   1.897  13.072  0.0245  0.0864 -0.1714
  331MPD2    C3 4968   4.387   1.821  13.094  0.2708  0.3211  0.2932
  331MPD2    C4 4969   4.501   1.879  13.159 -0.1129  0.3213 -0.0993
  331MPD2    C5 4970   4.500   2.014  13.185 -0.6461 -0.0122  0.3094
  331MPD2     H 4971   4.189   1.857  13.021 -0.2624  1.6554 -0.9019
  331MPD2    H1 4972   4.584   1.821  13.196 -0.5796 -0.4464 -0.2582
  331MPD2    H2 4973   4.399   2.193  13.199  0.4420  0.6901 -0.8915
  331MPD2    H3 4974   4.594   2.052  13.223 -1.7208  2.2197  0.7539
  331MPD2     N 4975   4.385   1.690  13.056 -0.5618 -0.5113  0.1769
  331MPD2    H5 4976   4.297   1.665  13.010  0.4476 -1.6992 -1.1213
  331MPD2    N1 4977   4.162   2.118  13.077  0.2969 -0.3919  0.0805
  331MPD2    H7 4978   4.180   2.218  13.077  1.4017 -0.5911 -0.4366
  332TMC3    C1 4979   4.461   1.495  12.968 -0.2244  0.3134 -0.6300
  332TMC3    C2 4980   4.356   1.503  12.884 -0.3383  0.2593 -0.3151
  332TMC3    C3 4981   4.368   1.431  12.769  0.7864 -0.3930 -0.5480
  332TMC3    C4 4982   4.563   1.413  12.944  0.6358 -0.2938  0.3117
  332TMC3    C5 4983   4.571   1.343  12.832  0.0736 -0.0011 -1.2389
  332TMC3    C6 4984   4.477   1.348  12.740 -0.1483 -0.0042 -0.0389
  332TMC3     C 4985   4.483   1.601  13.067  0.9783 -1.4601  0.2747
  332TMC3     O 4986   4.590   1.603  13.126  0.2155  0.5394  0.1520
  332TMC3     H 4987   4.272   1.570  12.889 -0.8033 -0.2367 -1.4466
  332TMC3    H1 4988   4.641   1.408  13.019 -0.5750 -0.3929  1.5694
  332TMC3    H2 4989   4.493   1.300  12.644  0.0720 -0.0016 -0.0034
  332TMC3    C7 4990   4.711   1.337  12.782  0.1550 -0.5414  0.1207
  332TMC3    C8 4991   4.340   1.516  12.650 -0.1555 -0.0286 -0.2088
  332TMC3    O1 4992   0.063   1.407  12.847 -0.2274 -0.1099  0.0534
  332TMC3    O2 4993   4.335   1.636  12.661  0.4637 -0.3616  0.8043
  333MPD2     C 4994   4.691   1.928  11.196 -0.3103 -0.4943  0.0296
  333MPD2    C1 4995   0.019   1.820  11.132 -0.6535  0.9748 -0.5228
  333MPD2    C2 4996   4.668   1.703  11.142  0.0512  0.1976  0.7199
  333MPD2    C3 4997   4.560   1.694  11.226  0.3007 -0.2784  0.0412
  333MPD2    C4 4998   4.511   1.811  11.276 -0.1958 -0.0213  0.1643
  333MPD2    C5 4999   4.573   1.929  11.265 -0.3303  0.4093 -0.0445
  333MPD2     H 5000   4.700   1.613  11.091 -1.5160  0.0401 -0.0019
  333MPD2    H1 5001   4.414   1.805  11.326  1.2048  0.9853  3.0239
  333MPD2    H2 5002   0.015   2.026  11.189 -2.3261  0.4355 -0.1679
  333MPD2    H3 5003   4.539   2.014  11.322 -0.6326  0.2454  0.0177
  333MPD2     N 5004   4.495   1.571  11.238 -0.9368  0.1291  0.6601
  333MPD2    H5 5005   4.535   1.488  11.194  1.1008  1.7887 -0.5988
  333MPD2    N1 5006   0.144   1.829  11.065 -0.5785 -0.4660 -0.5145
  333MPD2    H7 5007   0.176   1.925  11.059 -0.1014 -0.6975 -1.6693
  334TMC3    C1 5008   0.342   1.755  10.940 -0.4100  0.3955  0.3238
  334TMC3    C2 5009   0.441   1.660  10.932  0.6690  0.5893  0.1167
  334TMC3    C3 5010   0.563   1.694  10.862  0.0039  0.1721  0.2144
  334TMC3    C4 5011   0.360   1.886  10.898 -0.1722  0.5343 -0.7922
  334TMC3    C5 5012   0.473   1.910  10.823 -0.3432 -0.2908  0.0226
  334TMC3    C6 5013   0.576   1.821  10.810 -0.2146  0.6805  0.5214
  334TMC3     C 5014   0.220   1.721  11.020 -0.1991  0.5959 -0.2175
  334TMC3     O 5015   0.206   1.603  11.056  0.3276 -0.1579  0.3048
  334TMC3     H 5016   0.403   1.562  10.959  0.7413  0.4974 -0.1116
  334TMC3    H1 5017   0.281   1.960  10.895  0.1437  0.9853  1.4248
  334TMC3    H2 5018   0.659   1.844  10.744 -0.2734  0.7737  0.4810
  334TMC3    C7 5019   0.486   2.025  10.737 -0.0496  0.0920 -0.1175
  334TMC3    C8 5020   0.665   1.597  10.885  0.0398 -0.1675 -0.4594
  334TMC3    O1 5021   0.593   2.082  10.726 -0.6026  0.2401 -0.4134
  334TMC3    O2 5022   0.649   1.512  10.971  0.3322  0.3816  0.3544
  335TMC3    C1 5023   4.408   3.082  17.434 -0.2264  0.4324  0.3864
  335TMC3    C2 5024   4.292   3.127  17.389 -0.3778 -0.8545 -0.8314
  335TMC3    C3 5025   4.299   3.229  17.293  1.3401  0.4126 -0.0197
  335TMC3    C4 5026   4.530   3.119  17.385 -0.3460 -0.1847  0.1108
  335TMC3    C5 5027   4.531   3.204  17.273  0.3418 -0.9441 -0.2128
  335TMC3    C6 5028   4.420   3.273  17.236  0.0599 -0.6276  0.4727
  335TMC3     C 5029   4.410   2.985  17.543 -0.0121 -0.7654  0.9646
  335TMC3     O 5030   4.337   2.885  17.524  0.5390 -0.1617 -0.1899
  335TMC3     H 5031   4.205   3.098  17.448 -0.6351  2.2222  0.3206
  335TMC3    H1 5032   4.618   3.056  17.394  2.4934  3.6029 -0.7437
  335TMC3    H2 5033   4.420   3.346  17.155 -2.3327 -2.1007 -0.8291
  335TMC3    C7 5034   4.663   3.249  17.233  0.8279 -0.4423  0.1325
  335TMC3    C8 5035   4.174   3.293  17.247  0.3510 -0.0611  0.0134
  335TMC3    O1 5036   4.681   3.286  17.122 -0.0434  0.4870 -0.1649
  335TMC3    O2 5037   4.186   3.400  17.191 -0.0300 -0.4082 -0.5799
  336MPD2     C 5038   4.221   1.091  16.225  0.1075 -0.5516 -0.2311
  336MPD2    C1 5039   4.092   1.098  16.175 -0.2505  0.3870 -0.9591
  336MPD2    C2 5040   3.995   1.011  16.221  0.4231 -0.2632 -0.7739
  336MPD2    C3 5041   4.026   0.930  16.335  0.0559  0.0746  0.2867
  336MPD2    C4 5042   4.151   0.948  16.395  0.0724  0.1207  0.4699
  336MPD2    C5 5043   4.248   1.025  16.337  0.1225 -0.3877  0.2533
  336MPD2     H 5044   3.907   0.994  16.160  0.2618  0.0605 -0.6265
  336MPD2    H1 5045   4.172   0.902  16.491  1.2708  2.8156  1.4876
  336MPD2    H2 5046   4.306   1.152  16.195  0.4064 -0.4009  0.9207
  336MPD2    H3 5047   4.346   1.042  16.381 -0.2301 -1.7997  1.5625
  336MPD2     N 5048   3.937   0.837  16.405 -0.0626 -0.1593 -0.0709
  336MPD2    H5 5049   3.964   0.792  16.492 -0.6200  2.0153  1.2449
  336MPD2    N1 5050   4.056   1.183  16.068 -0.1195 -0.1857  0.5575
  336MPD2    H7 5051   3.956   1.184  16.050 -0.0315 -2.0664 -0.1028
  337TMC3    C1 5052   4.064   1.296  15.870 -0.3732  0.2564 -0.0014
  337TMC3    C2 5053   3.944   1.358  15.890  0.5423 -0.4311  0.3005
  337TMC3    C3 5054   3.860   1.355  15.781  0.0904  0.3283  0.4438
  337TMC3    C4 5055   4.103   1.234  15.747  0.0433 -0.1090 -0.1979
  337TMC3    C5 5056   4.002   1.221  15.649  0.2143 -0.4272 -0.6811
  337TMC3    C6 5057   3.878   1.282  15.668  0.3577  0.4224  0.0219
  337TMC3     C 5058   4.140   1.259  15.987  0.5985 -0.4059 -0.4392
  337TMC3     O 5059   4.262   1.249  15.969  0.2638 -0.6532 -0.0955
  337TMC3     H 5060   3.925   1.396  15.989 -0.5606 -1.0069  0.3048
  337TMC3    H1 5061   4.194   1.175  15.747  1.5420  2.1830  0.5314
  337TMC3    H2 5062   3.803   1.274  15.591  0.1925  0.2024  0.2058
  337TMC3    C7 5063   4.026   1.134  15.526 -0.2845  0.2139  0.9341
  337TMC3    C8 5064   3.724   1.371  15.815 -0.2469  0.0056  0.2471
  337TMC3    O1 5065   3.926   1.118  15.453  0.2576 -0.1475 -0.1258
  337TMC3    O2 5066   3.704   1.357  15.937  0.3436 -0.1414 -0.8693
  338MPD2     C 5067   3.972   0.451   0.831 -0.6013 -0.2820 -0.4791
  338MPD2    C1 5068   3.941   0.479   0.699 -0.2039 -0.0430 -0.0635
  338MPD2    C2 5069   3.808   0.483   0.663 -0.2675 -0.5901 -0.8025
  338MPD2    C3 5070   3.704   0.445   0.742 -0.8092 -0.6292 -0.6110
  338MPD2    C4 5071   3.733   0.408   0.872  0.3581  0.2210  0.4127
  338MPD2    C5 5072   3.868   0.409   0.913  0.3500 -0.5325 -0.4698
  338MPD2     H 5073   3.787   0.493   0.557 -1.8442 -1.5740 -0.5836
  338MPD2    H1 5074   3.655   0.371   0.938  1.7823 -1.4612  1.1303
  338MPD2    H2 5075   4.074   0.453   0.868 -0.4960  1.1036 -0.8644
  338MPD2    H3 5076   3.899   0.378   1.012  1.3997  1.4709 -0.1753
  338MPD2     N 5077   3.574   0.433   0.686 -0.1294  0.2296  0.3404
  338MPD2    H5 5078   3.563   0.465   0.590 -0.0808 -2.3031 -0.5259
  338MPD2    N1 5079   4.031   0.509   0.593 -0.2746  0.7203 -0.0350
  338MPD2    H7 5080   3.986   0.532   0.505 -3.3139 -0.0292  1.3129
  339TMC3    C1 5081   3.352   0.376   0.649  0.2499  0.4097  0.1710
  339TMC3    C2 5082   3.226   0.370   0.701 -0.5162  0.1930 -0.9355
  339TMC3    C3 5083   3.125   0.351   0.606 -0.2671 -0.1136  0.0690
  339TMC3    C4 5084   3.377   0.352   0.519  0.4199  0.1192 -0.0146
  339TMC3    C5 5085   3.273   0.342   0.430  0.3434 -0.0427  0.1255
  339TMC3    C6 5086   3.139   0.341   0.470  0.7229  0.0367  0.0348
  339TMC3     C 5087   3.458   0.385   0.742  0.1833 -0.4063  0.4575
  339TMC3     O 5088   3.433   0.354   0.858  0.3541  0.7047  0.0309
  339TMC3     H 5089   3.195   0.372   0.805  1.0257 -0.9117 -0.4583
  339TMC3    H1 5090   3.479   0.363   0.483  0.2116 -0.5844 -0.8138
  339TMC3    H2 5091   3.052   0.325   0.408  1.6804 -1.9754 -0.7764
  339TMC3    C7 5092   3.310   0.346   0.288  0.5400 -0.6776 -0.5970
  339TMC3    C8 5093   2.985   0.344   0.659 -0.9463  0.1207 -0.1686
  339TMC3    O1 5094   3.421   0.303   0.249 -0.0372 -0.2581  0.0662
  339TMC3    O2 5095   2.886   0.378   0.594 -0.4865  0.4525 -0.2194
  340MPD2     C 5096   4.575   2.496  10.285 -0.7645 -0.6041  0.2508
  340MPD2    C1 5097   4.684   2.527  10.212  0.5534 -0.3448  0.2372
  340MPD2    C2 5098   0.031   2.646  10.237 -0.3736  0.1157  0.2150
  340MPD2    C3 5099   4.715   2.733  10.340 -0.7462 -0.1336  0.8675
  340MPD2    C4 5100   4.613   2.687  10.418 -0.6038 -0.3310 -0.3051
  340MPD2    C5 5101   4.545   2.574  10.391  0.0444 -0.1435  0.1398
  340MPD2     H 5102   0.116   2.672  10.175  0.4631 -0.4427  1.1298
  340MPD2    H1 5103   4.595   2.757  10.499 -1.8210  0.6769 -1.4281
  340MPD2    H2 5104   4.503   2.417  10.267 -0.7071  0.2000 -3.4703
  340MPD2    H3 5105   4.472   2.549  10.467  0.7822 -0.3017  0.8067
  340MPD2     N 5106   0.070   2.853  10.358 -0.1451 -0.4240  0.1994
  340MPD2    H5 5107   0.054   2.911  10.440  0.3117  1.0639 -0.7500
  340MPD2    N1 5108   0.002   2.437  10.102 -0.3049 -0.4793  0.1676
  340MPD2    H7 5109   4.680   2.346  10.099 -0.2631 -0.4991  0.1503
  341TMC3    C1 5110   0.098   2.355   9.894 -0.0020  0.1426 -0.8547
  341TMC3    C2 5111   0.006   2.251   9.888 -0.5021 -0.0311 -0.2652
  341TMC3    C3 5112   0.008   2.170   9.783  0.4013  0.3322  0.5814
  341TMC3    C4 5113   0.195   2.374   9.799  0.9718  0.0697  0.7970
  341TMC3    C5 5114   0.191   2.291   9.692  0.4399 -0.4881 -0.3912
  341TMC3    C6 5115   0.103   2.184   9.686  0.1094 -0.0569  0.2495
  341TMC3     C 5116   0.079   2.467   9.989  0.0246 -0.0911  0.5372
  341TMC3     O 5117   0.136   2.573   9.970  0.6550 -0.0631  0.1840
  341TMC3     H 5118   4.648   2.240   9.960  0.2038 -0.3662  0.4609
  341TMC3    H1 5119   0.254   2.464   9.806 -0.9513  1.3033  1.1428
  341TMC3    H2 5120   0.115   2.109   9.608  1.5240  0.3827  0.0443
  341TMC3    C7 5121   0.316   2.284   9.623 -0.6129  0.4223  0.2594
  341TMC3    C8 5122   4.621   2.077   9.765 -0.2309 -0.3985 -0.1975
  341TMC3    O1 5123   0.408   2.335   9.686  0.0328 -0.0312  0.4971
  341TMC3    O2 5124   4.567   2.035   9.867  0.5915 -0.5170 -0.2016
  342MPD2     C 5125   1.818   1.410   0.342 -0.2979  0.2247  0.5452
  342MPD2    C1 5126   1.913   1.411   0.238 -0.0882 -0.7387 -0.5318
  342MPD2    C2 5127   1.946   1.538   0.182 -0.8721  0.4190 -0.2183
  342MPD2    C3 5128   1.870   1.647   0.216 -0.2913 -0.4866 -0.1119
  342MPD2    C4 5129   1.771   1.637   0.310  0.2984  0.7679  0.0830
  342MPD2    C5 5130   1.747   1.524   0.375 -0.2621  0.1155  0.2998
  342MPD2     H 5131   2.018   1.540   0.102 -0.9196  0.8377 -0.2510
  342MPD2    H1 5132   1.710   1.721   0.341 -1.2141  0.0130 -0.8529
  342MPD2    H2 5133   1.789   1.316   0.387 -0.4784 -0.1096 -0.2711
  342MPD2    H3 5134   1.672   1.523   0.453 -0.1188 -0.3072  0.4287
  342MPD2     N 5135   1.868   1.770   0.145  0.1375  0.1900 -0.0202
  342MPD2    H5 5136   1.805   1.842   0.180 -0.7086 -1.3579  1.6350
  342MPD2    N1 5137   1.982   1.292   0.186 -0.1447  0.1689 -0.2444
  342MPD2    H7 5138   2.040   1.309   0.105  0.2303  2.7628  0.5584
  343TMC3    C1 5139   2.043   1.062   0.155  0.0153 -0.0150 -0.3763
  343TMC3    C2 5140   2.137   1.105   0.068 -0.3906 -0.0409  0.1395
  343TMC3    C3 5141   2.212   1.020  17.682 -0.1508 -0.6808 -0.3356
  343TMC3    C4 5142   2.007   0.934   0.164  0.3046  0.3068 -0.0509
  343TMC3    C5 5143   2.093   0.851   0.092  0.5592  0.6654 -0.6750
  343TMC3    C6 5144   2.192   0.886   0.004 -0.4492  0.5866  0.1739
  343TMC3     C 5145   1.963   1.161   0.221  0.0735  0.5999 -0.0307
  343TMC3     O 5146   1.877   1.109   0.295 -0.3177  0.1763 -0.1369
  343TMC3     H 5147   2.168   1.209   0.066 -0.5004 -0.0240 -0.7745
  343TMC3    H1 5148   1.921   0.900   0.221 -0.0138  1.9636  0.4468
  343TMC3    H2 5149   2.239   0.805  17.640  0.0527  0.3996  0.8843
  343TMC3    C7 5150   2.053   0.710   0.081 -0.0469 -0.4268  0.3438
  343TMC3    C8 5151   2.262   1.078  17.557 -0.3608  0.4516  0.1854
  343TMC3    O1 5152   2.058   0.662  17.658  0.1250 -0.7038 -0.2370
  343TMC3    O2 5153   2.238   1.189  17.524  0.2098  0.4351 -0.6652
  344MPD2     C 5154   3.661   0.637  11.326 -0.2736  0.2318 -0.3066
  344MPD2    C1 5155   3.559   0.687  11.250 -0.3885  0.3832 -0.2225
  344MPD2    C2 5156   3.574   0.813  11.199  0.9626 -0.2234  0.3268
  344MPD2    C3 5157   3.683   0.897  11.214  0.6243  0.2807  0.2948
  344MPD2    C4 5158   3.775   0.847  11.295 -0.5876 -0.2066 -0.0506
  344MPD2    C5 5159   3.767   0.717  11.339 -0.0684  0.2906  0.2640
  344MPD2     H 5160   3.484   0.846  11.147  2.1682 -0.5895 -1.9979
  344MPD2    H1 5161   3.868   0.902  11.303 -2.4084  3.1206 -1.8377
  344MPD2    H2 5162   3.660   0.538  11.370  1.1248  0.0575 -0.6640
  344MPD2    H3 5163   3.858   0.679  11.384 -1.6804 -1.4194  2.0976
  344MPD2     N 5164   3.697   1.025  11.158  0.7869 -0.0113 -0.4366
  344MPD2    H5 5165   3.772   1.087  11.185  0.4760  0.4521 -0.6521
  344MPD2    N1 5166   3.434   0.625  11.237  0.0212 -0.1150  0.0361
  344MPD2    H7 5167   3.358   0.671  11.187  0.3862 -1.1074 -1.4400
  345TMC3    C1 5168   3.703   1.188  10.988  0.3258  0.7765 -0.5248
  345TMC3    C2 5169   3.719   1.298  11.077 -0.1054  0.6943  0.6561
  345TMC3    C3 5170   3.765   1.413  11.025 -0.3153 -0.0301 -0.3433
  345TMC3    C4 5171   3.723   1.199  10.857  0.7734  0.0418 -0.2520
  345TMC3    C5 5172   3.774   1.328  10.810 -0.3121  0.8350  0.5180
  345TMC3    C6 5173   3.808   1.429  10.896 -0.0535 -0.4914  0.1093
  345TMC3     C 5174   3.644   1.059  11.033 -0.0935 -0.2221 -0.4978
  345TMC3     O 5175   3.568   1.003  10.954  0.0678 -0.0719 -0.4488
  345TMC3     H 5176   3.699   1.280  11.182 -1.9583  0.6903  0.2929
  345TMC3    H1 5177   3.688   1.116  10.796  2.0513  1.0060 -2.2799
  345TMC3    H2 5178   3.869   1.516  10.877 -0.5378 -0.3058 -0.5728
  345TMC3    C7 5179   3.778   1.361  10.676 -1.0163 -0.3064  0.1317
  345TMC3    C8 5180   3.763   1.525  11.116 -0.3621 -0.5258 -0.2716
  345TMC3    O1 5181   3.838   1.462  10.646  0.6167  0.1639 -0.2422
  345TMC3    O2 5182   3.774   1.506  11.238 -0.1748 -0.1796 -0.0143
  346MPD2     C 5183   2.783   2.582  14.724 -0.3521  0.2479 -0.3706
  346MPD2    C1 5184   2.899   2.630  14.668 -0.2666 -0.7060  0.3510
  346MPD2    C2 5185   2.997   2.672  14.758  0.1775  0.1937  0.1167
  346MPD2    C3 5186   2.988   2.647  14.894  0.1170  0.7416 -0.6970
  346MPD2    C4 5187   2.866   2.606  14.946 -0.4446  0.1132  0.3209
  346MPD2    C5 5188   2.771   2.564  14.859  0.4975 -0.5168  0.3803
  346MPD2     H 5189   3.091   2.708  14.718  0.3936  0.5983  0.9939
  346MPD2    H1 5190   2.842   2.600  15.052  1.6496  0.9312  0.8535
  346MPD2    H2 5191   2.695   2.552  14.668 -0.0353 -0.6306 -0.4037
  346MPD2    H3 5192   2.670   2.542  14.893  0.5894 -2.1111 -0.3448
  346MPD2     N 5193   3.100   2.679  14.971  0.1627  0.1321 -0.4289
  346MPD2    H5 5194   3.183   2.712  14.923  2.6102 -0.1203  3.6077
  346MPD2    N1 5195   2.926   2.636  14.532  0.3385 -0.2120  0.0497
  346MPD2    H7 5196   3.004   2.694  14.502 -0.4539  0.4674 -0.6729
  347TMC3    C1 5197   3.236   2.737  15.143 -0.1717  0.1214 -0.6789
  347TMC3    C2 5198   3.363   2.713  15.088 -0.2545 -0.1166 -0.5307
  347TMC3    C3 5199   3.463   2.809  15.112  0.8424 -0.2403  0.3898
  347TMC3    C4 5200   3.217   2.828  15.241  0.6061  0.0329 -0.4592
  347TMC3    C5 5201   3.321   2.911  15.270 -0.0985  0.1200  0.1111
  347TMC3    C6 5202   3.443   2.911  15.207 -0.3107  1.0019  0.2220
  347TMC3     C 5203   3.113   2.665  15.102 -0.2260 -0.0889  0.8193
  347TMC3     O 5204   3.032   2.646  15.187  0.1221  0.1032  0.6892
  347TMC3     H 5205   3.390   2.625  15.031 -0.5310 -1.0379  0.7557
  347TMC3    H1 5206   3.116   2.846  15.274  0.6218 -0.5049 -0.1247
  347TMC3    H2 5207   3.523   2.981  15.229 -0.6136  0.9374  1.5074
  347TMC3    C7 5208   3.301   3.012  15.373 -0.1830  0.7662 -0.4010
  347TMC3    C8 5209   3.582   2.786  15.046 -0.1607 -0.2419 -0.1398
  347TMC3    O1 5210   3.391   3.091  15.390  0.3863 -0.4578 -0.3786
  347TMC3    O2 5211   3.603   2.667  15.014  0.0987 -0.0211 -0.0139
  348MPD2     C 5212   2.078   2.137  12.373 -0.5216 -0.3542  0.0352
  348MPD2    C1 5213   2.166   2.234  12.317 -0.1893  0.4820  0.4778
  348MPD2    C2 5214   2.132   2.282  12.195  0.2553 -0.4609 -0.9772
  348MPD2    C3 5215   2.022   2.238  12.127  0.7362 -0.3074 -0.7115
  348MPD2    C4 5216   1.941   2.128  12.176  0.0933 -0.0082  0.4798
  348MPD2    C5 5217   1.975   2.073  12.300  0.7286  0.2848 -0.0064
  348MPD2     H 5218   2.192   2.367  12.162  2.2614 -2.0809 -1.5150
  348MPD2    H1 5219   1.840   2.105  12.144 -0.0327 -1.2157  1.7763
  348MPD2    H2 5220   2.106   2.094  12.469 -0.0053 -2.0369 -0.8736
  348MPD2    H3 5221   1.915   1.992  12.339  1.9126 -0.6287 -0.0923
  348MPD2     N 5222   1.976   2.312  12.018  0.8736 -0.1945 -0.1177
  348MPD2    H5 5223   2.029   2.395  11.991  0.0012 -0.5294 -2.8904
  348MPD2    N1 5224   2.275   2.293  12.379 -0.2734 -0.2715 -0.6146
  348MPD2    H7 5225   2.324   2.364  12.325  0.1584 -0.7419 -0.8349
  349TMC3    C1 5226   2.469   2.288  12.498  0.3578  0.0259  0.3288
  349TMC3    C2 5227   2.527   2.170  12.540  0.0822 -0.2967  0.0261
  349TMC3    C3 5228   2.594   2.101  12.443 -0.4986 -0.3645  0.4405
  349TMC3    C4 5229   2.526   2.361  12.396 -0.1718  0.3973 -0.3217
  349TMC3    C5 5230   2.584   2.296  12.297 -1.1531 -0.5271 -0.5350
  349TMC3    C6 5231   2.609   2.161  12.318 -0.1625  0.4645  0.1870
  349TMC3     C 5232   2.325   2.270  12.501 -0.1954 -0.7046 -0.6415
  349TMC3     O 5233   2.275   2.194  12.578 -0.0741 -0.6575 -0.3821
  349TMC3     H 5234   2.488   2.119  12.627  0.2586 -0.6810 -0.1196
  349TMC3    H1 5235   2.482   2.459  12.387 -0.8898  0.2166  1.2184
  349TMC3    H2 5236   2.649   2.107  12.232 -0.3626  0.5318  0.0515
  349TMC3    C7 5237   2.538   2.323  12.165  0.8760 -0.1777 -0.3283
  349TMC3    C8 5238   2.585   1.955  12.445 -0.0438 -0.2331  0.4525
  349TMC3    O1 5239   2.536   2.228  12.089 -0.0016  0.1062  0.0422
  349TMC3    O2 5240   2.534   1.923  12.554 -0.8561 -0.9817  0.4909
  350MPD2     C 5241   1.480   4.497  10.108 -0.2389 -0.4517  0.2635
  350MPD2    C1 5242   1.467   4.427  10.228  0.2189  0.4870  0.4142
  350MPD2    C2 5243   1.439   4.504  10.343 -0.4377 -0.0524  0.5107
  350MPD2    C3 5244   1.468   4.643  10.350 -0.6769 -0.0209  0.3188
  350MPD2    C4 5245   1.503   4.709  10.230  0.6009 -0.7507 -0.3007
  350MPD2    C5 5246   1.491   4.636  10.114 -0.5706 -0.1611 -0.1660
  350MPD2     H 5247   1.411   4.448  10.431  0.4817 -0.3464  0.6146
  350MPD2    H1 5248   1.524   0.093  10.219 -5.3744  0.4618 -0.4346
  350MPD2    H2 5249   1.477   4.450  10.011  1.3219  2.6995 -1.3059
  350MPD2    H3 5250   1.484   4.698  10.025  1.0978  1.0662  0.5489
  350MPD2     N 5251   1.465   4.713  10.471 -0.1033  0.3675  0.1690
  350MPD2    H5 5252   1.483   0.091  10.468  3.2097 -0.1899  1.7621
  350MPD2    N1 5253   1.448   4.286  10.233  0.2639  0.6656 -0.5812
  350MPD2    H7 5254   1.409   4.238  10.313  0.0449  0.6139 -0.7201
  351TMC3    C1 5255   1.475   4.067  10.172  0.6128  0.0079 -0.3781
  351TMC3    C2 5256   1.568   3.979  10.119  0.0958 -0.2785 -0.3373
  351TMC3    C3 5257   1.565   3.850  10.174  0.5001 -0.2862 -0.1463
  351TMC3    C4 5258   1.379   4.027  10.258  0.0027  0.5895 -0.3769
  351TMC3    C5 5259   1.379   3.900  10.308  0.0176 -0.9324  0.3143
  351TMC3    C6 5260   1.468   3.806  10.263 -0.2292 -0.9779 -0.0902
  351TMC3     C 5261   1.488   4.206  10.132  0.4973  0.3429 -0.1155
  351TMC3     O 5262   1.526   4.236  10.023 -0.4393  0.0086 -0.0580
  351TMC3     H 5263   1.632   3.997  10.034 -0.3595  1.8578 -0.2543
  351TMC3    H1 5264   1.305   4.098  10.294 -1.4950 -1.1333 -0.0256
  351TMC3    H2 5265   1.460   3.706  10.304  1.0695 -1.0632 -0.0458
  351TMC3    C7 5266   1.254   3.861  10.369 -0.5487 -0.2735 -0.4208
  351TMC3    C8 5267   1.665   3.761  10.111  0.0528  0.2738 -0.2680
  351TMC3    O1 5268   1.187   3.946  10.430  0.6844 -0.6194  0.0344
  351TMC3    O2 5269   1.751   3.817  10.048 -0.2145  0.6498  0.3762
  352MPD2     C 5270   3.859   2.301   0.659  0.2022  0.5907  0.2774
  352MPD2    C1 5271   3.849   2.331   0.793 -0.2179  0.0652 -0.0823
  352MPD2    C2 5272   3.882   2.232   0.886 -0.7223 -0.2774 -0.1282
  352MPD2    C3 5273   3.918   2.105   0.841 -0.3089  0.0142  0.6019
  352MPD2    C4 5274   3.922   2.081   0.705  0.4624 -0.7259  0.1115
  352MPD2    C5 5275   3.900   2.177   0.615  0.3950  0.2261  0.5981
  352MPD2     H 5276   3.894   2.249   0.993 -0.0698 -0.7679 -0.1240
  352MPD2    H1 5277   3.961   1.988   0.664 -0.4467 -0.6182 -0.9899
  352MPD2    H2 5278   3.857   2.378   0.582 -2.9106  3.2715  3.0361
  352MPD2    H3 5279   3.901   2.159   0.508 -2.1839  1.5870  0.3483
  352MPD2     N 5280   3.948   1.998   0.922 -0.3124  0.4004 -0.1742
  352MPD2    H5 5281   3.952   1.905   0.881  2.6701  0.0529  0.8914
  352MPD2    N1 5282   3.814   2.461   0.830 -0.4966 -0.8492  0.2172
  352MPD2    H7 5283   3.797   2.515   0.746 -0.0876 -2.8789 -1.1632
  353TMC3    C1 5284   3.963   1.858   1.100 -0.0208  0.7862  0.0382
  353TMC3    C2 5285   4.069   1.819   1.171  0.4431 -0.1497 -0.1565
  353TMC3    C3 5286   4.099   1.687   1.175  0.6342  0.1978  0.0588
  353TMC3    C4 5287   3.888   1.770   1.032 -1.0662  0.3402  0.9091
  353TMC3    C5 5288   3.914   1.637   1.037 -0.0793 -0.4171 -0.0442
  353TMC3    C6 5289   4.027   1.592   1.108 -0.1389  0.0540 -0.2081
  353TMC3     C 5290   3.967   1.993   1.053  0.2903  0.3411  1.3211
  353TMC3     O 5291   3.992   2.088   1.127 -1.1800 -0.3703  0.1717
  353TMC3     H 5292   4.118   1.894   1.232  1.8119 -0.5484 -0.7649
  353TMC3    H1 5293   3.808   1.806   0.968 -0.5386  0.2652  0.1971
  353TMC3    H2 5294   4.051   1.487   1.105  1.2859  0.4084 -0.8376
  353TMC3    C7 5295   3.864   1.547   0.938  0.1980 -0.6117  0.7543
  353TMC3    C8 5296   4.233   1.654   1.233  0.4531 -0.0775 -0.2494
  353TMC3    O1 5297   3.942   1.495   0.860  0.3695  0.4644 -0.2664
  353TMC3    O2 5298   4.285   1.738   1.304 -0.3548 -0.1777 -0.2515
  354TMC3    C1 5299   1.471   3.610  13.760 -0.0864 -0.1124  0.1023
  354TMC3    C2 5300   1.455   3.750  13.773 -0.4196 -0.7040 -0.9221
  354TMC3    C3 5301   1.466   3.816  13.651  0.1725 -0.0769 -0.3849
  354TMC3    C4 5302   1.507   3.548  13.645  1.1025 -0.1401  0.6398
  354TMC3    C5 5303   1.503   3.614  13.536 -0.6627 -0.0185  0.4038
  354TMC3    C6 5304   1.486   3.750  13.535 -0.2420 -0.0746 -0.4168
  354TMC3     C 5305   1.471   3.532  13.881  0.4952 -0.2258  0.2211
  354TMC3     O 5306   1.458   3.408  13.864  0.1625  0.0467 -0.0808
  354TMC3     H 5307   1.428   3.805  13.861  1.8932  1.0377 -1.2857
  354TMC3    H1 5308   1.521   3.440  13.641  0.4185 -0.1249 -2.1452
  354TMC3    H2 5309   1.469   3.806  13.444 -0.0484  1.0379  0.2243
  354TMC3    C7 5310   1.574   3.561  13.421  0.3631  0.8574  0.7288
  354TMC3    C8 5311   1.486   3.961  13.643  0.6413 -0.2165 -0.2596
  354TMC3    O1 5312   1.568   3.437  13.419 -0.1260  0.1321 -0.2828
  354TMC3    O2 5313   1.551   4.002  13.548  0.3909 -0.1213 -0.4838
  355MPD2     C 5314   1.262   4.555  12.209  0.0055  0.2915  0.4767
  355MPD2    C1 5315   1.303   4.533  12.083 -0.3620  0.4011 -0.5220
  355MPD2    C2 5316   1.437   4.506  12.058 -0.0571  0.4116 -0.1377
  355MPD2    C3 5317   1.527   4.501  12.158  0.3218 -1.3307 -0.1067
  355MPD2    C4 5318   1.488   4.522  12.288  0.6952  0.1243 -0.5620
  355MPD2    C5 5319   1.354   4.544  12.314  0.5324 -0.0352  0.1926
  355MPD2     H 5320   1.475   4.494  11.958  0.6159  0.2931  0.1323
  355MPD2    H1 5321   1.555   4.514  12.373  0.9839  4.3641 -0.3874
  355MPD2    H2 5322   1.154   4.563  12.213  0.1187  2.2172 -0.3662
  355MPD2    H3 5323   1.315   4.552  12.416 -0.5844  0.8899 -0.3048
  355MPD2     N 5324   1.665   4.497  12.133  0.0047 -0.2413  0.3818
  355MPD2    H5 5325   1.725   4.518  12.212  0.1216 -0.4366  0.3457
  355MPD2    N1 5326   1.203   4.541  11.989 -0.5812 -0.1199 -0.2168
  355MPD2    H7 5327   1.115   4.508  12.026 -0.4860  0.1997  0.3010
  356TMC3    C1 5328   1.852   4.576  12.001 -0.3410  0.8695  0.7601
  356TMC3    C2 5329   1.896   4.594  11.874 -0.1812  0.1310 -0.1969
  356TMC3    C3 5330   1.987   4.689  11.854  0.4874 -0.1252 -0.5823
  356TMC3    C4 5331   1.882   4.660  12.100 -0.4761  0.6228 -0.0960
  356TMC3    C5 5332   1.969   0.038  12.072  0.6111  0.1985 -0.0363
  356TMC3    C6 5333   2.015   0.062  11.944 -0.3375  0.1854 -0.4262
  356TMC3     C 5334   1.726   4.500  12.010 -0.2314  0.8257 -0.1867
  356TMC3     O 5335   1.682   4.461  11.901 -0.3751 -0.3548 -0.0309
  356TMC3     H 5336   1.878   4.520  11.797  1.4221 -1.2370  0.7193
  356TMC3    H1 5337   1.835   4.648  12.197 -1.9715 -0.7555 -0.9783
  356TMC3    H2 5338   2.096   0.133  11.945 -0.1617  0.0241 -3.0676
  356TMC3    C7 5339   1.987   0.137  12.180 -0.3724  0.4849  0.0055
  356TMC3    C8 5340   2.047   4.695  11.722 -0.2657  0.0397 -0.5681
  356TMC3    O1 5341   1.976   0.099  12.296 -0.7654 -0.5923 -0.5663
  356TMC3    O2 5342   2.010   4.619  11.635 -0.0593  0.3180  0.3200
  357MPD2     C 5343   0.641   4.157   0.543  0.1435  0.0078  0.0030
  357MPD2    C1 5344   0.649   4.111   0.672  0.7805  0.4032  0.6406
  357MPD2    C2 5345   0.549   4.157   0.764  0.3935  0.2702  0.7074
  357MPD2    C3 5346   0.456   4.249   0.712  0.5879  0.4557  1.0169
  357MPD2    C4 5347   0.449   4.284   0.580  0.3943 -0.2531  0.9537
  357MPD2    C5 5348   0.541   4.240   0.502  0.0126 -0.1202  0.5385
  357MPD2     H 5349   0.549   4.125   0.867  3.5005  0.1757  0.6653
  357MPD2    H1 5350   0.367   4.344   0.544  1.4234  0.2822 -0.4590
  357MPD2    H2 5351   0.715   4.133   0.467 -1.3619  1.7833 -2.0154
  357MPD2    H3 5352   0.539   4.280   0.401  1.3511 -0.3025  0.4366
  357MPD2     N 5353   0.360   4.316   0.792 -0.7596 -0.1991 -0.6942
  357MPD2    H5 5354   0.288   4.360   0.737 -2.1635 -1.6223  0.0106
  357MPD2    N1 5355   0.748   4.014   0.706  0.2809  0.4726  0.4046
  357MPD2    H7 5356   0.800   3.986   0.623 -1.3178 -2.1551  0.2965
  358TMC3    C1 5357   0.875   3.852   0.840 -0.2676 -0.0848  0.0292
  358TMC3    C2 5358   0.889   3.775   0.722 -0.4950  0.0395 -0.3856
  358TMC3    C3 5359   0.964   3.657   0.735  0.1797  0.2840  0.6391
  358TMC3    C4 5360   0.915   3.808   0.963  0.3069  0.4135  0.1653
  358TMC3    C5 5361   0.986   3.695   0.971 -0.6733  0.0933  0.0217
  358TMC3    C6 5362   1.001   3.612   0.858  0.7096  0.1389 -1.0174
  358TMC3     C 5363   0.778   3.964   0.831  0.0182 -0.8827 -0.4351
  358TMC3     O 5364   0.745   3.996   0.943  0.4196 -0.0528 -0.2703
  358TMC3     H 5365   0.874   3.815   0.622 -1.1226 -0.1891 -0.3831
  358TMC3    H1 5366   0.910   3.868   1.053  0.9887 -1.0279  1.1628
  358TMC3    H2 5367   1.085   3.546   0.876 -0.5128 -2.1678 -3.7818
  358TMC3    C7 5368   1.031   3.655   1.107 -0.1522  0.5903 -0.0705
  358TMC3    C8 5369   0.948   3.560   0.629 -0.0734 -0.7588 -0.0880
  358TMC3    O1 5370   1.019   3.735   1.198 -0.6771 -0.3447 -0.1384
  358TMC3    O2 5371   0.904   3.601   0.518  0.1882 -0.3570  0.4670
  359MPD2     C 5372   1.666   3.950  12.673 -0.0386 -0.1850 -0.2863
  359MPD2    C1 5373   1.651   3.808  12.672  0.6421 -0.3778 -0.0411
  359MPD2    C2 5374   1.542   3.753  12.738 -0.2063 -0.1130 -0.5062
  359MPD2    C3 5375   1.454   3.830  12.820  0.1835  0.5710  0.3537
  359MPD2    C4 5376   1.488   3.965  12.840 -0.8070 -0.0736 -0.4324
  359MPD2    C5 5377   1.586   4.022  12.762  0.2070 -0.0494 -0.2332
  359MPD2     H 5378   1.541   3.645  12.729  1.1822 -0.1554 -0.2028
  359MPD2    H1 5379   1.436   4.038  12.901 -1.7406 -0.5369 -0.6751
  359MPD2    H2 5380   1.739   4.004  12.613 -0.8903 -0.2241 -1.3753
  359MPD2    H3 5381   1.597   4.130  12.762  0.8698 -0.1164  2.0255
  359MPD2     N 5382   1.334   3.783  12.874 -0.6224  0.2380 -0.2332
  359MPD2    H5 5383   1.271   3.853  12.912  0.6538  1.4262 -0.3142
  359MPD2    N1 5384   1.739   3.719  12.606 -0.4591  0.2508 -0.1501
  359MPD2    H7 5385   1.720   3.620  12.603 -1.2519  0.4209 -0.5464
  360TMC3    C1 5386   1.902   3.653  12.451 -0.0402  0.2957  0.0155
  360TMC3    C2 5387   2.026   3.680  12.392  0.3579  0.0668  0.0294
  360TMC3    C3 5388   2.088   3.582  12.320  0.4486  0.1637 -0.4938
  360TMC3    C4 5389   1.829   3.541  12.415 -0.5074  0.2057 -0.2963
  360TMC3    C5 5390   1.891   3.460  12.324 -0.1241  0.1048  0.0597
  360TMC3    C6 5391   2.020   3.475  12.276 -0.2956 -0.5937  0.1324
  360TMC3     C 5392   1.837   3.761  12.521  0.8828 -0.0111  0.1812
  360TMC3     O 5393   1.879   3.869  12.492  0.1339 -0.0791  0.5326
  360TMC3     H 5394   2.065   3.777  12.420  1.3310 -1.0520  2.5413
  360TMC3    H1 5395   1.726   3.526  12.446 -1.0893  1.6681 -1.5254
  360TMC3    H2 5396   2.056   3.412  12.196  0.3733 -0.1761  0.1059
  360TMC3    C7 5397   1.812   3.359  12.259 -0.0426  0.5324  0.4511
  360TMC3    C8 5398   2.203   3.627  12.257  0.2067  0.1069  0.1913
  360TMC3    O1 5399   1.876   3.269  12.210 -0.0373 -0.3903  0.8147
  360TMC3    O2 5400   2.226   3.744  12.263  0.4236  0.5246 -0.2634
  361MPD2     C 5401   2.655   1.578  16.811 -0.7124  0.5083  0.2447
  361MPD2    C1 5402   2.705   1.704  16.837 -0.2518  0.7409 -0.1811
  361MPD2    C2 5403   2.841   1.727  16.842  0.1815 -0.5463  0.6377
  361MPD2    C3 5404   2.925   1.630  16.797 -0.0860  0.2993  0.3357
  361MPD2    C4 5405   2.874   1.505  16.773 -0.4858  0.2206 -0.1898
  361MPD2    C5 5406   2.738   1.473  16.777 -0.0534  0.7567  0.2838
  361MPD2     H 5407   2.880   1.828  16.854  1.1977 -0.6919 -1.5632
  361MPD2    H1 5408   2.941   1.427  16.738  1.2456  1.0455  1.2793
  361MPD2    H2 5409   2.550   1.553  16.803 -0.7509  1.2550 -1.5802
  361MPD2    H3 5410   2.706   1.372  16.753  0.4823  0.7265 -0.3063
  361MPD2     N 5411   3.067   1.649  16.783  0.1520  0.6590  0.5517
  361MPD2    H5 5412   3.119   1.574  16.740 -0.9371 -1.4297  2.8637
  361MPD2    N1 5413   2.621   1.810  16.875 -0.0344 -0.1956 -0.3412
  361MPD2    H7 5414   2.669   1.897  16.895 -0.0984 -0.6418  1.7248
  362TMC3    C1 5415   2.432   1.925  16.964  0.0679  0.9130  0.1793
  362TMC3    C2 5416   2.340   1.926  17.057 -0.3630 -0.1853 -0.0217
  362TMC3    C3 5417   2.266   2.034  17.083 -0.2858  0.1514  0.2962
  362TMC3    C4 5418   2.437   2.026  16.880  0.1620 -0.5172 -0.3083
  362TMC3    C5 5419   2.341   2.128  16.888  0.4992  0.1126 -0.6612
  362TMC3    C6 5420   2.253   2.133  16.996  0.3886 -0.0184 -0.1598
  362TMC3     C 5421   2.487   1.801  16.923 -0.2945  0.3301  0.8635
  362TMC3     O 5422   2.413   1.705  16.923 -0.3360 -0.0738 -0.3236
  362TMC3     H 5423   2.343   1.844  17.129 -1.8017  0.3566  0.6469
  362TMC3    H1 5424   2.518   2.033  16.808 -1.0434  2.2139 -1.3820
  362TMC3    H2 5425   2.184   2.216  17.006  0.5477 -0.2369  2.8063
  362TMC3    C7 5426   2.315   2.222  16.779  0.8618  0.3484 -0.1879
  362TMC3    C8 5427   2.160   2.015  17.189  0.2472  0.0060 -0.3088
  362TMC3    O1 5428   2.403   2.245  16.699 -0.6569 -0.5576 -0.1031
  362TMC3    O2 5429   2.153   1.905  17.242  0.1805  0.5913 -0.0504
  363TMC3    C1 5430   2.345   4.265  10.063 -0.7835 -0.0926  0.3750
  363TMC3    C2 5431   2.432   4.161  10.076  0.5563 -0.0821 -0.9072
  363TMC3    C3 5432   2.564   4.184  10.073  0.3105 -0.4320  0.7125
  363TMC3    C4 5433   2.382   4.385  10.017  0.4555 -0.1914  0.1226
  363TMC3    C5 5434   2.517   4.400   9.989  0.4515  0.5724  0.2941
  363TMC3    C6 5435   2.602   4.301  10.014  0.2171 -0.9355 -0.0482
  363TMC3     C 5436   2.214   4.249  10.116 -0.1372 -1.0763  0.2040
  363TMC3     O 5437   2.181   4.135  10.144  0.0070 -0.0238 -0.4257
  363TMC3     H 5438   2.407   4.060  10.106  1.3817 -0.4680 -1.5386
  363TMC3    H1 5439   2.316   4.468   9.993  0.4813  0.3509  1.9191
  363TMC3    H2 5440   2.707   4.320   9.996 -0.3553  0.6295 -1.7113
  363TMC3    C7 5441   2.554   4.515   9.911 -0.0807 -0.0574  0.2947
  363TMC3    C8 5442   2.653   4.064  10.087  0.8135 -0.6934 -0.0311
  363TMC3    O1 5443   2.461   4.577   9.858  0.7392 -0.1385  0.0119
  363TMC3    O2 5444   2.613   3.955  10.131  0.0473  0.1891  0.2015
  364MPD2     C 5445   0.852   3.715  11.324  1.0162  0.6913  0.5017
  364MPD2    C1 5446   0.879   3.659  11.199  0.3075 -0.3515  0.1356
  364MPD2    C2 5447   0.863   3.520  11.187 -0.4157  0.6643  0.2852
  364MPD2    C3 5448   0.831   3.442  11.298  0.2328  0.1902 -0.1692
  364MPD2    C4 5449   0.823   3.501  11.421  0.4016 -0.0347  0.7618
  364MPD2    C5 5450   0.824   3.638  11.431  0.3686  0.3891  0.6857
  364MPD2     H 5451   0.877   3.471  11.092  2.0375  0.5581  0.6996
  364MPD2    H1 5452   0.800   3.446  11.511 -0.3847  2.6799  2.2204
  364MPD2    H2 5453   0.870   3.821  11.338 -0.1025  1.0167 -0.4443
  364MPD2    H3 5454   0.812   3.689  11.526  1.5801 -0.8102  1.4824
  364MPD2     N 5455   0.815   3.307  11.300  0.6423 -0.2120 -0.4094
  364MPD2    H5 5456   0.813   3.257  11.388  1.5516  0.5676  0.0598
  364MPD2    N1 5457   0.928   3.742  11.102  0.5022  0.1178 -0.0585
  364MPD2    H7 5458   0.926   3.842  11.119  1.8796  0.7713 -3.6693
  365TMC3    C1 5459   1.032   3.815  10.901  0.3268  0.6610 -0.2804
  365TMC3    C2 5460   1.142   3.774  10.828 -0.8929 -0.1671  0.2497
  365TMC3    C3 5461   1.218   3.876  10.768  0.3902 -0.3098  0.2716
  365TMC3    C4 5462   0.993   3.944  10.915  0.5153  0.2592 -0.5817
  365TMC3    C5 5463   1.072   4.037  10.858  0.4246  0.0978  1.0390
  365TMC3    C6 5464   1.182   4.006  10.780  0.3701  0.3373  0.3221
  365TMC3     C 5465   0.970   3.708  10.976 -0.4809  0.2227 -0.0451
  365TMC3     O 5466   0.951   3.599  10.924  0.2785 -0.3286 -0.4152
  365TMC3     H 5467   1.177   3.672  10.828 -1.6808 -0.4435 -1.3884
  365TMC3    H1 5468   0.905   3.965  10.974  0.7459 -2.3562  0.6540
  365TMC3    H2 5469   1.233   4.081  10.721 -0.6058 -0.4336 -1.4873
  365TMC3    C7 5470   1.044   4.181  10.864  0.1541 -0.1199 -0.1841
  365TMC3    C8 5471   1.351   3.854  10.715  0.7011 -1.1390 -0.5198
  365TMC3    O1 5472   1.100   4.269  10.797 -0.4519 -0.0052 -0.7839
  365TMC3    O2 5473   1.420   3.958  10.700 -0.2566 -0.7983  0.1607
  366MPD2     C 5474   3.275   0.052  15.573  0.0434 -0.3109  0.1576
  366MPD2    C1 5475   3.363   0.152  15.547  0.5234 -0.4232  0.6858
  366MPD2    C2 5476   3.488   0.125  15.505 -0.3887 -0.2957  0.4179
  366MPD2    C3 5477   3.538   4.722  15.499 -0.4343  0.1509  0.5012
  366MPD2    C4 5478   3.457   4.620  15.537  0.3962  0.1249 -0.1764
  366MPD2    C5 5479   3.328   4.647  15.574  0.0322 -0.4718  0.1673
  366MPD2     H 5480   3.556   0.205  15.479  0.7342 -0.6051  2.4420
  366MPD2    H1 5481   3.502   4.522  15.538 -2.1856 -1.0633 -0.5321
  366MPD2    H2 5482   3.172   0.068  15.604 -0.7228 -1.9599 -1.5730
  366MPD2    H3 5483   3.276   4.557  15.604  1.8215 -1.2864  0.8449
  366MPD2     N 5484   3.678   4.707  15.476 -0.4133 -0.5005 -0.2551
  366MPD2    H5 5485   3.725   0.068  15.441 -1.4957 -0.0805 -0.7158
  366MPD2    N1 5486   3.334   0.286  15.574  0.1100 -0.5668 -0.6319
  366MPD2    H7 5487   3.396   0.354  15.531  2.1402 -2.8484 -1.3365
  367TMC3    C1 5488   3.244   0.483  15.655  0.6846 -0.3703 -0.3994
  367TMC3    C2 5489   3.330   0.524  15.752  0.1444  0.4708 -0.0805
  367TMC3    C3 5490   3.366   0.656  15.747 -0.6164 -0.1051 -0.6773
  367TMC3    C4 5491   3.178   0.562  15.573 -0.0797  0.1063  0.3128
  367TMC3    C5 5492   3.203   0.699  15.583 -0.1666  0.4827 -0.1771
  367TMC3    C6 5493   3.307   0.745  15.661 -0.0193  0.6573  0.1879
  367TMC3     C 5494   3.225   0.340  15.645  0.2612 -0.0701 -0.6120
  367TMC3     O 5495   3.132   0.292  15.709 -0.5335  0.5209 -0.0207
  367TMC3     H 5496   3.372   0.455  15.824  1.1669 -0.3420 -1.4603
  367TMC3    H1 5497   3.094   0.528  15.513 -0.5053  0.7184  0.5634
  367TMC3    H2 5498   3.361   0.838  15.644  0.1548  1.0239  2.5977
  367TMC3    C7 5499   3.165   0.799  15.486  0.7508 -0.7219  0.1244
  367TMC3    C8 5500   3.498   0.681  15.796  0.2810 -0.6018 -0.0386
  367TMC3    O1 5501   3.184   0.919  15.508  0.7672 -0.5098 -0.7181
  367TMC3    O2 5502   3.564   0.596  15.853  0.2080  0.0091 -0.0697
  368MPD2     C 5503   0.025   2.410  12.980  0.0531  0.3913 -0.1008
  368MPD2    C1 5504   4.710   2.539  12.964  0.6733 -0.3677  0.4410
  368MPD2    C2 5505   0.068   2.620  12.885  0.1944  0.5464 -0.3871
  368MPD2    C3 5506   0.187   2.575  12.836 -0.0482 -0.1741  0.0323
  368MPD2    C4 5507   0.209   2.437  12.837 -0.2901 -0.1588  1.1697
  368MPD2    C5 5508   0.137   2.357  12.919 -0.1985  0.5633  0.7832
  368MPD2     H 5509   0.047   2.726  12.878  1.3515  0.7757 -0.3421
  368MPD2    H1 5510   0.301   2.398  12.793 -0.2215  1.8100 -0.4266
  368MPD2    H2 5511   4.683   2.343  13.037 -0.4106  2.2193  1.5211
  368MPD2    H3 5512   0.178   2.257  12.928 -0.1787  0.2692 -2.8781
  368MPD2     N 5513   0.281   2.649  12.762 -0.0117 -0.0526 -0.2520
  368MPD2    H5 5514   0.346   2.601  12.700 -0.1830 -2.5831  1.5354
  368MPD2    N1 5515   4.599   2.586  13.039  0.2736  0.5801 -0.2538
  368MPD2    H7 5516   4.570   2.523  13.113 -0.2678 -0.9091 -1.7275
  369TMC3    C1 5517   4.401   2.710  13.091 -0.1548  0.4101  0.1817
  369TMC3    C2 5518   4.338   2.834  13.085 -1.0614  0.3655  0.0678
  369TMC3    C3 5519   4.202   2.835  13.081 -0.3981  0.1919  0.1983
  369TMC3    C4 5520   4.333   2.596  13.082 -0.4638  0.0109 -0.1860
  369TMC3    C5 5521   4.198   2.607  13.066  0.7773 -0.0611  0.2750
  369TMC3    C6 5522   4.130   2.725  13.064 -0.1425  0.0703 -0.3810
  369TMC3     C 5523   4.537   2.709  13.031  0.2269 -0.5196  0.1500
  369TMC3     O 5524   4.582   2.808  12.970  0.0364 -0.2511 -0.2240
  369TMC3     H 5525   4.399   2.923  13.089 -1.1291  0.2824  3.1547
  369TMC3    H1 5526   4.380   2.498  13.082 -0.3685  0.0527 -1.6995
  369TMC3    H2 5527   4.022   2.733  13.067  0.0844  2.7562  1.1416
  369TMC3    C7 5528   4.126   2.489  13.087 -0.3125 -0.4194 -0.3977
  369TMC3    C8 5529   4.140   2.946  13.015 -0.6956 -0.5298 -0.7202
  369TMC3    O1 5530   4.184   2.383  13.108 -0.2244  0.2180 -0.4237
  369TMC3    O2 5531   4.056   2.927  12.929  0.3968 -0.7343 -0.1813
  370TMC3    C1 5532   4.175   2.951  16.237  0.3767  0.0724  0.1562
  370TMC3    C2 5533   4.082   2.905  16.317 -0.2341  0.4195 -0.9208
  370TMC3    C3 5534   4.043   2.776  16.306  0.2506  0.0269 -0.0800
  370TMC3    C4 5535   4.229   2.872  16.139 -0.1809 -0.9857 -0.3049
  370TMC3    C5 5536   4.181   2.749  16.126 -0.1291 -0.2759 -0.2496
  370TMC3    C6 5537   4.089   2.696  16.207 -0.2262 -0.5587 -0.0113
  370TMC3     C 5538   4.177   3.093  16.215 -0.3202  0.0029  0.4361
  370TMC3     O 5539   4.078   3.151  16.254  0.2350 -0.0453  0.2733
  370TMC3     H 5540   4.053   2.966  16.402 -0.9953 -0.1202 -0.7997
  370TMC3    H1 5541   4.302   2.910  16.068  0.3428 -0.0723  0.7135
  370TMC3    H2 5542   4.026   2.615  16.173  1.5755 -1.9632  0.0071
  370TMC3    C7 5543   4.211   2.678  16.002  0.0436  0.3737  0.3627
  370TMC3    C8 5544   3.947   2.718  16.396 -0.2438 -0.0160  0.1789
  370TMC3    O1 5545   4.228   2.745  15.903  1.0312 -0.1697  0.4526
  370TMC3    O2 5546   3.954   2.595  16.403 -0.3308  0.4905 -0.7272
  371TMC3    C1 5547   0.637   0.847  15.624 -0.6172  0.5214  0.0906
  371TMC3    C2 5548   0.499   0.857  15.654 -0.3613 -0.3751  0.7306
  371TMC3    C3 5549   0.439   0.974  15.623  0.4459 -0.0246 -0.2159
  371TMC3    C4 5550   0.700   0.944  15.554  0.2860 -0.2139  0.0348
  371TMC3    C5 5551   0.627   1.054  15.520  0.5795  0.5937  0.2717
  371TMC3    C6 5552   0.496   1.076  15.552 -0.7207  0.2848  0.1097
  371TMC3     C 5553   0.733   0.747  15.678  0.1506 -0.1376  0.2996
  371TMC3     O 5554   0.851   0.763  15.661 -0.0886  0.2479 -0.2615
  371TMC3     H 5555   0.452   0.796  15.731  1.0714 -0.2775  1.6862
  371TMC3    H1 5556   0.805   0.930  15.532  0.3523 -0.3957  0.4510
  371TMC3    H2 5557   0.433   1.150  15.505 -2.6907 -2.7052 -1.9929
  371TMC3    C7 5558   0.693   1.177  15.469  0.6176  0.2317 -0.2332
  371TMC3    C8 5559   0.304   0.994  15.675 -0.0801 -0.1687 -0.5022
  371TMC3    O1 5560   0.619   1.267  15.424  0.1352  0.0894  0.0271
  371TMC3    O2 5561   0.256   0.888  15.723  0.3167 -1.0141 -0.2539
  372MPD2     C 5562   0.439   2.525  13.210  0.0644  0.3654 -0.1746
  372MPD2    C1 5563   0.522   2.418  13.225 -0.6346 -0.0448  0.0040
  372MPD2    C2 5564   0.460   2.297  13.254  0.0545  0.2397  0.1298
  372MPD2    C3 5565   0.321   2.285  13.272 -0.4322 -0.0834  0.1777
  372MPD2    C4 5566   0.241   2.394  13.260  0.0854  0.5146 -0.4536
  372MPD2    C5 5567   0.304   2.511  13.218  0.2140  0.5504 -0.1618
  372MPD2     H 5568   0.523   2.210  13.262  1.8253  1.5795  0.7264
  372MPD2    H1 5569   0.133   2.382  13.263  0.1980  0.0183  1.5250
  372MPD2    H2 5570   0.475   2.625  13.188 -0.2980  0.5414  0.0252
  372MPD2    H3 5571   0.243   2.599  13.205 -0.4755 -0.3233 -2.8081
  372MPD2     N 5572   0.278   2.152  13.292 -0.0724  0.0887  0.2661
  372MPD2    H5 5573   0.352   2.082  13.291 -0.1916 -0.0634  1.6807
  372MPD2    N1 5574   0.668   2.434  13.216  0.5094  0.6615 -0.3535
  372MPD2    H7 5575   0.701   2.520  13.174  1.4718  0.9386  0.9832
  373TMC3    C1 5576   0.140   1.968  13.361  0.2519  0.3260 -0.1428
  373TMC3    C2 5577   0.046   1.937  13.461  1.4148 -0.5845  0.2480
  373TMC3    C3 5578   0.073   1.834  13.551 -0.2357  0.0372 -0.0697
  373TMC3    C4 5579   0.252   1.894  13.339 -0.3279 -0.5984  0.2138
  373TMC3    C5 5580   0.283   1.795  13.430  0.4172  0.3662 -0.0710
  373TMC3    C6 5581   0.202   1.775  13.542 -1.1004  0.6239 -0.2628
  373TMC3     C 5582   0.155   2.112  13.331  0.7052 -0.0093  0.3743
  373TMC3     O 5583   0.060   2.184  13.357 -0.6386  0.2686 -0.6122
  373TMC3     H 5584   4.677   1.996  13.471  2.1440  0.3615  1.2891
  373TMC3    H1 5585   0.318   1.922  13.258 -0.1226 -0.5639  0.3929
  373TMC3    H2 5586   0.240   1.717  13.625 -0.6906  1.0033 -0.1895
  373TMC3    C7 5587   0.420   1.770  13.431 -0.0098 -0.7031 -0.3431
  373TMC3    C8 5588   0.041   1.879  13.685  0.6815  0.1532 -0.4946
  373TMC3    O1 5589   0.473   1.743  13.326  0.1984 -0.1435 -0.2677
  373TMC3    O2 5590   4.663   1.838  13.743  0.2090 -0.4754 -0.7354
  374TMC3    C1 5591   1.495   1.930   9.937 -0.5525 -0.1680 -0.3442
  374TMC3    C2 5592   1.623   1.965   9.960  0.4086  0.5074  0.2621
  374TMC3    C3 5593   1.697   2.011   9.850 -0.0379  0.0169 -0.4751
  374TMC3    C4 5594   1.437   1.920   9.810 -0.3480 -0.2917  0.4149
  374TMC3    C5 5595   1.508   1.974   9.704 -0.2994 -0.7688 -0.0128
  374TMC3    C6 5596   1.637   2.020   9.723  0.1668  0.1529  0.0410
  374TMC3     C 5597   1.422   1.897  10.057  0.4250 -0.1953 -0.4884
  374TMC3     O 5598   1.496   1.868  10.149  0.3107  0.3436 -0.2074
  374TMC3     H 5599   1.668   1.943  10.056 -2.8675 -0.9935  1.4391
  374TMC3    H1 5600   1.339   1.880   9.789  0.6430 -1.6491 -1.5592
  374TMC3    H2 5601   1.695   2.057   9.639  0.3723  0.2499  0.2280
  374TMC3    C7 5602   1.457   1.969   9.566 -0.3757 -0.1969 -0.7027
  374TMC3    C8 5603   1.828   2.076   9.877  0.4947  0.4063  0.3070
  374TMC3    O1 5604   1.534   2.016   9.484 -0.3077 -0.2026  0.1932
  374TMC3    O2 5605   1.886   2.108   9.775 -0.4273  0.3636  0.0063
  375MPD2     C 5606   0.976   3.798  16.700 -0.1502  0.0585 -0.1055
  375MPD2    C1 5607   0.892   3.691  16.727 -0.0569 -0.4448 -0.2370
  375MPD2    C2 5608   0.924   3.564  16.681 -0.3168 -0.2537  0.4580
  375MPD2    C3 5609   1.042   3.544  16.611 -0.4206  0.0721  0.0908
  375MPD2    C4 5610   1.120   3.659  16.584 -0.0576  1.0945 -0.0754
  375MPD2    C5 5611   1.086   3.782  16.627 -0.4062 -0.2568  0.5630
  375MPD2     H 5612   0.869   3.474  16.705 -2.0670  0.2792 -1.5545
  375MPD2    H1 5613   1.216   3.637  16.540 -1.4402  0.1411 -2.6426
  375MPD2    H2 5614   0.953   3.899  16.731  0.7946  0.7053 -1.4997
  375MPD2    H3 5615   1.152   3.868  16.616 -1.1710  0.6894  3.4577
  375MPD2     N 5616   1.086   3.415  16.563 -0.3991 -0.1941  0.5878
  375MPD2    H5 5617   1.164   3.425  16.500 -0.5539 -1.2001  0.2495
  375MPD2    N1 5618   0.770   3.701  16.790 -0.0798 -0.8305  0.3897
  375MPD2    H7 5619   0.711   3.619  16.802 -0.0851 -0.9082 -0.1917
  376TMC3    C1 5620   1.100   3.194  16.511  0.0478  0.2003 -0.0903
  376TMC3    C2 5621   1.232   3.211  16.526 -0.0036  0.7269 -0.8739
  376TMC3    C3 5622   1.323   3.159  16.432  0.1460 -0.8580  0.4557
  376TMC3    C4 5623   1.051   3.127  16.406  0.2610  0.4387  0.3032
  376TMC3    C5 5624   1.138   3.085  16.304  0.8251 -0.2857 -0.0347
  376TMC3    C6 5625   1.276   3.097  16.317 -0.0014  0.4262 -0.2441
  376TMC3     C 5626   1.019   3.297  16.574  0.5648  0.1394 -0.0145
  376TMC3     O 5627   0.896   3.270  16.589 -0.1077 -0.0016 -0.9550
  376TMC3     H 5628   1.278   3.279  16.597 -2.1715  0.6862  0.5904
  376TMC3    H1 5629   0.946   3.102  16.394  0.9408 -1.5670 -1.4721
  376TMC3    H2 5630   1.343   3.081  16.233 -0.4949 -0.9616 -0.3714
  376TMC3    C7 5631   1.105   3.042  16.171 -0.0314 -0.4668 -0.2300
  376TMC3    C8 5632   1.470   3.188  16.443 -0.3722 -0.6160 -0.3403
  376TMC3    O1 5633   1.192   3.031  16.088 -0.2638 -0.8289 -0.2372
  376TMC3    O2 5634   1.535   3.153  16.346  0.2258 -0.0206 -0.0793
  377MPD2     C 5635   3.178   2.434  12.678 -0.3297  0.4720  0.4758
  377MPD2    C1 5636   3.278   2.482  12.763  0.0251  0.3591  0.2459
  377MPD2    C2 5637   3.274   2.448  12.896 -0.4515  0.4146 -0.2263
  377MPD2    C3 5638   3.166   2.380  12.950 -0.4119 -0.3586  0.7173
  377MPD2    C4 5639   3.083   2.317  12.860  1.0469  0.5973 -0.3189
  377MPD2    C5 5640   3.088   2.343  12.725  0.3289  1.0656 -0.0593
  377MPD2     H 5641   3.350   2.477  12.968  1.0860  0.6375 -1.9656
  377MPD2    H1 5642   3.007   2.245  12.887  1.8862  1.2576  3.7942
  377MPD2    H2 5643   3.185   2.452  12.571  0.7499  0.5135  0.5496
  377MPD2    H3 5644   3.030   2.282  12.657  1.0181 -2.0109  2.1429
  377MPD2     N 5645   3.162   2.333  13.076  1.1934  0.2740  0.3366
  377MPD2    H5 5646   3.120   2.241  13.085  1.5266 -0.1016 -2.0645
  377MPD2    N1 5647   3.381   2.553  12.707 -0.4285 -0.3395 -0.4838
  377MPD2    H7 5648   3.376   2.547  12.605 -4.7381  1.1697 -0.3488
  378TMC3    C1 5649   3.673   2.742  12.469  0.4038  0.5909 -0.1278
  378TMC3    C2 5650   3.574   2.711  12.555 -0.5419 -0.1580 -0.2752
  378TMC3    C3 5651   3.603   2.640  12.673  0.1760 -0.1166 -0.4967
  378TMC3    C4 5652   3.804   2.715  12.502 -0.1673  0.0422  0.0444
  378TMC3    C5 5653   3.826   2.644  12.618 -0.3283 -0.3314  0.2805
  378TMC3    C6 5654   3.731   2.592  12.703 -0.8464  0.3610  0.0187
  378TMC3     C 5655   3.641   2.811  12.353  0.0210 -0.4412  0.1700
  378TMC3     O 5656   3.549   2.889  12.372  0.5967 -0.2226 -0.0398
  378TMC3     H 5657   3.471   2.732  12.529 -0.0821  1.6249 -0.6229
  378TMC3    H1 5658   3.889   2.757  12.450 -0.0155 -0.9016 -0.4647
  378TMC3    H2 5659   3.755   2.521  12.782 -0.9875  0.2737 -0.0164
  378TMC3    C7 5660   3.964   2.630  12.680 -0.1406 -0.0181 -1.0284
  378TMC3    C8 5661   3.499   2.594  12.760 -0.4925 -0.5459 -0.3582
  378TMC3    O1 5662   3.981   2.588  12.797  0.0051  0.1786 -0.1496
  378TMC3    O2 5663   3.536   2.585  12.874 -0.3597 -0.4916  0.0387
  379MPD2     C 5664   4.194   0.311  16.220  0.1848  0.4505  0.0077
  379MPD2    C1 5665   4.319   0.333  16.170  0.0172 -0.1877  0.0914
  379MPD2    C2 5666   4.437   0.306  16.234 -0.0435  0.1835  0.0690
  379MPD2    C3 5667   4.432   0.247  16.354 -0.4654 -0.0394 -0.4692
  379MPD2    C4 5668   4.306   0.236  16.409  0.8127  0.2347 -0.4096
  379MPD2    C5 5669   4.191   0.250  16.343 -0.6611 -0.2026  0.8728
  379MPD2     H 5670   4.528   0.338  16.183 -0.2196 -0.3196 -0.5671
  379MPD2    H1 5671   4.306   0.198  16.511 -0.5947 -0.3806 -0.6409
  379MPD2    H2 5672   4.098   0.336  16.176 -0.5794 -0.8533  0.9600
  379MPD2    H3 5673   4.100   0.224  16.394 -0.6808  2.6327  2.2835
  379MPD2     N 5674   4.545   0.221  16.435  0.1346 -0.3290  0.1750
  379MPD2    H5 5675   4.524   0.185  16.528 -1.2562 -0.7610 -0.3105
  379MPD2    N1 5676   4.314   0.405  16.049  0.4629  0.0382 -0.8801
  379MPD2    H7 5677   4.223   0.420  16.007  0.2518  0.2333 -0.3512
  380TMC3    C1 5678   4.397   0.555  15.879  0.2356 -0.3023 -0.0766
  380TMC3    C2 5679   4.502   0.592  15.801  0.2874 -0.3744  0.4888
  380TMC3    C3 5680   4.484   0.713  15.737  0.1757 -0.6693 -1.0092
  380TMC3    C4 5681   4.270   0.614  15.863  0.5839 -0.1921  0.7198
  380TMC3    C5 5682   4.253   0.727  15.790  0.5192  0.2099 -0.2856
  380TMC3    C6 5683   4.364   0.780  15.735 -0.1619  0.6438  0.7487
  380TMC3     C 5684   4.426   0.450  15.980 -0.5243 -0.1565 -0.7471
  380TMC3     O 5685   4.536   0.399  15.968 -0.3039 -0.1258 -0.4003
  380TMC3     H 5686   4.598   0.542  15.804 -0.2800 -1.3848  1.5864
  380TMC3    H1 5687   4.191   0.582  15.930 -1.0444 -0.1131 -1.1600
  380TMC3    H2 5688   4.364   0.876  15.684 -1.9544 -0.2869 -1.0017
  380TMC3    C7 5689   4.139   0.819  15.806 -0.3235 -0.1640  0.0493
  380TMC3    C8 5690   4.574   0.745  15.623 -0.2026  0.8310 -0.2470
  380TMC3    O1 5691   4.182   0.932  15.787 -0.5246  0.3317  0.0721
  380TMC3    O2 5692   4.557   0.854  15.578  0.3859  0.6695  0.0700
  381TMC3    C1 5693   3.709   2.094  16.337 -0.2280  0.5302 -0.7756
  381TMC3    C2 5694   3.848   2.101  16.345 -0.0521  0.4890 -0.8824
  381TMC3    C3 5695   3.903   2.205  16.408 -0.0835 -0.7447  0.1194
  381TMC3    C4 5696   3.632   2.189  16.402  0.2984 -0.8240 -0.6152
  381TMC3    C5 5697   3.692   2.286  16.472 -0.7520  0.0905 -0.6573
  381TMC3    C6 5698   3.824   2.295  16.477  0.0480  0.2697 -0.9545
  381TMC3     C 5699   3.645   1.998  16.247  0.4833  0.0886  0.1835
  381TMC3     O 5700   3.529   1.973  16.271  0.0126 -0.4805  0.3135
  381TMC3     H 5701   3.914   2.028  16.299 -2.7806 -1.5784 -1.4842
  381TMC3    H1 5702   3.524   2.183  16.395  0.2218  0.4459 -0.3792
  381TMC3    H2 5703   3.871   2.369  16.541 -1.3442 -0.5775  1.0486
  381TMC3    C7 5704   3.624   2.398  16.538  0.1413 -0.1606  0.0572
  381TMC3    C8 5705   4.038   2.231  16.385  0.4305 -0.0973  0.2422
  381TMC3    O1 5706   3.659   2.415  16.657 -0.3663  1.0142 -0.2931
  381TMC3    O2 5707   4.100   2.148  16.326 -0.6843  0.4062  0.3200
  382MPD2     C 5708   3.197   4.376  17.149 -0.0882 -0.1856  0.4369
  382MPD2    C1 5709   3.176   4.396  17.284 -0.0613 -0.1916 -0.1286
  382MPD2    C2 5710   3.173   4.287  17.364 -0.7940  0.2336  0.1493
  382MPD2    C3 5711   3.201   4.157  17.315 -0.1145 -0.4961 -0.4439
  382MPD2    C4 5712   3.243   4.148  17.182  0.2786 -0.9760  0.1065
  382MPD2    C5 5713   3.250   4.261  17.099  0.0735  0.4545  0.9219
  382MPD2     H 5714   3.146   4.301  17.468  0.9347  0.1116  0.6283
  382MPD2    H1 5715   3.265   4.051  17.139 -0.5274 -0.3936 -1.6117
  382MPD2    H2 5716   3.195   4.453  17.072 -1.1153 -0.5293  0.1177
  382MPD2    H3 5717   3.277   4.263  16.994  0.9591 -2.9461  1.0857
  382MPD2     N 5718   3.176   4.029  17.384  0.4903  0.0435 -0.3485
  382MPD2    H5 5719   3.205   3.948  17.331  0.8453 -0.0858  0.0483
  382MPD2    N1 5720   3.140   4.517  17.338 -0.3574  0.3260  0.7339
  382MPD2    H7 5721   3.122   4.523  17.438 -0.9219  0.3448  0.6301
  383TMC3    C1 5722   3.101   3.881  17.554 -0.8027  0.0110 -0.0202
  383TMC3    C2 5723   3.090   3.778  17.462 -0.0749  0.1953 -0.0868
  383TMC3    C3 5724   3.071   3.651  17.512 -1.0504 -0.8174  0.6356
  383TMC3    C4 5725   3.097   3.860   0.000 -0.8639 -0.6059 -0.1707
  383TMC3    C5 5726   3.081   3.731   0.042  0.2317  0.0565 -0.2615
  383TMC3    C6 5727   3.079   3.626  17.647  0.2835 -0.2048  0.1474
  383TMC3     C 5728   3.121   4.017  17.511 -0.1174 -0.2901  0.1711
  383TMC3     O 5729   3.092   4.113  17.577 -0.3906 -0.6245  0.2398
  383TMC3     H 5730   3.075   3.809  17.360 -3.7105 -1.0028  0.1093
  383TMC3    H1 5731   3.115   3.942   0.069  2.9274 -1.0925 -0.5668
  383TMC3    H2 5732   3.077   3.522  17.676 -0.4163 -0.4381 -0.7293
  383TMC3    C7 5733   3.118   3.707   0.181  0.2343 -0.5627  0.6360
  383TMC3    C8 5734   3.000   3.565  17.415 -0.2271  0.1086 -0.3159
  383TMC3    O1 5735   3.192   3.792   0.228  0.4236  0.4172 -0.0551
  383TMC3    O2 5736   3.037   3.570  17.302 -0.3098  0.0430  0.0779
  384MPD2     C 5737   0.178   0.188  12.487 -0.0939 -0.0318  0.2544
  384MPD2    C1 5738   0.249   0.303  12.464 -0.3147  0.4739 -0.1910
  384MPD2    C2 5739   0.389   0.301  12.466 -0.6983 -0.7371 -0.1462
  384MPD2    C3 5740   0.459   0.185  12.487  0.6241 -0.3563  0.2926
  384MPD2    C4 5741   0.386   0.070  12.516 -0.1020 -0.2144  0.0338
  384MPD2    C5 5742   0.247   0.071  12.503 -0.4655  0.1281  0.5554
  384MPD2     H 5743   0.440   0.396  12.452 -2.7084  0.6290  1.8474
  384MPD2    H1 5744   0.440   4.702  12.541  0.5065  0.4586  1.1460
  384MPD2    H2 5745   0.070   0.175  12.493 -0.1653  0.5435  0.1525
  384MPD2    H3 5746   0.191   4.701  12.516  0.9665 -0.8943 -0.3659
  384MPD2     N 5747   0.601   0.183  12.496 -0.2321 -0.0040 -0.1853
  384MPD2    H5 5748   0.647   0.093  12.501  0.4336  0.3944  0.8363
  384MPD2    N1 5749   0.194   0.431  12.455 -0.0352 -0.7869  0.4481
  384MPD2    H7 5750   0.259   0.509  12.445  0.4546 -1.1428  0.8889
  385TMC3    C1 5751   0.816   0.272  12.543  0.2120  0.1801  0.0676
  385TMC3    C2 5752   0.864   0.238  12.418 -0.0180  0.0316 -0.7498
  385TMC3    C3 5753   0.977   0.308  12.371 -0.5908  0.6314  0.2601
  385TMC3    C4 5754   0.869   0.372  12.615 -0.6157 -0.0301 -0.3409
  385TMC3    C5 5755   0.970   0.441  12.560 -0.6903  0.8535  0.3965
  385TMC3    C6 5756   1.032   0.412  12.444 -0.0627 -0.0885 -0.2588
  385TMC3     C 5757   0.674   0.290  12.548  0.9838  0.2850  0.1838
  385TMC3     O 5758   0.628   0.392  12.604 -0.1075 -0.2162 -0.3409
  385TMC3     H 5759   0.804   0.171  12.357  1.4964  0.4069 -2.6435
  385TMC3    H1 5760   0.830   0.403  12.711  0.5723 -0.8998  0.4309
  385TMC3    H2 5761   1.129   0.451  12.416 -1.0266  1.4539 -1.4448
  385TMC3    C7 5762   0.948   0.581  12.564  0.0460  1.1988  0.3511
  385TMC3    C8 5763   1.004   0.309  12.232  0.2459  0.0097 -0.3057
  385TMC3    O1 5764   1.046   0.649  12.543 -0.1256 -0.3413 -0.1712
  385TMC3    O2 5765   1.083   0.391  12.185 -0.3170 -0.2570 -0.1225
  386TMC3    C1 5766   0.703   2.866  12.180  0.6037  0.1252  0.0456
  386TMC3    C2 5767   0.754   2.854  12.052  0.5838  0.0396 -0.3747
  386TMC3    C3 5768   0.678   2.897  11.938 -0.5125 -0.0408  0.2501
  386TMC3    C4 5769   0.583   2.919  12.207  0.2769 -0.2206 -0.5978
  386TMC3    C5 5770   0.509   2.938  12.096  0.0135  0.2156 -0.3293
  386TMC3    C6 5771   0.550   2.924  11.969  0.1738  0.3039 -0.2620
  386TMC3     C 5772   0.805   2.866  12.289  0.2268 -0.3818 -0.6058
  386TMC3     O 5773   0.791   2.952  12.377  0.1138  0.3399  0.0200
  386TMC3     H 5774   0.858   2.825  12.047 -0.1834 -2.7294 -0.2098
  386TMC3    H1 5775   0.548   2.947  12.305 -1.8552 -0.4474 -1.2989
  386TMC3    H2 5776   0.482   2.961  11.893  0.7366  0.3002 -0.7659
  386TMC3    C7 5777   0.368   2.916  12.112  0.1124 -0.3981  0.2039
  386TMC3    C8 5778   0.698   2.856  11.804  0.2715  0.4101  0.4060
  386TMC3    O1 5779   0.320   2.954  12.214  0.3492 -0.0741 -0.2752
  386TMC3    O2 5780   0.603   2.875  11.725 -0.0803 -0.0863 -0.0155
  387MPD2     C 5781   3.100   2.335   9.741  0.1725  0.2577  0.1255
  387MPD2    C1 5782   3.217   2.377   9.778  0.1146 -0.2443 -0.1208
  387MPD2    C2 5783   3.320   2.282   9.794 -0.1360 -0.7386  0.8623
  387MPD2    C3 5784   3.297   2.150   9.767 -0.0082 -0.7026  0.4793
  387MPD2    C4 5785   3.176   2.101   9.717 -0.4892  0.4119 -0.3335
  387MPD2    C5 5786   3.085   2.204   9.706 -0.4515 -0.3962  0.3356
  387MPD2     H 5787   3.419   2.318   9.820  0.6961 -1.3395 -1.4698
  387MPD2    H1 5788   3.150   2.000   9.688 -0.6132  0.6360 -0.9965
  387MPD2    H2 5789   3.012   2.396   9.725 -1.4703 -1.4485  2.5104
  387MPD2    H3 5790   2.988   2.184   9.662 -0.0396 -3.1663  0.6621
  387MPD2     N 5791   3.404   2.061   9.813 -0.4271 -0.1908  0.5031
  387MPD2    H5 5792   3.494   2.096   9.845 -0.9763  1.5092  0.1841
  387MPD2    N1 5793   3.258   2.504   9.829  0.3631  0.7120 -0.3220
  387MPD2    H7 5794   3.357   2.505   9.853 -0.3546  3.2519  2.4278
  388TMC3    C1 5795   3.238   2.717   9.900  0.0028  1.1278  0.0364
  388TMC3    C2 5796   3.245   2.846   9.846 -0.3042 -0.5067 -0.4421
  388TMC3    C3 5797   3.312   2.945   9.920 -0.2674 -0.0300  0.1580
  388TMC3    C4 5798   3.305   2.679  10.011 -0.0386  0.4734  0.1775
  388TMC3    C5 5799   3.376   2.776  10.075 -0.4018  0.3120  0.6249
  388TMC3    C6 5800   3.377   2.909  10.038  0.6480 -0.1618 -0.3682
  388TMC3     C 5801   3.178   2.611   9.827 -0.2979  0.0279  0.0307
  388TMC3     O 5802   3.080   2.636   9.759 -0.0699 -0.5658 -0.6737
  388TMC3     H 5803   3.188   2.867   9.757 -0.7211 -0.3238 -0.1351
  388TMC3    H1 5804   3.290   2.583  10.060 -1.2902 -0.6016 -2.3246
  388TMC3    H2 5805   3.426   2.981  10.102  1.1473  1.4310 -2.5237
  388TMC3    C7 5806   3.471   2.730  10.172  1.0639  0.4272  0.0131
  388TMC3    C8 5807   3.324   3.084   9.872  0.4278  0.0285 -0.3203
  388TMC3    O1 5808   3.475   2.795  10.275  0.2487  0.0067  0.5952
  388TMC3    O2 5809   3.393   3.152   9.947  0.5603  0.3333 -0.3835
  389MPD2     C 5810   2.812   0.996  11.294  0.1763  0.2249 -0.5574
  389MPD2    C1 5811   2.721   0.902  11.247  0.3059  0.2117 -0.2240
  389MPD2    C2 5812   2.605   0.872  11.325  0.1166 -0.1992  0.0658
  389MPD2    C3 5813   2.590   0.933  11.448 -0.8082 -0.3578  0.1741
  389MPD2    C4 5814   2.680   1.028  11.488 -0.2053 -0.0154  0.9562
  389MPD2    C5 5815   2.792   1.056  11.416 -0.6256  0.0135 -0.4909
  389MPD2     H 5816   2.534   0.795  11.296  2.1389 -2.0868  0.0668
  389MPD2    H1 5817   2.662   1.071  11.586 -0.9916  0.5590  0.5521
  389MPD2    H2 5818   2.896   1.020  11.230  0.6302 -1.3464 -0.5693
  389MPD2    H3 5819   2.861   1.126  11.460  0.5967 -1.6145  0.1588
  389MPD2     N 5820   2.480   0.917  11.531  0.1399  0.1720  0.7789
  389MPD2    H5 5821   2.465   0.977  11.612  3.9640 -1.2476  2.5561
  389MPD2    N1 5822   2.740   0.857  11.107  0.3184 -0.3674  0.6711
  389MPD2    H7 5823   2.819   0.897  11.058  0.0188  0.6379  1.0087
  390TMC3    C1 5824   2.273   0.843  11.616  0.0479 -0.0721 -0.2191
  390TMC3    C2 5825   2.207   0.728  11.661  0.2088  0.5022 -0.0502
  390TMC3    C3 5826   2.094   0.750  11.736 -0.5960  0.0606  0.3110
  390TMC3    C4 5827   2.226   0.973  11.633  0.0617  0.5372 -0.1424
  390TMC3    C5 5828   2.104   0.989  11.696 -0.4034  0.4537 -0.7709
  390TMC3    C6 5829   2.038   0.879  11.750 -0.5065 -0.7564 -0.4368
  390TMC3     C 5830   2.386   0.818  11.524  0.5883  0.0977  0.6337
  390TMC3     O 5831   2.390   0.710  11.471  0.1333 -0.2905  0.1276
  390TMC3     H 5832   2.252   0.631  11.643  0.7535  0.7600 -0.0808
  390TMC3    H1 5833   2.279   1.060  11.596  0.5568  1.0315  1.7442
  390TMC3    H2 5834   1.934   0.884  11.778 -0.6340 -0.8668 -0.8914
  390TMC3    C7 5835   2.051   1.124  11.718 -0.4589  0.0458  0.5050
  390TMC3    C8 5836   2.006   0.641  11.762  0.4305 -0.0785 -0.5188
  390TMC3    O1 5837   2.087   1.218  11.642  0.3421  0.3193 -0.7154
  390TMC3    O2 5838   2.027   0.543  11.690 -0.4530 -0.5249 -0.1047
  391MPD2     C 5839   1.593   2.098  11.384 -0.2067 -1.3819 -0.7157
  391MPD2    C1 5840   1.646   2.221  11.390  0.4480  0.1881 -0.4611
  391MPD2    C2 5841   1.710   2.274  11.277  0.3009 -0.0267 -1.1964
  391MPD2    C3 5842   1.709   2.196  11.163  0.1010  0.5776 -0.1353
  391MPD2    C4 5843   1.642   2.072  11.158 -0.0340 -0.1478 -0.3701
  391MPD2    C5 5844   1.581   2.027  11.272 -0.4655 -0.1418  0.2954
  391MPD2     H 5845   1.761   2.369  11.286  1.4295 -1.0712  3.1138
  391MPD2    H1 5846   1.638   2.010  11.069  1.8440  0.5266 -0.9211
  391MPD2    H2 5847   1.548   2.068  11.478 -1.6777  2.1171 -0.3071
  391MPD2    H3 5848   1.537   1.928  11.270  2.0927 -1.2472 -1.1453
  391MPD2     N 5849   1.785   2.248  11.055 -0.0523 -0.4309 -0.5521
  391MPD2    H5 5850   1.836   2.335  11.066 -1.6694  0.4292  0.0754
  391MPD2    N1 5851   1.640   2.289  11.514 -0.0485  0.1816 -0.8295
  391MPD2    H7 5852   1.621   2.238  11.599  1.6889  0.5060 -0.2456
  392TMC3    C1 5853   1.897   2.254  10.848  0.1070  0.6652  0.0630
  392TMC3    C2 5854   1.933   2.193  10.724  0.6555 -0.5864  0.3506
  392TMC3    C3 5855   1.988   2.270  10.630 -0.1007 -0.4316  0.2639
  392TMC3    C4 5856   1.903   2.393  10.861 -0.1056  0.7046  0.2664
  392TMC3    C5 5857   1.944   2.466  10.750  0.1741  0.0034 -0.4044
  392TMC3    C6 5858   1.998   2.403  10.641  1.1557  0.0996 -0.5289
  392TMC3     C 5859   1.803   2.178  10.936 -0.4315 -0.2924 -1.1368
  392TMC3     O 5860   1.780   2.061  10.901 -0.5112 -0.4660  0.3109
  392TMC3     H 5861   1.887   2.098  10.697 -1.4703  0.1710  1.2641
  392TMC3    H1 5862   1.864   2.452  10.944  0.7449 -1.6521  2.3453
  392TMC3    H2 5863   2.038   2.451  10.552 -1.2271 -0.3792 -1.8632
  392TMC3    C7 5864   2.016   2.590  10.785 -0.2366 -0.0168  0.3043
  392TMC3    C8 5865   2.003   2.205  10.493  0.3510  0.3414 -0.1537
  392TMC3    O1 5866   2.017   2.613  10.904 -0.2351 -0.2596  0.2397
  392TMC3    O2 5867   1.945   2.098  10.468  0.5978  0.0439  0.3034
  393TMC3    C1 5868   0.453   4.611  10.955  0.5173 -0.2610  1.0752
  393TMC3    C2 5869   0.320   4.620  10.976 -0.7613  0.2729 -0.1427
  393TMC3    C3 5870   0.280   4.706  11.074 -0.2385 -0.1986  0.4587
  393TMC3    C4 5871   0.545   4.694  11.016 -0.1587 -0.0006 -0.1748
  393TMC3    C5 5872   0.504   0.048  11.116 -0.4806  0.1589 -0.2428
  393TMC3    C6 5873   0.371   0.039  11.159  0.3143  0.0304  0.4825
  393TMC3     C 5874   0.512   4.547  10.837  0.9108  0.2883 -0.0465
  393TMC3     O 5875   0.609   4.598  10.784  0.2491  0.4547 -0.3343
  393TMC3     H 5876   0.241   4.565  10.927 -0.5133  0.2503 -0.5095
  393TMC3    H1 5877   0.651   4.677  10.998 -0.0964  0.3938 -0.1798
  393TMC3    H2 5878   0.334   0.098  11.242 -1.0161  2.2992 -1.7258
  393TMC3    C7 5879   0.602   0.088  11.212 -0.0263  0.2227 -0.1271
  393TMC3    C8 5880   0.150   0.056  11.069 -0.1685  0.4914 -0.3774
  393TMC3    O1 5881   0.579   0.092  11.332 -0.3558  0.2709  0.3351
  393TMC3    O2 5882   0.115   0.125  11.167 -0.2192  0.2700  0.8390
  394TMC3    C1 5883   2.683   0.784  10.893  0.0711  0.1648 -0.6537
  394TMC3    C2 5884   2.585   0.772  10.796  0.3966 -0.0764  0.2183
  394TMC3    C3 5885   2.623   0.776  10.665 -0.3120 -0.6411 -0.0718
  394TMC3    C4 5886   2.818   0.802  10.866 -0.0727  0.2766  0.0592
  394TMC3    C5 5887   2.844   0.805  10.728  0.3162  0.4032  0.3720
  394TMC3    C6 5888   2.754   0.778  10.633 -0.5661  0.8353 -0.1019
  394TMC3     C 5889   2.648   0.784  11.029  0.3680  0.3949  0.1897
  394TMC3     O 5890   2.533   0.762  11.054 -0.1625  0.6322 -0.1479
  394TMC3     H 5891   2.485   0.742  10.823 -0.9795  3.1022 -1.3361
  394TMC3    H1 5892   2.894   0.805  10.943 -0.6651  1.4805  0.5956
  394TMC3    H2 5893   2.786   0.761  10.530  1.4006 -1.0017  0.8096
  394TMC3    C7 5894   2.973   0.847  10.674  0.7223  0.2014 -0.2057
  394TMC3    C8 5895   2.529   0.705  10.579 -0.4129  0.7866  0.3518
  394TMC3    O1 5896   3.061   0.826  10.754  0.2970  0.0667  0.5646
  394TMC3    O2 5897   2.423   0.757  10.556  0.0351 -0.6999  0.0795
  395TMC3    C1 5898   1.823   3.386  14.029 -0.4289 -0.1222 -0.3628
  395TMC3    C2 5899   1.746   3.321  14.124  0.1902 -0.9152  0.4587
  395TMC3    C3 5900   1.764   3.368  14.249 -0.2139  0.0743 -0.2466
  395TMC3    C4 5901   1.888   3.498  14.048  0.3862 -0.0674  0.0872
  395TMC3    C5 5902   1.909   3.542  14.178 -0.9436 -0.5740  0.4373
  395TMC3    C6 5903   1.843   3.474  14.279  0.1766 -0.3238 -0.4383
  395TMC3     C 5904   1.914   3.292  13.965  0.3797  0.3358  0.3696
  395TMC3     O 5905   2.026   3.297  14.023  0.0257 -0.1872  0.3140
  395TMC3     H 5906   1.688   3.231  14.104 -0.7024 -0.2698  0.1719
  395TMC3    H1 5907   1.943   3.546  13.968  2.0865 -1.1852  0.5734
  395TMC3    H2 5908   1.846   3.518  14.378 -1.0564  0.7044 -0.8574
  395TMC3    C7 5909   2.038   3.582  14.220 -0.1866 -0.0393  0.1009
  395TMC3    C8 5910   1.726   3.292  14.367 -0.4404 -0.0691 -0.1343
  395TMC3    O1 5911   2.044   3.692  14.269  0.6014 -0.1164 -0.4456
  395TMC3    O2 5912   1.737   3.349  14.474 -0.8449 -0.3218  0.0703
  396MPD2     C 5913   1.371   3.870  17.283 -0.3228  0.7901  0.1323
  396MPD2    C1 5914   1.501   3.851  17.335  0.9608  0.0254 -0.6697
  396MPD2    C2 5915   1.591   3.953  17.316 -0.5100 -0.6503 -0.4074
  396MPD2    C3 5916   1.563   4.064  17.241  0.0880  0.0107 -0.4461
  396MPD2    C4 5917   1.446   4.071  17.181 -0.9463 -0.3533  0.0859
  396MPD2    C5 5918   1.348   3.976  17.202  0.0119 -0.3058 -0.1269
  396MPD2     H 5919   1.694   3.947  17.351 -0.8975 -1.1930  0.6487
  396MPD2    H1 5920   1.421   4.155  17.117 -0.9710  0.4136  1.0944
  396MPD2    H2 5921   1.299   3.789  17.275 -1.5730  1.9905 -0.6713
  396MPD2    H3 5922   1.257   3.974  17.143  0.2263  1.1709 -0.5095
  396MPD2     N 5923   1.665   4.155  17.219  0.0248  0.1563 -0.1533
  396MPD2    H5 5924   1.760   4.122  17.237 -0.3615 -0.0216  1.5824
  396MPD2    N1 5925   1.531   3.727  17.398  0.5175  0.0189 -0.1120
  396MPD2    H7 5926   1.465   3.653  17.377  0.0554 -0.2298  2.1859
  397TMC3    C1 5927   1.672   3.552  17.466  0.4437 -0.1553  0.2981
  397TMC3    C2 5928   1.792   3.517  17.412  0.4781  0.0571 -0.0823
  397TMC3    C3 5929   1.803   3.419  17.318  0.1933 -0.6832  0.4587
  397TMC3    C4 5930   1.560   3.470  17.448 -0.1330 -0.0622  0.1668
  397TMC3    C5 5931   1.590   3.350  17.386 -0.7374 -0.5413 -0.0514
  397TMC3    C6 5932   1.702   3.329  17.316  0.2657 -0.0577 -0.3553
  397TMC3     C 5933   1.655   3.701  17.457  0.1435  0.6606  0.4724
  397TMC3     O 5934   1.757   3.769  17.480  0.7237 -0.2161 -0.1052
  397TMC3     H 5935   1.869   3.588  17.388  1.0174 -0.9157 -1.2313
  397TMC3    H1 5936   1.458   3.498  17.473 -0.1420  0.4423 -0.4135
  397TMC3    H2 5937   1.686   3.258  17.236  0.5657  0.6142 -1.0149
  397TMC3    C7 5938   1.519   3.235  17.429  0.3316  1.2059  0.1525
  397TMC3    C8 5939   1.855   3.460  17.188 -0.3419  0.5335 -0.3019
  397TMC3    O1 5940   1.556   3.130  17.381  0.0760  0.0752 -0.7032
  397TMC3    O2 5941   1.783   3.484  17.092  0.7100  0.1551  0.3815
  398MPD2     C 5942   4.699   0.351   0.010 -0.7617  0.5218  0.1914
  398MPD2    C1 5943   0.090   0.275   0.024  0.0051 -0.2329 -0.3543
  398MPD2    C2 5944   0.210   0.321  17.660 -0.4522  0.3526  0.3554
  398MPD2    C3 5945   0.209   0.439  17.588 -0.3145  0.3021  0.4444
  398MPD2    C4 5946   0.089   0.517  17.570  0.0074 -0.1082 -0.0762
  398MPD2    C5 5947   4.701   0.468  17.637  0.1455  1.3180  0.3263
  398MPD2     H 5948   0.308   0.275  17.660  0.2193  1.8021  1.4270
  398MPD2    H1 5949   0.087   0.614  17.521 -0.8678 -0.6486 -1.1053
  398MPD2    H2 5950   4.603   0.314   0.044 -0.7730  0.9698  0.6472
  398MPD2    H3 5951   4.606   0.521  17.633 -1.1906 -1.2437 -2.5635
  398MPD2     N 5952   0.335   0.483  17.538 -0.0408  0.3109  0.0344
  398MPD2    H5 5953   0.404   0.428  17.587 -0.0786 -1.6460 -2.0961
  398MPD2    N1 5954   0.098   0.151   0.091 -0.0307 -0.3424  0.4969
  398MPD2    H7 5955   0.189   0.108   0.102  0.2351  0.2674  0.6590
  399TMC3    C1 5956   0.020   4.657   0.153 -1.0220  0.0559 -0.8920
  399TMC3    C2 5957   0.134   4.639   0.223 -0.0823  0.2413 -0.2900
  399TMC3    C3 5958   0.164   4.510   0.252 -0.3587  0.8462 -0.5599
  399TMC3    C4 5959   4.642   4.571   0.148 -0.5075 -0.3170  0.3357
  399TMC3    C5 5960   4.675   4.441   0.186  1.1206 -0.9543 -0.4832
  399TMC3    C6 5961   0.076   4.405   0.235 -0.5510  0.0606  0.3344
  399TMC3     C 5962   4.707   0.073   0.117 -0.2743 -0.2273  0.2343
  399TMC3     O 5963   4.592   0.091   0.081 -0.1446  0.8463  0.3484
  399TMC3     H 5964   0.202   4.719   0.247  0.0074  0.5726 -1.6461
  399TMC3    H1 5965   4.550   4.593   0.096 -0.3068  2.3234  1.0926
  399TMC3    H2 5966   0.086   4.310   0.287 -0.4927  0.2965  0.7531
  399TMC3    C7 5967   4.559   4.355   0.198  0.4791 -0.2214 -0.0166
  399TMC3    C8 5968   0.308   4.482   0.232 -0.4012  0.0423 -0.1644
  399TMC3    O1 5969   4.566   4.262   0.277  0.6764 -0.6013 -0.0228
  399TMC3    O2 5970   0.371   4.584   0.232  0.0382  0.2358 -0.5333
  400TMC3    C1 5971   3.102   3.164  17.176 -0.6310  0.2844  0.3015
  400TMC3    C2 5972   3.080   3.056  17.103 -0.5044  0.0112 -0.8948
  400TMC3    C3 5973   3.027   3.066  16.978 -0.1567 -0.0926 -0.0138
  400TMC3    C4 5974   3.100   3.287  17.121 -0.3939  0.3886  0.2312
  400TMC3    C5 5975   3.044   3.299  16.997 -0.1394  0.4647 -0.0001
  400TMC3    C6 5976   3.020   3.190  16.919  0.7108  0.4070  0.1727
  400TMC3     C 5977   3.149   3.145  17.311 -0.1145 -0.5966  0.5954
  400TMC3     O 5978   3.170   3.031  17.348  0.3744  0.0951 -0.4020
  400TMC3     H 5979   3.066   2.962  17.155 -1.7179  0.7257  0.0829
  400TMC3    H1 5980   3.130   3.372  17.181  0.7324  0.4143 -0.3645
  400TMC3    H2 5981   2.993   3.199  16.814  0.6289 -0.7743  0.1012
  400TMC3    C7 5982   3.013   3.434  16.933 -0.6103 -0.3177 -0.5002
  400TMC3    C8 5983   3.010   2.945  16.895  0.5944 -0.2689 -0.1647
  400TMC3    O1 5984   2.975   3.424  16.817  0.1967  0.2646 -0.2928
  400TMC3    O2 5985   3.050   2.836  16.936  0.0443 -0.0641 -0.0075
  401MPD2     C 5986   1.743   2.348   1.883  0.3646  0.3170 -0.3034
  401MPD2    C1 5987   1.732   2.336   1.748  1.1497 -0.4061  0.1869
  401MPD2    C2 5988   1.610   2.357   1.687 -0.1339  1.1990 -0.1845
  401MPD2    C3 5989   1.495   2.374   1.763 -0.0321  0.2918 -0.6456
  401MPD2    C4 5990   1.508   2.378   1.902  0.3471  0.7632 -0.5218
  401MPD2    C5 5991   1.632   2.359   1.965 -0.5662 -0.4850  0.1641
  401MPD2     H 5992   1.616   2.332   1.582  0.3711  0.2246  0.0744
  401MPD2    H1 5993   1.414   2.396   1.953  1.7573  1.0599  1.9574
  401MPD2    H2 5994   1.840   2.365   1.928 -0.1619  2.5364  0.0037
  401MPD2    H3 5995   1.626   2.363   2.073  0.2586  0.6881  0.1551
  401MPD2     N 5996   1.380   2.389   1.686  0.4421 -0.7762 -0.7848
  401MPD2    H5 5997   1.394   2.413   1.589 -1.5477 -0.3582 -0.9606
  401MPD2    N1 5998   1.845   2.324   1.656 -0.7410 -0.1815  0.4838
  401MPD2    H7 5999   1.823   2.331   1.557  3.6491  0.9166 -0.4008
  402TMC3    C1 6000   1.192   2.298   1.635  0.1663 -0.6058  0.1651
  402TMC3    C2 6001   1.225   2.168   1.673 -0.4508 -0.0942  0.0052
  402TMC3    C3 6002   1.260   2.074   1.582 -0.6923  0.1568  0.2566
  402TMC3    C4 6003   1.208   2.327   1.501 -0.3614  0.1155  0.1262
  402TMC3    C5 6004   1.251   2.234   1.418  0.4449 -0.4759 -0.6026
  402TMC3    C6 6005   1.281   2.100   1.449 -0.2427  0.5992  0.2917
  402TMC3     C 6006   1.252   2.385   1.732  0.3030  0.6151 -0.3785
  402TMC3     O 6007   1.208   2.372   1.843  0.3864  0.1411 -0.0861
  402TMC3     H 6008   1.244   2.138   1.776 -0.5314 -0.8778 -0.2063
  402TMC3    H1 6009   1.207   2.428   1.462 -2.4827  0.4819  1.1405
  402TMC3    H2 6010   1.298   2.024   1.375  1.6547  0.3455  0.9993
  402TMC3    C7 6011   1.302   2.286   1.290 -0.2192 -0.5013 -0.2176
  402TMC3    C8 6012   1.291   1.940   1.621  0.9448  0.6861  0.2799
  402TMC3    O1 6013   1.249   2.387   1.245 -0.3553 -0.9613  0.3299
  402TMC3    O2 6014   1.373   1.880   1.556  0.4802  0.1581  0.1127
  403MPD2     C 6015   0.024   0.833  13.467 -0.1270 -0.6207 -0.2916
  403MPD2    C1 6016   0.042   0.732  13.558 -0.0416 -0.5449 -0.1316
  403MPD2    C2 6017   0.128   0.767  13.664 -0.0821  0.3167 -0.2125
  403MPD2    C3 6018   0.189   0.886  13.681  0.0361 -0.2548 -0.6725
  403MPD2    C4 6019   0.177   0.979  13.575 -0.4482  0.3476 -0.3804
  403MPD2    C5 6020   0.096   0.947  13.468  0.2260 -0.2194  0.2056
  403MPD2     H 6021   0.150   0.697  13.743 -0.1325  0.4882 -0.0467
  403MPD2    H1 6022   0.208   1.083  13.574 -1.7341  0.7485  1.1880
  403MPD2    H2 6023   4.672   0.819  13.390 -2.5547  0.6036  1.8222
  403MPD2    H3 6024   0.089   1.014  13.384  3.9885  0.0056  0.0819
  403MPD2     N 6025   0.273   0.897  13.791 -0.4632 -0.5538  0.5609
  403MPD2    H5 6026   0.273   0.822  13.859  0.2111 -0.0214  1.1400
  403MPD2    N1 6027   4.698   0.614  13.537 -0.1350  0.2736  0.0370
  403MPD2    H7 6028   4.643   0.599  13.452 -2.7071 -1.3310  1.9779
  404TMC3    C1 6029   4.624   0.380  13.582 -0.5707  0.1018  0.4697
  404TMC3    C2 6030   4.645   0.273  13.666  0.2669 -0.6353  0.3326
  404TMC3    C3 6031   4.611   0.144  13.619  0.2483 -0.0569  0.1197
  404TMC3    C4 6032   4.553   0.370  13.467 -0.7115  0.1946 -0.2677
  404TMC3    C5 6033   4.535   0.244  13.419  0.1153 -0.2320  0.0075
  404TMC3    C6 6034   4.565   0.130  13.490  0.0086 -0.8699 -0.6391
  404TMC3     C 6035   4.696   0.501  13.627 -0.3859 -0.4797 -0.2928
  404TMC3     O 6036   0.040   0.489  13.730 -0.4795 -0.3700 -0.5234
  404TMC3     H 6037   4.682   0.283  13.768  0.2830 -2.3340  0.4976
  404TMC3    H1 6038   4.532   0.457  13.406 -0.4764  1.2596  1.1712
  404TMC3    H2 6039   4.550   0.028  13.455  1.0977 -0.9384 -0.9137
  404TMC3    C7 6040   4.523   0.235  13.274  0.6153  0.3334 -0.0928
  404TMC3    C8 6041   4.664   0.020  13.684  0.4168  0.2388 -0.3941
  404TMC3    O1 6042   4.562   0.343  13.228  0.9109 -0.5239 -0.4988
  404TMC3    O2 6043   4.697   4.652  13.612 -0.2268  0.5604  0.1303
  405MPD2     C 6044   0.286   1.110  14.678 -0.9568 -0.0940  0.2107
  405MPD2    C1 6045   0.220   0.999  14.617 -0.4173 -0.6630  0.6229
  405MPD2    C2 6046   0.101   1.021  14.556 -0.0253  0.3863  0.5297
  405MPD2    C3 6047   0.055   1.154  14.534 -0.2208  1.1862  0.1587
  405MPD2    C4 6048   0.120   1.262  14.593 -0.4888 -0.3920  0.0956
  405MPD2    C5 6049   0.234   1.236  14.666  0.4381 -0.6252 -0.2851
  405MPD2     H 6050   0.041   0.945  14.507  1.9563 -0.3838 -0.7049
  405MPD2    H1 6051   0.074   1.360  14.593  0.0224 -0.1556  0.4076
  405MPD2    H2 6052   0.381   1.097  14.729 -1.4724  0.1035  1.2191
  405MPD2    H3 6053   0.301   1.306  14.717 -0.0992 -0.1231 -0.2709
  405MPD2     N 6054   4.665   1.160  14.451 -0.1178 -0.4514 -0.0982
  405MPD2    H5 6055   4.647   1.074  14.401 -2.4210 -0.4120  0.7069
  405MPD2    N1 6056   0.269   0.872  14.654  0.1538 -0.1119  0.1470
  405MPD2    H7 6057   0.350   0.870  14.715  1.1929  1.1077 -1.1934
  406TMC3    C1 6058   4.242   1.241  14.291 -0.1613  0.1522 -0.0511
  406TMC3    C2 6059   4.222   1.105  14.289  0.2362 -0.6751 -0.9601
  406TMC3    C3 6060   4.312   1.017  14.336 -0.3506  0.4916  0.1159
  406TMC3    C4 6061   4.353   1.288  14.351  0.3065  1.1765 -0.2949
  406TMC3    C5 6062   4.448   1.196  14.401 -0.0326  1.0391  0.4228
  406TMC3    C6 6063   4.426   1.066  14.405 -0.2216 -0.1404 -0.2055
  406TMC3     C 6064   4.130   1.325  14.258  0.3865  0.6120  0.2265
  406TMC3     O 6065   4.151   1.438  14.216 -0.1756 -0.8921 -0.6484
  406TMC3     H 6066   4.133   1.059  14.248 -0.2424 -1.1921  0.6438
  406TMC3    H1 6067   4.376   1.394  14.349 -0.5085  1.3585 -0.2317
  406TMC3    H2 6068   4.490   0.996  14.458  1.9209  2.1463  0.1942
  406TMC3    C7 6069   4.570   1.252  14.446  0.1882 -0.2337  0.0913
  406TMC3    C8 6070   4.287   0.875  14.320 -0.0538  0.1896  0.3180
  406TMC3    O1 6071   4.577   1.368  14.483 -0.0619  0.3582 -0.0199
  406TMC3    O2 6072   4.176   0.823  14.302 -0.2119 -0.0783 -0.2914
  407MPD2     C 6073   2.619   1.933   9.591  0.5533  0.0808 -0.0997
  407MPD2    C1 6074   2.757   1.928   9.620 -0.5230 -0.2417  0.3462
  407MPD2    C2 6075   2.798   1.974   9.744  0.6120  0.3250 -0.3344
  407MPD2    C3 6076   2.711   2.031   9.831  0.0289 -0.0867  0.3866
  407MPD2    C4 6077   2.575   2.036   9.797  0.1272  0.2833 -0.3336
  407MPD2    C5 6078   2.527   1.985   9.684 -0.5569 -0.0182 -0.0384
  407MPD2     H 6079   2.905   1.976   9.755  0.7253  1.7774 -1.7428
  407MPD2    H1 6080   2.501   2.071   9.869 -3.1974 -3.5402 -1.9102
  407MPD2    H2 6081   2.584   1.893   9.497 -2.5578  1.3780  0.4848
  407MPD2    H3 6082   2.419   1.975   9.672 -0.1413 -2.3600 -1.9663
  407MPD2     N 6083   2.740   2.096   9.950  0.1691  0.7765 -0.6546
  407MPD2    H5 6084   2.673   2.161   9.989 -0.0555 -1.0479  2.0089
  407MPD2    N1 6085   2.856   1.884   9.523  0.2564  0.4256 -0.1219
  407MPD2    H7 6086   2.952   1.868   9.551  0.5108  3.4666  0.7285
  408TMC3    C1 6087   2.953   1.879   9.303 -0.3691  0.8441 -0.2554
  408TMC3    C2 6088   3.055   1.800   9.350 -0.2474 -0.3886  0.0180
  408TMC3    C3 6089   3.183   1.832   9.320 -0.3853 -0.2268 -0.0531
  408TMC3    C4 6090   2.980   1.986   9.223 -0.0145 -0.0065 -0.1442
  408TMC3    C5 6091   3.111   2.022   9.201 -0.2621 -0.1443  0.2325
  408TMC3    C6 6092   3.214   1.938   9.245 -0.2098 -0.3438 -0.3064
  408TMC3     C 6093   2.837   1.897   9.382  0.6726  0.1742  0.1862
  408TMC3     O 6094   2.735   1.938   9.335  0.2574  0.4065  0.4483
  408TMC3     H 6095   3.031   1.706   9.399 -1.1410  1.2136  2.6335
  408TMC3    H1 6096   2.897   2.052   9.197 -1.4910 -1.9280 -0.2935
  408TMC3    H2 6097   3.319   1.953   9.227  0.1031 -2.5980 -0.3262
  408TMC3    C7 6098   3.156   2.160   9.221 -0.1386 -0.7797 -0.7325
  408TMC3    C8 6099   3.289   1.756   9.390 -0.3680  0.1541 -0.2594
  408TMC3    O1 6100   3.274   2.178   9.232  0.0822 -0.1340  0.4917
  408TMC3    O2 6101   3.259   1.640   9.413 -0.0105 -0.1356 -0.0934
  409MPD2     C 6102   1.720   2.967  16.997 -0.2203  0.2329  0.2480
  409MPD2    C1 6103   1.803   2.995  17.100  0.0232 -0.1809 -0.3396
  409MPD2    C2 6104   1.918   3.071  17.073 -0.2910 -0.5708 -0.1974
  409MPD2    C3 6105   1.949   3.113  16.937 -0.0876  0.4174 -0.6392
  409MPD2    C4 6106   1.860   3.073  16.837  0.2084 -0.3252  0.8213
  409MPD2    C5 6107   1.751   2.999  16.875 -0.0005 -0.1973 -0.6148
  409MPD2     H 6108   1.987   3.091  17.155 -1.9474 -1.1278  1.3465
  409MPD2    H1 6109   1.881   3.106  16.736 -1.1378 -1.2601  0.2516
  409MPD2    H2 6110   1.629   2.912  17.016 -0.6791  0.7719 -0.4207
  409MPD2    H3 6111   1.691   2.960  16.793 -1.0493  1.9820 -0.8872
  409MPD2     N 6112   2.063   3.191  16.900 -0.2610 -0.6083 -0.4431
  409MPD2    H5 6113   2.092   3.205  16.804  0.1784 -0.0462 -0.2315
  409MPD2    N1 6114   1.782   2.957  17.234 -0.4535  0.2625  0.2744
  409MPD2    H7 6115   1.850   2.997  17.297  0.4504 -2.1403  0.8253
  410TMC3    C1 6116   2.267   3.308  16.942  0.3056  0.2926 -0.6935
  410TMC3    C2 6117   2.394   3.309  16.999  0.3489  0.4148  1.0315
  410TMC3    C3 6118   2.497   3.389  16.952 -0.6592 -0.5426  1.0597
  410TMC3    C4 6119   2.240   3.409  16.852  0.1420  0.2336 -0.5878
  410TMC3    C5 6120   2.339   3.499  16.812 -0.3920  0.6015  0.3470
  410TMC3    C6 6121   2.468   3.490  16.863  0.0487 -0.9372  0.4792
  410TMC3     C 6122   2.164   3.220  16.990  0.0979 -0.0022  0.6146
  410TMC3     O 6123   2.180   3.178  17.104 -0.4931 -0.4591  0.8810
  410TMC3     H 6124   2.412   3.240  17.081  0.5848 -2.4322 -1.4289
  410TMC3    H1 6125   2.138   3.411  16.816  0.0007 -1.0933 -0.2773
  410TMC3    H2 6126   2.540   3.545  16.804  1.1701 -1.4632  1.3583
  410TMC3    C7 6127   2.303   3.576  16.690 -0.6255 -0.1650 -0.0779
  410TMC3    C8 6128   2.612   3.414  17.034 -0.6956 -0.7455  0.1809
  410TMC3    O1 6129   2.201   3.537  16.638 -0.4435  0.6312  0.3951
  410TMC3    O2 6130   2.625   3.526  17.078  0.4795  0.5873 -0.7266
  411MPD2     C 6131   2.711   4.250  14.457 -0.5048  0.3508 -0.5388
  411MPD2    C1 6132   2.623   4.301  14.367 -0.9401 -0.1528 -0.6501
  411MPD2    C2 6133   2.564   4.208  14.285  0.0194 -0.2466 -0.1955
  411MPD2    C3 6134   2.594   4.071  14.297 -0.0825  0.1328 -0.1967
  411MPD2    C4 6135   2.696   4.030  14.381  0.0016  0.2346 -0.0573
  411MPD2    C5 6136   2.749   4.124  14.460 -0.1971  0.0088 -0.0298
  411MPD2     H 6137   2.486   4.241  14.217 -0.6094  1.2268  1.2456
  411MPD2    H1 6138   2.711   3.923  14.391 -1.5116 -0.2570 -2.9200
  411MPD2    H2 6139   2.761   4.316  14.527 -0.2322 -0.7185  0.2688
  411MPD2    H3 6140   2.810   4.098  14.546  0.0901 -1.7723 -0.7650
  411MPD2     N 6141   2.535   3.979  14.216 -0.5466  0.7135 -0.0045
  411MPD2    H5 6142   2.585   3.892  14.199 -1.4989  0.0018  0.7952
  411MPD2    N1 6143   2.582   4.440  14.371  0.4160 -0.0385  0.4885
  411MPD2    H7 6144   2.634   4.504  14.431 -0.2864  2.1181 -1.1871
  412TMC3    C1 6145   2.415   3.883  14.049 -0.6673 -0.4309 -0.2715
  412TMC3    C2 6146   2.289   3.833  14.020  0.1645  0.4392  0.2791
  412TMC3    C3 6147   2.274   3.712  13.960 -0.5253  0.1244 -0.2920
  412TMC3    C4 6148   2.535   3.824  14.015  1.0126  0.1488 -0.0840
  412TMC3    C5 6149   2.509   3.703  13.948  0.7897 -0.2940  0.3588
  412TMC3    C6 6150   2.389   3.643  13.940 -0.5381  0.0542  0.4561
  412TMC3     C 6151   2.424   3.999  14.131  0.6438  0.0346 -0.0706
  412TMC3     O 6152   2.326   4.071  14.146  0.3550  0.1470  0.2242
  412TMC3     H 6153   2.198   3.893  14.025  0.4143  0.7084  1.4313
  412TMC3    H1 6154   2.629   3.877  14.005  0.6986  0.8572  0.7438
  412TMC3    H2 6155   2.386   3.539  13.911 -0.0808  0.2318 -0.2524
  412TMC3    C7 6156   2.594   3.671  13.826 -0.1975  0.7032  0.4640
  412TMC3    C8 6157   2.176   3.710  13.849  0.6420  0.0031 -0.5915
  412TMC3    O1 6158   2.544   3.590  13.745  0.1245  0.0975  0.1285
  412TMC3    O2 6159   2.073   3.774  13.858  0.4040  0.3207 -0.0198
  413MPD2     C 6160   3.746   2.304  15.475  0.2093  0.5181 -1.4346
  413MPD2    C1 6161   3.690   2.220  15.379  0.2065 -0.1982 -0.7796
  413MPD2    C2 6162   3.774   2.123  15.326 -0.1331 -0.5078 -1.0198
  413MPD2    C3 6163   3.912   2.111  15.348  0.1256 -0.4264  0.2607
  413MPD2    C4 6164   3.967   2.205  15.436 -0.1319  0.1869 -0.2384
  413MPD2    C5 6165   3.880   2.300  15.490 -0.0602  0.1173  0.4975
  413MPD2     H 6166   3.738   2.044  15.261 -0.8127 -0.5516 -0.5863
  413MPD2    H1 6167   4.072   2.209  15.462 -0.2736 -0.0965  0.3704
  413MPD2    H2 6168   3.699   2.382  15.534  2.0670  0.6465 -0.0988
  413MPD2    H3 6169   3.922   2.382  15.548 -0.7338  1.6738 -1.2261
  413MPD2     N 6170   3.982   2.013  15.288  0.3432 -0.2096 -0.1266
  413MPD2    H5 6171   3.946   1.960  15.210 -0.2064 -0.2043  0.1271
  413MPD2    N1 6172   3.552   2.222  15.363 -0.0375  0.1934  0.7194
  413MPD2    H7 6173   3.500   2.283  15.425 -0.9431  1.2619 -1.0928
  414TMC3    C1 6174   4.167   1.882  15.221  0.2794  0.2643  0.2123
  414TMC3    C2 6175   4.272   1.802  15.252  0.2213 -0.9705 -0.2193
  414TMC3    C3 6176   4.316   1.718  15.151  0.3501 -0.0745 -0.0431
  414TMC3    C4 6177   4.125   1.892  15.092  0.1395  0.0146  0.3569
  414TMC3    C5 6178   4.182   1.815  14.996 -0.2513 -0.7760 -0.5347
  414TMC3    C6 6179   4.273   1.717  15.030  0.0012 -0.9888 -0.3882
  414TMC3     C 6180   4.120   1.987  15.311  0.6058  0.2864 -0.0989
  414TMC3     O 6181   4.200   2.036  15.394  0.2931 -0.4126  0.1160
  414TMC3     H 6182   4.308   1.794  15.353 -0.6483 -0.1523  0.1570
  414TMC3    H1 6183   4.044   1.960  15.068 -0.1434  0.0082  1.2820
  414TMC3    H2 6184   4.287   1.634  14.961  1.8423  0.0661 -1.2705
  414TMC3    C7 6185   4.119   1.825  14.864 -0.3753 -0.1315 -0.3208
  414TMC3    C8 6186   4.427   1.627  15.173 -0.1912  0.4935 -0.2106
  414TMC3    O1 6187   4.007   1.878  14.869  0.3144 -0.4515 -0.3928
  414TMC3    O2 6188   4.441   1.535  15.091  0.2488 -0.4300 -0.2967
  415TMC3    C1 6189   0.505   3.538  10.728  0.5426 -0.1252 -0.2519
  415TMC3    C2 6190   0.553   3.554  10.603 -0.2756 -0.2895  0.2884
  415TMC3    C3 6191   0.497   3.460  10.519  0.6635 -0.6961 -0.3346
  415TMC3    C4 6192   0.423   3.436  10.764 -0.0896  0.6223  0.3332
  415TMC3    C5 6193   0.367   3.350  10.673  0.5323  0.4919 -0.7801
  415TMC3    C6 6194   0.416   3.355  10.550  0.8841  0.1478  0.6700
  415TMC3     C 6195   0.518   3.649  10.819 -0.7722 -0.6438  0.2458
  415TMC3     O 6196   0.480   3.624  10.932 -0.8795 -0.2703 -0.4178
  415TMC3     H 6197   0.583   3.653  10.569 -1.9074  0.0154 -0.2433
  415TMC3    H1 6198   0.401   3.433  10.870  0.8134 -1.8645  0.4454
  415TMC3    H2 6199   0.382   3.287  10.472 -1.2725 -0.3072  2.0043
  415TMC3    C7 6200   0.295   3.246  10.732 -0.0007 -0.2045  0.4071
  415TMC3    C8 6201   0.525   3.472  10.374  0.3036 -0.1522 -0.1177
  415TMC3    O1 6202   0.277   3.141  10.667 -0.5701  0.2975 -0.5077
  415TMC3    O2 6203   0.448   3.412  10.299 -0.0716 -0.0918 -0.2122
  416MPD2     C 6204   2.072   3.707  11.969 -0.0318  0.0748 -0.3397
  416MPD2    C1 6205   1.953   3.665  12.024  0.4140  0.0621 -0.5398
  416MPD2    C2 6206   1.900   3.533  11.998 -0.1124 -0.2895 -0.2101
  416MPD2    C3 6207   1.963   3.458  11.910 -0.0154  0.4832  0.3732
  416MPD2    C4 6208   2.093   3.495  11.866 -0.3915 -0.0329 -0.1182
  416MPD2    C5 6209   2.135   3.621  11.889  0.6455  0.0314 -0.5928
  416MPD2     H 6210   1.803   3.503  12.035  0.5508 -0.0027  1.7935
  416MPD2    H1 6211   2.151   3.438  11.794 -0.0662 -1.2366  1.0770
  416MPD2    H2 6212   2.105   3.808  11.991  1.2578 -0.6654  1.1304
  416MPD2    H3 6213   2.227   3.646  11.837  1.8374 -0.9227  1.0238
  416MPD2     N 6214   1.915   3.326  11.884 -0.4932 -0.2131  0.2899
  416MPD2    H5 6215   1.825   3.307  11.927  0.2085 -0.8033  1.4947
  416MPD2    N1 6216   1.880   3.766  12.086  0.1871  0.3146 -0.6073
  416MPD2    H7 6217   1.927   3.856  12.078  3.7251 -1.3564  1.4359
  417TMC3    C1 6218   1.681   3.883  12.124 -0.5035 -0.4667 -0.7612
  417TMC3    C2 6219   1.708   3.985  12.216  0.6108  0.5430 -0.2676
  417TMC3    C3 6220   1.607   4.076  12.242 -0.3264  1.5457 -0.1003
  417TMC3    C4 6221   1.564   3.877  12.062  0.1804  0.9563 -0.0100
  417TMC3    C5 6222   1.465   3.964  12.093 -0.4823 -0.2471  0.2094
  417TMC3    C6 6223   1.485   4.063  12.183  0.0493  0.2066  0.1503
  417TMC3     C 6224   1.747   3.754  12.123 -0.0392 -0.3506 -0.0978
  417TMC3     O 6225   1.666   3.660  12.132  0.0135 -0.2505  0.0921
  417TMC3     H 6226   1.797   3.971  12.277  0.5239 -1.2247 -0.5291
  417TMC3    H1 6227   1.548   3.802  11.985  3.6861  1.7683 -1.5708
  417TMC3    H2 6228   1.409   4.140  12.188 -0.5660 -0.2928 -1.4279
  417TMC3    C7 6229   1.387   4.000  11.976 -0.3681 -0.1993 -0.2873
  417TMC3    C8 6230   1.606   4.146  12.369 -0.5757 -0.5458 -0.2357
  417TMC3    O1 6231   1.388   4.115  11.935 -0.2062 -0.3176  0.3997
  417TMC3    O2 6232   1.502   4.159  12.433 -0.1675  0.3159 -0.2659
  418TMC3    C1 6233   0.625   0.391  17.437  0.0344  0.6016 -0.0067
  418TMC3    C2 6234   0.555   0.492  17.374 -0.2469 -0.7449  0.4688
  418TMC3    C3 6235   0.504   0.588  17.445 -0.1004 -0.3401  0.2012
  418TMC3    C4 6236   0.657   0.405  17.567 -0.4154  0.5288 -0.7632
  418TMC3    C5 6237   0.618   0.512  17.634 -0.2483 -0.0236 -0.0735
  418TMC3    C6 6238   0.546   0.613  17.574  0.5621  0.2334 -0.8118
  418TMC3     C 6239   0.714   0.317  17.349 -0.1933 -0.1414  0.2448
  418TMC3     O 6240   0.718   0.355  17.232  0.3536 -0.1065 -0.0225
  418TMC3     H 6241   0.523   0.487  17.270  1.2302  1.3386 -0.0994
  418TMC3    H1 6242   0.716   0.331  17.620 -1.9640 -0.2594 -0.1693
  418TMC3    H2 6243   0.498   0.691  17.633 -0.2773 -0.6479 -0.3384
  418TMC3    C7 6244   0.600   0.483   0.084 -0.4527  0.1287 -0.6721
  418TMC3    C8 6245   0.365   0.578  17.448 -0.1436  1.0007  0.4184
  418TMC3    O1 6246   0.614   0.362   0.113 -0.2860  0.5166 -0.5124
  418TMC3    O2 6247   0.300   0.613  17.345  0.1113 -0.5062 -0.2017
  419MPD2     C 6248   3.897   3.328  12.737  0.9434  0.2960 -0.6503
  419MPD2    C1 6249   3.865   3.463  12.729 -0.7584 -0.0938 -0.0521
  419MPD2    C2 6250   3.858   3.535  12.849 -0.9893 -0.8116  0.2273
  419MPD2    C3 6251   3.875   3.478  12.972 -0.6478  0.5588 -0.2757
  419MPD2    C4 6252   3.897   3.343  12.982 -0.6844 -0.5193 -0.7349
  419MPD2    C5 6253   3.913   3.272  12.864 -0.1192 -0.6201  0.8139
  419MPD2     H 6254   3.819   3.636  12.844  1.1177 -0.0502 -0.7873
  419MPD2    H1 6255   3.915   3.291  13.076  2.3658  1.1714 -0.4014
  419MPD2    H2 6256   3.909   3.269  12.647  0.6196  1.7176 -1.6216
  419MPD2    H3 6257   3.929   3.164  12.865  2.5551 -0.2417 -0.3106
  419MPD2     N 6258   3.853   3.563  13.088  0.5107 -0.3485  0.6345
  419MPD2    H5 6259   3.814   3.654  13.067  0.2238 -1.1218 -2.1962
  419MPD2    N1 6260   3.860   3.530  12.607 -0.2582  0.2387 -0.1763
  419MPD2    H7 6261   3.848   3.630  12.618 -3.6630 -0.4315  1.9746
  420TMC3    C1 6262   3.862   3.623  13.324  0.0111 -0.5233  0.2622
  420TMC3    C2 6263   3.866   3.754  13.296 -0.2411  0.0110  0.0998
  420TMC3    C3 6264   3.857   3.847  13.397 -0.8687  0.5809  0.9428
  420TMC3    C4 6265   3.865   3.577  13.454 -0.2732 -0.2429  0.3397
  420TMC3    C5 6266   3.878   3.676  13.552 -0.1156 -0.4251  0.2038
  420TMC3    C6 6267   3.857   3.807  13.525 -0.1113  0.3705 -0.4842
  420TMC3     C 6268   3.871   3.522  13.221 -0.2451  0.0106 -0.1529
  420TMC3     O 6269   3.909   3.413  13.256 -0.0745  0.1352  0.4565
  420TMC3     H 6270   3.868   3.787  13.193 -2.4960 -0.5497 -0.1298
  420TMC3    H1 6271   3.858   3.473  13.483  0.2726  0.3574  2.6108
  420TMC3    H2 6272   3.815   3.869  13.603  0.6807 -1.3349  1.3182
  420TMC3    C7 6273   3.883   3.631  13.686 -0.7940  0.1998 -0.6790
  420TMC3    C8 6274   3.806   3.975  13.363  1.2537 -0.3169  0.4453
  420TMC3    O1 6275   3.868   3.513  13.709 -0.1342  0.3643  0.8170
  420TMC3    O2 6276   3.747   3.990  13.256  0.7593  0.3511  0.0453
  421TMC3    C1 6277   0.398   1.017  13.949 -0.2403 -0.4072  0.1445
  421TMC3    C2 6278   0.409   1.130  14.023 -0.2952 -0.0571 -0.3499
  421TMC3    C3 6279   0.520   1.142  14.103  0.4050  0.6181 -0.5141
  421TMC3    C4 6280   0.484   0.908  13.961  0.6926  0.0314 -0.1514
  421TMC3    C5 6281   0.590   0.931  14.040  0.1116  0.5261  0.4831
  421TMC3    C6 6282   0.609   1.043  14.109  0.2212  0.0737 -0.3765
  421TMC3     C 6283   0.322   1.020  13.827  0.5059 -0.0227 -0.4956
  421TMC3     O 6284   0.286   1.135  13.789 -0.5080 -0.1920 -0.0824
  421TMC3     H 6285   0.327   1.201  14.024  0.4738  0.8488 -1.2400
  421TMC3    H1 6286   0.480   0.824  13.892  0.8889  0.0406 -0.1739
  421TMC3    H2 6287   0.703   1.066  14.158 -0.3287  2.5512 -0.4691
  421TMC3    C7 6288   0.676   0.824  14.081  0.2377  0.3034  0.7989
  421TMC3    C8 6289   0.509   1.221  14.224 -0.2167 -0.1464  0.2972
  421TMC3    O1 6290   0.773   0.857  14.140  0.5824  0.2600 -0.1629
  421TMC3    O2 6291   0.396   1.237  14.262 -0.6092  0.6033 -0.7690
  422TMC3    C1 6292   2.765   1.873  12.785  0.3243  0.8781 -0.3373
  422TMC3    C2 6293   2.750   2.000  12.827 -0.4954  0.2182 -0.3024
  422TMC3    C3 6294   2.636   2.047  12.896  0.2445 -1.0637 -0.1032
  422TMC3    C4 6295   2.663   1.789  12.797  0.4326  0.1181  0.2625
  422TMC3    C5 6296   2.555   1.833  12.867 -0.3692 -0.4721  0.2816
  422TMC3    C6 6297   2.540   1.957  12.921 -0.3529  0.4591  0.2877
  422TMC3     C 6298   2.871   1.844  12.697 -0.7226 -0.1455  0.7642
  422TMC3     O 6299   2.957   1.928  12.668  0.3318 -0.3453  0.2777
  422TMC3     H 6300   2.819   2.071  12.781  0.9796 -1.9663 -1.4391
  422TMC3    H1 6301   2.656   1.691  12.752 -0.8588  0.9699 -1.3861
  422TMC3    H2 6302   2.440   1.977  12.959 -1.5808 -3.4672 -0.8040
  422TMC3    C7 6303   2.427   1.766  12.859  0.7107 -0.1490  0.4498
  422TMC3    C8 6304   2.610   2.196  12.888 -0.3191 -1.0675  0.2748
  422TMC3    O1 6305   2.371   1.747  12.966 -0.3115 -0.1846 -0.4576
  422TMC3    O2 6306   2.711   2.266  12.868 -0.2413 -0.3469 -0.0597
  423MPD2     C 6307   3.710   3.079   0.463 -0.0506  0.2685  0.3421
  423MPD2    C1 6308   3.732   2.944   0.484  0.3611 -0.3015 -0.4025
  423MPD2    C2 6309   3.739   2.853   0.381 -0.1066 -0.0208  0.2854
  423MPD2    C3 6310   3.747   2.902   0.252  0.4862 -0.1442 -0.5252
  423MPD2    C4 6311   3.738   3.039   0.226  0.1233 -0.2189 -0.1260
  423MPD2    C5 6312   3.716   3.126   0.330  0.1611  0.6077 -0.8661
  423MPD2     H 6313   3.726   2.746   0.397  3.8801 -1.1758 -4.2494
  423MPD2    H1 6314   3.728   3.067   0.122 -0.2793  0.1411  0.0112
  423MPD2    H2 6315   3.678   3.146   0.542  1.0207 -0.3003  1.2426
  423MPD2    H3 6316   3.693   3.231   0.318 -0.7920  0.3909 -0.9699
  423MPD2     N 6317   3.748   2.818   0.136 -0.2343  0.5616 -0.0974
  423MPD2    H5 6318   3.757   2.870   0.050 -1.1707 -0.2673 -0.6929
  423MPD2    N1 6319   3.727   2.888   0.617 -0.4015  0.5135 -0.0143
  423MPD2    H7 6320   3.720   2.787   0.614 -1.4115  0.5347  1.8788
  424TMC3    C1 6321   3.709   2.868   0.845 -0.3760 -0.1192 -0.2592
  424TMC3    C2 6322   3.756   2.734   0.837  0.4042  0.5435 -0.1029
  424TMC3    C3 6323   3.750   2.656   0.952  0.1256  0.1565  0.6639
  424TMC3    C4 6324   3.654   2.915   0.962 -0.4184 -0.1004  0.5579
  424TMC3    C5 6325   3.651   2.829   1.080  0.3247 -0.0549 -0.6242
  424TMC3    C6 6326   3.674   2.693   1.060 -0.5291 -0.0774  0.2279
  424TMC3     C 6327   3.737   2.960   0.733  0.0971  0.0458  0.5748
  424TMC3     O 6328   3.746   3.082   0.752 -0.3516  0.3346 -0.2224
  424TMC3     H 6329   3.814   2.693   0.756  0.3156  0.1992  0.0035
  424TMC3    H1 6330   3.641   3.019   0.989  2.3911  0.8249 -1.6860
  424TMC3    H2 6331   3.643   2.616   1.130  2.1851  0.7350  2.3182
  424TMC3    C7 6332   3.565   2.859   1.191 -0.6883  0.1437  0.6384
  424TMC3    C8 6333   3.798   2.518   0.956 -0.2480 -0.4022 -0.4424
  424TMC3    O1 6334   3.479   2.945   1.173 -0.1722  0.2262 -0.4334
  424TMC3    O2 6335   3.803   2.457   1.064  0.3575 -0.4976  0.7208
  425MPD2     C 6336   2.633   2.060  17.280 -0.0265  0.0368  0.8525
  425MPD2    C1 6337   2.583   1.937  17.310 -0.9325  0.6128 -0.4660
  425MPD2    C2 6338   2.467   1.927  17.384  0.1089 -0.4297  0.1480
  425MPD2    C3 6339   2.402   2.039  17.423 -0.0090  0.2232  0.4440
  425MPD2    C4 6340   2.438   2.157  17.364  0.7196 -0.1920 -0.2256
  425MPD2    C5 6341   2.556   2.173  17.292  0.8707  0.2237  0.0638
  425MPD2     H 6342   2.432   1.828  17.409  2.0613 -1.3017 -0.6057
  425MPD2    H1 6343   2.383   2.249  17.381  0.6415 -0.1297 -0.8216
  425MPD2    H2 6344   2.730   2.070  17.232 -0.2574 -0.9193  0.1845
  425MPD2    H3 6345   2.592   2.270  17.260  0.2979  0.5254  0.3192
  425MPD2     N 6346   2.279   2.032  17.495  0.0110 -0.1043  0.2647
  425MPD2    H5 6347   2.248   1.936  17.501  3.1350 -1.2297 -1.3068
  425MPD2    N1 6348   2.648   1.823  17.255  0.1331  0.3947  0.2467
  425MPD2    H7 6349   2.736   1.833  17.205 -0.7019 -0.6416 -1.4489
  426TMC3    C1 6350   2.693   1.601  17.194 -0.2005 -0.1740 -0.0688
  426TMC3    C2 6351   2.633   1.492  17.140 -0.0021 -0.5596  0.3758
  426TMC3    C3 6352   2.703   1.373  17.145  1.3132  0.6627  0.3029
  426TMC3    C4 6353   2.816   1.603  17.257 -0.8841  0.2476 -0.1353
  426TMC3    C5 6354   2.873   1.475  17.265 -0.2094  0.2100 -0.0538
  426TMC3    C6 6355   2.825   1.364  17.213 -0.9995  0.2736 -0.6133
  426TMC3     C 6356   2.595   1.696  17.247  0.2947  0.0695  0.4016
  426TMC3     O 6357   2.487   1.649  17.272  0.2992  0.5235 -0.1055
  426TMC3     H 6358   2.537   1.510  17.094 -0.1856  0.0924  0.9977
  426TMC3    H1 6359   2.844   1.677  17.331  0.3083 -2.0722  1.6974
  426TMC3    H2 6360   2.879   1.271  17.227 -0.9979  0.2853 -0.5416
  426TMC3    C7 6361   2.988   1.469  17.348 -0.1308 -1.1657  0.4032
  426TMC3    C8 6362   2.683   1.276  17.039  0.2901 -0.1396 -0.8780
  426TMC3    O1 6363   3.076   1.543  17.311  0.9426 -0.0421 -0.0216
  426TMC3    O2 6364   2.777   1.197  17.017  0.5779  0.4199 -0.1276
  427MPD2     C 6365   1.674   4.097  14.940  0.5287 -0.1751 -0.0805
  427MPD2    C1 6366   1.633   4.006  14.846  0.1601  0.3156  0.6976
  427MPD2    C2 6367   1.496   4.006  14.822 -0.5210  0.1860  0.3357
  427MPD2    C3 6368   1.405   4.093  14.882  0.6988  0.1690 -0.1923
  427MPD2    C4 6369   1.458   4.184  14.969  0.0281  0.7030  0.5170
  427MPD2    C5 6370   1.586   4.181  15.002 -0.8410  0.4709  0.3013
  427MPD2     H 6371   1.467   3.934  14.746 -2.1033  1.0560  0.1202
  427MPD2    H1 6372   1.387   4.254  15.011 -1.4977  0.0637 -0.9726
  427MPD2    H2 6373   1.778   4.097  14.971  0.5299  2.5549 -0.0696
  427MPD2    H3 6374   1.629   4.241  15.082 -0.5038  1.1532 -0.3899
  427MPD2     N 6375   1.266   4.092  14.864 -0.0967  0.1863  0.4052
  427MPD2    H5 6376   1.207   4.164  14.904 -0.7893  0.7964 -1.7691
  427MPD2    N1 6377   1.727   3.928  14.777  0.0385 -0.6020  1.1259
  427MPD2    H7 6378   1.825   3.932  14.803  0.3527  1.0922 -0.3737
  428TMC3    C1 6379   1.818   3.783  14.624  0.2689 -0.3881  0.2526
  428TMC3    C2 6380   1.829   3.643  14.638 -0.6655  0.3564  0.0931
  428TMC3    C3 6381   1.949   3.585  14.611  0.6538 -0.1628 -0.2113
  428TMC3    C4 6382   1.934   3.855  14.604 -0.0523  0.0072  0.1258
  428TMC3    C5 6383   2.056   3.796  14.588  0.5367 -0.1679  0.7013
  428TMC3    C6 6384   2.064   3.657  14.592  0.8034  0.5412  0.1220
  428TMC3     C 6385   1.699   3.846  14.670  0.7066 -0.2959  0.3848
  428TMC3     O 6386   1.591   3.795  14.632 -0.6316 -0.5329  0.5922
  428TMC3     H 6387   1.738   3.592  14.667 -0.0348 -0.5618  0.4634
  428TMC3    H1 6388   1.928   3.961  14.579  1.8024  0.3199  1.0199
  428TMC3    H2 6389   2.160   3.614  14.566  1.4958  0.8883  2.1453
  428TMC3    C7 6390   2.187   3.856  14.604  0.1050 -0.1708 -0.9064
  428TMC3    C8 6391   1.960   3.457  14.670 -0.4037 -0.0165 -0.1524
  428TMC3    O1 6392   2.277   3.790  14.653  0.2638  0.3355  0.0283
  428TMC3    O2 6393   2.048   3.389  14.620 -0.0118 -0.2547 -0.4201
  429MPD2     C 6394   2.689   3.828   0.422 -0.7220 -0.2282 -0.6986
  429MPD2    C1 6395   2.663   3.752   0.311  0.2898 -0.6381  0.5778
  429MPD2    C2 6396   2.658   3.813   0.188 -0.1251 -0.0066  0.3612
  429MPD2    C3 6397   2.694   3.947   0.169  0.4008  0.7626 -0.8206
  429MPD2    C4 6398   2.730   4.023   0.284  0.3242 -0.7445  0.0529
  429MPD2    C5 6399   2.729   3.961   0.405 -0.2671 -1.0826  0.1357
  429MPD2     H 6400   2.640   3.766   0.093 -0.6041  0.7709  0.0667
  429MPD2    H1 6401   2.765   4.126   0.286  0.6239 -0.8746  1.3856
  429MPD2    H2 6402   2.676   3.791   0.523 -1.1861  0.7762 -0.3837
  429MPD2    H3 6403   2.754   4.022   0.491  2.8709 -0.6690 -1.0782
  429MPD2     N 6404   2.683   4.000   0.038 -0.1556 -0.1932  0.3331
  429MPD2    H5 6405   2.644   3.938  17.658  1.7079 -1.4492  0.3840
  429MPD2    N1 6406   2.627   3.615   0.324  0.0353  0.3763 -0.4525
  429MPD2    H7 6407   2.590   3.574   0.239  1.0899 -1.0392 -0.2358
  430TMC3    C1 6408   2.712   4.151  17.549 -0.6255  0.0684  0.7567
  430TMC3    C2 6409   2.705   4.275  17.513 -0.0585 -0.0083  0.7846
  430TMC3    C3 6410   2.743   4.303  17.380 -0.2587  0.3379  0.0846
  430TMC3    C4 6411   2.757   4.045  17.474 -0.7147 -0.5144  0.1775
  430TMC3    C5 6412   2.785   4.078  17.341 -0.0441 -0.3673 -0.4803
  430TMC3    C6 6413   2.779   4.208  17.290 -0.0485 -0.4917 -0.6171
  430TMC3     C 6414   2.706   4.132   0.006 -0.4368  0.2870  0.3035
  430TMC3     O 6415   2.722   4.227   0.082  0.0692 -0.0798  0.3190
  430TMC3     H 6416   2.672   4.358  17.575  0.9596  1.1642 -0.2369
  430TMC3    H1 6417   2.771   3.947  17.518  3.7215 -0.1234 -0.3896
  430TMC3    H2 6418   2.799   4.222  17.184 -0.6091 -0.4916 -0.7240
  430TMC3    C7 6419   2.838   3.971  17.264 -0.3334 -0.4118 -0.0240
  430TMC3    C8 6420   2.737   4.435  17.327  0.5085  0.7888 -0.4011
  430TMC3    O1 6421   2.848   3.865  17.324 -0.1040 -0.2717 -0.8736
  430TMC3    O2 6422   2.767   4.533  17.396 -1.1353  0.3417 -0.1700
  431MPD2     C 6423   3.518   4.227  12.685  0.1162 -0.5872 -0.0813
  431MPD2    C1 6424   3.621   4.241  12.596  0.3822 -0.2156  0.1770
  431MPD2    C2 6425   3.646   4.134  12.509 -0.2533  0.0067 -0.1302
  431MPD2    C3 6426   3.570   4.015  12.514  0.3609  0.2997 -0.0828
  431MPD2    C4 6427   3.475   4.011  12.608 -0.4506  0.1328  0.1413
  431MPD2    C5 6428   3.443   4.110  12.689 -0.1232 -0.2941 -0.3801
  431MPD2     H 6429   3.725   4.161  12.440  0.9134  1.9274  1.9514
  431MPD2    H1 6430   3.412   3.923  12.610 -0.7568  0.3144 -1.5218
  431MPD2    H2 6431   3.485   4.308  12.749  0.7231  1.0766 -1.8831
  431MPD2    H3 6432   3.353   4.112  12.749  0.1182  0.7670 -0.0561
  431MPD2     N 6433   3.594   3.901  12.430 -0.0596 -1.2359  0.7891
  431MPD2    H5 6434   3.532   3.822  12.443  1.0785 -1.9324  1.8276
  431MPD2    N1 6435   3.708   4.354  12.595 -0.3769  0.8964 -0.4616
  431MPD2    H7 6436   3.771   4.367  12.516 -1.7746 -1.1765 -1.9191
  432TMC3    C1 6437   3.749   3.767  12.303  0.0427  0.2145 -0.7898
  432TMC3    C2 6438   3.825   3.754  12.189  0.7762 -0.1572 -0.3711
  432TMC3    C3 6439   3.907   3.645  12.164 -0.0393  0.7036 -0.5390
  432TMC3    C4 6440   3.754   3.667  12.397  0.5929 -0.0974  0.0399
  432TMC3    C5 6441   3.841   3.562  12.376  1.0700  0.5213 -0.0781
  432TMC3    C6 6442   3.921   3.549  12.259 -0.0502 -0.5108 -0.8152
  432TMC3     C 6443   3.693   3.896  12.333  0.0089  1.1583  0.6935
  432TMC3     O 6444   3.751   3.983  12.271 -0.3029  0.0202  0.2401
  432TMC3     H 6445   3.840   3.843  12.128  0.9068  0.7975  1.0293
  432TMC3    H1 6446   3.695   3.674  12.487  2.2417 -0.7999  1.1802
  432TMC3    H2 6447   4.009   3.486  12.270  1.2215  1.3806 -0.0106
  432TMC3    C7 6448   3.874   3.473  12.481  1.0503 -0.1548 -0.3549
  432TMC3    C8 6449   4.036   3.694  12.121  0.5293  0.3445  0.1673
  432TMC3    O1 6450   3.900   3.360  12.447 -0.2928  0.1755  0.2546
  432TMC3    O2 6451   4.045   3.707  12.004 -0.5449  0.0088 -0.5295
  433MPD2     C 6452   2.778   2.931  11.036 -0.6451  0.7471  0.4857
  433MPD2    C1 6453   2.753   2.827  11.120 -0.7929  0.6919  0.6020
  433MPD2    C2 6454   2.746   2.848  11.259  0.2280  0.4131 -0.0524
  433MPD2    C3 6455   2.765   2.975  11.314  0.4662  0.2816  0.0823
  433MPD2    C4 6456   2.785   3.078  11.225 -0.1384 -0.0667 -0.2055
  433MPD2    C5 6457   2.791   3.054  11.089 -0.1382  0.0408 -0.5473
  433MPD2     H 6458   2.711   2.767  11.323 -2.7855  1.1251 -0.8238
  433MPD2    H1 6459   2.785   3.183  11.252 -0.9856 -0.2439  0.4692
  433MPD2    H2 6460   2.780   2.914  10.928 -0.1864  2.9961  0.1415
  433MPD2    H3 6461   2.789   3.140  11.024 -1.2036 -0.6051 -1.3694
  433MPD2     N 6462   2.775   2.985  11.454 -0.2743  0.2971  0.1612
  433MPD2    H5 6463   2.762   2.903  11.512  0.7636 -0.4135 -0.6216
  433MPD2    N1 6464   2.733   2.702  11.050  0.4009  0.3508  0.0455
  433MPD2    H7 6465   2.733   2.711  10.949  1.8731  0.2776  0.0407
  434TMC3    C1 6466   2.719   2.456  11.036 -0.6668 -0.6103 -0.2381
  434TMC3    C2 6467   2.733   2.342  11.115  0.3776  0.3763  0.2716
  434TMC3    C3 6468   2.735   2.220  11.060  0.0470 -0.5565 -0.2354
  434TMC3    C4 6469   2.719   2.447  10.900  0.0335  1.0993 -0.4194
  434TMC3    C5 6470   2.728   2.320  10.849  0.6213  0.0285 -1.2932
  434TMC3    C6 6471   2.742   2.205  10.926 -0.2834 -0.8448  0.0254
  434TMC3     C 6472   2.706   2.581  11.114 -0.2296  0.3632  0.0218
  434TMC3     O 6473   2.703   2.565  11.234  0.2293  0.0192 -0.0269
  434TMC3     H 6474   2.708   2.353  11.220 -3.9602 -1.0229 -0.6117
  434TMC3    H1 6475   2.702   2.534  10.837 -0.9948  1.9736  1.0511
  434TMC3    H2 6476   2.769   2.106  10.892  1.4917 -0.1816 -0.5185
  434TMC3    C7 6477   2.702   2.311  10.708 -0.0224 -0.3607  0.2957
  434TMC3    C8 6478   2.776   2.125  11.151 -1.1805 -0.4272  0.1130
  434TMC3    O1 6479   2.721   2.413  10.642 -0.5044  0.4909  0.0235
  434TMC3    O2 6480   2.850   2.168  11.239 -0.0715  0.2151  0.2235
  435MPD2     C 6481   4.471   2.826  15.484  0.3696  0.4855  0.1208
  435MPD2    C1 6482   4.421   2.822  15.613 -0.0537  0.2270 -0.0550
  435MPD2    C2 6483   4.483   2.740  15.703  0.4771 -0.4685 -0.3634
  435MPD2    C3 6484   4.579   2.648  15.662  0.0076 -0.0890  0.0440
  435MPD2    C4 6485   4.627   2.657  15.532 -0.6100  0.3534  0.5489
  435MPD2    C5 6486   4.578   2.752  15.450  0.0219  0.0929  0.3083
  435MPD2     H 6487   4.446   2.742  15.804  0.6585 -1.0420 -0.2832
  435MPD2    H1 6488   4.701   2.586  15.497  0.2443  1.1465  0.7597
  435MPD2    H2 6489   4.436   2.893  15.407  0.2102 -0.3984 -0.5759
  435MPD2    H3 6490   4.619   2.765  15.350  2.0609  1.8901  1.3678
  435MPD2     N 6491   4.620   2.553  15.759  0.0981 -0.0312  0.0044
  435MPD2    H5 6492   4.598   2.574  15.856 -1.1260  1.2785 -0.5439
  435MPD2    N1 6493   4.304   2.886  15.657  0.4049 -0.6646 -0.4884
  435MPD2    H7 6494   4.275   2.847  15.746  1.8734 -0.8401 -0.0910
  436TMC3    C1 6495   4.000   3.215  15.789 -0.1180 -0.4847 -0.4174
  436TMC3    C2 6496   4.098   3.163  15.699 -0.0080  0.0802  0.8175
  436TMC3    C3 6497   4.131   3.034  15.688 -0.0556  0.4432 -0.9201
  436TMC3    C4 6498   3.921   3.128  15.854 -1.2749  0.0736 -1.2262
  436TMC3    C5 6499   3.955   2.992  15.842  0.1214 -0.0703 -0.2211
  436TMC3    C6 6500   4.058   2.943  15.757 -0.8269  1.0279  0.5210
  436TMC3     C 6501   3.993   3.357  15.814  0.0019 -0.3108  0.0934
  436TMC3     O 6502   4.085   3.426  15.770  0.3877 -0.1223  0.0804
  436TMC3     H 6503   4.161   3.238  15.653 -1.4352  0.6106 -0.2597
  436TMC3    H1 6504   3.833   3.155  15.911  0.6314  1.8512  0.8923
  436TMC3    H2 6505   4.076   2.836  15.746  1.6606  1.5979 -0.8815
  436TMC3    C7 6506   3.868   2.903  15.922  0.0310  0.6709 -0.6789
  436TMC3    C8 6507   4.241   2.989  15.600  0.5301  0.0001  0.8255
  436TMC3    O1 6508   3.816   2.941  16.022  0.8194  0.2359  0.0511
  436TMC3    O2 6509   4.286   3.066  15.517 -0.1172  0.7195  0.4344
  437TMC3    C1 6510   2.980   0.202  12.923 -0.6556 -0.1774  0.2825
  437TMC3    C2 6511   2.854   0.242  12.893 -0.1957  0.3141  0.3379
  437TMC3    C3 6512   2.835   0.352  12.817 -0.2154 -0.0820  0.9239
  437TMC3    C4 6513   3.096   0.259  12.878  0.3560  0.5113  0.2568
  437TMC3    C5 6514   3.074   0.364  12.793  0.4388 -0.2984 -0.1579
  437TMC3    C6 6515   2.945   0.413  12.761 -0.0938  0.5379  0.3263
  437TMC3     C 6516   2.988   0.096  13.023 -0.3320  0.0116 -0.9242
  437TMC3     O 6517   2.896   0.016  13.020  0.7733  0.5063  0.4049
  437TMC3     H 6518   2.767   0.185  12.927  0.2825 -0.0896  0.8898
  437TMC3    H1 6519   3.194   0.218  12.900  1.0252  1.9685  0.0254
  437TMC3    H2 6520   2.936   0.488  12.683  0.9177  0.6792  0.3359
  437TMC3    C7 6521   3.183   0.403  12.710 -0.3658  0.5198 -0.3824
  437TMC3    C8 6522   2.698   0.383  12.772 -0.6682  0.3446  0.0314
  437TMC3    O1 6523   3.167   0.422  12.594 -0.2153  0.3732  0.3886
  437TMC3    O2 6524   2.609   0.317  12.827  0.2559 -0.6099  0.1517
  438MPD2     C 6525   0.336   0.820  16.724  0.5646 -0.3680  0.1886
  438MPD2    C1 6526   0.421   0.722  16.782 -0.1333  0.2755  0.6489
  438MPD2    C2 6527   0.367   0.640  16.881 -0.6494  0.2129 -0.3556
  438MPD2    C3 6528   0.234   0.642  16.913 -0.5195  0.1432 -0.4850
  438MPD2    C4 6529   0.147   0.730  16.844 -0.2619  0.5561 -0.0317
  438MPD2    C5 6530   0.210   0.827  16.771  0.1648 -0.4480  0.8682
  438MPD2     H 6531   0.437   0.574  16.930 -0.4496 -0.2594 -1.2728
  438MPD2    H1 6532   0.043   0.732  16.873 -0.1217 -0.8947  0.5506
  438MPD2    H2 6533   0.368   0.898  16.657  1.1860  0.2323  1.1940
  438MPD2    H3 6534   0.137   0.890  16.722 -1.9016 -1.5521  2.5425
  438MPD2     N 6535   0.181   0.548  17.004  0.3786 -0.2173  0.4254
  438MPD2    H5 6536   0.083   0.552  17.031 -0.0036  2.1346 -1.2215
  438MPD2    N1 6537   0.553   0.705  16.751  0.1564 -0.0251  0.1374
  438MPD2    H7 6538   0.605   0.629  16.792  0.4904  0.8151  1.2770
  439TMC3    C1 6539   0.770   0.760  16.688 -0.0126 -0.4586  0.5947
  439TMC3    C2 6540   0.852   0.732  16.583  0.2175  0.7409 -0.2361
  439TMC3    C3 6541   0.982   0.696  16.611  0.4689  0.2868 -0.1469
  439TMC3    C4 6542   0.819   0.756  16.816  0.3157 -0.2051 -0.0098
  439TMC3    C5 6543   0.953   0.732  16.837 -0.2971  0.0692 -0.1644
  439TMC3    C6 6544   1.041   0.702  16.737  0.0790 -0.2879  0.2381
  439TMC3     C 6545   0.627   0.786  16.667 -0.0308 -0.1038 -0.1600
  439TMC3     O 6546   0.590   0.861  16.580 -0.1673 -0.4711 -0.4420
  439TMC3     H 6547   0.825   0.737  16.478  1.0514 -1.6356 -0.5650
  439TMC3    H1 6548   0.747   0.757  16.897 -0.4388 -0.7208 -0.6778
  439TMC3    H2 6549   1.148   0.692  16.746  0.2593  0.9002 -0.5685
  439TMC3    C7 6550   0.995   0.671  16.965 -0.2825  0.3906  0.2318
  439TMC3    C8 6551   1.056   0.609  16.511 -0.2197  0.2372  0.4500
  439TMC3    O1 6552   1.102   0.608  16.968  0.0936 -0.4258  0.4638
  439TMC3    O2 6553   1.175   0.589  16.538 -0.0166 -0.6743 -0.2085
  440MPD2     C 6554   4.270   0.921  14.694 -0.6775 -0.3970 -1.0317
  440MPD2    C1 6555   4.296   1.033  14.770 -0.3365  0.3472 -0.0642
  440MPD2    C2 6556   4.420   1.059  14.822 -0.3741  0.3387 -0.2051
  440MPD2    C3 6557   4.524   0.961  14.817  0.0250  0.3448  0.5434
  440MPD2    C4 6558   4.493   0.842  14.745  0.1041  0.1269  0.4010
  440MPD2    C5 6559   4.373   0.832  14.677 -0.5156 -0.4651  1.2071
  440MPD2     H 6560   4.434   1.151  14.877 -0.7122  0.9901 -1.2090
  440MPD2    H1 6561   4.565   0.764  14.720 -1.0017 -0.6527 -0.3747
  440MPD2    H2 6562   4.176   0.912  14.641 -1.2078 -1.3796  0.0949
  440MPD2    H3 6563   4.368   0.741  14.619 -0.4460  0.0864  0.3294
  440MPD2     N 6564   4.657   0.978  14.864  0.4211  0.3040  0.9245
  440MPD2    H5 6565   4.722   0.900  14.864  1.4783  1.2002 -0.1357
  440MPD2    N1 6566   4.204   1.141  14.786  0.6445  0.0092  0.1444
  440MPD2    H7 6567   4.232   1.215  14.850  2.7410 -0.1044 -0.6579
  441TMC3    C1 6568   0.128   1.093  14.961 -0.5114  0.2934  0.3375
  441TMC3    C2 6569   0.169   1.210  15.022 -0.0328  0.1914  0.6163
  441TMC3    C3 6570   0.265   1.204  15.116  0.1232  0.8268  0.1017
  441TMC3    C4 6571   0.193   0.971  14.986  0.5341 -0.1069 -0.8016
  441TMC3    C5 6572   0.289   0.969  15.076  0.1135  0.6139 -0.1678
  441TMC3    C6 6573   0.327   1.083  15.141  0.2796  0.5719 -0.8162
  441TMC3     C 6574   4.706   1.096  14.923  0.5635 -0.0633  0.1312
  441TMC3     O 6575   4.651   1.199  14.953  0.4769  0.1672  0.8424
  441TMC3     H 6576   0.132   1.301  14.977 -0.9825  0.5854  2.2241
  441TMC3    H1 6577   0.165   0.874  14.947  0.6447  0.3983 -2.1416
  441TMC3    H2 6578   0.394   1.072  15.226  0.3675  1.5409 -0.7540
  441TMC3    C7 6579   0.308   0.847  15.147  0.5421 -0.1583 -0.3225
  441TMC3    C8 6580   0.250   1.302  15.221 -0.0180 -0.0060 -0.1092
  441TMC3    O1 6581   0.393   0.766  15.108 -0.3739  0.1142 -0.0740
  441TMC3    O2 6582   0.327   1.313  15.315  0.5701  0.2623  0.2168
  442MPD2     C 6583   2.191   1.925  16.635  0.2608  0.1997 -0.0817
  442MPD2    C1 6584   2.160   1.812  16.711  0.3960 -0.0405  0.0379
  442MPD2    C2 6585   2.208   1.690  16.662 -0.6394 -0.4521  0.5110
  442MPD2    C3 6586   2.291   1.681  16.550 -0.9114 -1.4075  0.1820
  442MPD2    C4 6587   2.335   1.800  16.492 -0.2263 -0.0354  0.7095
  442MPD2    C5 6588   2.281   1.921  16.531 -0.7639  0.7134  0.1628
  442MPD2     H 6589   2.179   1.598  16.711  1.1719 -0.5246  1.4078
  442MPD2    H1 6590   2.394   1.794  16.402 -2.6336  1.4556 -0.9597
  442MPD2    H2 6591   2.146   2.020  16.662 -1.4429 -1.0499  1.4407
  442MPD2    H3 6592   2.306   2.007  16.471  0.2535  1.0818  1.1341
  442MPD2     N 6593   2.331   1.555  16.506 -0.2094  0.4715  0.2071
  442MPD2    H5 6594   2.400   1.549  16.432 -0.0149 -0.7138  0.4822
  442MPD2    N1 6595   2.062   1.812  16.818 -0.2696  0.2539 -0.4149
  442MPD2    H7 6596   2.054   1.725  16.868 -1.3182  0.0127 -0.9951
  443TMC3    C1 6597   1.916   1.895  16.983  0.6055 -0.1605 -0.1975
  443TMC3    C2 6598   1.812   1.981  17.002 -0.9438  0.2253 -0.6396
  443TMC3    C3 6599   1.690   1.936  17.053  0.3682 -0.3144  0.4688
  443TMC3    C4 6600   1.896   1.767  17.035  0.0771 -0.3067 -0.2252
  443TMC3    C5 6601   1.782   1.731  17.099 -0.7277  0.1530 -1.0227
  443TMC3    C6 6602   1.673   1.810  17.111 -0.2100  0.0871 -0.2862
  443TMC3     C 6603   1.993   1.920  16.866  0.1991  0.1413 -0.2193
  443TMC3     O 6604   1.997   2.041  16.841  0.1390 -0.1432 -0.7680
  443TMC3     H 6605   1.817   2.084  16.969 -0.8561  0.8663  1.3895
  443TMC3    H1 6606   1.971   1.691  17.015  0.6649  0.1831  0.1084
  443TMC3    H2 6607   1.572   1.777  17.134 -0.3487  0.8075  0.1297
  443TMC3    C7 6608   1.792   1.627  17.197  0.0961  0.3154  0.6215
  443TMC3    C8 6609   1.586   2.032  17.069 -0.0282  1.0862 -0.2997
  443TMC3    O1 6610   1.891   1.555  17.182  0.1725  0.9387  0.4123
  443TMC3    O2 6611   1.516   2.011  17.166  0.3922 -0.0609 -0.2409
  444MPD2     C 6612   2.250   1.056  17.266  0.1427  0.0865 -0.3932
  444MPD2    C1 6613   2.324   0.970  17.342 -0.2160  0.2433 -0.1000
  444MPD2    C2 6614   2.404   0.870  17.286 -0.0687  0.1641  0.2194
  444MPD2    C3 6615   2.406   0.863  17.147  0.2431 -0.4065 -0.6553
  444MPD2    C4 6616   2.319   0.935  17.070 -0.1816  1.0384  0.2653
  444MPD2    C5 6617   2.242   1.029  17.133  0.1533  0.6371 -0.5372
  444MPD2     H 6618   2.460   0.802  17.348 -0.5860 -1.8085 -1.4618
  444MPD2    H1 6619   2.319   0.949  16.963  1.5764 -0.2570  0.1005
  444MPD2    H2 6620   2.178   1.128  17.303 -0.0982 -0.2763 -0.1448
  444MPD2    H3 6621   2.180   1.090  17.069  0.1844  0.5997 -0.6023
  444MPD2     N 6622   2.493   0.778  17.083  0.3158 -0.8280 -0.0253
  444MPD2    H5 6623   2.484   0.761  16.984  3.4019  1.2812 -0.6573
  444MPD2    N1 6624   2.325   0.977  17.487 -0.3281 -0.7705 -0.8383
  444MPD2    H7 6625   2.361   0.895  17.534 -0.5006  0.2806  1.1329
  445TMC3    C1 6626   2.683   0.636  17.054  0.4018 -0.5050 -0.0728
  445TMC3    C2 6627   2.611   0.555  16.971 -0.0226 -0.1349 -0.8350
  445TMC3    C3 6628   2.676   0.445  16.925 -0.4885 -0.3608  0.1321
  445TMC3    C4 6629   2.815   0.616  17.078 -0.0480  0.1868 -0.1021
  445TMC3    C5 6630   2.881   0.511  17.017  0.5137 -0.0724  0.3736
  445TMC3    C6 6631   2.814   0.425  16.940  0.4078 -0.9320  0.0375
  445TMC3     C 6632   2.608   0.725  17.139 -0.6715  0.0450 -0.0718
  445TMC3     O 6633   2.663   0.770  17.240  0.4569  0.4087  0.1051
  445TMC3     H 6634   2.510   0.579  16.938 -0.4932  0.5754  1.1447
  445TMC3    H1 6635   2.869   0.689  17.138 -0.1213 -0.4916  0.7853
  445TMC3    H2 6636   2.875   0.346  16.896  2.1511 -0.2579  1.2380
  445TMC3    C7 6637   3.019   0.533  16.981 -0.1014 -0.3511  0.1122
  445TMC3    C8 6638   2.628   0.373  16.816 -0.4340  0.0528 -0.0305
  445TMC3    O1 6639   3.058   0.478  16.878 -0.2203 -0.1342 -0.1854
  445TMC3    O2 6640   2.711   0.293  16.779  0.4839 -0.0241 -0.2612
  446MPD2     C 6641   2.556   2.230  11.704 -0.3903 -0.5332 -0.5449
  446MPD2    C1 6642   2.558   2.216  11.564 -0.3960 -0.1494 -0.0902
  446MPD2    C2 6643   2.651   2.279  11.492 -0.1305  0.3064 -0.0223
  446MPD2    C3 6644   2.746   2.358  11.557 -0.7581  0.7442  0.1259
  446MPD2    C4 6645   2.739   2.383  11.691 -0.0001 -0.3409 -0.2037
  446MPD2    C5 6646   2.644   2.316  11.765 -0.7681 -0.0762 -0.1482
  446MPD2     H 6647   2.672   2.246  11.391 -1.1245 -0.3006 -0.0219
  446MPD2    H1 6648   2.798   2.460  11.739  1.7668 -2.0519  0.3426
  446MPD2    H2 6649   2.485   2.186  11.773  2.2784 -0.5959  2.1532
  446MPD2    H3 6650   2.638   2.322  11.873  0.2101  2.9411 -0.2722
  446MPD2     N 6651   2.836   2.415  11.464 -0.7834 -0.0482 -0.2621
  446MPD2    H5 6652   2.824   2.412  11.363  1.0350 -1.2379 -0.4529
  446MPD2    N1 6653   2.488   2.120  11.502  0.1616 -0.3945 -0.2117
  446MPD2    H7 6654   2.502   2.116  11.401 -2.3374  0.9662 -0.6121
  447TMC3    C1 6655   2.994   2.557  11.376 -0.3149  0.1260 -0.4692
  447TMC3    C2 6656   3.017   2.480  11.266  0.3008 -0.4159 -0.8403
  447TMC3    C3 6657   3.069   2.543  11.156 -0.1699 -0.8194  0.8934
  447TMC3    C4 6658   3.024   2.693  11.376 -0.7858  0.1797 -0.4645
  447TMC3    C5 6659   3.066   2.747  11.262 -0.1151 -0.6496 -0.1395
  447TMC3    C6 6660   3.092   2.675  11.142  0.1618  0.8008 -0.7485
  447TMC3     C 6661   2.940   2.500  11.495 -0.3139 -0.2846 -0.5442
  447TMC3     O 6662   2.994   2.520  11.605 -0.0980 -0.0750  0.4614
  447TMC3     H 6663   2.984   2.376  11.266  2.5219 -1.0987  1.2056
  447TMC3    H1 6664   3.004   2.755  11.462  1.4058 -0.6720  0.6769
  447TMC3    H2 6665   3.153   2.723  11.066  0.7235  1.2108 -0.0449
  447TMC3    C7 6666   3.142   2.870  11.281  0.1053 -0.2851 -0.0275
  447TMC3    C8 6667   3.077   2.478  11.025  0.1625  0.0544 -0.0174
  447TMC3    O1 6668   3.078   2.966  11.319 -0.0798  0.1961 -0.2381
  447TMC3    O2 6669   3.061   2.552  10.926 -0.2787 -0.2531 -0.1305
  448TMC3    C1 6670   1.098   2.166  17.292  0.0556  0.3344 -0.1419
  448TMC3    C2 6671   0.977   2.096  17.294 -0.2291 -0.5236  0.0050
  448TMC3    C3 6672   0.963   1.990  17.379 -0.3564  0.5967 -0.0375
  448TMC3    C4 6673   1.199   2.130  17.378 -0.7058  0.1243  0.0135
  448TMC3    C5 6674   1.179   2.019  17.465 -0.3317 -0.8139 -0.4249
  448TMC3    C6 6675   1.060   1.951  17.465 -0.3729 -0.0296  0.2176
  448TMC3     C 6676   1.110   2.298  17.233  1.1014  0.9843 -0.6211
  448TMC3     O 6677   1.203   2.371  17.273  0.1644  0.0606 -0.5339
  448TMC3     H 6678   0.895   2.135  17.235 -1.5969 -2.4990  0.6058
  448TMC3    H1 6679   1.294   2.183  17.383  0.7001 -2.4616  0.3748
  448TMC3    H2 6680   1.045   1.867  17.532  1.0511  0.6320  1.3593
  448TMC3    C7 6681   1.274   2.003  17.568  0.0959  0.1289  0.2266
  448TMC3    C8 6682   0.862   1.883  17.355  0.3041  0.2019 -0.0217
  448TMC3    O1 6683   1.387   2.028  17.530  0.0764 -0.5534 -0.2239
  448TMC3    O2 6684   0.879   1.781  17.418  0.0159 -0.3418 -0.2685
  449MPD2     C 6685   2.379   1.190  13.787 -0.1394 -0.9764  0.1012
  449MPD2    C1 6686   2.287   1.093  13.765  0.9178  0.7201  0.0369
  449MPD2    C2 6687   2.293   0.983  13.843 -0.3520 -0.2867 -1.0009
  449MPD2    C3 6688   2.390   0.966  13.941 -0.0199  0.1396 -0.3858
  449MPD2    C4 6689   2.476   1.070  13.965 -0.4537 -0.8853 -0.1326
  449MPD2    C5 6690   2.470   1.181  13.890 -0.1948 -0.8206  0.1217
  449MPD2     H 6691   2.221   0.906  13.818 -1.5134 -0.2480  2.2797
  449MPD2    H1 6692   2.550   1.064  14.045 -0.7271 -0.6032  0.1393
  449MPD2    H2 6693   2.383   1.272  13.716  0.7116  0.7418  2.1159
  449MPD2    H3 6694   2.537   1.265  13.902 -0.1381 -1.1137  1.8948
  449MPD2     N 6695   2.385   0.850  14.018 -0.6300  0.4486 -0.0810
  449MPD2    H5 6696   2.329   0.773  13.983  0.0645  0.9325 -2.3022
  449MPD2    N1 6697   2.197   1.088  13.654 -0.1313  0.4473 -0.1303
  449MPD2    H7 6698   2.138   1.006  13.653  1.3847 -0.7036  2.8323
  450TMC3    C1 6699   2.074   1.138  13.470 -0.7370  0.0966  0.3576
  450TMC3    C2 6700   2.112   1.100  13.344 -0.0928  0.1844  0.1657
  450TMC3    C3 6701   2.061   0.990  13.293 -0.2087 -0.1816 -0.1221
  450TMC3    C4 6702   1.982   1.066  13.542  0.1246  0.6706 -0.0822
  450TMC3    C5 6703   1.942   0.944  13.494 -0.1435  1.0441  0.1066
  450TMC3    C6 6704   1.981   0.905  13.368 -0.6964 -0.4779  0.1240
  450TMC3     C 6705   2.187   1.181  13.549 -0.0028 -0.5373  0.1823
  450TMC3     O 6706   2.250   1.278  13.517  0.2216  0.0057  0.4402
  450TMC3     H 6707   2.200   1.147  13.301  1.0374 -1.0092  1.1762
  450TMC3    H1 6708   1.958   1.097  13.643 -0.8196 -0.1080 -0.0691
  450TMC3    H2 6709   1.969   0.802  13.336  0.4939 -0.8519  0.8686
  450TMC3    C7 6710   1.929   0.845  13.603 -0.3447  0.9558 -0.0186
  450TMC3    C8 6711   2.139   0.923  13.192 -0.0591  0.3195 -0.1787
  450TMC3    O1 6712   1.930   0.890  13.711 -0.2796 -0.2346 -0.3173
  450TMC3    O2 6713   2.178   0.812  13.219  0.1961 -0.5521  0.5319
  451MPD2     C 6714   3.340   3.957   1.962 -0.0352  0.4766 -0.2633
  451MPD2    C1 6715   3.363   3.979   1.824 -0.2619  0.0146  0.2674
  451MPD2    C2 6716   3.491   4.003   1.780 -0.4650  0.8145  0.3401
  451MPD2    C3 6717   3.596   4.000   1.867 -0.7935 -0.4340 -0.2041
  451MPD2    C4 6718   3.583   3.960   2.001  0.2638 -0.4397  0.0382
  451MPD2    C5 6719   3.452   3.955   2.048  1.0422  0.0526 -0.1951
  451MPD2     H 6720   3.519   4.007   1.676 -0.8094 -0.5082  0.1964
  451MPD2    H1 6721   3.666   3.967   2.070 -0.1029  3.2200  0.1123
  451MPD2    H2 6722   3.248   3.934   2.015  1.9353 -1.6652  2.2493
  451MPD2    H3 6723   3.427   3.947   2.153  2.9630  1.8841  0.4081
  451MPD2     N 6724   3.730   3.998   1.818 -0.1951  0.2714 -0.0116
  451MPD2    H5 6725   3.800   3.982   1.890 -0.3456  1.2804  0.3570
  451MPD2    N1 6726   3.241   3.992   1.746 -0.0116  0.4363  0.6860
  451MPD2    H7 6727   3.156   3.970   1.797  1.1017  0.4530  2.5373
  452TMC3    C1 6728   3.913   4.050   1.677 -0.7846  0.7032 -0.1981
  452TMC3    C2 6729   3.990   3.968   1.759 -0.1470 -0.1033 -0.1170
  452TMC3    C3 6730   4.125   3.968   1.735  0.0832 -0.0717  0.1792
  452TMC3    C4 6731   3.967   4.140   1.590 -0.1173  0.4640 -0.1614
  452TMC3    C5 6732   4.099   4.123   1.553  0.4279  0.5988 -0.0300
  452TMC3    C6 6733   4.183   4.043   1.631  0.1199  0.2488 -0.3307
  452TMC3     C 6734   3.771   4.063   1.703 -0.3376  0.1911  0.2926
  452TMC3     O 6735   3.695   4.103   1.609  0.4248  0.5876 -0.8444
  452TMC3     H 6736   3.943   3.878   1.798 -0.8495 -0.7042 -2.3324
  452TMC3    H1 6737   3.898   4.194   1.526 -0.7524 -1.1676 -0.8473
  452TMC3    H2 6738   4.291   4.050   1.639  0.1652 -0.3434 -0.4578
  452TMC3    C7 6739   4.141   4.151   1.417  0.3193  0.1438 -0.3773
  452TMC3    C8 6740   4.214   3.863   1.778 -0.1384  0.7156 -0.4956
  452TMC3    O1 6741   4.061   4.195   1.329 -0.1357  0.1129 -0.6501
  452TMC3    O2 6742   4.324   3.855   1.726 -0.3015  0.0680  0.2865
  453TMC3    C1 6743   4.700   1.441  12.246 -0.4547 -0.0491 -0.0202
  453TMC3    C2 6744   4.619   1.360  12.319 -0.6112  0.6470  0.9177
  453TMC3    C3 6745   4.570   1.247  12.251 -0.6996 -0.5746 -0.1643
  453TMC3    C4 6746   4.708   1.425  12.111 -0.0976  0.7053  0.1792
  453TMC3    C5 6747   4.639   1.327  12.049 -0.2351  0.3664  0.1323
  453TMC3    C6 6748   4.567   1.230  12.112 -0.2901 -0.2906  0.4917
  453TMC3     C 6749   0.054   1.548  12.304 -0.0145  0.6820  0.2032
  453TMC3     O 6750   0.166   1.553  12.251  0.3075 -0.0124 -0.4953
  453TMC3     H 6751   4.606   1.375  12.426 -0.3815 -0.4259  1.0979
  453TMC3    H1 6752   0.053   1.488  12.054  0.1005  1.7203  1.5430
  453TMC3    H2 6753   4.513   1.150  12.064 -0.1666  0.1768 -0.4303
  453TMC3    C7 6754   4.652   1.312  11.910 -0.1981 -0.5150  0.9037
  453TMC3    C8 6755   4.501   1.152  12.334  0.6015  0.8235  0.5440
  453TMC3    O1 6756   4.637   1.201  11.863  0.8542  0.0483  0.1904
  453TMC3    O2 6757   4.493   1.183  12.453 -0.3989  0.7025  0.1693
  454MPD2     C 6758   3.407   1.067  16.754  0.5968  0.8535  1.4657
  454MPD2    C1 6759   3.387   1.000  16.633  0.1619  0.8062  0.6371
  454MPD2    C2 6760   3.282   0.915  16.623 -0.6823  0.1419 -0.1952
  454MPD2    C3 6761   3.189   0.901  16.723  0.4187 -0.7360 -0.2371
  454MPD2    C4 6762   3.203   0.973  16.839  0.1671 -0.8115 -0.2925
  454MPD2    C5 6763   3.315   1.051  16.860 -0.4094 -0.2487  0.3004
  454MPD2     H 6764   3.275   0.851  16.536 -1.0245  1.5704 -1.2213
  454MPD2    H1 6765   3.125   0.980  16.914  0.4064 -1.7103  0.0290
  454MPD2    H2 6766   3.497   1.127  16.765  1.4505 -0.1382 -0.2897
  454MPD2    H3 6767   3.337   1.098  16.955 -0.9116 -1.3972  0.9792
  454MPD2     N 6768   3.080   0.815  16.719 -0.4346 -0.0758  0.1355
  454MPD2    H5 6769   3.020   0.833  16.798  1.0071 -0.2047  1.2724
  454MPD2    N1 6770   3.487   1.019  16.529  0.3102  0.8258 -0.5610
  454MPD2    H7 6771   3.551   1.098  16.539  0.1505  0.7188  1.3348
  455TMC3    C1 6772   2.915   0.664  16.652 -0.0352  0.2980  0.3499
  455TMC3    C2 6773   2.814   0.741  16.697 -0.3630 -0.4954  0.3393
  455TMC3    C3 6774   2.694   0.701  16.648  0.0568  0.4995  0.3168
  455TMC3    C4 6775   2.903   0.551  16.577  0.0275 -0.1283  0.0824
  455TMC3    C5 6776   2.779   0.524  16.521 -0.3364 -0.9340 -0.9528
  455TMC3    C6 6777   2.671   0.605  16.551  0.5959 -0.2361 -0.2935
  455TMC3     C 6778   3.045   0.724  16.620  0.5170  0.0996 -0.6850
  455TMC3     O 6779   3.103   0.701  16.516  0.0097 -0.0256  0.1889
  455TMC3     H 6780   2.830   0.829  16.758  0.5720 -0.1878 -0.3474
  455TMC3    H1 6781   2.992   0.505  16.536  0.5432 -0.0019  1.0614
  455TMC3    H2 6782   2.583   0.609  16.488  0.9150 -0.7426 -0.7801
  455TMC3    C7 6783   2.769   0.468  16.384 -0.0249  0.0459 -0.0047
  455TMC3    C8 6784   2.575   0.788  16.653  0.4024  0.4761 -0.4029
  455TMC3    O1 6785   2.726   0.546  16.296  0.1249 -0.1048  0.4220
  455TMC3    O2 6786   2.465   0.735  16.654  0.3128 -0.1022  0.2403
  456MPD2     C 6787   1.029   1.055  16.375  0.9656  0.2997  0.1059
  456MPD2    C1 6788   1.116   1.002  16.466 -0.1401 -0.3720 -0.5233
  456MPD2    C2 6789   1.104   1.034  16.602  0.5284 -0.7154 -0.3504
  456MPD2    C3 6790   0.989   1.087  16.653 -0.9285  0.1582  0.3144
  456MPD2    C4 6791   0.905   1.135  16.557 -0.1446  0.5436  0.2487
  456MPD2    C5 6792   0.925   1.120  16.423 -0.5310  0.0452 -0.3503
  456MPD2     H 6793   1.177   1.003  16.675 -0.1875 -2.2962 -0.3100
  456MPD2    H1 6794   0.820   1.197  16.584  1.7625  2.5214  1.6174
  456MPD2    H2 6795   1.041   1.045  16.267  1.5639  2.2466 -0.0084
  456MPD2    H3 6796   0.856   1.162  16.351 -0.6343  0.4308 -0.0264
  456MPD2     N 6797   0.967   1.097  16.793  0.0637 -0.2784 -0.1952
  456MPD2    H5 6798   1.040   1.076  16.859 -1.3455  1.4519  1.9090
  456MPD2    N1 6799   1.223   0.931  16.413 -0.2682  0.1732  0.1338
  456MPD2    H7 6800   1.218   0.928  16.312  0.9689  1.9025  0.0351
  457TMC3    C1 6801   0.855   1.162  16.984  0.7380 -0.1910  0.4228
  457TMC3    C2 6802   0.747   1.234  17.032  0.9387  0.3994 -0.1165
  457TMC3    C3 6803   0.721   1.245  17.168  0.2484  0.3175 -0.4014
  457TMC3    C4 6804   0.936   1.091  17.061  0.0928  0.0816 -0.3954
  457TMC3    C5 6805   0.901   1.091  17.194  0.1163  0.0373  0.2630
  457TMC3    C6 6806   0.795   1.164  17.251  0.2571  0.5678 -0.6931
  457TMC3     C 6807   0.845   1.135  16.844 -0.1137  0.3232  0.4700
  457TMC3     O 6808   0.734   1.140  16.790 -0.4313 -0.1907 -0.3091
  457TMC3     H 6809   0.690   1.304  16.971 -0.6465 -0.3106  0.5479
  457TMC3    H1 6810   0.996   1.006  17.031 -0.4503 -0.4631  0.0644
  457TMC3    H2 6811   0.787   1.176  17.359 -1.8948 -1.0744 -0.6834
  457TMC3    C7 6812   1.008   1.054  17.289  0.9552  0.0815 -0.5654
  457TMC3    C8 6813   0.716   1.382  17.211  0.2639 -0.2295 -0.2406
  457TMC3    O1 6814   0.978   1.058  17.409 -0.2448  0.2085 -0.1700
  457TMC3    O2 6815   0.792   1.416  17.301  0.4843 -0.0864 -0.0615
  458MPD2     C 6816   3.683   0.495  12.665 -1.5965 -0.0266  0.0009
  458MPD2    C1 6817   3.660   0.444  12.787  0.4771  0.6463 -0.6900
  458MPD2    C2 6818   3.533   0.408  12.821 -0.4651 -0.2826  0.8964
  458MPD2    C3 6819   3.431   0.421  12.729  0.6528  0.4420  0.2020
  458MPD2    C4 6820   3.457   0.459  12.599 -0.1379  0.5958 -0.6643
  458MPD2    C5 6821   3.586   0.496  12.566 -0.1485 -0.3452 -1.3146
  458MPD2     H 6822   3.510   0.392  12.926  1.6529  0.1860  1.4455
  458MPD2    H1 6823   3.387   0.470  12.517 -1.9042 -0.0839  0.7556
  458MPD2    H2 6824   3.784   0.527  12.643 -1.2314 -0.7289  0.6496
  458MPD2    H3 6825   3.604   0.531  12.465 -0.3883  2.6931 -0.3161
  458MPD2     N 6826   3.304   0.390  12.780 -0.6270  0.5509  0.1220
  458MPD2    H5 6827   3.294   0.384  12.881 -1.0445 -2.9705 -0.1381
  458MPD2    N1 6828   3.767   0.438  12.878  0.1183  0.3717 -0.3628
  458MPD2    H7 6829   3.860   0.466  12.850  1.1228 -0.5385  2.0658
  459TMC3    C1 6830   3.870   0.415  13.085  0.4386  0.0979  0.6938
  459TMC3    C2 6831   3.902   0.546  13.083 -0.0688 -0.7093  0.1339
  459TMC3    C3 6832   4.017   0.581  13.148  0.8467  0.6998  0.2806
  459TMC3    C4 6833   3.939   0.311  13.145  0.4388  0.5404 -0.3897
  459TMC3    C5 6834   4.045   0.356  13.216 -0.7325 -0.4210 -0.2915
  459TMC3    C6 6835   4.090   0.485  13.212 -0.2974 -0.4034  0.2484
  459TMC3     C 6836   3.764   0.370  12.998 -0.2337 -0.1051 -0.0253
  459TMC3     O 6837   3.699   0.274  13.038 -0.0032 -0.4881  0.0908
  459TMC3     H 6838   3.842   0.619  13.030  0.9229 -1.6619 -2.2849
  459TMC3    H1 6839   3.909   0.208  13.138  0.4385  0.7479 -3.6771
  459TMC3    H2 6840   4.167   0.521  13.279 -0.3123 -0.4463  0.2896
  459TMC3    C7 6841   4.102   0.261  13.303  0.6672  0.0888 -0.4999
  459TMC3    C8 6842   4.076   0.710  13.104 -0.4969 -0.7328  0.4239
  459TMC3    O1 6843   4.114   0.148  13.260  0.4131 -0.0968 -0.1599
  459TMC3    O2 6844   3.995   0.798  13.088  0.0060 -0.7666  0.4009
  460MPD2     C 6845   3.161   2.126  10.969  0.4113 -0.4552  1.0813
  460MPD2    C1 6846   3.119   2.256  10.931 -0.2338  0.0647  0.0403
  460MPD2    C2 6847   3.080   2.278  10.806 -0.1312  0.5824 -0.0723
  460MPD2    C3 6848   3.079   2.181  10.711  0.1919 -1.0067  0.0812
  460MPD2    C4 6849   3.109   2.056  10.749 -0.0104 -0.2201 -0.3181
  460MPD2    C5 6850   3.156   2.025  10.877  0.4472  0.1321  0.1831
  460MPD2     H 6851   3.032   2.374  10.787  0.3209  0.7863 -0.1764
  460MPD2    H1 6852   3.124   1.975  10.678 -2.1469 -3.2667  2.7042
  460MPD2    H2 6853   3.170   2.092  11.072 -1.8157  1.5809  1.9685
  460MPD2    H3 6854   3.173   1.921  10.899 -0.6134 -0.0005  0.4044
  460MPD2     N 6855   3.033   2.213  10.579  0.2573  0.0250 -0.3803
  460MPD2    H5 6856   3.018   2.312  10.567 -1.4815 -0.1740  0.0861
  460MPD2    N1 6857   3.114   2.346  11.041 -0.3139  0.5232 -0.0999
  460MPD2    H7 6858   3.135   2.312  11.134 -0.5852 -1.2674 -0.7019
  461TMC3    C1 6859   2.948   2.193  10.356  0.2796 -0.1497  0.2423
  461TMC3    C2 6860   2.905   2.107  10.261 -0.0195 -0.5313 -0.3520
  461TMC3    C3 6861   2.853   2.161  10.149 -0.4222  0.3105  0.8243
  461TMC3    C4 6862   2.942   2.327  10.343 -0.5352  0.2435  1.1394
  461TMC3    C5 6863   2.890   2.378  10.228 -0.0747 -0.5861 -0.3117
  461TMC3    C6 6864   2.846   2.295  10.127  0.0597 -0.0342 -0.0035
  461TMC3     C 6865   2.997   2.124  10.474  0.5920 -0.1343  0.8206
  461TMC3     O 6866   3.001   2.002  10.475 -0.7072 -0.7837 -1.0317
  461TMC3     H 6867   2.912   1.999  10.259 -1.4757 -0.5942 -2.1326
  461TMC3    H1 6868   2.983   2.387  10.423  1.4754 -0.7700  0.8838
  461TMC3    H2 6869   2.814   2.333  10.031  1.3347 -0.9827 -0.8018
  461TMC3    C7 6870   2.927   2.516  10.188  0.2967  0.0587 -0.1296
  461TMC3    C8 6871   2.850   2.077  10.027 -0.0803 -0.0275  0.2525
  461TMC3    O1 6872   2.858   2.569  10.101  0.0098 -0.5302  0.3929
  461TMC3    O2 6873   2.944   1.993  10.019 -0.2899 -0.2229  0.4923
  462TMC3    C1 6874   2.681   3.704   1.075 -0.3317 -0.7816 -0.0819
  462TMC3    C2 6875   2.800   3.646   1.074 -0.3607  0.4315 -0.5835
  462TMC3    C3 6876   2.830   3.566   0.964 -0.5709  0.0660  0.3357
  462TMC3    C4 6877   2.598   3.706   0.967  0.0424  0.3129 -0.2602
  462TMC3    C5 6878   2.634   3.631   0.856  0.1742  1.1812 -0.6876
  462TMC3    C6 6879   2.744   3.550   0.860  0.0991 -0.9570  0.0381
  462TMC3     C 6880   2.621   3.736   1.208 -0.7662 -0.0527  0.5225
  462TMC3     O 6881   2.515   3.796   1.204 -1.1743 -0.7173  0.0538
  462TMC3     H 6882   2.867   3.642   1.160  0.8175 -0.8416 -1.5685
  462TMC3    H1 6883   2.499   3.748   0.973 -0.0773  0.1330 -0.9972
  462TMC3    H2 6884   2.774   3.518   0.761  1.1793 -0.6390  0.2689
  462TMC3    C7 6885   2.521   3.570   0.783  0.6850 -0.5869  0.7994
  462TMC3    C8 6886   2.929   3.461   0.977  0.2393  0.4225 -0.3654
  462TMC3    O1 6887   2.536   3.447   0.776  0.0688 -0.1001 -0.2339
  462TMC3    O2 6888   3.010   3.492   1.057  0.0429 -0.1086 -1.0055
  463MPD2     C 6889   4.211   2.139   1.995  0.5116  0.8240  0.0660
  463MPD2    C1 6890   4.121   2.178   1.896 -0.1016 -1.0976 -0.4887
  463MPD2    C2 6891   4.147   2.291   1.814  0.3451 -0.6270  0.1847
  463MPD2    C3 6892   4.263   2.357   1.830  1.1746  0.0253 -0.1882
  463MPD2    C4 6893   4.355   2.318   1.928  0.3558  0.4484  0.2003
  463MPD2    C5 6894   4.330   2.208   2.005  0.7876 -0.4956 -0.1932
  463MPD2     H 6895   4.065   2.328   1.753  0.1057 -0.2690  0.7232
  463MPD2    H1 6896   4.448   2.371   1.948  1.7740 -0.9408 -2.6640
  463MPD2    H2 6897   4.184   2.059   2.062  1.8191  0.3703  0.0407
  463MPD2    H3 6898   4.409   2.170   2.069  1.4020 -1.3883 -1.4783
  463MPD2     N 6899   4.304   2.464   1.754 -0.2329 -0.0619  0.0445
  463MPD2    H5 6900   4.394   2.502   1.783 -0.9007  1.5321  0.0368
  463MPD2    N1 6901   3.998   2.104   1.875 -0.1242  0.2734  1.0075
  463MPD2    H7 6902   3.915   2.139   1.829  0.7213 -0.9171 -1.4713
  464TMC3    C1 6903   3.829   1.944   1.921  0.5108 -0.3244  0.4423
  464TMC3    C2 6904   3.729   2.040   1.932  0.8346 -0.2017 -0.3627
  464TMC3    C3 6905   3.613   2.004   1.983 -0.4284  0.3681 -0.2587
  464TMC3    C4 6906   3.814   1.817   1.960  0.1134 -0.6662  0.4290
  464TMC3    C5 6907   3.687   1.780   1.998  0.0290  0.2571 -0.0083
  464TMC3    C6 6908   3.582   1.872   2.006  0.0700  0.8472 -0.1252
  464TMC3     C 6909   3.968   1.983   1.931  0.2716  0.2300  0.2497
  464TMC3     O 6910   4.042   1.905   1.988  0.1415 -0.1443  0.1998
  464TMC3     H 6911   3.760   2.143   1.943  4.0707 -1.3176  1.0004
  464TMC3    H1 6912   3.886   1.737   1.946 -1.8786 -2.5749  1.0427
  464TMC3    H2 6913   3.484   1.853   2.048  0.2648  3.2736  1.4527
  464TMC3    C7 6914   3.667   1.646   2.033 -0.2868 -0.4703 -0.1224
  464TMC3    C8 6915   3.511   2.100   2.011 -0.0034  0.5846 -0.1457
  464TMC3    O1 6916   3.766   1.587   2.073  0.3629  0.7006  0.4728
  464TMC3    O2 6917   3.419   2.058   2.081 -0.1029 -0.6467 -0.4855
  465MPD2     C 6918   0.104   1.781  16.767  0.4589  0.2196 -0.4412
  465MPD2    C1 6919   0.080   1.694  16.874 -0.3684  0.0935 -0.3702
  465MPD2    C2 6920   0.006   1.590  16.850 -0.1395 -0.2299  0.1078
  465MPD2    C3 6921   4.675   1.552  16.728 -0.3081 -0.0309 -0.2961
  465MPD2    C4 6922   4.712   1.630  16.622 -0.1894 -0.2096 -1.2427
  465MPD2    C5 6923   0.056   1.747  16.644 -0.5071  0.1823 -0.3329
  465MPD2     H 6924   4.692   1.530  16.933 -1.3564  3.4195  2.2285
  465MPD2    H1 6925   4.690   1.610  16.518  0.5389  1.4385 -1.7219
  465MPD2    H2 6926   0.160   1.873  16.777 -1.3604  1.2907 -0.0835
  465MPD2    H3 6927   0.089   1.812  16.564 -0.4452  1.5167  0.7836
  465MPD2     N 6928   4.593   1.434  16.723  0.7290  0.2631  0.5626
  465MPD2    H5 6929   4.567   1.405  16.817 -1.7502 -1.0769 -0.5258
  465MPD2    N1 6930   0.137   1.703  17.000 -0.8280  0.3659 -0.1447
  465MPD2    H7 6931   0.110   1.623  17.057  1.1993 -0.2327 -0.0354
  466TMC3    C1 6932   4.320   1.231  16.850 -0.2204  0.7923 -0.0010
  466TMC3    C2 6933   4.201   1.263  16.792  0.0046 -0.1942  0.1552
  466TMC3    C3 6934   4.203   1.298  16.662 -0.2626  0.0119  0.6677
  466TMC3    C4 6935   4.437   1.237  16.785  0.5163  0.0743  0.1732
  466TMC3    C5 6936   4.434   1.278  16.651  0.5260  0.2960  0.2765
  466TMC3    C6 6937   4.321   1.305  16.589 -0.1700 -0.0519  0.5462
  466TMC3     C 6938   4.346   1.227  16.995  0.7680  0.0280 -0.0639
  466TMC3     O 6939   4.456   1.247  17.050 -0.2992  0.0720 -0.1529
  466TMC3     H 6940   4.111   1.260  16.852 -0.5282  0.6019 -0.6061
  466TMC3    H1 6941   4.526   1.206  16.838 -0.0555 -0.0694  1.0487
  466TMC3    H2 6942   4.325   1.354  16.492  1.2803 -2.1596 -0.4440
  466TMC3    C7 6943   4.538   1.375  16.612  0.1239 -1.0890  0.2120
  466TMC3    C8 6944   4.114   1.384  16.603  0.0844 -0.1989  0.2278
  466TMC3    O1 6945   4.548   1.410  16.492  0.1777 -0.5537  0.7463
  466TMC3    O2 6946   4.086   1.375  16.484  0.3279  0.1711 -0.4421
  467TMC3    C1 6947   1.157   4.603  14.202 -0.3529  0.0337 -0.0434
  467TMC3    C2 6948   1.074   4.649  14.101 -1.1386 -0.2424  0.3480
  467TMC3    C3 6949   1.012   4.568  14.012 -0.0403  0.7978  0.2780
  467TMC3    C4 6950   1.188   4.469  14.211  0.5423 -0.4010 -0.4044
  467TMC3    C5 6951   1.124   4.395  14.116 -0.4473 -0.5054 -0.0364
  467TMC3    C6 6952   1.033   4.433  14.024  0.2952  0.9415 -0.4407
  467TMC3     C 6953   1.265   4.688  14.234  0.3750  0.3484  0.0608
  467TMC3     O 6954   1.323   4.663  14.339 -0.1531 -1.2325  0.2002
  467TMC3     H 6955   1.054   0.033  14.087  0.6073 -0.0584 -0.6546
  467TMC3    H1 6956   1.266   4.439  14.280  0.9926  0.5139 -0.5215
  467TMC3    H2 6957   0.998   4.359  13.953 -0.1869 -0.7494  1.5559
  467TMC3    C7 6958   1.106   4.250  14.140 -0.3261  0.0154  0.4045
  467TMC3    C8 6959   1.006   4.625  13.879 -0.2386  0.9999 -0.1690
  467TMC3    O1 6960   1.152   4.167  14.059  0.3352 -0.6134 -0.0957
  467TMC3    O2 6961   1.074   0.005  13.868  0.3420 -0.2174  0.5863
  468MPD2     C 6962   0.284   2.480  10.622 -0.4538  0.1208  0.0892
  468MPD2    C1 6963   0.390   2.446  10.703 -0.0288  0.0799 -0.7742
  468MPD2    C2 6964   0.422   2.312  10.727  0.9810 -0.2513 -0.3573
  468MPD2    C3 6965   0.343   2.209  10.674  0.4124 -0.0132  0.4251
  468MPD2    C4 6966   0.225   2.244  10.603  0.6364 -0.3122 -0.5466
  468MPD2    C5 6967   0.201   2.379  10.583 -0.0627 -1.0364 -0.9345
  468MPD2     H 6968   0.494   2.281  10.802 -1.4813 -0.7120  1.8155
  468MPD2    H1 6969   0.164   2.166  10.558  0.3523 -0.0377 -0.6370
  468MPD2    H2 6970   0.258   2.582  10.596 -3.5908  0.0369  2.9165
  468MPD2    H3 6971   0.109   2.411  10.535 -0.2501 -0.2739 -0.0847
  468MPD2     N 6972   0.367   2.070  10.693  0.3349  0.1705 -0.3503
  468MPD2    H5 6973   0.285   2.011  10.700 -1.1322  2.4218  1.8364
  468MPD2    N1 6974   0.480   2.533  10.768  0.1834 -0.0727 -0.1330
  468MPD2    H7 6975   0.561   2.490  10.811 -2.4674 -0.3362  4.6224
  469TMC3    C1 6976   0.553   2.740  10.862  0.3821 -0.0409  0.6105
  469TMC3    C2 6977   0.612   2.664  10.957  0.1964 -0.0374 -0.2318
  469TMC3    C3 6978   0.639   2.724  11.076  0.0261  0.5734  0.4778
  469TMC3    C4 6979   0.508   2.865  10.885  0.5580 -0.3476 -0.3596
  469TMC3    C5 6980   0.527   2.908  11.007 -0.4510  0.0582 -0.8906
  469TMC3    C6 6981   0.589   2.845  11.107  0.1635 -0.6085  0.3456
  469TMC3     C 6982   0.460   2.666  10.781  0.3160 -0.9782 -0.0514
  469TMC3     O 6983   0.360   2.727  10.746  0.7134  0.6160  0.1357
  469TMC3     H 6984   0.669   2.573  10.940  1.1354  0.5228 -0.1097
  469TMC3    H1 6985   0.472   2.923  10.801 -0.0615 -2.2221 -1.3861
  469TMC3    H2 6986   0.605   2.891  11.203 -0.6851 -0.8582  0.6106
  469TMC3    C7 6987   0.517   3.053  11.015 -1.0252 -0.3239  0.4322
  469TMC3    C8 6988   0.740   2.669  11.171  0.2554  0.0843  0.2359
  469TMC3    O1 6989   0.548   3.121  10.919 -0.0141 -0.3204  0.6026
  469TMC3    O2 6990   0.817   2.583  11.131 -0.9938  0.1817 -0.1000
  470TMC3    C1 6991   1.793   3.300   0.993  0.0099 -0.5994 -0.5246
  470TMC3    C2 6992   1.796   3.438   0.988 -0.7803 -0.0891 -0.4678
  470TMC3    C3 6993   1.841   3.497   1.101  1.0729  0.0306  0.4035
  470TMC3    C4 6994   1.855   3.221   1.091  0.0528  0.5756  0.1689
  470TMC3    C5 6995   1.890   3.287   1.201  0.7923 -0.3048  0.6428
  470TMC3    C6 6996   1.880   3.424   1.210 -0.1292  0.0402  0.6090
  470TMC3     C 6997   1.760   3.244   0.860 -0.0357  0.6438  0.1138
  470TMC3     O 6998   1.738   3.323   0.769 -0.4491 -0.1990 -0.0005
  470TMC3     H 6999   1.762   3.483   0.896 -0.1188  0.5300 -0.4101
  470TMC3    H1 7000   1.849   3.113   1.088 -2.2802  0.7402 -1.0627
  470TMC3    H2 7001   1.932   3.481   1.287  1.5623 -0.0258 -0.4843
  470TMC3    C7 7002   1.933   3.213   1.310  0.5395  0.0958 -0.8088
  470TMC3    C8 7003   1.833   3.644   1.122  0.9173  0.1043 -0.0464
  470TMC3    O1 7004   1.978   3.100   1.283 -0.1515  0.2547 -0.4421
  470TMC3    O2 7005   1.850   3.689   1.228  0.2286  0.1687  0.5591
  471MPD2     C 7006   2.745   4.704  16.892 -0.2331  0.2549  0.5634
  471MPD2    C1 7007   2.675   4.586  16.873  0.1037  0.4688 -0.3986
  471MPD2    C2 7008   2.646   4.502  16.977  0.3221 -0.2695 -0.2489
  471MPD2    C3 7009   2.692   4.533  17.100 -0.7389 -0.0743 -0.6220
  471MPD2    C4 7010   2.749   4.655  17.119 -0.0422 -0.4960  0.8562
  471MPD2    C5 7011   2.777   0.022  17.016 -1.1606  0.1994 -0.3358
  471MPD2     H 7012   2.596   4.408  16.957 -1.1548  0.3798  0.3434
  471MPD2    H1 7013   2.790   4.682  17.215  0.0917  2.3726  0.0064
  471MPD2    H2 7014   2.777   0.042  16.807  1.5852  0.9368  1.7150
  471MPD2    H3 7015   2.838   0.107  17.045 -2.9032  1.2297  0.3052
  471MPD2     N 7016   2.696   4.429  17.195 -0.5513  0.3768  0.5010
  471MPD2    H5 7017   2.661   4.340  17.160 -1.5951  0.6559  0.8636
  471MPD2    N1 7018   2.660   4.516  16.750 -0.0682  0.1871  0.4075
  471MPD2    H7 7019   2.622   4.422  16.752  1.0420 -0.2327  1.2345
  472TMC3    C1 7020   2.696   4.460  16.528 -0.1517  0.6528  0.1515
  472TMC3    C2 7021   2.646   4.482  16.405 -0.6230  0.0564  0.3321
  472TMC3    C3 7022   2.640   4.374  16.317  0.2367 -0.1693  0.4651
  472TMC3    C4 7023   2.741   4.333  16.568  0.4576  0.4583 -0.1939
  472TMC3    C5 7024   2.724   4.234  16.478  0.1036 -0.6389 -0.1772
  472TMC3    C6 7025   2.691   4.255  16.348  0.2600  0.1041 -0.7949
  472TMC3     C 7026   2.698   4.563  16.622 -0.8467  0.2708  0.5240
  472TMC3     O 7027   2.752   4.665  16.581  0.3220 -0.0929  0.0656
  472TMC3     H 7028   2.634   4.582  16.364  1.6602  0.5910  0.9619
  472TMC3    H1 7029   2.748   4.301  16.671 -1.1681 -0.5465 -0.3973
  472TMC3    H2 7030   2.701   4.170  16.282  0.9422 -1.6441  1.5796
  472TMC3    C7 7031   2.657   4.111  16.530 -0.2623 -1.0948 -0.2077
  472TMC3    C8 7032   2.507   4.350  16.262 -0.7049  0.1441 -0.0350
  472TMC3    O1 7033   2.673   4.073  16.646 -0.0896 -0.5196 -0.3613
  472TMC3    O2 7034   2.485   4.238  16.226  0.0351 -0.0035  0.1792
  473MPD2     C 7035   2.425   1.965  13.886  0.4505  0.3367  0.7593
  473MPD2    C1 7036   2.422   2.088  13.811  0.9456 -0.2533  0.9679
  473MPD2    C2 7037   2.476   2.200  13.873  0.3203  0.0252 -1.0924
  473MPD2    C3 7038   2.524   2.197  14.008 -0.5665 -0.3672 -0.2871
  473MPD2    C4 7039   2.522   2.079  14.078 -0.0082  0.4043  0.5298
  473MPD2    C5 7040   2.477   1.965  14.013  0.2255 -0.3746 -0.2760
  473MPD2     H 7041   2.479   2.296  13.823  0.1476  0.8377  0.4598
  473MPD2    H1 7042   2.560   2.068  14.180 -0.8469  2.0279  1.0045
  473MPD2    H2 7043   2.371   1.875  13.860 -0.4373  1.0823  0.0163
  473MPD2    H3 7044   2.475   1.875  14.074  1.7662 -0.8538 -0.9394
  473MPD2     N 7045   2.576   2.308  14.081 -0.4210 -0.1639  0.2579
  473MPD2    H5 7046   2.606   2.298  14.178  2.9998  0.1098 -0.7744
  473MPD2    N1 7047   2.383   2.103  13.674 -0.8963  0.5294 -0.1519
  473MPD2    H7 7048   2.403   2.194  13.632  1.9655  0.4798  1.0739
  474TMC3    C1 7049   2.589   2.538  14.148 -0.1762  0.3062 -0.8812
  474TMC3    C2 7050   2.607   2.670  14.106 -0.3295 -0.1070 -0.0880
  474TMC3    C3 7051   2.589   2.767  14.204  0.4225  0.4405 -0.7298
  474TMC3    C4 7052   2.523   2.510  14.267  0.0800  0.1524  0.4070
  474TMC3    C5 7053   2.505   2.619  14.353 -0.4786  0.0221  0.5913
  474TMC3    C6 7054   2.549   2.745  14.330  0.2217 -0.2431  0.4971
  474TMC3     C 7055   2.584   2.438  14.040  0.2383  0.1009 -0.0312
  474TMC3     O 7056   2.577   2.475  13.921  0.1560  0.1775 -0.0131
  474TMC3     H 7057   2.663   2.690  14.015  0.3929 -1.8979 -0.0430
  474TMC3    H1 7058   2.475   2.414  14.276 -0.6799  0.7429  2.6434
  474TMC3    H2 7059   2.535   2.827  14.400  2.1583  0.7133 -0.2335
  474TMC3    C7 7060   2.448   2.567  14.476 -0.1106  0.1838 -0.6630
  474TMC3    C8 7061   2.628   2.903  14.176 -0.3580  0.0118  0.3306
  474TMC3    O1 7062   2.428   2.446  14.490 -0.0194 -0.6511 -0.0168
  474TMC3    O2 7063   2.686   2.963  14.262  0.5393 -0.0242  0.6673
  475MPD2     C 7064   1.064   0.273  11.283 -0.5013 -0.3111  0.5268
  475MPD2    C1 7065   1.066   0.220  11.159  0.3946  0.0213 -0.4422
  475MPD2    C2 7066   0.940   0.181  11.106  0.0861 -0.4956 -0.5966
  475MPD2    C3 7067   0.829   0.190  11.184 -0.5163 -0.5019 -0.1668
  475MPD2    C4 7068   0.837   0.237  11.312  0.5236  0.3477 -0.1956
  475MPD2    C5 7069   0.955   0.273  11.361 -0.6963  0.0529 -0.2111
  475MPD2     H 7070   0.926   0.140  11.006 -0.6967 -1.8077  0.0427
  475MPD2    H1 7071   0.745   0.245  11.369  0.8526 -0.8768  0.5164
  475MPD2    H2 7072   1.154   0.321  11.320  0.4273 -2.0608  0.5563
  475MPD2    H3 7073   0.956   0.295  11.467  0.9956  1.4043 -0.4965
  475MPD2     N 7074   0.705   0.136  11.136  0.4975 -0.0141  0.0588
  475MPD2    H5 7075   0.695   0.128  11.036  0.9299  0.3396 -0.0135
  475MPD2    N1 7076   1.177   0.198  11.084  0.5543 -0.0984  0.2499
  475MPD2    H7 7077   1.266   0.238  11.113  0.0244  0.9982  0.3902
  476TMC3    C1 7078   1.310   0.121  10.898 -0.2449  0.0505 -0.1119
  476TMC3    C2 7079   1.322   0.029  10.800  0.0270  0.0834  1.0610
  476TMC3    C3 7080   1.415   0.047  10.702 -1.3963  0.5458 -0.0815
  476TMC3    C4 7081   1.409   0.214  10.921 -0.1045 -0.3900  0.5639
  476TMC3    C5 7082   1.501   0.228  10.818 -0.5501  0.0528 -0.2664
  476TMC3    C6 7083   1.500   0.153  10.701  0.4007  0.2466  0.1795
  476TMC3     C 7084   1.184   0.119  10.969 -0.1184 -0.1732  0.6301
  476TMC3     O 7085   1.100   0.059  10.902  0.2949  0.1242 -0.2878
  476TMC3     H 7086   1.263   4.661  10.799 -0.4653  0.4103  0.3339
  476TMC3    H1 7087   1.384   0.302  10.979 -0.1585  0.6306 -1.0019
  476TMC3    H2 7088   1.580   0.164  10.629 -0.1226  0.8872 -0.2984
  476TMC3    C7 7089   1.598   0.332  10.832 -0.3752  0.2560 -0.7730
  476TMC3    C8 7090   1.422   4.667  10.600  0.0908 -0.0040  0.1964
  476TMC3    O1 7091   1.571   0.431  10.895  0.3474  0.2511  0.4458
  476TMC3    O2 7092   1.375   4.559  10.623  0.5408  0.2717  0.8732
  477MPD2     C 7093   3.064   1.401  11.809  0.4214 -0.4630 -0.5034
  477MPD2    C1 7094   3.085   1.484  11.922  0.1906 -0.1851 -0.4513
  477MPD2    C2 7095   3.191   1.463  12.002  0.4440  0.3603 -0.5245
  477MPD2    C3 7096   3.272   1.357  11.986  0.1446 -0.2520 -0.4129
  477MPD2    C4 7097   3.248   1.280  11.880 -0.2441 -0.0728 -0.4645
  477MPD2    C5 7098   3.147   1.296  11.791 -0.4299 -0.2491 -0.8603
  477MPD2     H 7099   3.208   1.529  12.087  0.4866 -4.1183  2.9711
  477MPD2    H1 7100   3.307   1.190  11.873 -0.1725 -0.0059 -0.7138
  477MPD2    H2 7101   2.983   1.418  11.738  0.0958 -1.8665 -0.4588
  477MPD2    H3 7102   3.133   1.228  11.708  0.8111 -0.2634 -1.0543
  477MPD2     N 7103   3.375   1.336  12.079  0.4989 -1.0735  0.2725
  477MPD2    H5 7104   3.380   1.404  12.155 -3.6015 -1.0073  0.5096
  477MPD2    N1 7105   3.001   1.598  11.932  0.4088  0.2220  0.8588
  477MPD2    H7 7106   2.922   1.601  11.868  0.4918  0.1648  0.7527
  478TMC3    C1 7107   2.973   1.828  11.960 -0.1445  0.4887 -0.5237
  478TMC3    C2 7108   2.963   1.927  12.051  0.0521  1.2411  0.4075
  478TMC3    C3 7109   2.920   2.049  12.005 -0.1990 -0.0317  1.0672
  478TMC3    C4 7110   2.928   1.836  11.832  0.6576  0.0264 -0.1450
  478TMC3    C5 7111   2.886   1.955  11.791 -0.0306  0.2052 -0.3502
  478TMC3    C6 7112   2.876   2.064  11.872  0.9191  0.2604  0.3121
  478TMC3     C 7113   3.046   1.710  11.994  0.3780  0.5959 -0.6753
  478TMC3     O 7114   3.149   1.738  12.049  0.5536  0.5577  0.0564
  478TMC3     H 7115   3.009   1.923  12.149 -0.1396  0.3381  0.4600
  478TMC3    H1 7116   2.954   1.765  11.754  0.5307  0.7670 -0.8588
  478TMC3    H2 7117   2.853   2.164  11.836 -0.6382 -0.7025 -1.3753
  478TMC3    C7 7118   2.848   1.964  11.653  0.3335 -0.8331  0.1326
  478TMC3    C8 7119   2.922   2.160  12.106  0.0905 -0.0219 -0.1789
  478TMC3    O1 7120   2.862   2.068  11.592 -0.3223  0.2083 -0.0050
  478TMC3    O2 7121   2.922   2.127  12.225 -0.0568  0.1593 -0.0412
  479MPD2     C 7122   2.278   4.193  14.556 -0.2216  0.3320  0.0161
  479MPD2    C1 7123   2.278   4.080  14.624 -0.0235  0.3670  0.3112
  479MPD2    C2 7124   2.348   4.062  14.740 -0.4568  0.1281 -0.1795
  479MPD2    C3 7125   2.421   4.173  14.800 -0.1565 -0.2537 -0.2820
  479MPD2    C4 7126   2.435   4.284  14.725 -0.2330 -0.5582 -0.1999
  479MPD2    C5 7127   2.369   4.288  14.600 -0.1211 -0.0431 -0.9306
  479MPD2     H 7128   2.340   3.972  14.800  1.1188 -2.6464 -4.1009
  479MPD2    H1 7129   2.496   4.369  14.754  0.2475 -0.9745  0.0199
  479MPD2    H2 7130   2.225   4.217  14.464  0.5172 -0.1096 -0.5173
  479MPD2    H3 7131   2.381   4.375  14.537  0.0035  1.9797  1.9209
  479MPD2     N 7132   2.493   4.176  14.920 -0.0391 -0.5034 -0.1903
  479MPD2    H5 7133   2.539   4.263  14.942 -0.6950  0.1046 -1.2740
  479MPD2    N1 7134   2.181   3.989  14.578 -0.2885  0.6753 -0.0264
  479MPD2    H7 7135   2.105   4.022  14.520  0.1416 -0.3396 -1.1861
  480TMC3    C1 7136   2.539   4.118  15.372  0.0675 -0.5150  0.5974
  480TMC3    C2 7137   2.610   4.231  15.386 -0.0309 -0.2959 -0.4572
  480TMC3    C3 7138   2.659   4.300  15.277  0.2483  0.7650 -0.0611
  480TMC3    C4 7139   2.514   4.055  15.250  0.4258  0.4796  0.2358
  480TMC3    C5 7140   2.571   4.120  15.144 -0.2189  0.2223  0.3641
  480TMC3    C6 7141   2.641   4.240  15.152  0.6784 -0.0264  0.3023
  480TMC3     C 7142   2.452   4.074  15.480  0.2838 -0.0535 -0.6599
  480TMC3     O 7143   2.386   3.973  15.465  0.5430  0.2940  0.0088
  480TMC3     H 7144   2.637   4.272  15.482  0.9508  3.2267 -2.2316
  480TMC3    H1 7145   2.460   3.962  15.243  1.1205  0.3795 -3.5484
  480TMC3    H2 7146   2.682   4.288  15.065  2.4537 -0.3301  0.9758
  480TMC3    C7 7147   2.496   4.081  15.024 -0.6684  0.3079  0.6487
  480TMC3    C8 7148   2.602   4.433  15.271 -0.7997 -0.2661  0.3110
  480TMC3    O1 7149   2.446   3.968  15.022  0.0092 -0.2774 -0.8505
  480TMC3    O2 7150   2.559   4.481  15.376  0.2886  0.1863 -0.6926
  481MPD2     C 7151   4.056   3.399  14.934  0.6780 -0.0083  0.8318
  481MPD2    C1 7152   3.922   3.379  14.912 -0.2870  0.6280 -0.4577
  481MPD2    C2 7153   3.827   3.414  14.999  0.9350  0.0441 -0.2678
  481MPD2    C3 7154   3.862   3.466  15.126 -0.4971  0.3214 -0.6142
  481MPD2    C4 7155   3.996   3.477  15.157  0.2945  0.6696 -0.3635
  481MPD2    C5 7156   4.087   3.441  15.060 -0.5640  0.2078  0.2636
  481MPD2     H 7157   3.721   3.406  14.975  0.7979 -0.2791  0.4362
  481MPD2    H1 7158   4.027   3.516  15.253 -0.7635  1.8197 -0.4928
  481MPD2    H2 7159   4.132   3.390  14.857 -0.8714  1.7346 -0.8798
  481MPD2    H3 7160   4.190   3.461  15.086 -0.9843 -0.3208  2.3225
  481MPD2     N 7161   3.766   3.509  15.221  1.0823  0.2592  0.0179
  481MPD2    H5 7162   3.789   3.514  15.320 -1.2762  0.6981  0.5326
  481MPD2    N1 7163   3.882   3.361  14.779  0.3705 -0.5664 -0.4101
  481MPD2    H7 7164   3.957   3.365  14.711 -1.2643 -1.0569 -2.2511
  482TMC3    C1 7165   3.733   3.330  14.595 -0.3534 -0.1065  0.4399
  482TMC3    C2 7166   3.620   3.283  14.538  0.1908  0.2194 -0.1516
  482TMC3    C3 7167   3.577   3.328  14.417 -0.1784 -0.2871 -1.0659
  482TMC3    C4 7168   3.810   3.421  14.524  0.2479 -0.0274  0.8398
  482TMC3    C5 7169   3.770   3.460  14.404 -0.2082 -0.4216  0.1526
  482TMC3    C6 7170   3.640   3.433  14.358 -0.5277  0.5665 -0.2169
  482TMC3     C 7171   3.761   3.311  14.736 -0.2318 -0.5306 -0.4313
  482TMC3     O 7172   3.681   3.252  14.800  0.2004  0.1164 -0.3450
  482TMC3     H 7173   3.571   3.204  14.593 -1.4623  1.8016  0.6588
  482TMC3    H1 7174   3.906   3.455  14.560  0.4699  1.2924 -1.0289
  482TMC3    H2 7175   3.604   3.478  14.266  0.4034  1.1164 -0.3052
  482TMC3    C7 7176   3.859   3.545  14.327 -0.0389  0.1158  0.3047
  482TMC3    C8 7177   3.453   3.266  14.375 -0.4193  0.0982 -0.6297
  482TMC3    O1 7178   3.957   3.583  14.391  0.3055 -0.1942 -0.6271
  482TMC3    O2 7179   3.398   3.202  14.460  0.3091 -0.7125 -0.1927
  483TMC3    C1 7180   2.068   2.277   1.586 -0.7559  0.2431  0.1210
  483TMC3    C2 7181   2.051   2.339   1.467 -0.9461  0.5694 -0.1983
  483TMC3    C3 7182   2.158   2.329   1.378  0.1634 -0.6289  0.0763
  483TMC3    C4 7183   2.173   2.195   1.616 -0.6901  0.0075 -0.1909
  483TMC3    C5 7184   2.263   2.171   1.515  0.1970  0.8916 -0.2121
  483TMC3    C6 7185   2.259   2.234   1.395  0.6219 -0.6867 -0.3842
  483TMC3     C 7186   1.976   2.307   1.695  0.2878  0.4120 -0.1345
  483TMC3     O 7187   2.016   2.292   1.809  0.3788 -0.2806 -0.7558
  483TMC3     H 7188   1.978   2.419   1.458  0.8422  2.2930  0.4764
  483TMC3    H1 7189   2.193   2.160   1.717  0.6897 -1.1712 -0.8584
  483TMC3    H2 7190   2.335   2.219   1.319  0.8230 -1.0311 -0.1192
  483TMC3    C7 7191   2.338   2.049   1.514  0.4076 -0.0981 -0.1052
  483TMC3    C8 7192   2.159   2.414   1.265  0.5111  0.3017 -0.3715
  483TMC3    O1 7193   2.453   2.053   1.472 -0.2280  0.4522 -0.4529
  483TMC3    O2 7194   2.051   2.443   1.220  0.1099  0.3495  0.4304
  484MPD2     C 7195   4.259   0.905  12.996 -0.4119 -0.4227  0.0460
  484MPD2    C1 7196   4.270   0.772  12.971  0.8860 -0.1042 -0.3853
  484MPD2    C2 7197   4.375   0.727  12.880 -0.0242 -0.1683 -0.7032
  484MPD2    C3 7198   4.451   0.821  12.814 -0.4330  0.0526 -0.2397
  484MPD2    C4 7199   4.425   0.956  12.825  0.2714 -0.0281 -0.1527
  484MPD2    C5 7200   4.333   0.993  12.922  0.3089  0.0676  0.1728
  484MPD2     H 7201   4.397   0.621  12.876  0.2796 -0.1393  0.2739
  484MPD2    H1 7202   4.471   1.028  12.759  0.8672 -1.9465 -1.8521
  484MPD2    H2 7203   4.186   0.951  13.061 -2.1819  0.7992 -2.8211
  484MPD2    H3 7204   4.307   1.097  12.936  1.0440  0.1499  0.8940
  484MPD2     N 7205   4.551   0.769  12.725  0.1410  0.0149  0.9575
  484MPD2    H5 7206   4.561   0.669  12.707 -0.5556 -0.1639  1.5698
  484MPD2    N1 7207   4.189   0.675  13.037 -0.0907  0.1478  0.1743
  484MPD2    H7 7208   4.218   0.579  13.023  1.2766  0.5050  0.5835
  485TMC3    C1 7209   0.009   0.780  12.571  0.5208  0.6618  0.8078
  485TMC3    C2 7210   0.130   0.837  12.543 -0.4229  0.0964 -0.4136
  485TMC3    C3 7211   0.200   0.787  12.437  0.0023  0.0062 -0.2676
  485TMC3    C4 7212   4.691   0.662  12.531 -0.3805 -0.4354  0.4184
  485TMC3    C5 7213   0.049   0.608  12.438 -0.0258  0.6594 -0.8951
  485TMC3    C6 7214   0.153   0.672  12.376  0.1353 -0.5129  0.1569
  485TMC3     C 7215   4.646   0.855  12.664  0.2943  0.6421 -0.1108
  485TMC3     O 7216   4.672   0.971  12.670  0.2354 -0.0942  0.0170
  485TMC3     H 7217   0.153   0.936  12.581  1.3774 -0.1894 -0.7568
  485TMC3    H1 7218   4.605   0.601  12.558  0.2904 -1.2225  0.7661
  485TMC3    H2 7219   0.210   0.642  12.289  0.7051  1.2844 -0.0871
  485TMC3    C7 7220   0.058   0.463  12.451 -0.0878  1.3513 -0.2773
  485TMC3    C8 7221   0.333   0.756  12.485 -0.4218  0.2134 -0.0078
  485TMC3    O1 7222   4.684   0.395  12.482  0.0044 -0.7145 -0.0865
  485TMC3    O2 7223   0.365   0.641  12.464 -0.7210 -0.2220 -0.1444
  486MPD2     C 7224   1.850   4.605  13.295 -0.1446 -0.1494  0.5084
  486MPD2    C1 7225   1.877   4.613  13.165  1.0111 -0.2860  0.9636
  486MPD2    C2 7226   1.881   0.014  13.114 -0.1587 -0.2500 -0.2447
  486MPD2    C3 7227   1.849   0.130  13.184  0.0929 -0.7335  0.1607
  486MPD2    C4 7228   1.821   0.123  13.319 -0.1197 -0.2488  0.8465
  486MPD2    C5 7229   1.821   4.719  13.373 -0.1245  0.3349 -0.6326
  486MPD2     H 7230   1.899   0.029  13.008  3.8704  0.1292  0.4925
  486MPD2    H1 7231   1.790   0.208  13.378 -0.5605  0.2276 -0.0739
  486MPD2    H2 7232   1.853   4.506  13.339  0.2254 -0.7480 -0.8636
  486MPD2    H3 7233   1.802   4.704  13.479 -1.7880  0.3092 -0.9346
  486MPD2     N 7234   1.852   0.248  13.105 -0.6962  0.7350  0.1388
  486MPD2    H5 7235   1.873   0.246  13.006 -0.0705 -0.6164  0.3137
  486MPD2    N1 7236   1.897   4.491  13.093 -0.0214 -0.2242 -0.7335
  486MPD2    H7 7237   1.881   4.405  13.145 -2.8158  0.5523 -0.3089
  487TMC3    C1 7238   1.944   4.351  12.918 -0.5570  0.7837 -0.3094
  487TMC3    C2 7239   1.850   4.252  12.960  0.1288 -0.4020  0.0598
  487TMC3    C3 7240   1.870   4.122  12.920 -0.0939  0.7087  0.1670
  487TMC3    C4 7241   2.046   4.316  12.834  0.2376 -0.4891  0.1015
  487TMC3    C5 7242   2.046   4.189  12.781  0.6441  0.5037  0.0430
  487TMC3    C6 7243   1.959   4.094  12.816  0.2328 -0.5089  0.3566
  487TMC3     C 7244   1.950   4.483  12.967 -0.2831 -0.0411 -1.2267
  487TMC3     O 7245   1.998   4.571  12.896  0.0827 -0.1869 -0.4003
  487TMC3     H 7246   1.774   4.265  13.037  0.0344  1.1621 -0.3061
  487TMC3    H1 7247   2.134   4.380  12.828  0.8764 -1.2195  1.8260
  487TMC3    H2 7248   1.993   3.992  12.811 -0.1497 -0.6372  0.3424
  487TMC3    C7 7249   2.174   4.139  12.790 -0.6263  0.4578 -0.0749
  487TMC3    C8 7250   1.821   4.018  13.012  0.5607 -0.1508 -0.1182
  487TMC3    O1 7251   2.240   4.163  12.884  0.9062 -0.5400 -0.1531
  487TMC3    O2 7252   1.770   4.057  13.119 -1.0550  0.2433  0.2312
  488MPD2     C 7253   1.806   1.025  16.649 -0.3029  0.1556  0.1322
  488MPD2    C1 7254   1.826   1.134  16.724  0.1957  1.0935 -0.6514
  488MPD2    C2 7255   1.827   1.117  16.858  0.2867  0.0925  0.0424
  488MPD2    C3 7256   1.800   0.993  16.925  0.5471  0.3615  0.1614
  488MPD2    C4 7257   1.783   0.884  16.845 -0.1324 -0.6143 -0.0999
  488MPD2    C5 7258   1.790   0.900  16.708 -0.5098 -0.5517 -0.1851
  488MPD2     H 7259   1.838   1.210  16.913  0.7752 -1.6351  2.8821
  488MPD2    H1 7260   1.763   0.784  16.880 -2.8797 -0.6902 -1.8518
  488MPD2    H2 7261   1.812   1.036  16.541  1.9336  0.1024  0.2431
  488MPD2    H3 7262   1.782   0.814  16.642 -2.5907  1.1197 -2.0998
  488MPD2     N 7263   1.800   0.990  17.066 -0.3110 -0.4611  0.1023
  488MPD2    H5 7264   1.801   1.083  17.105  0.0940  0.5083 -2.2365
  488MPD2    N1 7265   1.834   1.270  16.674  0.1767 -0.4143 -0.1021
  488MPD2    H7 7266   1.839   1.337  16.750  0.7102 -0.1015 -0.4098
  489TMC3    C1 7267   1.803   0.920  17.289  0.1895  0.2168 -0.1046
  489TMC3    C2 7268   1.861   1.040  17.333  0.7100 -0.3736 -0.0502
  489TMC3    C3 7269   1.862   1.067  17.465  0.8855 -0.2708 -0.0240
  489TMC3    C4 7270   1.740   0.838  17.385  0.4749  0.3208 -0.4418
  489TMC3    C5 7271   1.748   0.874  17.519 -1.0182  0.3723 -0.1322
  489TMC3    C6 7272   1.805   0.993  17.568 -0.3042  0.1102 -0.2358
  489TMC3     C 7273   1.793   0.881  17.153 -0.1649  0.2272 -0.5920
  489TMC3     O 7274   1.760   0.767  17.129  0.0751  0.4008 -0.2496
  489TMC3     H 7275   1.911   1.112  17.270  3.0840 -2.7596 -0.9003
  489TMC3    H1 7276   1.697   0.743  17.355 -0.3719  0.4406  0.4047
  489TMC3    H2 7277   1.824   1.014  17.673  0.5587  0.9620 -0.5630
  489TMC3    C7 7278   1.693   0.792  17.626 -0.3276  0.3225  0.8927
  489TMC3    C8 7279   1.898   1.200  17.498 -0.1493 -0.4852  0.1337
  489TMC3    O1 7280   1.744   0.802   0.046 -0.0974 -0.2455  0.0937
  489TMC3    O2 7281   1.974   1.259  17.426  0.2220  0.1654 -0.4060
  490MPD2     C 7282   2.292   4.411   0.681  0.5194  0.3100 -0.5643
  490MPD2    C1 7283   2.314   4.433   0.547 -0.1923 -0.8626 -0.0640
  490MPD2    C2 7284   2.270   4.548   0.486 -0.2463 -0.7736  0.4303
  490MPD2    C3 7285   2.207   4.641   0.569  0.2740 -0.2685 -0.0119
  490MPD2    C4 7286   2.179   4.614   0.703 -0.5531  0.3447 -0.5873
  490MPD2    C5 7287   2.219   4.498   0.758  0.1573 -0.5083  0.3076
  490MPD2     H 7288   2.290   4.562   0.381 -0.4148 -2.1505  0.2196
  490MPD2    H1 7289   2.138   4.692   0.765  0.0712  0.4747 -0.3414
  490MPD2    H2 7290   2.305   4.314   0.728  1.0042  1.1209  1.0029
  490MPD2    H3 7291   2.209   4.494   0.866 -1.7284 -0.4249  0.1415
  490MPD2     N 7292   2.173   0.047   0.524 -0.5012  0.1550 -0.3793
  490MPD2    H5 7293   2.127   0.109   0.590 -0.5067  0.1313 -0.3609
  490MPD2    N1 7294   2.387   4.339   0.469  0.2000  1.1903 -0.3250
  490MPD2    H7 7295   2.401   4.360   0.371 -1.0336  1.4647 -0.4334
  491TMC3    C1 7296   2.435   4.127   0.411 -0.1515 -0.2591 -0.0985
  491TMC3    C2 7297   2.340   4.032   0.436  0.2051 -0.4240  0.4402
  491TMC3    C3 7298   2.276   3.981   0.325 -0.2082 -0.3707 -0.1995
  491TMC3    C4 7299   2.456   4.188   0.290 -0.5105  0.0782  0.6735
  491TMC3    C5 7300   2.396   4.128   0.178  0.0098  0.6356 -0.1565
  491TMC3    C6 7301   2.320   4.015   0.198  0.1372 -0.4438  0.2623
  491TMC3     C 7302   2.440   4.222   0.517  0.0001  0.2712 -0.1272
  491TMC3     O 7303   2.441   4.177   0.633 -0.5108  0.1086  0.2221
  491TMC3     H 7304   2.289   4.028   0.532  1.7532 -0.4528  1.2650
  491TMC3    H1 7305   2.531   4.265   0.277 -1.8562  1.8663  3.4408
  491TMC3    H2 7306   2.272   3.960   0.118 -3.5610  1.4744  1.1258
  491TMC3    C7 7307   2.353   4.202   0.061 -0.4344  0.0366  0.1125
  491TMC3    C8 7308   2.135   4.004   0.348  0.1450  0.7537  0.3429
  491TMC3    O1 7309   2.273   4.146  17.677  0.4090 -0.0891 -0.4198
  491TMC3    O2 7310   2.079   3.981   0.455 -0.1812  0.0692  0.0901
  492MPD2     C 7311   3.198   0.608  11.834 -0.2572 -0.3592  0.7009
  492MPD2    C1 7312   3.097   0.534  11.768 -0.1518 -0.2042 -0.2174
  492MPD2    C2 7313   2.972   0.515  11.827  0.1394 -0.6130  1.1332
  492MPD2    C3 7314   2.962   0.533  11.964  0.0243 -0.2439 -0.2967
  492MPD2    C4 7315   3.059   0.593  12.030  0.1672 -0.2209  0.3992
  492MPD2    C5 7316   3.173   0.638  11.967  0.1025 -0.6204 -0.6336
  492MPD2     H 7317   2.897   0.454  11.777 -0.0782 -0.5546  1.3851
  492MPD2    H1 7318   3.047   0.633  12.130 -3.3157 -1.5405  0.4933
  492MPD2    H2 7319   3.291   0.624  11.779 -1.4300  1.5938 -0.7061
  492MPD2    H3 7320   3.245   0.692  12.027 -2.2453  1.1150  0.5951
  492MPD2     N 7321   2.845   0.511  12.040  0.3545 -0.3466 -0.2544
  492MPD2    H5 7322   2.859   0.526  12.140 -0.3003  1.2026 -0.3979
  492MPD2    N1 7323   3.129   0.493  11.640 -0.4491 -0.4279 -0.3767
  492MPD2    H7 7324   3.226   0.505  11.613 -1.2297  1.1332 -2.4991
  493TMC3    C1 7325   3.124   0.395  11.430  0.0660 -0.0228  0.1344
  493TMC3    C2 7326   3.207   0.489  11.382  0.3347  0.1215 -0.1333
  493TMC3    C3 7327   3.270   0.458  11.265  0.5880 -0.7106 -0.4494
  493TMC3    C4 7328   3.081   0.287  11.361 -0.6722 -0.1642 -0.5281
  493TMC3    C5 7329   3.143   0.265  11.244 -0.1338  0.3920  0.5265
  493TMC3    C6 7330   3.241   0.348  11.196  0.6782 -0.3138  0.3081
  493TMC3     C 7331   3.049   0.421  11.557 -0.1035 -0.0437  0.3477
  493TMC3     O 7332   2.942   0.363  11.574  0.2686 -0.6787 -0.1568
  493TMC3     H 7333   3.211   0.587  11.427 -2.0308 -0.3386  1.0781
  493TMC3    H1 7334   2.992   0.229  11.385 -0.9910  1.1503  1.5552
  493TMC3    H2 7335   3.295   0.329  11.105  0.2805  0.1573 -0.0244
  493TMC3    C7 7336   3.098   0.160  11.160  0.2537  0.6568  0.4997
  493TMC3    C8 7337   3.412   0.494  11.267  0.6858 -0.2317 -0.1718
  493TMC3    O1 7338   3.126   0.171  11.040  0.3983  0.0555  0.6415
  493TMC3    O2 7339   3.493   0.405  11.263  0.2947  0.2440  0.0277
  494TMC3    C1 7340   3.484   2.216   0.492 -0.0751 -0.2862 -0.0565
  494TMC3    C2 7341   3.534   2.091   0.455  0.1583 -0.3516 -0.5792
  494TMC3    C3 7342   3.545   2.069   0.318  0.1728 -0.3257 -0.3885
  494TMC3    C4 7343   3.471   2.314   0.404 -0.1288 -0.2147  0.7447
  494TMC3    C5 7344   3.487   2.282   0.266  0.1450 -0.0603 -0.0041
  494TMC3    C6 7345   3.527   2.163   0.223 -0.6472  0.5901 -0.1581
  494TMC3     C 7346   3.492   2.253   0.632 -0.1065  0.0080  0.3953
  494TMC3     O 7347   3.494   2.376   0.644  0.6348 -0.2784 -0.0669
  494TMC3     H 7348   3.568   2.014   0.522  1.6883  1.1379  0.3580
  494TMC3    H1 7349   3.428   2.408   0.436  1.8272  0.7459  0.6101
  494TMC3    H2 7350   3.561   2.145   0.122  0.0772  2.1100 -0.1847
  494TMC3    C7 7351   3.447   2.377   0.162  0.4632 -0.4824 -0.5868
  494TMC3    C8 7352   3.567   1.937   0.276  0.0174  0.5404  0.0404
  494TMC3    O1 7353   3.441   2.345   0.046 -0.5556 -0.0398 -0.1658
  494TMC3    O2 7354   3.585   1.847   0.359  0.0565  0.2045  0.0105
  495TMC3    C1 7355   2.422   4.619  14.326 -0.6942  0.0316  0.2346
  495TMC3    C2 7356   2.292   4.626  14.286  0.4458 -0.3665 -0.5004
  495TMC3    C3 7357   2.204   4.628  14.387  0.3383 -0.4110  0.2510
  495TMC3    C4 7358   2.470   4.646  14.453 -0.5028 -0.1891 -0.6321
  495TMC3    C5 7359   2.373   4.657  14.552 -0.3114  0.5511 -0.2135
  495TMC3    C6 7360   2.242   4.639  14.520  0.0595 -0.3777 -0.4169
  495TMC3     C 7361   2.477   4.492  14.293 -0.3268  0.0617  0.1316
  495TMC3     O 7362   2.398   4.438  14.215 -0.2330 -0.0797 -0.2144
  495TMC3     H 7363   2.266   4.624  14.181  0.5598 -2.5576 -0.4851
  495TMC3    H1 7364   2.575   4.653  14.476 -0.6988  0.0222  0.2010
  495TMC3    H2 7365   2.159   4.631  14.590 -1.9182 -0.2890 -2.7536
  495TMC3    C7 7366   2.421   4.634  14.691  0.1471  0.3371 -0.2678
  495TMC3    C8 7367   2.097   4.538  14.369  0.1602  0.4592 -0.5248
  495TMC3    O1 7368   2.540   4.598  14.694 -0.3117  0.0277 -0.0630
  495TMC3    O2 7369   1.994   4.559  14.433  0.7915 -0.0076  0.0755
  496MPD2     C 7370   4.312   4.121  15.525 -0.6293  0.6244  0.3417
  496MPD2    C1 7371   4.358   4.059  15.637 -0.4845  0.5434 -0.0098
  496MPD2    C2 7372   4.294   4.083  15.759  0.0283  0.0241  0.0455
  496MPD2    C3 7373   4.191   4.176  15.758  0.4434  0.4897 -0.1788
  496MPD2    C4 7374   4.157   4.245  15.644  0.0695 -0.1651  0.1800
  496MPD2    C5 7375   4.215   4.216  15.526  0.0262 -0.8157  0.3053
  496MPD2     H 7376   4.322   4.032  15.850 -1.0709 -1.7354 -0.6011
  496MPD2    H1 7377   4.080   4.321  15.649  2.7974  2.6688 -0.5055
  496MPD2    H2 7378   4.353   4.097  15.427 -1.7952  0.3673 -0.0835
  496MPD2    H3 7379   4.192   4.262  15.430  1.3835  2.2482  1.4725
  496MPD2     N 7380   4.104   4.204  15.863  0.1138  0.0961  0.1538
  496MPD2    H5 7381   4.029   4.270  15.845  0.1278  0.0535 -0.0715
  496MPD2    N1 7382   4.460   3.963  15.622  0.0359  0.5425  0.8188
  496MPD2    H7 7383   4.510   3.959  15.534 -1.0565 -0.7599  0.2388
  497TMC3    C1 7384   4.021   4.191  16.077 -0.9331  0.6616  0.7892
  497TMC3    C2 7385   3.897   4.233  16.025 -0.5006  0.6879  0.7965
  497TMC3    C3 7386   3.798   4.269  16.116 -0.1203  0.1033 -0.5274
  497TMC3    C4 7387   4.036   4.171  16.209 -0.2933  0.1608  0.0889
  497TMC3    C5 7388   3.933   4.195  16.296 -0.1037  0.2174  0.6760
  497TMC3    C6 7389   3.818   4.257  16.250  0.2431 -0.7146  0.6541
  497TMC3     C 7390   4.117   4.141  15.981 -0.0833 -0.2455 -0.0514
  497TMC3     O 7391   4.205   4.067  16.019 -0.1313 -0.5233  0.1279
  497TMC3     H 7392   3.872   4.219  15.921 -1.1711 -0.0453  1.0588
  497TMC3    H1 7393   4.130   4.127  16.243 -1.0170 -0.4054  1.3812
  497TMC3    H2 7394   3.747   4.281  16.329 -1.2574 -1.5229 -0.4381
  497TMC3    C7 7395   3.935   4.154  16.433 -0.0177 -0.0751 -0.1607
  497TMC3    C8 7396   3.668   4.327  16.076 -0.1365  0.3321  0.1819
  497TMC3    O1 7397   3.825   4.160  16.489  0.2414  0.7985 -0.8123
  497TMC3    O2 7398   3.607   4.364  16.176 -0.0579  0.5804  0.2521
  498MPD2     C 7399   0.787   3.630   9.962 -0.0841  0.0834  0.0005
  498MPD2    C1 7400   0.835   3.709  10.067  0.9680  0.1558 -0.3521
  498MPD2    C2 7401   0.782   3.685  10.198  0.2572  0.6359 -0.3806
  498MPD2    C3 7402   0.678   3.588  10.221  0.1490  0.1233  1.0346
  498MPD2    C4 7403   0.632   3.525  10.111 -0.0037 -0.0071  0.2377
  498MPD2    C5 7404   0.680   3.545   9.983  0.3232 -0.2369 -0.6669
  498MPD2     H 7405   0.823   3.741  10.281 -2.1040  1.1836  0.4199
  498MPD2    H1 7406   0.551   3.453  10.106  0.7473 -0.8244 -0.2649
  498MPD2    H2 7407   0.842   3.624   9.868  0.0487  0.1963  0.0705
  498MPD2    H3 7408   0.657   3.479   9.901  0.5848 -0.1557 -0.8056
  498MPD2     N 7409   0.616   3.567  10.347 -0.7966 -0.2246 -0.8722
  498MPD2    H5 7410   0.667   3.616  10.421 -0.2856  0.6698 -1.8152
  498MPD2    N1 7411   0.943   3.792  10.043 -0.2046  0.6432 -0.4356
  498MPD2    H7 7412   0.995   3.777   9.957 -1.5456  0.0182 -1.1287
  499TMC3    C1 7413   1.081   3.969  10.058  0.1923  0.3061 -0.4943
  499TMC3    C2 7414   1.174   3.901   9.985 -0.1151  0.2616 -0.2134
  499TMC3    C3 7415   1.272   3.968   9.919  0.1162 -0.5274  0.4847
  499TMC3    C4 7416   1.078   4.107  10.051 -0.4477 -0.4674 -0.1992
  499TMC3    C5 7417   1.184   4.169   9.986  0.5082 -0.4060  1.0222
  499TMC3    C6 7418   1.278   4.105   9.914 -0.1121  0.0513 -0.3474
  499TMC3     C 7419   0.964   3.905  10.110 -0.3228  0.8291  0.6834
  499TMC3     O 7420   0.886   3.959  10.187  0.5446 -0.4019 -0.2794
  499TMC3     H 7421   1.174   3.793   9.977 -1.7839  0.0018  3.2382
  499TMC3    H1 7422   1.000   4.162  10.102 -0.1905 -0.1728 -0.1257
  499TMC3    H2 7423   1.348   4.161   9.853  0.3563 -0.1896 -0.0308
  499TMC3    C7 7424   1.179   4.309   9.964 -0.4676  0.1872  0.0479
  499TMC3    C8 7425   1.386   3.894   9.852 -0.1021  0.5893  0.4575
  499TMC3    O1 7426   1.211   4.348   9.854  0.0877  0.1519 -0.1820
  499TMC3    O2 7427   1.483   3.961   9.828  0.2992 -0.1078  0.1765
  500MPD2     C 7428   2.274   1.189   9.871  0.3203  0.1314 -0.4831
  500MPD2    C1 7429   2.228   1.288   9.951  0.3587  0.5694  0.0558
  500MPD2    C2 7430   2.097   1.317   9.947 -0.5383 -0.4601 -0.5502
  500MPD2    C3 7431   2.000   1.244   9.879 -0.0582  0.1205 -0.0139
  500MPD2    C4 7432   2.048   1.143   9.801 -0.0248 -0.0243 -0.0141
  500MPD2    C5 7433   2.181   1.112   9.801 -0.1590 -0.1221 -0.8057
  500MPD2     H 7434   2.059   1.383  10.025 -2.0971 -0.4518 -1.3194
  500MPD2    H1 7435   1.984   1.086   9.736 -0.4436 -0.4155  0.7456
  500MPD2    H2 7436   2.379   1.173   9.849  0.7839 -0.0258  1.8357
  500MPD2    H3 7437   2.218   1.029   9.743  2.4919  0.0526  0.6419
  500MPD2     N 7438   1.862   1.258   9.892 -0.3783  0.0740 -0.9581
  500MPD2    H5 7439   1.812   1.206   9.822  0.0637 -1.3864 -0.1960
  500MPD2    N1 7440   2.310   1.369  10.022 -0.2362 -0.1001 -0.6766
  500MPD2    H7 7441   2.268   1.444  10.076 -0.8382 -0.1383 -1.0984
  501TMC3    C1 7442   2.516   1.439  10.136 -0.0143 -0.2364  0.4229
  501TMC3    C2 7443   2.465   1.571  10.147 -0.7727 -0.3529 -0.2078
  501TMC3    C3 7444   2.521   1.649  10.241  0.2539 -0.1317  0.4913
  501TMC3    C4 7445   2.617   1.390  10.216  0.1830  0.4954  0.2758
  501TMC3    C5 7446   2.674   1.472  10.311  0.1007  0.1687  0.4217
  501TMC3    C6 7447   2.624   1.597  10.325 -0.1589  0.0587  0.7180
  501TMC3     C 7448   2.445   1.343  10.042  0.0961 -0.2972  0.0499
  501TMC3     O 7449   2.517   1.252  10.006  0.8758 -0.3915 -0.2903
  501TMC3     H 7450   2.380   1.608  10.090 -0.6903  0.0498 -0.0701
  501TMC3    H1 7451   2.652   1.287  10.208 -0.9238  0.1207  0.1901
  501TMC3    H2 7452   2.664   1.654  10.408 -0.0891  2.9652 -1.3032
  501TMC3    C7 7453   2.802   1.432  10.363 -0.0771 -0.7141  0.0786
  501TMC3    C8 7454   2.530   1.790  10.221  0.5092  0.6595  0.3539
  501TMC3    O1 7455   2.808   1.319  10.414  0.1135 -0.2289  0.0993
  501TMC3    O2 7456   2.521   1.832  10.105 -0.2411 -0.1308 -0.6865
  502TMC3    C1 7457   1.675   0.177  15.387 -0.4192  0.2744 -0.8581
  502TMC3    C2 7458   1.661   0.310  15.348  0.0827  0.9613 -0.0613
  502TMC3    C3 7459   1.534   0.349  15.306 -0.0721 -0.5336 -0.9515
  502TMC3    C4 7460   1.571   0.089  15.380 -0.2230  0.0011 -0.2902
  502TMC3    C5 7461   1.445   0.137  15.346  0.7076  0.2555  0.1907
  502TMC3    C6 7462   1.424   0.268  15.308  0.5111  0.4906  0.1905
  502TMC3     C 7463   1.747   0.155  15.515  0.4057 -0.0652  0.3673
  502TMC3     O 7464   1.751   0.046  15.565 -0.8612 -0.5319  0.4218
  502TMC3     H 7465   1.743   0.380  15.354  1.8235 -1.0576 -0.4745
  502TMC3    H1 7466   1.593   4.707  15.402 -1.6553 -0.2711 -0.1185
  502TMC3    H2 7467   1.330   0.307  15.272  0.2745  0.5879  0.9184
  502TMC3    C7 7468   1.335   0.054  15.382  0.7685  0.4955 -0.5960
  502TMC3    C8 7469   1.523   0.486  15.260 -0.4122  0.0842 -0.1859
  502TMC3    O1 7470   1.366   4.664  15.421  0.2209 -0.0390 -0.5879
  502TMC3    O2 7471   1.625   0.548  15.245  0.1782 -0.1535 -0.0770
  503MPD2     C 7472   3.681   1.297  16.524  0.1477 -0.1634 -0.0330
  503MPD2    C1 7473   3.679   1.328  16.662  0.2911 -0.1677  0.5350
  503MPD2    C2 7474   3.744   1.253  16.754  1.2183  0.3699  0.0696
  503MPD2    C3 7475   3.816   1.135  16.723 -0.4836  0.3341 -0.1217
  503MPD2    C4 7476   3.818   1.103  16.587  0.5318  0.3747 -0.4051
  503MPD2    C5 7477   3.754   1.182  16.494  0.4416  0.0640 -0.6575
  503MPD2     H 7478   3.731   1.272  16.860 -0.8422  1.4583 -0.3868
  503MPD2    H1 7479   3.883   1.024  16.551  1.0608  0.0058  1.3857
  503MPD2    H2 7480   3.640   1.357  16.443 -0.4237 -1.0698 -0.4184
  503MPD2    H3 7481   3.761   1.151  16.390 -1.9054 -1.9058 -0.2018
  503MPD2     N 7482   3.879   1.056  16.822 -0.3157 -0.4799  0.3274
  503MPD2    H5 7483   3.865   1.090  16.917 -3.0506  1.2376 -0.6956
  503MPD2    N1 7484   3.611   1.443  16.711  0.3331 -0.0819 -0.2034
  503MPD2    H7 7485   3.623   1.469  16.808 -2.6890  1.6201 -0.2989
  504TMC3    C1 7486   4.006   0.890  16.924 -0.5626 -0.3837  0.7685
  504TMC3    C2 7487   3.927   0.887  17.034 -0.4901  0.3769 -0.2188
  504TMC3    C3 7488   3.963   0.807  17.144 -1.0695  0.2299 -0.4899
  504TMC3    C4 7489   4.136   0.833  16.926 -0.1614  0.6805  0.0700
  504TMC3    C5 7490   4.170   0.754  17.036  0.1587  0.0295 -0.7213
  504TMC3    C6 7491   4.084   0.737  17.148  0.1627  0.0373 -0.8307
  504TMC3     C 7492   3.953   0.939  16.800 -0.5007 -0.2026  0.8258
  504TMC3     O 7493   4.014   0.917  16.699  0.2484 -0.1711  0.2510
  504TMC3     H 7494   3.829   0.934  17.041  0.2945  2.0220 -0.2086
  504TMC3    H1 7495   4.193   0.821  16.834 -0.8836 -0.3579 -0.2434
  504TMC3    H2 7496   4.114   0.682  17.237 -1.4972 -1.3007 -1.0923
  504TMC3    C7 7497   4.288   0.670  17.027 -0.0394 -0.4264  0.3069
  504TMC3    C8 7498   3.880   0.808  17.263  0.0090 -0.0697 -0.4321
  504TMC3    O1 7499   4.379   0.700  16.950  0.2144  0.2233  0.8029
  504TMC3    O2 7500   3.807   0.905  17.271 -0.1543 -0.4917  0.4154
  505MPD2     C 7501   4.448   3.967  11.673  0.1543  0.3978 -0.0604
  505MPD2    C1 7502   4.521   3.882  11.594  0.4022  0.7811  0.6096
  505MPD2    C2 7503   4.650   3.919  11.558  0.1484  0.2304  0.0998
  505MPD2    C3 7504   4.706   4.024  11.624  0.1986  0.3348  0.2937
  505MPD2    C4 7505   4.632   4.107  11.708  0.2295 -0.4418  0.5563
  505MPD2    C5 7506   4.498   4.080  11.732 -0.0348 -0.3993  0.6007
  505MPD2     H 7507   4.720   3.851  11.510 -0.1382  0.2499 -0.3468
  505MPD2    H1 7508   4.678   4.191  11.760  0.1031 -0.0471  0.0324
  505MPD2    H2 7509   4.346   3.945  11.703  0.5348 -2.9279 -1.2585
  505MPD2    H3 7510   4.446   4.156  11.789  0.6979  0.2782  0.3785
  505MPD2     N 7511   0.116   4.062  11.603 -0.2382  0.2374 -0.1823
  505MPD2    H5 7512   0.167   4.131  11.658 -1.2949  0.8546  0.0079
  505MPD2    N1 7513   4.459   3.761  11.564  0.3277  0.4882 -0.2224
  505MPD2    H7 7514   4.371   3.736  11.609  2.0361  0.6454  3.2330
  506TMC3    C1 7515   4.460   3.534  11.499  0.0724 -0.2161 -0.6450
  506TMC3    C2 7516   4.507   3.442  11.407 -0.8029  1.1646  0.4232
  506TMC3    C3 7517   4.563   3.319  11.452 -0.4606  0.3565 -0.4711
  506TMC3    C4 7518   4.463   3.497  11.632 -0.3498 -0.2582  0.1328
  506TMC3    C5 7519   4.512   3.373  11.666 -0.1986  0.2680 -0.3235
  506TMC3    C6 7520   4.564   3.280  11.581 -0.3067  0.3673  0.2351
  506TMC3     C 7521   4.493   3.675  11.469  0.4187  0.1349 -0.2943
  506TMC3     O 7522   4.573   3.683  11.378  0.0469 -0.3282 -0.6589
  506TMC3     H 7523   4.499   3.467  11.302 -3.2809 -0.9032  0.1066
  506TMC3    H1 7524   4.436   3.563  11.714  0.3811  0.7062 -0.4022
  506TMC3    H2 7525   4.590   3.182  11.619 -2.6597 -0.4885 -0.3829
  506TMC3    C7 7526   4.579   3.388  11.794  0.2245 -0.1289  0.1093
  506TMC3    C8 7527   4.632   3.227  11.368  0.1027 -0.5163  0.0668
  506TMC3    O1 7528   4.509   3.400  11.893  0.3095 -0.1459  0.6497
  506TMC3    O2 7529   4.642   3.109  11.402 -0.2373 -0.0945  1.1184
  507TMC3    C1 7530   0.182   0.516  14.837 -0.3603 -0.3422 -0.0407
  507TMC3    C2 7531   0.151   0.411  14.761  0.9226  0.3296  0.1660
  507TMC3    C3 7532   0.164   0.418  14.624 -0.6404 -0.2157  0.2783
  507TMC3    C4 7533   0.252   0.620  14.786 -0.4900  0.4323 -0.5912
  507TMC3    C5 7534   0.271   0.634  14.650  0.0436  0.3464  0.7791
  507TMC3    C6 7535   0.222   0.531  14.571  0.1051  0.0214  0.7056
  507TMC3     C 7536   0.076   0.558  14.927  0.2609 -0.1068  0.1714
  507TMC3     O 7537   0.043   0.675  14.907  0.3913  0.6094 -0.3960
  507TMC3     H 7538   0.087   0.334  14.802 -0.6856  2.9454  2.5836
  507TMC3    H1 7539   0.270   0.706  14.849 -0.9529  1.4020 -1.7840
  507TMC3    H2 7540   0.213   0.543  14.463  1.9056 -0.3536  0.5212
  507TMC3    C7 7541   0.221   0.757  14.590 -0.5505  0.5076 -0.2591
  507TMC3    C8 7542   0.039   0.377  14.565  0.5521 -0.4457  0.0752
  507TMC3    O1 7543   0.142   0.748  14.500 -0.1962 -0.0486 -0.3512
  507TMC3    O2 7544   4.704   0.275  14.591 -0.1369  0.0127 -0.3154
  508MPD2     C 7545   0.821   2.836  16.044  0.3397 -0.3757  0.5584
  508MPD2    C1 7546   0.933   2.919  16.038 -0.3970 -0.5380 -0.5009
  508MPD2    C2 7547   0.993   2.941  15.913 -0.0412 -0.1985  0.3360
  508MPD2    C3 7548   0.930   2.890  15.797  0.1004  0.6433 -0.2716
  508MPD2    C4 7549   0.830   2.794  15.812 -0.7310  0.2329 -0.3426
  508MPD2    C5 7550   0.778   2.769  15.931  1.0054 -1.0000 -0.8777
  508MPD2     H 7551   1.078   3.006  15.897 -0.1900 -0.5401 -1.9284
  508MPD2    H1 7552   0.794   2.739  15.726  2.7544 -3.7630  0.7298
  508MPD2    H2 7553   0.770   2.810  16.137  2.2625  2.0245  2.2993
  508MPD2    H3 7554   0.705   2.692  15.948  0.7044 -0.4435  0.3099
  508MPD2     N 7555   0.983   2.916  15.667 -0.1013 -0.5409  0.1447
  508MPD2    H5 7556   1.060   2.982  15.665  1.5827 -2.5251 -0.5240
  508MPD2    N1 7557   0.980   2.983  16.159 -0.0698 -0.5945  0.5676
  508MPD2    H7 7558   0.928   2.965  16.244  0.1344  0.5312  0.9335
  509TMC3    C1 7559   0.965   3.111  15.282 -0.3946 -0.6485  0.6971
  509TMC3    C2 7560   1.095   3.156  15.279 -0.5029 -0.3057 -0.1183
  509TMC3    C3 7561   1.179   3.082  15.364 -0.2815 -0.3168  0.4796
  509TMC3    C4 7562   0.924   3.003  15.358 -0.3109  0.4229  0.3069
  509TMC3    C5 7563   1.007   2.940  15.438 -0.1337  0.3329 -0.4413
  509TMC3    C6 7564   1.134   2.981  15.449 -0.3507 -0.1373 -0.1785
  509TMC3     C 7565   0.862   3.169  15.197 -0.2663 -0.4840  0.1579
  509TMC3     O 7566   0.757   3.103  15.178  0.0847  0.0076  0.2671
  509TMC3     H 7567   1.133   3.229  15.208 -0.9873  0.2895  0.2349
  509TMC3    H1 7568   0.819   2.976  15.368 -0.4987  0.8444 -0.4838
  509TMC3    H2 7569   1.200   2.938  15.524 -0.9571  0.9193  0.9683
  509TMC3    C7 7570   0.941   2.871  15.546 -0.2573  0.1397  0.8902
  509TMC3    C8 7571   1.309   3.128  15.404  0.0291 -0.4070 -0.6013
  509TMC3    O1 7572   0.848   2.805  15.510 -0.4320  0.2750  0.1186
  509TMC3    O2 7573   1.393   3.045  15.439  0.6410 -0.3367 -0.2393
  510MPD2     C 7574   3.748   4.423  14.614  0.2148 -0.5436 -0.5663
  510MPD2    C1 7575   3.820   4.424  14.735 -0.2859 -0.8252  1.0588
  510MPD2    C2 7576   3.957   4.446  14.745  0.2204  0.7717  0.7550
  510MPD2    C3 7577   4.023   4.475  14.624  0.2581  0.0277 -0.3795
  510MPD2    C4 7578   3.943   4.502  14.515 -0.3531 -0.3791 -0.6779
  510MPD2    C5 7579   3.809   4.473  14.503  0.0696  0.2322  0.4911
  510MPD2     H 7580   4.013   4.417  14.833  0.0257 -3.5108 -0.5117
  510MPD2    H1 7581   3.985   4.534  14.420 -0.3424  1.7826  0.0767
  510MPD2    H2 7582   3.641   4.411  14.601  0.0560 -2.2096  2.3676
  510MPD2    H3 7583   3.753   4.510  14.417  0.5002 -1.8170 -0.6509
  510MPD2     N 7584   4.159   4.489  14.619  0.2255 -0.3821 -0.2726
  510MPD2    H5 7585   4.211   4.499  14.705  0.9679 -0.5709 -0.6900
  510MPD2    N1 7586   3.745   4.386  14.848 -0.3749 -0.3632  0.4494
  510MPD2    H7 7587   3.659   4.335  14.834 -0.1941 -1.3525  2.8558
  511TMC3    C1 7588   3.688   4.367  15.075 -0.2966 -0.1148 -0.3239
  511TMC3    C2 7589   3.619   4.466  15.142 -0.2365 -0.1277  0.0196
  511TMC3    C3 7590   3.486   4.437  15.161 -0.2173 -0.4170  0.0790
  511TMC3    C4 7591   3.640   4.243  15.044  0.8805 -0.0564 -0.8717
  511TMC3    C5 7592   3.514   4.213  15.087  0.1244  0.2939 -0.0501
  511TMC3    C6 7593   3.429   4.313  15.144 -0.4960 -0.3980  0.7528
  511TMC3     C 7594   3.789   4.410  14.978 -0.2471  0.1583  0.0662
  511TMC3     O 7595   3.854   4.504  15.018 -0.1057  0.5072  0.4725
  511TMC3     H 7596   3.655   4.563  15.173  1.6275 -0.6658 -0.4968
  511TMC3    H1 7597   3.706   4.166  15.005  1.0566 -0.7588  0.8210
  511TMC3    H2 7598   3.322   4.301  15.141 -0.4285 -1.3121  2.2206
  511TMC3    C7 7599   3.459   4.079  15.057 -0.2461 -0.4543 -0.0834
  511TMC3    C8 7600   3.391   4.541  15.196 -0.2242 -0.5962 -0.4418
  511TMC3    O1 7601   3.542   4.001  15.012 -0.0090 -0.0548  0.2840
  511TMC3    O2 7602   3.290   4.490  15.245 -0.0051 -0.1670 -0.1932
  512TMC3    C1 7603   2.925   3.953  13.231 -0.8676 -0.3801  0.2545
  512TMC3    C2 7604   3.004   3.990  13.333 -0.0667  0.8223 -0.2254
  512TMC3    C3 7605   3.141   3.997  13.308  0.6029 -0.1037  0.2056
  512TMC3    C4 7606   2.981   3.914  13.111  0.4234  0.2432 -0.2336
  512TMC3    C5 7607   3.120   3.924  13.091  0.0421 -0.3958  0.6482
  512TMC3    C6 7608   3.204   3.972  13.191  0.2773  0.1095 -0.0465
  512TMC3     C 7609   2.787   3.927  13.246  0.0101  0.1735 -0.8413
  512TMC3     O 7610   2.722   3.883  13.157 -0.7419  0.1057  0.1488
  512TMC3     H 7611   2.965   4.009  13.433 -1.4254  1.8808 -0.9640
  512TMC3    H1 7612   2.915   3.895  13.026 -0.0972 -1.4113  0.5338
  512TMC3    H2 7613   3.311   3.955  13.189  0.8211  3.5524 -0.3288
  512TMC3    C7 7614   3.174   3.844  12.983 -0.1114 -0.5662 -0.4414
  512TMC3    C8 7615   3.234   4.024  13.418 -0.2333 -0.5941  0.3197
  512TMC3    O1 7616   3.208   3.906  12.886 -0.1030 -0.5509 -0.1874
  512TMC3    O2 7617   3.334   3.957  13.418 -0.0490 -0.5883 -0.4467
  513MPD2     C 7618   4.299   3.427  14.198  0.0563 -0.0573  0.3807
  513MPD2    C1 7619   4.357   3.546  14.150  0.7243 -0.2326  0.1004
  513MPD2    C2 7620   4.475   3.588  14.209  0.3621  0.1611  0.5501
  513MPD2    C3 7621   4.536   3.505  14.303  0.2714 -0.2157 -0.5187
  513MPD2    C4 7622   4.481   3.392  14.351  0.5356 -0.1561  0.1129
  513MPD2    C5 7623   4.361   3.354  14.292 -0.6293 -0.1778 -0.3989
  513MPD2     H 7624   4.527   3.682  14.195 -0.8020  0.2897 -2.8037
  513MPD2    H1 7625   4.527   3.321  14.418  2.2445 -1.1553 -2.1245
  513MPD2    H2 7626   4.215   3.379  14.149  0.1861  0.4163 -0.3096
  513MPD2    H3 7627   4.327   3.258  14.330  0.4898 -0.3466  0.1931
  513MPD2     N 7628   4.673   3.541  14.337 -0.9032 -0.1478  0.4743
  513MPD2    H5 7629   4.704   3.629  14.297  0.7957  0.4901  3.2103
  513MPD2    N1 7630   4.290   3.617  14.055  0.4554  0.8527 -0.4224
  513MPD2    H7 7631   4.207   3.570  14.021  0.6296 -0.4094  0.9105
  514TMC3    C1 7632   4.274   3.784  13.879  0.0943 -0.2021 -1.1549
  514TMC3    C2 7633   4.260   3.703  13.767  0.1193 -0.1787 -0.1610
  514TMC3    C3 7634   4.281   3.752  13.642  0.6252 -0.0879  0.0782
  514TMC3    C4 7635   4.324   3.909  13.856 -0.0765  0.0297 -0.6733
  514TMC3    C5 7636   4.371   3.952  13.731 -0.2515  0.1293  0.0333
  514TMC3    C6 7637   4.335   3.877  13.626 -0.1472 -0.3592  0.0220
  514TMC3     C 7638   4.346   3.725  13.992  0.1437  0.0079  0.3570
  514TMC3     O 7639   4.449   3.790  14.010  0.0470 -0.0013 -0.7660
  514TMC3     H 7640   4.246   3.596  13.775 -1.9796  0.2049  1.3737
  514TMC3    H1 7641   4.347   3.969  13.944 -1.1062  1.2163 -1.2233
  514TMC3    H2 7642   4.357   3.926  13.532  1.0644  0.2649  0.6453
  514TMC3    C7 7643   4.505   4.001  13.722  0.3099  0.5043  0.1972
  514TMC3    C8 7644   4.290   3.659  13.529 -0.5334  0.2649  0.5828
  514TMC3    O1 7645   4.557   4.031  13.616  0.2176  0.0517 -0.1607
  514TMC3    O2 7646   4.213   3.564  13.537  0.0264 -0.4851 -0.5676
  515MPD2     C 7647   2.245   1.281  15.547  0.2589 -0.0291  0.4440
  515MPD2    C1 7648   2.291   1.244  15.421  0.2093 -0.1868  0.6052
  515MPD2    C2 7649   2.411   1.290  15.384  0.3340  0.6987  0.0489
  515MPD2    C3 7650   2.490   1.381  15.459  0.1573  0.2210 -0.2997
  515MPD2    C4 7651   2.443   1.416  15.587  0.0366  0.8764 -0.2930
  515MPD2    C5 7652   2.322   1.363  15.628  0.1139 -0.0712 -0.1520
  515MPD2     H 7653   2.443   1.273  15.282  2.7136  0.1364  0.8891
  515MPD2    H1 7654   2.485   1.491  15.653  0.0804 -1.2353  2.0830
  515MPD2    H2 7655   2.152   1.241  15.585 -0.3905  1.9866  1.0229
  515MPD2    H3 7656   2.285   1.395  15.725 -0.9126 -0.3141 -0.4696
  515MPD2     N 7657   2.614   1.431  15.414  0.2066 -0.1424  0.0160
  515MPD2    H5 7658   2.670   1.489  15.476  0.7135 -0.1165 -0.4693
  515MPD2    N1 7659   2.231   1.152  15.333  0.8647 -0.5689 -0.1318
  515MPD2    H7 7660   2.285   1.126  15.251 -0.4579 -0.2928 -1.0992
  516TMC3    C1 7661   2.064   1.003  15.243  0.9311 -0.2601 -0.5724
  516TMC3    C2 7662   2.107   1.032  15.116 -0.7892 -0.5960  0.2627
  516TMC3    C3 7663   2.094   0.929  15.029 -0.3033 -0.2391  0.4299
  516TMC3    C4 7664   1.985   0.894  15.275 -0.2120  0.3978  0.6342
  516TMC3    C5 7665   1.969   0.794  15.182  0.0437  0.1885 -0.1287
  516TMC3    C6 7666   2.032   0.810  15.063  0.5619  0.2322  0.4336
  516TMC3     C 7667   2.107   1.091  15.353 -0.0815  0.6570 -0.1178
  516TMC3     O 7668   2.034   1.085  15.455 -0.6213 -0.0007  0.3085
  516TMC3     H 7669   2.170   1.119  15.102 -2.9171  0.7408 -1.0717
  516TMC3    H1 7670   1.949   0.867  15.374 -0.9469 -1.0207 -0.0173
  516TMC3    H2 7671   2.020   0.726  14.995  3.4415 -1.7846  2.4029
  516TMC3    C7 7672   1.968   0.661  15.238  0.2787  0.7715  0.0863
  516TMC3    C8 7673   2.142   0.928  14.900  0.0178  0.2878  0.4633
  516TMC3    O1 7674   2.036   0.643  15.338 -0.7639 -0.3792  0.2632
  516TMC3    O2 7675   2.104   0.843  14.822 -0.1939 -0.1380  0.0306
  517MPD2     C 7676   1.654   2.521   0.085  0.0439 -0.4971 -0.5093
  517MPD2    C1 7677   1.778   2.496   0.138 -0.1161 -0.4609  0.5800
  517MPD2    C2 7678   1.842   2.586   0.218  0.1052  0.3047  0.6656
  517MPD2    C3 7679   1.779   2.708   0.245  0.2887  0.0881 -0.4845
  517MPD2    C4 7680   1.656   2.738   0.194 -0.1489  0.0946 -0.2037
  517MPD2    C5 7681   1.600   2.648   0.105  0.0986  0.1938 -0.6830
  517MPD2     H 7682   1.934   2.565   0.272 -0.4141 -1.6077  0.8120
  517MPD2    H1 7683   1.601   2.829   0.214 -0.4504 -0.3543  1.0200
  517MPD2    H2 7684   1.599   2.454   0.021 -1.1570 -1.1225  1.1831
  517MPD2    H3 7685   1.506   2.674   0.057 -0.5706 -0.3349  0.3509
  517MPD2     N 7686   1.841   2.801   0.332 -0.0533 -0.1908  0.2218
  517MPD2    H5 7687   1.803   2.895   0.343 -2.8826 -1.3524  0.2985
  517MPD2    N1 7688   1.850   2.377   0.111 -0.5790  0.4144  0.7067
  517MPD2    H7 7689   1.941   2.368   0.154 -0.5350 -0.8252  0.3575
  518TMC3    C1 7690   1.893   2.160   0.043  0.5680 -0.0342  0.3533
  518TMC3    C2 7691   1.855   2.030   0.060 -0.7330  0.7676  0.0305
  518TMC3    C3 7692   1.937   1.935  17.685 -0.1117 -0.2672  0.6957
  518TMC3    C4 7693   2.007   2.194  17.669  0.1436  0.0602  0.1161
  518TMC3    C5 7694   2.080   2.096  17.602  0.4718 -0.5993 -0.2137
  518TMC3    C6 7695   2.032   1.970  17.594  0.5632 -0.7008  0.2769
  518TMC3     C 7696   1.793   2.262   0.055  0.1684  0.8364  0.4412
  518TMC3     O 7697   1.681   2.221   0.058  0.3379 -0.1052  0.1941
  518TMC3     H 7698   1.768   2.004   0.120 -1.4386  1.0235 -0.8842
  518TMC3    H1 7699   2.049   2.294  17.675 -0.0286  0.1876 -0.9272
  518TMC3    H2 7700   2.076   1.903  17.521 -0.2145 -0.6634 -0.2396
  518TMC3    C7 7701   2.213   2.132  17.556  0.0267 -0.5541 -0.3512
  518TMC3    C8 7702   1.959   1.801   0.040 -0.4278 -0.0765  0.2747
  518TMC3    O1 7703   2.250   2.249  17.578 -0.5626  0.0139  0.4899
  518TMC3    O2 7704   2.055   1.742  17.680 -0.3137 -0.1401 -0.0954
  519MPD2     C 7705   3.855   0.888  14.611  0.7069  0.2820  0.3596
  519MPD2    C1 7706   3.810   0.890  14.484  0.7853 -0.9426 -0.0522
  519MPD2    C2 7707   3.834   0.791  14.389 -0.9082  0.4160  0.3816
  519MPD2    C3 7708   3.907   0.686  14.431 -0.2140  0.8301  0.7576
  519MPD2    C4 7709   3.953   0.674  14.556  0.6263  0.5355  0.3580
  519MPD2    C5 7710   3.932   0.775  14.643 -0.1875 -0.0556 -0.4386
  519MPD2     H 7711   3.801   0.798  14.286 -0.6714 -2.6367  0.0871
  519MPD2    H1 7712   4.012   0.585  14.578  0.8283  0.7503  0.6793
  519MPD2    H2 7713   3.824   0.955  14.691  0.5532  0.4989  0.1173
  519MPD2    H3 7714   3.971   0.770  14.745  0.9106 -0.6975 -0.8907
  519MPD2     N 7715   3.929   0.580  14.339  0.4364 -0.2411 -0.5279
  519MPD2    H5 7716   3.977   0.499  14.378  0.1609 -0.8656 -1.4805
  519MPD2    N1 7717   3.720   0.994  14.460  0.7201 -0.8426  0.3744
  519MPD2    H7 7718   3.696   1.062  14.531  1.9040  2.4106 -2.3698
  520TMC3    C1 7719   3.915   0.449  14.148  0.6107  0.4093 -0.5960
  520TMC3    C2 7720   3.833   0.379  14.070 -0.9141  0.1071  0.4133
  520TMC3    C3 7721   3.889   0.270  14.003 -1.0553  0.3608  0.1863
  520TMC3    C4 7722   4.046   0.415  14.167 -0.1113 -0.0431 -0.1105
  520TMC3    C5 7723   4.086   0.302  14.116  0.8004 -0.0295 -0.2582
  520TMC3    C6 7724   4.016   0.223  14.031 -0.1822 -0.4058 -0.2929
  520TMC3     C 7725   3.866   0.565  14.215 -0.4109  0.5755 -0.8099
  520TMC3     O 7726   3.759   0.614  14.177 -0.5319 -0.1186  0.4303
  520TMC3     H 7727   3.730   0.409  14.052 -1.4417 -0.8380  1.8772
  520TMC3    H1 7728   4.116   0.479  14.220  1.8392 -3.4974  1.4928
  520TMC3    H2 7729   4.062   0.139  13.979  3.4749 -1.0067  3.9057
  520TMC3    C7 7730   4.232   0.284  14.103 -0.3393 -0.2998  0.3945
  520TMC3    C8 7731   3.796   0.174  13.941 -0.5056  0.2918  0.0339
  520TMC3    O1 7732   4.270   0.165  14.094 -0.2136  0.0031  0.1481
  520TMC3    O2 7733   3.847   0.094  13.867  0.1507 -0.1733 -0.6887
  521MPD2     C 7734   0.233   3.288  17.460  0.1427 -0.0706 -0.5464
  521MPD2    C1 7735   0.158   3.309  17.349 -0.6348 -0.1413  0.4462
  521MPD2    C2 7736   0.202   3.397  17.251  0.5198  0.6280 -0.3848
  521MPD2    C3 7737   0.322   3.466  17.268 -0.1523 -0.4282  0.5187
  521MPD2    C4 7738   0.401   3.433  17.379  0.0693 -0.1153 -0.6182
  521MPD2    C5 7739   0.355   3.342  17.467 -1.3748 -0.3721  0.2967
  521MPD2     H 7740   0.145   3.426  17.164 -0.1193  2.5730  0.6898
  521MPD2    H1 7741   0.497   3.479  17.401 -0.9084  0.7311  1.8704
  521MPD2    H2 7742   0.213   3.220  17.543 -0.7922 -0.5039 -1.1228
  521MPD2    H3 7743   0.416   3.315  17.552  3.3749  1.0659 -2.6807
  521MPD2     N 7744   0.344   3.577  17.184 -0.1865  0.3335  0.7872
  521MPD2    H5 7745   0.262   3.599  17.129 -0.0570 -0.1967  0.3788
  521MPD2    N1 7746   0.031   3.242  17.342 -0.6286  0.0475  0.1471
  521MPD2    H7 7747   0.005   3.207  17.433  0.5346  1.3637  0.9730
  522TMC3    C1 7748   0.460   3.716  17.043  0.2782 -0.2161 -0.0007
  522TMC3    C2 7749   0.573   3.711  16.969 -0.1188 -0.1933  0.2642
  522TMC3    C3 7750   0.584   3.802  16.869  0.3046 -0.1294  0.6755
  522TMC3    C4 7751   0.362   3.807  17.026  0.5229 -0.2205 -0.0545
  522TMC3    C5 7752   0.381   3.901  16.936 -0.0720  0.0777 -0.2296
  522TMC3    C6 7753   0.489   3.897  16.856  0.0194 -0.0131 -0.9184
  522TMC3     C 7754   0.461   3.642  17.168  0.3957  0.3224 -0.2963
  522TMC3     O 7755   0.568   3.641  17.227  0.8359  0.5384  0.0677
  522TMC3     H 7756   0.646   3.633  16.987 -0.1010 -0.4734 -1.0818
  522TMC3    H1 7757   0.270   3.816  17.083 -0.4189  0.6331 -1.6979
  522TMC3    H2 7758   0.505   3.975  16.783  1.1321  1.9509  1.4134
  522TMC3    C7 7759   0.269   3.983  16.893 -0.3594  0.0809  0.3018
  522TMC3    C8 7760   0.698   3.821  16.797 -0.1565  0.1604  0.1263
  522TMC3    O1 7761   0.288   4.089  16.837  0.4473  0.1478  0.1307
  522TMC3    O2 7762   0.720   3.929  16.745  0.2394 -0.6266  0.0878
  523MPD2     C 7763   3.124   2.748  10.393  0.1640 -0.1179 -0.0911
  523MPD2    C1 7764   3.054   2.713  10.277  0.2604 -0.2840  0.7543
  523MPD2    C2 7765   3.021   2.813  10.182 -0.1852 -0.3424 -0.2659
  523MPD2    C3 7766   3.055   2.951  10.205  0.1525  0.8107  0.1768
  523MPD2    C4 7767   3.126   2.978  10.320  0.0366  0.2454  0.3077
  523MPD2    C5 7768   3.153   2.882  10.410  0.5545 -0.4190 -0.2501
  523MPD2     H 7769   2.962   2.788  10.094 -1.9578  1.1454  0.5047
  523MPD2    H1 7770   3.155   3.081  10.335  2.4865 -0.5325  0.8884
  523MPD2    H2 7771   3.161   2.675  10.464  1.9318  0.8536 -0.0150
  523MPD2    H3 7772   3.219   2.901  10.493  0.4025 -3.7346  0.6334
  523MPD2     N 7773   3.023   3.065  10.121  0.1974  0.3641 -0.5691
  523MPD2    H5 7774   3.035   3.158  10.159 -1.1484 -0.0360  0.8154
  523MPD2    N1 7775   3.013   2.582  10.277 -0.0512 -0.0231  0.6645
  523MPD2    H7 7776   3.053   2.538  10.359 -1.3245 -1.8711  0.2998
  524TMC3    C1 7777   2.923   3.188   9.942 -0.4117  0.0792  0.0010
  524TMC3    C2 7778   2.811   3.182   9.860 -0.0072  0.5320  0.0660
  524TMC3    C3 7779   2.783   3.303   9.792  0.4781  0.0120  0.4859
  524TMC3    C4 7780   2.975   3.304   9.995  0.2255  0.6165  0.2730
  524TMC3    C5 7781   2.930   3.416   9.935 -0.3147  0.6076  0.2906
  524TMC3    C6 7782   2.835   3.420   9.831  0.0726 -0.4843  0.7826
  524TMC3     C 7783   2.971   3.056   9.997  0.5935 -0.9870  0.6705
  524TMC3     O 7784   2.945   2.952   9.941 -0.1093 -0.8224 -0.0170
  524TMC3     H 7785   2.781   3.090   9.811  0.6532  0.2198  0.2547
  524TMC3    H1 7786   3.049   3.300  10.074 -0.8973 -0.8314  1.2504
  524TMC3    H2 7787   2.793   3.513   9.795  0.5303 -0.3042  0.7133
  524TMC3    C7 7788   2.996   3.531   9.987  0.0528  0.1840  0.5826
  524TMC3    C8 7789   2.684   3.309   9.690  0.1458 -0.1107  0.0789
  524TMC3    O1 7790   3.092   3.516  10.066  0.1334  0.1167  0.0695
  524TMC3    O2 7791   2.687   3.408   9.616  0.3062  0.3818 -0.4973
  525MPD2     C 7792   0.470   0.365  14.394  0.5922  0.1822  0.0550
  525MPD2    C1 7793   0.580   0.391  14.470 -0.6275  0.2705  0.0473
  525MPD2    C2 7794   0.617   0.524  14.473  0.4223 -0.3839  0.7128
  525MPD2    C3 7795   0.553   0.625  14.399  0.7072  0.4263  0.2454
  525MPD2    C4 7796   0.444   0.592  14.322  0.1543  0.3806  0.4181
  525MPD2    C5 7797   0.415   0.456  14.312 -0.6065 -0.4140 -1.0642
  525MPD2     H 7798   0.704   0.550  14.532  2.0556 -1.9047 -1.0281
  525MPD2    H1 7799   0.387   0.668  14.269  0.5283  0.0665 -0.4361
  525MPD2    H2 7800   0.426   0.266  14.388  0.0327  0.4119  0.3692
  525MPD2    H3 7801   0.343   0.425  14.237 -1.6681 -0.8386  0.1283
  525MPD2     N 7802   0.606   0.757  14.410  0.0941 -1.2783  0.3435
  525MPD2    H5 7803   0.542   0.832  14.387 -0.0226 -1.0131  1.5216
  525MPD2    N1 7804   0.644   0.301  14.555  0.3724  0.3307 -0.7864
  525MPD2    H7 7805   0.721   0.342  14.607 -0.3874 -0.0896  0.6758
  526TMC3    C1 7806   0.665   0.123  14.703  0.4530  0.0811 -0.0853
  526TMC3    C2 7807   0.597   0.048  14.802  0.1539 -0.6999  0.2382
  526TMC3    C3 7808   0.684   4.703  14.895  0.6630  0.0482  0.0050
  526TMC3    C4 7809   0.801   0.125  14.684  0.2887  0.4268 -0.1367
  526TMC3    C5 7810   0.881   0.056  14.781  0.5783 -0.3777  0.2408
  526TMC3    C6 7811   0.815   4.704  14.876 -0.2118 -0.2046 -1.2724
  526TMC3     C 7812   0.592   0.185  14.603 -0.0132  0.2907 -0.0900
  526TMC3     O 7813   0.472   0.148  14.600  0.4722  0.1507  0.1208
  526TMC3     H 7814   0.489   0.041  14.810  0.3031 -1.0478  1.8467
  526TMC3    H1 7815   0.854   0.182  14.609 -0.6020 -2.3672 -2.8861
  526TMC3    H2 7816   0.870   4.626  14.926 -0.3176 -1.1615 -2.6596
  526TMC3    C7 7817   1.026   0.044  14.774 -0.8283  0.0287  0.2671
  526TMC3    C8 7818   0.637   4.662  15.024  0.1012  0.5348  0.8272
  526TMC3    O1 7819   1.078   0.059  14.664 -0.0129 -0.3610 -0.4321
  526TMC3    O2 7820   0.712   4.655  15.120 -0.4179 -0.1331  0.0327
  527MPD2     C 7821   3.472   2.827   1.679 -0.0781 -0.0045 -0.1699
  527MPD2    C1 7822   3.588   2.759   1.662 -0.8235  0.1982 -0.4849
  527MPD2    C2 7823   3.625   2.752   1.528  0.3628 -0.5391 -0.1555
  527MPD2    C3 7824   3.558   2.821   1.434  0.0776 -1.1370  0.0560
  527MPD2    C4 7825   3.450   2.902   1.458 -0.1680 -0.0134  0.7391
  527MPD2    C5 7826   3.410   2.896   1.583 -0.9160 -0.8796 -0.0638
  527MPD2     H 7827   3.714   2.696   1.500 -0.5559 -1.5816 -0.9449
  527MPD2    H1 7828   3.392   2.957   1.385  1.6444 -0.3398 -0.9517
  527MPD2    H2 7829   3.429   2.821   1.779  0.7454  3.3110  0.3712
  527MPD2    H3 7830   3.325   2.958   1.609  0.3514 -0.4777  3.0980
  527MPD2     N 7831   3.604   2.793   1.303 -0.1633  0.0365 -0.0831
  527MPD2    H5 7832   3.683   2.729   1.297  0.3021  0.7801 -1.6484
  527MPD2    N1 7833   3.666   2.679   1.751 -0.3747 -0.1475  0.5588
  527MPD2    H7 7834   3.747   2.631   1.712 -1.2980 -1.4340  0.2408
  528TMC3    C1 7835   3.732   2.583   1.945 -0.1882  0.2587  0.2906
  528TMC3    C2 7836   3.857   2.638   1.927 -0.8313 -0.1770 -0.1559
  528TMC3    C3 7837   3.952   2.575   2.002 -0.1163  0.6403 -0.3072
  528TMC3    C4 7838   3.697   2.486   2.034  0.1151  0.1873 -0.0834
  528TMC3    C5 7839   3.798   2.437   2.117 -0.0116  0.1341 -0.5259
  528TMC3    C6 7840   3.925   2.474   2.095 -0.2642 -0.1774  0.3588
  528TMC3     C 7841   3.633   2.669   1.880  0.3923 -0.3360 -0.2969
  528TMC3     O 7842   3.544   2.720   1.950 -0.1889  0.5058  0.1337
  528TMC3     H 7843   3.870   2.729   1.869  1.5361 -1.1322 -1.0958
  528TMC3    H1 7844   3.594   2.455   2.046  0.2463  1.0381  3.2969
  528TMC3    H2 7845   4.012   2.434   2.146 -1.4249 -1.6990  1.1442
  528TMC3    C7 7846   3.777   2.311   2.185  1.0012  0.4047 -0.7019
  528TMC3    C8 7847   4.084   2.632   1.979  0.2714  0.1587  0.3270
  528TMC3    O1 7848   3.859   2.223   2.162  0.4869  0.2457 -0.7318
  528TMC3    O2 7849   4.088   2.705   1.878  0.1369  0.4653 -0.0724
  529MPD2     C 7850   0.879   1.971   1.459 -0.0847 -0.0981  0.9120
  529MPD2    C1 7851   0.965   1.900   1.372  0.4857 -0.3200  0.3677
  529MPD2    C2 7852   1.016   1.958   1.258  0.3702  0.6942  0.0835
  529MPD2    C3 7853   0.982   2.094   1.231  0.1707 -0.1566 -0.7826
  529MPD2    C4 7854   0.911   2.164   1.322  0.2237  0.0553 -0.1149
  529MPD2    C5 7855   0.847   2.098   1.428 -0.0613  0.0165  0.2747
  529MPD2     H 7856   1.067   1.904   1.179 -1.0808 -1.3054  0.5079
  529MPD2    H1 7857   0.882   2.268   1.311 -1.2543 -0.3730 -0.1840
  529MPD2    H2 7858   0.829   1.923   1.542 -1.9848  0.2709 -0.0302
  529MPD2    H3 7859   0.788   2.158   1.497 -0.5706  0.1332 -0.2679
  529MPD2     N 7860   1.019   2.168   1.111  0.3143  0.3450 -0.8354
  529MPD2    H5 7861   0.999   2.267   1.106  0.6548  0.4290 -0.6251
  529MPD2    N1 7862   1.003   1.767   1.394 -0.3730  0.2610 -1.1354
  529MPD2    H7 7863   1.055   1.732   1.314 -1.5079 -0.0665 -1.7345
  530TMC3    C1 7864   1.023   1.557   1.475 -0.3019 -1.0410 -0.1479
  530TMC3    C2 7865   1.088   1.487   1.573  0.0716 -0.7249 -0.3089
  530TMC3    C3 7866   1.133   1.361   1.544 -0.8288 -0.0610 -0.3166
  530TMC3    C4 7867   1.012   1.514   1.345 -0.0654  0.3778  0.3543
  530TMC3    C5 7868   1.071   1.392   1.322 -0.3284 -0.3920 -0.2260
  530TMC3    C6 7869   1.134   1.315   1.418  0.1368 -0.8357 -0.3398
  530TMC3     C 7870   0.978   1.690   1.504  0.0766 -1.0114 -0.2232
  530TMC3     O 7871   0.950   1.720   1.619  0.4640  0.1240 -0.0411
  530TMC3     H 7872   1.101   1.525   1.674 -0.3229  0.4178 -0.6860
  530TMC3    H1 7873   0.957   1.562   1.265 -1.1986 -0.0295  0.8822
  530TMC3    H2 7874   1.180   1.219   1.396 -0.6158 -0.9048 -1.6001
  530TMC3    C7 7875   1.019   1.318   1.208  0.6761 -0.0225 -0.7161
  530TMC3    C8 7876   1.214   1.284   1.639 -0.6507 -0.0235  0.5266
  530TMC3    O1 7877   1.001   1.375   1.102  0.3319 -0.3783 -0.9756
  530TMC3    O2 7878   1.308   1.226   1.595 -0.2985  0.2118  0.5079
  531MPD2     C 7879   0.260   4.035  13.926  0.0401  1.0349 -0.8359
  531MPD2    C1 7880   0.181   3.955  14.008 -0.6400  0.3083 -0.2462
  531MPD2    C2 7881   0.048   3.945  13.977  0.4857 -0.6153  0.3204
  531MPD2    C3 7882   4.714   4.003  13.868 -0.9641 -0.2901 -0.0169
  531MPD2    C4 7883   0.078   4.084  13.785  0.2365 -0.0670  0.0327
  531MPD2    C5 7884   0.210   4.103  13.818  1.0053 -0.7808 -0.3012
  531MPD2     H 7885   4.706   3.872  14.026 -1.0056  1.5571  1.5828
  531MPD2    H1 7886   0.036   4.130  13.696  1.7946  1.0445 -0.1193
  531MPD2    H2 7887   0.366   4.047  13.946  0.1549  0.0074 -0.8024
  531MPD2    H3 7888   0.273   4.166  13.756  0.2138  1.9771  1.6488
  531MPD2     N 7889   4.571   3.979  13.840  0.5549  0.0324 -0.3554
  531MPD2    H5 7890   4.520   3.933  13.914  0.7030  0.9019  0.2882
  531MPD2    N1 7891   0.241   3.865  14.109 -0.1544 -0.0978 -0.3424
  531MPD2    H7 7892   0.340   3.863  14.130 -0.6444 -4.7461  1.3637
  532TMC3    C1 7893   0.244   3.714  14.284  0.7740 -0.2264  0.3658
  532TMC3    C2 7894   0.162   3.671  14.390 -0.5923 -0.0316  0.2532
  532TMC3    C3 7895   0.162   3.534  14.415 -0.6924 -0.1130  0.0296
  532TMC3    C4 7896   0.333   3.632  14.220  0.1755 -0.4088 -0.3588
  532TMC3    C5 7897   0.335   3.500  14.256 -0.2952 -0.1557 -0.1955
  532TMC3    C6 7898   0.259   3.449  14.353  0.2511  0.0149  0.4262
  532TMC3     C 7899   0.168   3.795  14.193  0.2631  0.0451  0.8310
  532TMC3     O 7900   0.047   3.800  14.217 -0.4199  0.4916  0.3030
  532TMC3     H 7901   0.098   3.735  14.450  0.5688  0.9434  0.4379
  532TMC3    H1 7902   0.387   3.659  14.129 -1.6194  1.7523 -0.7839
  532TMC3    H2 7903   0.236   3.344  14.368  1.0952 -0.3277 -0.6883
  532TMC3    C7 7904   0.394   3.410  14.159  0.2296 -0.4036  0.3009
  532TMC3    C8 7905   0.030   3.478  14.421 -0.1330  0.4479  0.5568
  532TMC3    O1 7906   0.445   3.301  14.187 -0.6396  0.3361 -0.4297
  532TMC3    O2 7907   0.021   3.361  14.446  0.1011 -0.3251 -0.3031
  533TMC3    C1 7908   0.720   0.945  14.474 -0.1342  0.9673 -0.6819
  533TMC3    C2 7909   0.845   0.994  14.476  0.3009 -0.7527 -0.2249
  533TMC3    C3 7910   0.867   1.090  14.565 -0.7743  0.9208 -0.0239
  533TMC3    C4 7911   0.619   0.977  14.564 -0.6033  0.3916 -0.9586
  533TMC3    C5 7912   0.657   1.055  14.674 -0.4310 -0.2916 -0.3154
  533TMC3    C6 7913   0.780   1.114  14.667  0.0146  0.4087 -0.0002
  533TMC3     C 7914   0.725   0.806  14.446  0.5412  0.3886  0.4229
  533TMC3     O 7915   0.830   0.749  14.479  0.4577  0.2984  0.4285
  533TMC3     H 7916   0.918   0.953  14.406  1.3445 -0.6093  0.7763
  533TMC3    H1 7917   0.525   0.924  14.565 -0.0103 -0.6471  1.4390
  533TMC3    H2 7918   0.813   1.188  14.738  0.1255  2.3799 -2.1044
  533TMC3    C7 7919   0.624   1.005  14.807 -0.1372  0.0481 -0.1253
  533TMC3    C8 7920   1.001   1.116  14.595 -0.4182 -1.2359  0.0746
  533TMC3    O1 7921   0.527   0.925  14.806  0.2379  0.3259 -0.1064
  533TMC3    O2 7922   1.035   1.095  14.710  0.5089 -0.4993 -0.1405
  534MPD2     C 7923   3.585   1.369   2.066  0.1965  0.5859 -0.2662
  534MPD2    C1 7924   3.504   1.474   2.022 -0.1601 -0.6107 -0.1298
  534MPD2    C2 7925   3.375   1.446   1.978  0.2732 -0.5448 -0.4282
  534MPD2    C3 7926   3.326   1.317   1.974 -0.0353 -0.4639 -0.2175
  534MPD2    C4 7927   3.410   1.216   2.017 -0.1822  0.1344 -0.6052
  534MPD2    C5 7928   3.536   1.244   2.061 -0.6597 -0.5785 -0.3457
  534MPD2     H 7929   3.313   1.529   1.945 -0.1688 -0.3065  1.0278
  534MPD2    H1 7930   3.392   1.109   2.013  0.5567  0.0186 -0.7415
  534MPD2    H2 7931   3.688   1.378   2.097 -1.0291  1.6204  3.4273
  534MPD2    H3 7932   3.590   1.162   2.107 -0.1713 -0.7569 -1.2419
  534MPD2     N 7933   3.203   1.276   1.920 -0.1361  0.2702 -0.5577
  534MPD2    H5 7934   3.208   1.180   1.887 -0.3190 -0.3070  1.0961
  534MPD2    N1 7935   3.542   1.604   2.010 -0.1313  0.4784 -0.7433
  534MPD2    H7 7936   3.483   1.667   1.957  0.5850  1.7446 -0.0414
  535TMC3    C1 7937   2.979   1.286   1.829 -0.0989  0.2023  0.1486
  535TMC3    C2 7938   2.852   1.337   1.842  0.2488  0.3004 -0.2029
  535TMC3    C3 7939   2.753   1.260   1.791  0.0500 -0.5328  0.0107
  535TMC3    C4 7940   3.003   1.179   1.749 -0.0572 -0.2260 -0.4278
  535TMC3    C5 7941   2.900   1.112   1.681 -0.0526 -0.0905  0.0678
  535TMC3    C6 7942   2.772   1.149   1.707  0.4341  0.1842 -0.3225
  535TMC3     C 7943   3.088   1.348   1.904  0.0170  0.6349  0.4344
  535TMC3     O 7944   3.070   1.462   1.946 -0.2758  0.3278 -0.4812
  535TMC3     H 7945   2.830   1.428   1.897 -0.0330 -0.3000  0.6808
  535TMC3    H1 7946   3.108   1.154   1.736 -0.4789 -1.5384 -1.2975
  535TMC3    H2 7947   2.690   1.093   1.664 -1.0220  1.3076  0.9953
  535TMC3    C7 7948   2.928   0.999   1.589 -0.0343  0.5697 -0.5270
  535TMC3    C8 7949   2.618   1.283   1.836  0.6076  0.2493  0.4662
  535TMC3    O1 7950   2.852   0.974   1.499  0.6512  0.2184  0.5324
  535TMC3    O2 7951   2.542   1.191   1.823 -0.3275  0.2032 -0.4323
  536MPD2     C 7952   1.964   0.279  16.980 -0.2674  0.0018  0.1285
  536MPD2    C1 7953   1.937   0.160  16.917 -0.5090  0.7706 -0.2590
  536MPD2    C2 7954   1.915   0.162  16.782 -0.2069 -0.4552  0.1045
  536MPD2    C3 7955   1.892   0.279  16.717  0.2725  1.1514 -0.3147
  536MPD2    C4 7956   1.912   0.396  16.785  0.1474  0.3806 -0.5649
  536MPD2    C5 7957   1.944   0.397  16.913  0.0501  0.1677 -0.2433
  536MPD2     H 7958   1.892   0.069  16.730 -1.7720  1.4506 -2.6427
  536MPD2    H1 7959   1.898   0.492  16.735 -0.8768 -1.2055 -3.2904
  536MPD2    H2 7960   1.979   0.279  17.087 -0.0457 -0.8044  0.0958
  536MPD2    H3 7961   1.976   0.490  16.958  1.2459 -1.6698  2.6959
  536MPD2     N 7962   1.848   0.284  16.584  0.1449 -0.2055 -1.0237
  536MPD2    H5 7963   1.804   0.363  16.538 -1.0337 -0.1303  0.2356
  536MPD2    N1 7964   1.941   0.043  16.990 -0.3391  0.0113  0.5331
  536MPD2    H7 7965   1.976   0.051  17.084  0.8278 -0.0496  0.1041
  537TMC3    C1 7966   1.873   4.546  17.062  0.5439 -0.3833 -0.7988
  537TMC3    C2 7967   1.974   4.535  17.151 -0.4609 -0.2153  0.1844
  537TMC3    C3 7968   1.972   4.423  17.232  0.2927  0.2661  0.1904
  537TMC3    C4 7969   1.767   4.457  17.059  0.5032  0.0044 -0.4974
  537TMC3    C5 7970   1.774   4.348  17.135 -0.0537 -0.6752 -0.2287
  537TMC3    C6 7971   1.861   4.341  17.233  0.5897  0.3961  0.0926
  537TMC3     C 7972   1.868   4.652  16.958  0.2227 -0.5054  0.0376
  537TMC3     O 7973   1.794   4.630  16.861  0.1877 -0.3032 -0.1370
  537TMC3     H 7974   2.055   4.607  17.144 -0.3667 -0.2796  0.6139
  537TMC3    H1 7975   1.695   4.442  16.979  1.9437  1.3954 -2.0566
  537TMC3    H2 7976   1.869   4.256  17.300  0.6453 -0.7643 -1.4086
  537TMC3    C7 7977   1.649   4.280  17.162  0.2073  0.2078  0.5063
  537TMC3    C8 7978   2.072   4.403  17.338 -0.6527 -0.2298 -0.4152
  537TMC3    O1 7979   1.544   4.344  17.136 -0.2828  0.4091  0.3737
  537TMC3    O2 7980   2.059   4.308  17.417 -0.0572  0.0473  0.3808
  538TMC3    C1 7981   3.374   3.583  10.891  0.5513  0.1006  0.2354
  538TMC3    C2 7982   3.416   3.528  10.771 -0.2547  0.3427  0.7839
  538TMC3    C3 7983   3.312   3.498  10.686  0.2081  0.3144  0.1371
  538TMC3    C4 7984   3.239   3.607  10.928  0.5407 -0.6468  0.5981
  538TMC3    C5 7985   3.143   3.589  10.828  0.2624 -0.2728  0.2053
  538TMC3    C6 7986   3.180   3.518  10.712  0.0244 -0.4317 -0.1946
  538TMC3     C 7987   3.477   3.585  10.992  0.2235  0.0834 -0.0543
  538TMC3     O 7988   3.594   3.560  10.955  0.6906 -0.8795 -0.0647
  538TMC3     H 7989   3.517   3.493  10.751 -0.6416 -1.0810  1.3288
  538TMC3    H1 7990   3.222   3.657  11.022 -2.3622  0.3391 -0.4584
  538TMC3    H2 7991   3.097   3.482  10.652 -0.5489  1.6903 -0.6604
  538TMC3    C7 7992   3.008   3.574  10.881 -0.2662 -0.0155 -0.0898
  538TMC3    C8 7993   3.342   3.407  10.578  0.0661  0.0627 -0.1287
  538TMC3    O1 7994   2.953   3.467  10.853  0.2056 -0.3291  0.5548
  538TMC3    O2 7995   3.292   3.438  10.473 -0.0549 -0.0781 -0.8970
  539MPD2     C 7996   2.943   2.416  12.239  0.0798 -0.0817 -0.1188
  539MPD2    C1 7997   2.914   2.405  12.106  0.6703  0.1070  1.1065
  539MPD2    C2 7998   2.899   2.518  12.035 -0.1757 -0.6068  0.6380
  539MPD2    C3 7999   2.891   2.646  12.091  0.6324  1.1046  0.7698
  539MPD2    C4 8000   2.914   2.655  12.230  0.3044  0.4826  0.0992
  539MPD2    C5 8001   2.943   2.540  12.296  1.0709  0.4640 -0.0751
  539MPD2     H 8002   2.889   2.507  11.927 -0.2919 -3.1190  0.9162
  539MPD2    H1 8003   2.902   2.747  12.286 -1.1459  0.4596 -0.1617
  539MPD2    H2 8004   2.970   2.329  12.298 -1.4745  0.2895  1.1424
  539MPD2    H3 8005   2.952   2.537  12.404 -2.4361  0.0653  0.2035
  539MPD2     N 8006   2.868   2.761  12.020  0.4210 -0.4212 -0.1992
  539MPD2    H5 8007   2.872   2.846  12.076  1.7017  0.4499 -1.6052
  539MPD2    N1 8008   2.921   2.283  12.043  0.4678  0.2904 -0.0733
  539MPD2    H7 8009   2.920   2.278  11.941 -1.4323 -1.6400  0.0391
  540TMC3    C1 8010   2.803   2.912  11.850 -0.1315 -0.2319 -0.6146
  540TMC3    C2 8011   2.826   2.941  11.716 -0.0294 -0.0765 -0.0966
  540TMC3    C3 8012   2.790   3.063  11.669  0.9102 -0.7446 -0.1380
  540TMC3    C4 8013   2.740   3.001  11.935  0.2566  0.7568  0.7403
  540TMC3    C5 8014   2.702   3.121  11.884  0.1204  1.3862  0.0841
  540TMC3    C6 8015   2.726   3.160  11.748 -0.1707 -0.3685 -0.0802
  540TMC3     C 8016   2.840   2.773  11.892  0.3430 -0.1085 -0.1757
  540TMC3     O 8017   2.833   2.692  11.798  0.0668 -0.0229  0.7059
  540TMC3     H 8018   2.870   2.865  11.652 -0.4084 -0.5847  0.2499
  540TMC3    H1 8019   2.718   2.974  12.037 -1.2581  0.5656  0.3571
  540TMC3    H2 8020   2.673   3.243  11.702 -0.6061 -1.0365 -0.7710
  540TMC3    C7 8021   2.631   3.208  11.968  0.4576  0.4619  0.5237
  540TMC3    C8 8022   2.798   3.094  11.529  0.2436 -0.2999 -0.0408
  540TMC3    O1 8023   2.579   3.162  12.066 -0.5165 -0.1128  0.0011
  540TMC3    O2 8024   2.817   3.214  11.507  0.5434  0.4539 -0.2211
  541MPD2     C 8025   1.329   4.261  13.796 -0.7208  0.0328 -0.0083
  541MPD2    C1 8026   1.372   4.177  13.692 -0.4663 -0.8331 -0.1538
  541MPD2    C2 8027   1.406   4.242  13.570  0.1756 -0.1155  0.0002
  541MPD2    C3 8028   1.391   4.385  13.555  0.3683 -0.8832 -0.1227
  541MPD2    C4 8029   1.353   4.461  13.662  0.4320  0.5567  0.1868
  541MPD2    C5 8030   1.311   4.399  13.780 -0.2024 -0.0396  0.0876
  541MPD2     H 8031   1.440   4.181  13.487 -0.8494 -0.5023 -0.1386
  541MPD2    H1 8032   1.330   4.566  13.652  2.6605  1.3576  3.4073
  541MPD2    H2 8033   1.308   4.227  13.897 -2.4534  0.8268 -0.0935
  541MPD2    H3 8034   1.268   4.456  13.861  0.6895 -0.3777  0.7952
  541MPD2     N 8035   1.416   4.446  13.427 -0.0208 -0.4868 -0.2110
  541MPD2    H5 8036   1.397   4.546  13.417 -2.0958 -0.8647 -0.1397
  541MPD2    N1 8037   1.401   4.036  13.722 -0.1747 -0.2998 -0.5869
  541MPD2    H7 8038   1.359   3.997  13.805  1.2810 -2.2532 -0.7748
  542TMC3    C1 8039   1.446   4.478  13.196 -0.0624 -0.0060  0.4393
  542TMC3    C2 8040   1.484   4.422  13.076 -0.0047  0.0820  0.5125
  542TMC3    C3 8041   1.496   4.501  12.962  0.4793 -0.6205 -0.1175
  542TMC3    C4 8042   1.453   4.616  13.207 -0.2294  0.3971  0.0521
  542TMC3    C5 8043   1.463   4.691  13.092  0.0989 -0.2671 -0.3261
  542TMC3    C6 8044   1.493   4.638  12.972  0.5799 -0.1879 -0.1796
  542TMC3     C 8045   1.455   4.386  13.311 -0.2929  0.1494 -0.5992
  542TMC3     O 8046   1.485   4.270  13.290  0.3476  0.1519  0.1716
  542TMC3     H 8047   1.498   4.316  13.058  0.1751  0.6989 -2.9010
  542TMC3    H1 8048   1.406   4.664  13.292 -1.7384 -1.8503  0.4876
  542TMC3    H2 8049   1.488   4.692  12.878 -0.4334 -1.2636 -0.7525
  542TMC3    C7 8050   1.438   0.111  13.087  0.0210  0.6531 -0.3171
  542TMC3    C8 8051   1.536   4.436  12.842  0.4406 -0.4880  0.0565
  542TMC3    O1 8052   1.410   0.165  12.982 -0.0253  0.3934  0.0620
  542TMC3    O2 8053   1.485   4.330  12.807 -0.1445 -0.1204 -0.0450
  543TMC3    C1 8054   0.173   0.380  17.170  0.8634 -0.1762 -0.2979
  543TMC3    C2 8055   0.245   0.289  17.244 -0.3438  0.9092  0.0093
  543TMC3    C3 8056   0.177   0.209  17.331  0.2662 -0.0523  0.8802
  543TMC3    C4 8057   0.035   0.395  17.197  0.9519 -0.2267 -0.3228
  543TMC3    C5 8058   4.687   0.322  17.294  0.1225  0.1990 -1.0004
  543TMC3    C6 8059   0.041   0.225  17.356  0.1973 -0.9153  0.2938
  543TMC3     C 8060   0.249   0.445  17.066 -0.2894  0.3467 -0.3593
  543TMC3     O 8061   0.365   0.408  17.053  0.3554  0.2045 -0.7242
  543TMC3     H 8062   0.352   0.275  17.228 -1.0387 -1.8964 -2.2269
  543TMC3    H1 8063   4.699   0.466  17.140 -0.3454  0.2134  1.5689
  543TMC3    H2 8064   4.707   0.169  17.430  0.8072 -0.0653  1.4080
  543TMC3    C7 8065   4.569   0.378  17.358  0.3621 -0.5740  0.8897
  543TMC3    C8 8066   0.252   0.113  17.398 -0.0063 -0.5472  0.7482
  543TMC3    O1 8067   4.509   0.305  17.436  0.5306 -0.5764  0.0112
  543TMC3    O2 8068   0.373   0.132  17.398  0.4598 -0.2188  0.2838
  544MPD2     C 8069   0.298   4.337  17.554  0.4376 -0.3913 -0.6643
  544MPD2    C1 8070   0.399   4.417  17.504  0.0391 -0.2726 -0.0063
  544MPD2    C2 8071   0.361   4.547  17.469 -0.0127 -0.3445  0.3635
  544MPD2    C3 8072   0.229   4.594  17.479  0.3438  0.0227  0.1714
  544MPD2    C4 8073   0.132   4.509  17.530 -1.0254 -0.2225  1.0497
  544MPD2    C5 8074   0.171   4.381  17.571 -0.6328 -0.2247 -0.2291
  544MPD2     H 8075   0.434   4.616  17.429  0.1661 -1.3998 -1.1277
  544MPD2    H1 8076   0.029   4.542  17.528 -0.5161  1.3713  0.7175
  544MPD2    H2 8077   0.320   4.235  17.582  1.4548 -0.8107 -2.9855
  544MPD2    H3 8078   0.095   4.311  17.604 -2.8005  1.9339 -0.6583
  544MPD2     N 8079   0.179   0.001  17.441  0.0137  0.7289  0.3968
  544MPD2    H5 8080   0.078   0.009  17.434  0.0299  0.1183 -0.6135
  544MPD2    N1 8081   0.521   4.353  17.482  1.0083 -0.1374  0.1965
  544MPD2    H7 8082   0.531   4.252  17.479 -1.3495 -0.3866  0.3622
  545TMC3    C1 8083   0.739   4.339  17.402 -0.5126 -0.3038  0.2153
  545TMC3    C2 8084   0.841   4.407  17.336 -0.3639  0.0168  0.5381
  545TMC3    C3 8085   0.957   4.335  17.315  0.0601 -0.4410  0.3259
  545TMC3    C4 8086   0.746   4.210  17.448 -0.3108 -0.2878 -0.1320
  545TMC3    C5 8087   0.860   4.143  17.417  0.1588 -0.5577 -0.5257
  545TMC3    C6 8088   0.963   4.204  17.348  0.2143 -0.4590 -0.2008
  545TMC3     C 8089   0.628   4.427  17.441 -0.5533  0.1265  0.1818
  545TMC3     O 8090   0.648   4.549  17.440 -0.0259 -0.4732  0.2635
  545TMC3     H 8091   0.825   4.506  17.294  2.0361 -0.0121 -0.4158
  545TMC3    H1 8092   0.667   4.145  17.484 -1.1239  0.8996  0.2255
  545TMC3    H2 8093   1.049   4.143  17.324 -0.2389 -1.9487  2.0040
  545TMC3    C7 8094   0.865   3.999  17.431 -0.2401  0.5259  0.2179
  545TMC3    C8 8095   1.060   4.374  17.222  0.0392  0.5062 -0.1085
  545TMC3    O1 8096   0.837   3.931  17.532 -0.1968  0.4601  0.0930
  545TMC3    O2 8097   1.169   4.320  17.236  0.2005  0.4481  0.3242
  546MPD2     C 8098   1.766   0.320   0.246 -0.0252 -0.3104  0.4204
  546MPD2    C1 8099   1.760   0.384   0.123  0.4690 -0.1674 -0.7538
  546MPD2    C2 8100   1.842   0.496   0.112 -0.4974 -0.4093  0.3926
  546MPD2    C3 8101   1.935   0.534   0.210  0.1886 -0.5265  0.3201
  546MPD2    C4 8102   1.933   0.469   0.333  0.5507  0.2563 -0.3547
  546MPD2    C5 8103   1.857   0.358   0.345  0.3940  0.3672 -0.1010
  546MPD2     H 8104   1.838   0.546   0.016  0.3159 -0.6222  0.2525
  546MPD2    H1 8105   1.995   0.494   0.418 -0.9752  2.8924 -0.0167
  546MPD2    H2 8106   1.702   0.233   0.248 -2.2565  1.2524 -2.6445
  546MPD2    H3 8107   1.881   0.297   0.432  0.2297  0.1331 -0.2213
  546MPD2     N 8108   2.006   0.660   0.198  0.0244 -0.0164 -0.0271
  546MPD2    H5 8109   2.042   0.709   0.279 -1.2610 -0.5114  0.8531
  546MPD2    N1 8110   1.674   0.327   0.027 -0.4108  0.1062 -0.0207
  546MPD2    H7 8111   1.620   0.245   0.051  0.0785 -0.8174 -2.0979
  547TMC3    C1 8112   1.566   0.288  17.520  0.6184  0.5209 -0.1945
  547TMC3    C2 8113   1.486   0.366  17.438 -0.1563 -0.7527 -0.1377
  547TMC3    C3 8114   1.348   0.349  17.454  1.1068 -0.4192 -0.1298
  547TMC3    C4 8115   1.516   0.172  17.575  0.5317 -0.2171 -0.0086
  547TMC3    C5 8116   1.384   0.146  17.559 -0.2506 -0.2847 -0.0642
  547TMC3    C6 8117   1.296   0.238  17.506 -0.0419 -0.2808 -0.5815
  547TMC3     C 8118   1.662   0.368  17.590 -1.1548 -0.0130  0.0181
  547TMC3     O 8119   1.718   0.453  17.519  0.2136 -0.1937  0.1237
  547TMC3     H 8120   1.522   0.460  17.397  0.2597 -1.2511 -0.9206
  547TMC3    H1 8121   1.579   0.106  17.633 -0.4569 -1.3837 -0.2624
  547TMC3    H2 8122   1.189   0.225  17.495  0.2969 -0.4437 -3.6712
  547TMC3    C7 8123   1.323   0.069  17.665  0.5324  0.4967 -0.5095
  547TMC3    C8 8124   1.256   0.441  17.389 -0.2374 -0.0136 -0.1559
  547TMC3    O1 8125   1.212   0.095   0.005 -0.1259  0.3154  0.3993
  547TMC3    O2 8126   1.307   0.510  17.306 -0.3450 -0.0322 -0.4235
  548MPD2     C 8127   1.997   1.584  12.204  0.2521 -0.3901  0.1748
  548MPD2    C1 8128   1.954   1.464  12.258  0.1744 -0.0100 -0.1303
  548MPD2    C2 8129   2.015   1.346  12.227 -0.7073  0.7757 -1.2694
  548MPD2    C3 8130   2.128   1.341  12.140 -0.1714 -1.0788 -0.0382
  548MPD2    C4 8131   2.165   1.461  12.085  0.4803  0.0188 -0.1675
  548MPD2    C5 8132   2.096   1.573  12.103 -0.1818 -0.0742 -0.7023
  548MPD2     H 8133   1.991   1.251  12.275  1.3872  0.9398  0.0996
  548MPD2    H1 8134   2.245   1.467  12.012  0.7121 -1.6995 -0.0538
  548MPD2    H2 8135   1.952   1.678  12.235 -3.0184 -1.6664 -0.7127
  548MPD2    H3 8136   2.127   1.663  12.050  3.0732 -0.1823  1.0448
  548MPD2     N 8137   2.199   1.217  12.117 -0.4596 -0.3697  0.5769
  548MPD2    H5 8138   2.162   1.141  12.173  1.2118 -0.6742  1.2416
  548MPD2    N1 8139   1.852   1.472  12.360  0.5634 -0.2349 -0.0311
  548MPD2    H7 8140   1.815   1.564  12.384 -0.6857 -0.7577  0.0134
  549TMC3    C1 8141   1.680   1.416  12.510  1.6293  0.3642 -0.6773
  549TMC3    C2 8142   1.613   1.529  12.466  0.3072 -0.0155 -0.1426
  549TMC3    C3 8143   1.546   1.602  12.565 -0.3202  0.4346  0.6462
  549TMC3    C4 8144   1.692   1.381  12.638 -0.0980 -0.1262  0.7669
  549TMC3    C5 8145   1.619   1.459  12.732  0.1062 -0.1373  0.1701
  549TMC3    C6 8146   1.548   1.570  12.698  0.0124 -0.2414 -0.5886
  549TMC3     C 8147   1.788   1.367  12.428  0.3202  1.2554  0.8874
  549TMC3     O 8148   1.804   1.244  12.426  0.1057  0.0015 -0.0866
  549TMC3     H 8149   1.596   1.565  12.365  1.0734  2.6993  0.6997
  549TMC3    H1 8150   1.747   1.289  12.654  1.9118  1.0142  0.3999
  549TMC3    H2 8151   1.488   1.618  12.774  2.2440  1.5957  0.0347
  549TMC3    C7 8152   1.617   1.427  12.877  0.0157  0.2421 -0.2257
  549TMC3    C8 8153   1.448   1.705  12.524 -0.4813  0.8856  1.0805
  549TMC3    O1 8154   1.546   1.491  12.950 -0.5153 -0.4698 -0.3342
  549TMC3    O2 8155   1.372   1.676  12.433 -0.3943 -0.6347 -0.9978
  550TMC3    C1 8156   0.765   4.044  13.440  0.6131  0.3664  0.2720
  550TMC3    C2 8157   0.701   4.072  13.557 -0.3864 -0.8533  0.0526
  550TMC3    C3 8158   0.628   4.184  13.560  0.0389 -0.0643 -0.2566
  550TMC3    C4 8159   0.783   4.136  13.334  0.1888  0.0299 -0.2005
  550TMC3    C5 8160   0.710   4.250  13.348  0.7627 -0.5864 -0.8690
  550TMC3    C6 8161   0.637   4.279  13.462  0.3546 -0.6021 -0.3197
  550TMC3     C 8162   0.745   3.906  13.393 -0.0193  0.2990 -0.0195
  550TMC3     O 8163   0.748   3.823  13.476 -0.2541 -0.0488 -0.3524
  550TMC3     H 8164   0.673   3.990  13.623 -2.5785  0.0494  0.2271
  550TMC3    H1 8165   0.832   4.102  13.244 -0.4492 -1.7308  0.1028
  550TMC3    H2 8166   0.572   4.362  13.488 -0.2338 -0.7104 -1.4627
  550TMC3    C7 8167   0.619   4.256  13.236 -0.4683 -0.5738 -0.1347
  550TMC3    C8 8168   0.488   4.154  13.583  0.6083  0.5212 -0.2950
  550TMC3    O1 8169   0.615   4.153  13.166  1.2649  0.2906 -0.5819
  550TMC3    O2 8170   0.417   4.254  13.590 -0.0735  0.0517 -0.0656
  551TMC3    C1 8171   2.605   1.319  13.375  0.0885 -0.2848 -0.4892
  551TMC3    C2 8172   2.734   1.297  13.341 -0.8069 -0.1189 -0.2275
  551TMC3    C3 8173   2.829   1.340  13.430  0.7507  0.2164 -0.7956
  551TMC3    C4 8174   2.569   1.361  13.499 -0.1191  1.0084  0.1271
  551TMC3    C5 8175   2.669   1.398  13.589 -0.0504 -0.2546  0.2689
  551TMC3    C6 8176   2.795   1.390  13.553  0.0066 -0.1130  0.4173
  551TMC3     C 8177   2.507   1.309  13.266  0.4716 -0.1687  0.1168
  551TMC3     O 8178   2.556   1.261  13.161  0.2715 -0.0697  0.1103
  551TMC3     H 8179   2.766   1.276  13.239  0.1154 -0.6451  0.1726
  551TMC3    H1 8180   2.464   1.374  13.520 -0.4815  0.8731 -1.5997
  551TMC3    H2 8181   2.868   1.418  13.629  2.3625  0.5328 -2.1126
  551TMC3    C7 8182   2.639   1.437  13.728 -0.6126  0.0927  0.1216
  551TMC3    C8 8183   2.962   1.358  13.373 -0.0826 -0.1304 -0.1040
  551TMC3    O1 8184   2.736   1.414  13.798 -0.3332 -0.1138  0.3210
  551TMC3    O2 8185   2.997   1.287  13.282  0.3351  1.0757  0.6203
  552MPD2     C 8186   0.192   2.950  14.536  0.3312  0.5007  0.4217
  552MPD2    C1 8187   0.280   3.002  14.446 -0.1862 -0.8706  0.5636
  552MPD2    C2 8188   0.387   3.069  14.505 -0.5251 -0.5532  0.4785
  552MPD2    C3 8189   0.413   3.073  14.639 -0.3292  0.3547 -0.0790
  552MPD2    C4 8190   0.326   3.018  14.719  0.1484  0.1039  0.3258
  552MPD2    C5 8191   0.214   2.957  14.672  0.6233  0.2052  0.0465
  552MPD2     H 8192   0.450   3.114  14.428  1.5277 -0.4325  2.2295
  552MPD2    H1 8193   0.352   3.013  14.824 -1.0356 -1.3942  0.5388
  552MPD2    H2 8194   0.115   2.882  14.502  2.6736 -1.2504 -1.4381
  552MPD2    H3 8195   0.166   2.889  14.743 -0.7310  1.4002  0.2876
  552MPD2     N 8196   0.535   3.128  14.696  0.2831  0.4819 -0.3804
  552MPD2    H5 8197   0.564   3.091  14.786 -0.9958 -2.5104 -1.2125
  552MPD2    N1 8198   0.275   2.974  14.305 -0.1588 -0.4099  0.1277
  552MPD2    H7 8199   0.358   3.001  14.253  1.0997  0.0637  2.3975
  553TMC3    C1 8200   0.201   2.909  14.088  0.9427 -0.2593 -0.1369
  553TMC3    C2 8201   0.104   2.963  14.011 -0.2589  0.1533 -0.0664
  553TMC3    C3 8202   0.153   2.991  13.883  0.4175  0.1907  0.0107
  553TMC3    C4 8203   0.322   2.866  14.054 -0.4197 -0.2753  0.1250
  553TMC3    C5 8204   0.359   2.901  13.922 -0.5465  0.7084  0.1095
  553TMC3    C6 8205   0.276   2.961  13.833  0.3353 -0.0962  0.2699
  553TMC3     C 8206   0.168   2.926  14.234  0.6595 -0.4825  0.1023
  553TMC3     O 8207   0.049   2.913  14.267  0.4239  0.0244  0.0764
  553TMC3     H 8208   0.009   2.993  14.053  0.3864 -0.1884  1.6653
  553TMC3    H1 8209   0.381   2.809  14.125  0.9620  0.2037 -0.6296
  553TMC3    H2 8210   0.303   2.984  13.730 -1.6051  0.5706 -0.0903
  553TMC3    C7 8211   0.492   2.866  13.875  0.1281 -0.3410 -0.0824
  553TMC3    C8 8212   0.095   3.106  13.824 -0.2442 -0.9695  0.3578
  553TMC3    O1 8213   0.512   2.846  13.757 -0.0091 -0.1486 -0.2630
  553TMC3    O2 8214   0.125   3.123  13.710 -0.4183  0.2227  0.2154
  554TMC3    C1 8215   1.863   2.369  11.820  0.2706  0.0021  0.2460
  554TMC3    C2 8216   1.762   2.340  11.732 -0.0082 -0.4885 -0.0510
  554TMC3    C3 8217   1.707   2.444  11.662  0.1121 -0.0534  0.7151
  554TMC3    C4 8218   1.925   2.490  11.812  0.8330  0.1635 -0.1209
  554TMC3    C5 8219   1.878   2.590  11.732 -0.3382 -0.3112  0.2180
  554TMC3    C6 8220   1.761   2.567  11.667 -0.6414 -0.1738 -0.1056
  554TMC3     C 8221   1.889   2.269  11.918  0.2639  0.0632 -0.0409
  554TMC3     O 8222   1.842   2.157  11.892  0.3052  0.4328  0.7215
  554TMC3     H 8223   1.702   2.250  11.745 -2.2648  0.3060 -4.6654
  554TMC3    H1 8224   2.013   2.510  11.872  1.0415 -0.5226 -0.2046
  554TMC3    H2 8225   1.717   2.649  11.612 -0.8522 -0.9398 -1.0689
  554TMC3    C7 8226   1.953   2.705  11.694 -0.1494 -0.5255 -0.3667
  554TMC3    C8 8227   1.675   2.416  11.526 -0.5546  0.1286 -0.1798
  554TMC3    O1 8228   1.937   2.749  11.580  0.1075 -0.8457 -0.1293
  554TMC3    O2 8229   1.686   2.502  11.439 -0.3438  0.2514  0.3384
  555TMC3    C1 8230   0.825   2.011  15.212 -0.1346 -0.2149 -0.7594
  555TMC3    C2 8231   0.713   2.068  15.265 -0.5337  0.1725  0.7247
  555TMC3    C3 8232   0.651   1.993  15.367 -0.9210  1.0456 -0.4051
  555TMC3    C4 8233   0.861   1.877  15.232 -0.1492 -0.2270  0.5206
  555TMC3    C5 8234   0.791   1.809  15.325  0.1123  0.0161  0.6512
  555TMC3    C6 8235   0.684   1.865  15.396  0.3225 -0.3242 -0.0564
  555TMC3     C 8236   0.922   2.095  15.153 -0.4983  0.0113 -0.7046
  555TMC3     O 8237   1.042   2.063  15.143 -0.3723  0.1232 -0.3003
  555TMC3     H 8238   0.693   2.175  15.264 -1.9457 -0.0933 -0.3533
  555TMC3    H1 8239   0.945   1.826  15.188 -1.9710 -1.4867 -1.5249
  555TMC3    H2 8240   0.633   1.816  15.478 -0.3825 -0.1080 -0.3653
  555TMC3    C7 8241   0.814   1.670  15.357  0.3885  0.5140 -0.0598
  555TMC3    C8 8242   0.596   2.067  15.473  0.4009  0.0357 -0.5775
  555TMC3    O1 8243   0.727   1.627  15.431 -0.1823  0.1956 -0.1468
  555TMC3    O2 8244   0.496   2.132  15.452 -0.3932 -0.0040  0.5066
  556MPD2     C 8245   4.524   3.484  10.957  0.1556  1.3431 -0.3258
  556MPD2    C1 8246   4.394   3.486  10.999 -0.6154  0.4637 -0.5065
  556MPD2    C2 8247   4.322   3.378  10.960 -0.7345 -0.3069 -0.3791
  556MPD2    C3 8248   4.372   3.273  10.880  0.3064  0.9780 -0.5010
  556MPD2    C4 8249   4.505   3.268  10.854  0.5066  0.1551 -0.0613
  556MPD2    C5 8250   4.577   3.383  10.882 -0.2689  0.0863 -0.3697
  556MPD2     H 8251   4.217   3.384  10.986 -1.0019 -1.3054 -1.2102
  556MPD2    H1 8252   4.552   3.198  10.785  1.0409  1.3291 -0.8929
  556MPD2    H2 8253   4.591   3.564  10.987  1.0416  0.4701  0.0308
  556MPD2    H3 8254   4.679   3.405  10.851  0.0155 -1.7869 -0.7290
  556MPD2     N 8255   4.285   3.182  10.820  0.0912  0.6983 -0.1688
  556MPD2    H5 8256   4.186   3.194  10.837  0.2509  1.5583  0.1756
  556MPD2    N1 8257   4.337   3.582  11.081 -0.2654  0.1791  0.2286
  556MPD2    H7 8258   4.245   3.562  11.119 -0.6982 -0.2998 -1.0937
  557TMC3    C1 8259   4.199   2.994  10.720 -0.0416 -0.0454  0.5218
  557TMC3    C2 8260   4.230   2.863  10.686 -0.2218  0.2471  0.6510
  557TMC3    C3 8261   4.139   2.788  10.613  0.2814  0.0607  0.2967
  557TMC3    C4 8262   4.090   3.051  10.676  0.2011 -0.6447 -0.2831
  557TMC3    C5 8263   4.008   2.978  10.593  0.5428  0.0070 -0.6594
  557TMC3    C6 8264   4.027   2.849  10.561  0.7638 -0.4863 -0.5905
  557TMC3     C 8265   4.313   3.083  10.729 -0.4073  0.0422 -0.5485
  557TMC3     O 8266   4.417   3.032  10.695 -0.3677  0.3140 -0.9786
  557TMC3     H 8267   4.325   2.815  10.707  0.6062  0.4816 -2.6682
  557TMC3    H1 8268   4.080   3.159  10.678 -1.4495 -0.8552  1.9423
  557TMC3    H2 8269   3.950   2.788  10.515  1.2874 -1.5007 -0.1180
  557TMC3    C7 8270   3.872   3.036  10.594 -0.2734 -0.4471  0.7477
  557TMC3    C8 8271   4.169   2.650  10.599 -0.5918 -0.3587  0.3759
  557TMC3    O1 8272   3.862   3.129  10.671  0.1329  0.4030  0.4708
  557TMC3    O2 8273   4.252   2.607  10.678  0.0000  0.3662 -0.3110
  558TMC3    C1 8274   1.659   1.302  10.002  0.5633  0.4636  0.2928
  558TMC3    C2 8275   1.619   1.233  10.111  0.0750  0.3613 -0.0843
  558TMC3    C3 8276   1.501   1.171  10.095 -0.2918  0.0357 -0.3176
  558TMC3    C4 8277   1.610   1.284   9.878  0.8434 -0.0794  0.0025
  558TMC3    C5 8278   1.494   1.215   9.867 -0.3157  0.1622 -0.3113
  558TMC3    C6 8279   1.434   1.168   9.978  0.2711  0.4794 -0.3794
  558TMC3     C 8280   1.807   1.333   9.994 -1.0861  0.2295 -0.4254
  558TMC3     O 8281   1.859   1.372  10.099  0.0499 -0.1407 -0.4000
  558TMC3     H 8282   1.680   1.234  10.201  0.9378 -2.9975 -0.6093
  558TMC3    H1 8283   1.651   1.333   9.790  0.5152  0.6981  0.2796
  558TMC3    H2 8284   1.339   1.118   9.964 -0.3841  0.2697  4.6449
  558TMC3    C7 8285   1.458   1.161   9.736 -0.4467 -0.0204  0.1770
  558TMC3    C8 8286   1.430   1.116  10.211 -0.4951  0.1393  0.3965
  558TMC3    O1 8287   1.486   1.229   9.641  0.4466 -0.0914  0.0053
  558TMC3    O2 8288   1.309   1.085  10.194 -0.3274 -0.3301  0.0421
  559MPD2     C 8289   2.164   1.941  10.612 -0.2258  0.2134 -0.3112
  559MPD2    C1 8290   2.055   1.888  10.682 -0.1357  0.0701  0.2387
  559MPD2    C2 8291   2.073   1.871  10.822  0.6543  0.2490  0.6723
  559MPD2    C3 8292   2.180   1.930  10.886 -0.1663 -0.2022  0.4280
  559MPD2    C4 8293   2.278   1.985  10.813  0.5822  0.0806  0.1668
  559MPD2    C5 8294   2.273   1.988  10.674 -0.2310 -0.2867 -0.3772
  559MPD2     H 8295   1.990   1.834  10.883 -0.1644 -1.2631 -1.3648
  559MPD2    H1 8296   2.364   2.028  10.864  1.9513 -1.9108 -0.4786
  559MPD2    H2 8297   2.150   1.953  10.505  0.9247 -1.4491 -0.6412
  559MPD2    H3 8298   2.348   2.045  10.620 -2.1975  0.9491 -1.7796
  559MPD2     N 8299   2.176   1.923  11.024 -0.2876 -0.5033 -0.3895
  559MPD2    H5 8300   2.096   1.875  11.065 -0.7963  0.3203 -0.4220
  559MPD2    N1 8301   1.933   1.862  10.622 -0.4595 -0.1188  0.2379
  559MPD2    H7 8302   1.914   1.916  10.538 -0.1290  0.8978  0.8257
  560TMC3    C1 8303   2.239   1.943  11.244  0.1215 -0.8014 -0.5814
  560TMC3    C2 8304   2.177   1.823  11.275 -0.0746 -0.0657  0.1354
  560TMC3    C3 8305   2.182   1.779  11.408 -0.0569  0.4719 -0.3794
  560TMC3    C4 8306   2.317   2.010  11.336 -0.7308 -0.3532 -0.0676
  560TMC3    C5 8307   2.340   1.952  11.455  0.0167 -0.5094  0.2158
  560TMC3    C6 8308   2.268   1.839  11.491  0.5733  0.6011  1.2257
  560TMC3     C 8309   2.258   1.987  11.110 -0.4273 -0.2812  0.1166
  560TMC3     O 8310   2.341   2.070  11.088 -0.5498  0.2188  0.0151
  560TMC3     H 8311   2.131   1.761  11.199  0.3375 -1.0931  0.7150
  560TMC3    H1 8312   2.347   2.112  11.316 -0.7082 -0.0165  1.6448
  560TMC3    H2 8313   2.284   1.806  11.593  1.9350 -0.2054  0.7569
  560TMC3    C7 8314   2.418   2.018  11.560 -0.0365 -0.0109  0.6739
  560TMC3    C8 8315   2.148   1.643  11.423 -0.0524  0.3575  0.3294
  560TMC3    O1 8316   2.392   1.990  11.676 -0.4343  0.0941  0.1635
  560TMC3    O2 8317   2.045   1.605  11.375 -0.1256 -0.9264  0.3322
  561TMC3    C1 8318   4.374   1.193  11.218  0.0838 -0.6878 -0.3462
  561TMC3    C2 8319   4.344   1.122  11.326 -0.4425 -0.5647 -0.5804
  561TMC3    C3 8320   4.319   1.189  11.443  0.0538 -0.0116 -0.4841
  561TMC3    C4 8321   4.400   1.328  11.218  0.0145  0.5998  0.0502
  561TMC3    C5 8322   4.396   1.391  11.337 -0.5475  0.6668  0.2693
  561TMC3    C6 8323   4.345   1.325  11.448  0.2415  0.5581  0.4631
  561TMC3     C 8324   4.369   1.135  11.092  0.5429  0.1279 -0.1105
  561TMC3     O 8325   4.342   1.216  11.005 -0.0008 -0.1730 -0.6047
  561TMC3     H 8326   4.311   1.019  11.314  0.4141 -0.9582  0.4403
  561TMC3    H1 8327   4.428   1.374  11.124 -0.0398  2.6777  1.0434
  561TMC3    H2 8328   4.344   1.370  11.546 -1.4501  2.6102 -0.4877
  561TMC3    C7 8329   4.404   1.537  11.336  0.0154  0.4968 -0.6746
  561TMC3    C8 8330   4.306   1.098  11.564  0.8923  0.1961 -0.4654
  561TMC3    O1 8331   4.337   1.599  11.415  0.1241 -0.1915  0.2968
  561TMC3    O2 8332   4.364   0.989  11.569 -0.8250  0.2503  0.3515
  562TMC3    C1 8333   0.594   2.410  16.391  0.5906 -0.1396 -0.4303
  562TMC3    C2 8334   0.537   2.459  16.281 -0.7028  0.8815 -0.3251
  562TMC3    C3 8335   0.433   2.387  16.223  0.4249  0.4111  0.9840
  562TMC3    C4 8336   0.559   2.295  16.446 -1.0734 -0.2765 -0.0847
  562TMC3    C5 8337   0.468   2.216  16.380 -0.2765 -0.0145 -0.3324
  562TMC3    C6 8338   0.404   2.263  16.266  0.0705  0.0800  0.3630
  562TMC3     C 8339   0.705   2.479  16.462  0.2804  0.4532 -0.4087
  562TMC3     O 8340   0.712   2.472  16.584 -0.3147 -0.3037 -0.0368
  562TMC3     H 8341   0.560   2.564  16.263  2.1338  0.3243  0.0109
  562TMC3    H1 8342   0.609   2.264  16.538 -0.3577  1.0818 -0.0101
  562TMC3    H2 8343   0.336   2.205  16.204 -0.4728 -0.2674  1.2789
  562TMC3    C7 8344   0.424   2.096  16.442  0.2858  0.4691 -0.8529
  562TMC3    C8 8345   0.374   2.433  16.106 -0.6692  0.4106 -0.1828
  562TMC3    O1 8346   0.306   2.063  16.421  0.6921  0.7927  0.1151
  562TMC3    O2 8347   0.273   2.382  16.064 -0.0264 -0.5013  0.1853
  563MPD2     C 8348   3.095   3.900  15.685 -0.2487 -0.4214  0.3947
  563MPD2    C1 8349   3.023   3.926  15.799  0.6776 -0.3031  0.1149
  563MPD2    C2 8350   3.083   3.956  15.916  0.6625 -0.2019  0.4679
  563MPD2    C3 8351   3.220   3.975  15.920 -0.4611  0.0815 -0.2027
  563MPD2    C4 8352   3.301   3.949  15.809  0.1391 -0.5283  0.0788
  563MPD2    C5 8353   3.230   3.913  15.694 -0.0700  0.3020 -0.0597
  563MPD2     H 8354   3.035   3.971  16.012 -0.9486  1.3812 -0.5742
  563MPD2    H1 8355   3.399   3.988  15.787 -0.8683  2.3248  0.5535
  563MPD2    H2 8356   3.045   3.878  15.591 -0.7524 -0.5709  0.6995
  563MPD2    H3 8357   3.281   3.906  15.599 -0.6910  0.0051 -0.3690
  563MPD2     N 8358   3.281   4.017  16.042  0.7839 -0.3015 -0.1973
  563MPD2    H5 8359   3.230   4.052  16.122 -0.2460  1.1162 -1.4934
  563MPD2    N1 8360   2.883   3.921  15.815 -0.1700 -1.0782 -0.5450
  563MPD2    H7 8361   2.849   3.951  15.905 -0.0958  3.1158 -1.8941
  564TMC3    C1 8362   2.660   3.925  15.771  0.0407 -0.0731  0.6133
  564TMC3    C2 8363   2.573   3.814  15.767  0.0739  0.1131 -0.6584
  564TMC3    C3 8364   2.491   3.803  15.873 -0.0767 -0.7950 -0.1451
  564TMC3    C4 8365   2.663   4.008  15.883 -0.8923 -0.2782  0.7728
  564TMC3    C5 8366   2.573   3.990  15.990  0.3959  0.1300  0.9560
  564TMC3    C6 8367   2.478   3.894  15.972 -0.2871  0.0239  0.0901
  564TMC3     C 8368   2.792   3.892  15.712 -0.3432  0.4176 -0.5436
  564TMC3     O 8369   2.812   3.860  15.596  0.4775 -0.5102  0.0825
  564TMC3     H 8370   2.581   3.744  15.686 -1.5105 -3.7542  2.5180
  564TMC3    H1 8371   2.730   4.092  15.892  0.3177 -1.1555 -0.0753
  564TMC3    H2 8372   2.403   3.881  16.049  1.7872  0.0857  2.1127
  564TMC3    C7 8373   2.661   3.951  16.096 -0.2691  0.2259 -0.8306
  564TMC3    C8 8374   2.434   3.674  15.913 -1.0700  0.3056 -0.6304
  564TMC3    O1 8375   2.764   4.017  16.094  0.2606  0.4101  0.0463
  564TMC3    O2 8376   2.403   3.665  16.031 -0.3693 -0.6178  0.1961
  565TMC3    C1 8377   3.693   0.680  10.484  0.0275 -0.0483  0.1385
  565TMC3    C2 8378   3.718   0.587  10.579 -0.3836 -0.0790  0.2385
  565TMC3    C3 8379   3.642   0.471  10.569  0.4621 -0.3697 -0.5957
  565TMC3    C4 8380   3.602   0.661  10.379 -0.2364  0.9685  0.1472
  565TMC3    C5 8381   3.525   0.546  10.382  0.0897  0.1089 -0.2924
  565TMC3    C6 8382   3.551   0.446  10.471 -0.2015 -0.8671 -0.3087
  565TMC3     C 8383   3.771   0.799  10.476  0.2466  0.6919 -0.1481
  565TMC3     O 8384   3.766   0.857  10.370  0.0375 -0.0325  0.3666
  565TMC3     H 8385   3.806   0.588  10.643  0.3733 -0.2476 -0.8153
  565TMC3    H1 8386   3.582   0.743  10.312  1.5566  2.1606  1.0702
  565TMC3    H2 8387   3.469   0.380  10.496  1.1520 -2.1761  0.6538
  565TMC3    C7 8388   3.398   0.558  10.314  0.4132  0.8154 -0.1070
  565TMC3    C8 8389   3.693   0.361  10.645 -0.1032 -0.4044  0.3959
  565TMC3    O1 8390   3.373   0.666  10.261  0.4066  0.0033 -0.2677
  565TMC3    O2 8391   3.767   0.388  10.736  0.0191  0.2686  0.3942
  566MPD2     C 8392   0.258   2.050  14.133  0.4422  0.0313  0.5599
  566MPD2    C1 8393   0.355   2.073  14.032  0.1888  0.5458  0.2688
  566MPD2    C2 8394   0.312   2.040  13.898 -0.3289 -0.2169  0.4085
  566MPD2    C3 8395   0.181   1.995  13.866 -0.0034 -0.2545  0.0181
  566MPD2    C4 8396   0.088   1.987  13.972 -0.4885  0.5090  0.6342
  566MPD2    C5 8397   0.126   2.009  14.101 -0.1426  0.0431 -0.5336
  566MPD2     H 8398   0.384   2.043  13.818 -0.1100 -2.4612  0.5178
  566MPD2    H1 8399   4.708   1.967  13.944 -0.5572  2.6126 -0.6384
  566MPD2    H2 8400   0.276   2.075  14.237 -0.9235 -1.2515  1.0872
  566MPD2    H3 8401   0.047   2.005  14.175 -0.7040 -1.5725 -1.2187
  566MPD2     N 8402   0.153   1.944  13.732 -0.1524 -0.4068  0.3498
  566MPD2    H5 8403   0.223   1.964  13.661 -0.9069  1.3671  0.0924
  566MPD2    N1 8404   0.483   2.113  14.059  0.3812 -0.1805 -0.0071
  566MPD2    H7 8405   0.552   2.088  13.988 -0.1284  0.9132 -0.8999
  567TMC3    C1 8406   0.672   2.151  14.190  0.1617 -0.6632  0.1493
  567TMC3    C2 8407   0.749   2.141  14.075  0.3868  0.1180 -0.3857
  567TMC3    C3 8408   0.878   2.108  14.078  0.0585 -0.4391 -0.2302
  567TMC3    C4 8409   0.732   2.112  14.309  0.6832 -0.3828  0.3867
  567TMC3    C5 8410   0.863   2.067  14.304 -0.2400  0.5453 -0.1290
  567TMC3    C6 8411   0.943   2.065  14.193 -0.1205 -0.0172  0.0676
  567TMC3     C 8412   0.527   2.153  14.179 -0.1496 -0.1908  0.2983
  567TMC3     O 8413   0.468   2.183  14.285 -0.5387 -0.2290  0.0871
  567TMC3     H 8414   0.699   2.191  13.993  0.7032  0.5789 -0.3015
  567TMC3    H1 8415   0.663   2.114  14.393  1.1152 -2.9776  0.7837
  567TMC3    H2 8416   1.043   2.023  14.191 -0.0140  0.4510 -3.8838
  567TMC3    C7 8417   0.909   2.009  14.431  0.4019 -0.1400 -0.6972
  567TMC3    C8 8418   0.946   2.115  13.950 -0.2634  0.5701  0.1492
  567TMC3    O1 8419   1.031   2.004  14.459 -0.0883  0.1642  0.1850
  567TMC3    O2 8420   0.873   2.120  13.853 -0.3220  0.5247  0.0368
  568MPD2     C 8421   1.981   2.347  16.709 -0.2077  0.3653 -0.4719
  568MPD2    C1 8422   2.116   2.336  16.683  0.3709 -0.1975 -0.5666
  568MPD2    C2 8423   2.184   2.428  16.602 -0.2830  0.8645  0.1847
  568MPD2    C3 8424   2.110   2.526  16.536 -0.1919  0.2008  0.0717
  568MPD2    C4 8425   1.978   2.532  16.557  0.3468 -0.3716 -0.1519
  568MPD2    C5 8426   1.915   2.441  16.636  0.5674 -0.2834  0.4599
  568MPD2     H 8427   2.293   2.430  16.603 -0.2714  0.1666  0.3365
  568MPD2    H1 8428   1.903   2.599  16.515  1.4136  1.5401  1.0167
  568MPD2    H2 8429   1.924   2.281  16.774 -0.7880 -1.8593 -3.2337
  568MPD2    H3 8430   1.811   2.464  16.657  0.9496  3.0383 -1.3031
  568MPD2     N 8431   2.176   2.622  16.452 -0.1167 -0.2072  0.2074
  568MPD2    H5 8432   2.271   2.610  16.419 -0.1729 -0.8742  0.2947
  568MPD2    N1 8433   2.176   2.249  16.777 -0.3267 -0.3016  0.4480
  568MPD2    H7 8434   2.116   2.198  16.841 -0.9358  2.6437  2.2605
  569TMC3    C1 8435   2.223   2.813  16.328  0.0946 -0.2748  0.5745
  569TMC3    C2 8436   2.346   2.821  16.385  0.0573  0.1105  0.2702
  569TMC3    C3 8437   2.429   2.923  16.358 -0.0072  0.2100 -0.0273
  569TMC3    C4 8438   2.182   2.910  16.243 -0.4841 -0.3655  0.6996
  569TMC3    C5 8439   2.274   3.008  16.214  0.4234 -0.0089  0.4019
  569TMC3    C6 8440   2.395   3.024  16.282 -0.3472  0.4591  0.5245
  569TMC3     C 8441   2.118   2.730  16.388  0.2268  0.6400  0.2228
  569TMC3     O 8442   2.002   2.764  16.378 -0.0451  0.1389  0.0692
  569TMC3     H 8443   2.377   2.749  16.459  1.2640  0.8529  0.4931
  569TMC3    H1 8444   2.088   2.904  16.190 -0.4810 -2.6055  0.9802
  569TMC3    H2 8445   2.475   3.087  16.244  0.1315 -0.7878 -0.5455
  569TMC3    C7 8446   2.265   3.064  16.078 -0.6247 -0.3535  0.5019
  569TMC3    C8 8447   2.548   2.934  16.437 -0.0256  0.2044  0.4113
  569TMC3    O1 8448   2.181   3.004  16.017  0.6296  0.8615  0.2986
  569TMC3    O2 8449   2.577   3.048  16.476 -0.0957 -0.8412  0.3476
  570TMC3    C1 8450   1.876   1.447  16.513  0.4341  0.1581 -0.5528
  570TMC3    C2 8451   1.951   1.480  16.413 -0.5320  0.4326  0.6375
  570TMC3    C3 8452   1.957   1.613  16.382  0.6552 -0.1361 -0.3986
  570TMC3    C4 8453   1.814   1.536  16.591  0.1800 -0.1389  0.5742
  570TMC3    C5 8454   1.799   1.665  16.546  0.3649 -0.2240 -0.1076
  570TMC3    C6 8455   1.873   1.710  16.436 -0.1103  0.1982  0.2198
  570TMC3     C 8456   1.852   1.306  16.540  0.4492  0.6349 -0.0783
  570TMC3     O 8457   1.870   1.224  16.449 -0.0193 -0.3867  0.3148
  570TMC3     H 8458   2.027   1.412  16.377  0.0981 -0.0231  2.7997
  570TMC3    H1 8459   1.759   1.507  16.679  2.4660 -3.2558  0.9390
  570TMC3    H2 8460   1.890   1.811  16.402 -2.5398  0.1955 -0.9751
  570TMC3    C7 8461   1.738   1.763  16.625 -0.6765  0.2444  0.1802
  570TMC3    C8 8462   2.065   1.661  16.294 -0.7010  0.8032 -0.3621
  570TMC3    O1 8463   1.701   1.716  16.732  0.2846  0.7015  0.0764
  570TMC3    O2 8464   2.085   1.780  16.295  0.0955 -0.2159  0.6895
  571MPD2     C 8465   0.108   2.572   0.170  0.0277 -0.1648 -0.7986
  571MPD2    C1 8466   0.132   2.675   0.078  0.1043  0.0435 -0.3831
  571MPD2    C2 8467   0.222   2.777   0.114 -0.7375  0.4995  0.2247
  571MPD2    C3 8468   0.294   2.774   0.232  0.6494  0.6228  1.1698
  571MPD2    C4 8469   0.270   2.679   0.324 -0.3272  0.5663 -0.3979
  571MPD2    C5 8470   0.173   2.579   0.296  0.0888 -0.0785 -0.3966
  571MPD2     H 8471   0.241   2.858   0.045  1.4207 -1.4965 -1.5435
  571MPD2    H1 8472   0.317   2.674   0.421  0.0026  0.8882 -0.5358
  571MPD2    H2 8473   0.032   2.497   0.153  0.0450  0.0001 -1.6252
  571MPD2    H3 8474   0.141   2.508   0.371 -2.9069  1.9007  0.1683
  571MPD2     N 8475   0.370   2.878   0.280 -0.0250 -0.1731 -0.3821
  571MPD2    H5 8476   0.397   2.866   0.377 -2.2087  0.5615  0.3302
  571MPD2    N1 8477   0.062   2.669  17.642 -0.3293 -0.1214  0.1045
  571MPD2    H7 8478   0.001   2.589  17.630  0.8062 -1.1629  1.3327
  572TMC3    C1 8479   0.486   3.082   0.289 -0.3190 -0.2189 -0.3684
  572TMC3    C2 8480   0.506   3.053   0.424  0.2410 -0.0024  0.3256
  572TMC3    C3 8481   0.553   3.154   0.507  0.3026 -0.0912  0.5665
  572TMC3    C4 8482   0.486   3.213   0.250  0.5884 -0.7869  0.0707
  572TMC3    C5 8483   0.515   3.317   0.337 -0.1706 -0.3058  0.0282
  572TMC3    C6 8484   0.549   3.285   0.466 -0.1121 -0.2159  0.2103
  572TMC3     C 8485   0.408   2.988   0.209 -0.1069 -0.2647  0.2579
  572TMC3     O 8486   0.405   3.019   0.094  0.5989 -0.7607  0.1414
  572TMC3     H 8487   0.517   2.949   0.455 -0.3189 -0.4486 -0.9780
  572TMC3    H1 8488   0.470   3.231   0.144 -3.6483 -0.4136  0.7600
  572TMC3    H2 8489   0.585   3.366   0.529 -0.4625  1.4731 -1.7852
  572TMC3    C7 8490   0.434   3.437   0.310 -0.0717 -0.0618 -0.4431
  572TMC3    C8 8491   0.559   3.122   0.649  0.1315  0.0283  0.5621
  572TMC3    O1 8492   0.356   3.423   0.219 -0.4978  0.5055  0.6516
  572TMC3    O2 8493   0.577   3.002   0.676 -0.0797 -0.0378 -0.2009
  573MPD2     C 8494   0.875   3.204   0.659 -0.5284 -0.1888  0.3779
  573MPD2    C1 8495   0.904   3.319   0.597 -0.2358  0.4713 -0.6162
  573MPD2    C2 8496   0.937   3.318   0.464 -0.2932  0.2267  0.0666
  573MPD2    C3 8497   0.940   3.204   0.393  0.5521 -0.0091  0.2006
  573MPD2    C4 8498   0.911   3.081   0.450 -0.2347  0.4566 -0.1915
  573MPD2    C5 8499   0.873   3.085   0.585  0.6838 -0.3281 -0.4226
  573MPD2     H 8500   0.961   3.406   0.405  1.1408  0.3098  0.7771
  573MPD2    H1 8501   0.913   2.985   0.400  1.9375  0.8060 -0.7980
  573MPD2    H2 8502   0.852   3.204   0.765 -0.2462 -1.9482  0.4239
  573MPD2    H3 8503   0.842   2.994   0.635  0.7449 -0.5494 -0.7935
  573MPD2     N 8504   0.978   3.193   0.255 -0.3105 -0.4143  0.1229
  573MPD2    H5 8505   0.947   3.105   0.216  0.2966 -0.3893 -0.4288
  573MPD2    N1 8506   0.930   3.434   0.678 -0.6536  0.3060 -0.6583
  573MPD2    H7 8507   0.945   3.423   0.778 -1.9635 -0.3580 -0.5314
  574TMC3    C1 8508   1.043   3.233   0.039  0.4778 -0.2354  0.0109
  574TMC3    C2 8509   1.044   3.323  17.626  0.4308  0.1800  0.2451
  574TMC3    C3 8510   1.082   3.275  17.503  0.0954  0.2643 -0.0680
  574TMC3    C4 8511   1.054   3.102   0.024  0.3050 -0.3534  0.1554
  574TMC3    C5 8512   1.093   3.054  17.583 -0.1051  0.3399 -0.4087
  574TMC3    C6 8513   1.109   3.141  17.480  0.0294 -0.3064  0.3117
  574TMC3     C 8514   1.034   3.288   0.172  0.2449 -0.0795 -0.7980
  574TMC3     O 8515   1.079   3.405   0.186  0.0741  0.0926  0.2538
  574TMC3     H 8516   1.017   3.427  17.642  0.5213  0.5311 -1.7632
  574TMC3    H1 8517   1.036   3.031   0.103 -1.7100  0.8225  0.7594
  574TMC3    H2 8518   1.131   3.098  17.382  2.1460  1.0405  0.1827
  574TMC3    C7 8519   1.099   2.910  17.547  0.6456 -0.3311 -0.5138
  574TMC3    C8 8520   1.067   3.357  17.391  0.2707 -0.2377  0.1723
  574TMC3    O1 8521   1.148   2.885  17.439  0.1202  0.4237  0.0544
  574TMC3    O2 8522   1.110   3.308  17.288  1.0407  0.6925  0.1691
  575TMC3    C1 8523   3.792   0.008  11.433 -0.4472 -0.7125 -0.1483
  575TMC3    C2 8524   3.771   4.600  11.451 -0.2667 -0.0902  0.1776
  575TMC3    C3 8525   3.774   4.517  11.346  0.0306 -0.2818 -0.2440
  575TMC3    C4 8526   3.798   0.062  11.309 -1.0028 -0.2357  0.2111
  575TMC3    C5 8527   3.794   4.697  11.201 -0.0400  0.0970 -0.3037
  575TMC3    C6 8528   3.783   4.558  11.218 -0.3930  0.1855  0.1687
  575TMC3     C 8529   3.815   0.093  11.556 -1.4649  0.6888  0.3460
  575TMC3     O 8530   3.819   0.034  11.666  0.2976  0.4999 -0.1333
  575TMC3     H 8531   3.769   4.560  11.552 -0.7302 -0.1523  0.1440
  575TMC3    H1 8532   3.789   0.169  11.296 -0.0648 -0.3091 -1.1105
  575TMC3    H2 8533   3.768   4.489  11.135  3.4366  0.7895 -1.0053
  575TMC3    C7 8534   3.772   0.034  11.066 -0.3677 -0.2524  0.5911
  575TMC3    C8 8535   3.784   4.381  11.379 -0.2819 -0.2282  0.2838
  575TMC3    O1 8536   3.734   0.153  11.067  0.2469 -0.1444 -0.2396
  575TMC3    O2 8537   3.731   4.338  11.482 -0.0968  0.5055  0.1051
  576MPD2     C 8538   3.449   1.202  12.771  1.3109  0.4098  0.0892
  576MPD2    C1 8539   3.416   1.300  12.680 -0.3481 -0.0581 -0.4906
  576MPD2    C2 8540   3.307   1.377  12.706 -0.3303 -0.4736  0.4389
  576MPD2    C3 8541   3.234   1.367  12.824 -0.4409  0.0075  0.4172
  576MPD2    C4 8542   3.274   1.266  12.917 -0.2147  1.0283 -0.4234
  576MPD2    C5 8543   3.383   1.185  12.889 -0.3744  0.0668 -0.5105
  576MPD2     H 8544   3.281   1.454  12.636  2.0284  1.0610  1.2863
  576MPD2    H1 8545   3.218   1.256  13.010  1.5007 -0.4783  0.4564
  576MPD2    H2 8546   3.540   1.143  12.765  2.1967  1.9784 -2.1997
  576MPD2    H3 8547   3.415   1.108  12.959 -3.2726  0.4590  1.2490
  576MPD2     N 8548   3.136   1.472  12.845  0.0772  0.7595 -0.6279
  576MPD2    H5 8549   3.142   1.554  12.785 -1.1774 -0.9180 -3.0235
  576MPD2    N1 8550   3.498   1.318  12.561 -0.2496 -0.4510 -0.4154
  576MPD2    H7 8551   3.471   1.384  12.489  2.2294  1.3752  0.3417
  577TMC3    C1 8552   3.641   1.269  12.396 -0.2703  0.1665  0.1740
  577TMC3    C2 8553   3.776   1.245  12.359  0.1604 -0.3295 -0.5172
  577TMC3    C3 8554   3.807   1.228  12.225 -0.0832 -0.4917 -0.6283
  577TMC3    C4 8555   3.544   1.276  12.297  0.4780 -0.4311 -0.6255
  577TMC3    C5 8556   3.578   1.250  12.167  0.3689 -0.3631  0.8285
  577TMC3    C6 8557   3.708   1.235  12.130 -0.0603 -0.0026  0.0966
  577TMC3     C 8558   3.605   1.246  12.534  0.9529 -0.0570  0.3101
  577TMC3     O 8559   3.689   1.191  12.606  0.0211  0.4981  0.3401
  577TMC3     H 8560   3.855   1.252  12.433 -0.1258 -0.5655 -0.1908
  577TMC3    H1 8561   3.439   1.284  12.326  0.2493  0.8033 -1.7804
  577TMC3    H2 8562   3.727   1.210  12.026  1.1189  2.3909 -0.2737
  577TMC3    C7 8563   3.479   1.252  12.066  0.1109 -0.3119 -0.3721
  577TMC3    C8 8564   3.936   1.177  12.196 -0.2336 -0.1101  0.3961
  577TMC3    O1 8565   3.511   1.181  11.972  0.5156 -0.1505 -0.4622
  577TMC3    O2 8566   3.992   1.130  12.296  0.0281 -0.2014  0.1719
  578MPD2     C 8567   1.159   1.747   1.900 -0.1066 -0.4627  0.0248
  578MPD2    C1 8568   1.239   1.777   1.796  0.0702 -0.4048 -0.8992
  578MPD2    C2 8569   1.338   1.680   1.769 -0.5694 -0.2761 -0.7012
  578MPD2    C3 8570   1.366   1.574   1.856  0.0375 -1.0490 -0.5234
  578MPD2    C4 8571   1.280   1.556   1.962 -0.0299  1.2049  0.3026
  578MPD2    C5 8572   1.178   1.645   1.984  0.1181  0.0085  0.8530
  578MPD2     H 8573   1.403   1.690   1.682 -0.8736 -0.9618 -1.0030
  578MPD2    H1 8574   1.292   1.475   2.033 -0.9737 -1.7570 -2.9094
  578MPD2    H2 8575   1.082   1.820   1.922  0.5142  1.0653 -2.9795
  578MPD2    H3 8576   1.113   1.627   2.069 -1.5562  1.4988 -0.1135
  578MPD2     N 8577   1.476   1.489   1.836  0.2270  0.1137  0.1540
  578MPD2    H5 8578   1.531   1.498   1.751 -0.3496  0.5743 -0.1682
  578MPD2    N1 8579   1.217   1.899   1.731  0.1073 -0.3404  0.0666
  578MPD2    H7 8580   1.143   1.959   1.766  0.4065  0.1125 -0.0851
  579TMC3    C1 8581   1.648   1.338   1.876 -1.0047 -0.8938 -0.0380
  579TMC3    C2 8582   1.764   1.338   1.947 -0.7041  0.2777 -0.1120
  579TMC3    C3 8583   1.881   1.346   1.880 -0.2661  0.0104  0.1700
  579TMC3    C4 8584   1.651   1.330   1.742 -0.6713 -0.7684  0.0881
  579TMC3    C5 8585   1.770   1.332   1.682  0.0449 -0.4802  0.2060
  579TMC3    C6 8586   1.887   1.352   1.747 -0.6115 -0.2848  0.2594
  579TMC3     C 8587   1.523   1.398   1.931 -0.1604 -0.4712  0.7148
  579TMC3     O 8588   1.527   1.405   2.053 -0.2918  0.1742 -0.1614
  579TMC3     H 8589   1.754   1.344   2.055  1.8192  1.5385  0.0440
  579TMC3    H1 8590   1.559   1.321   1.687 -0.9231 -0.3553  0.4430
  579TMC3    H2 8591   1.978   1.366   1.691 -0.3847 -0.4968  0.5764
  579TMC3    C7 8592   1.782   1.343   1.537 -0.4425  0.1282  0.1741
  579TMC3    C8 8593   1.989   1.398   1.954  0.1898  0.2716  0.2215
  579TMC3    O1 8594   1.870   1.407   1.478 -0.0364  0.5668 -0.0454
  579TMC3    O2 8595   1.963   1.474   2.051 -0.7069  0.3497 -0.8059
  580TMC3    C1 8596   1.235   1.140  12.074 -0.2250 -0.3236 -0.0245
  580TMC3    C2 8597   1.287   1.263  12.087  0.0021  0.6272 -0.1939
  580TMC3    C3 8598   1.393   1.289  12.172  0.0208 -0.8539 -0.6605
  580TMC3    C4 8599   1.278   1.040  12.151  0.6684  0.6266 -0.0512
  580TMC3    C5 8600   1.379   1.062  12.243 -0.7785  0.2408  0.7529
  580TMC3    C6 8601   1.435   1.186  12.255 -0.0169  0.6989  0.0697
  580TMC3     C 8602   1.143   1.104  11.969 -1.1767  0.0949  0.2436
  580TMC3     O 8603   1.074   1.004  11.976  0.0656 -0.0440  0.1157
  580TMC3     H 8604   1.245   1.344  12.029 -1.2533 -0.7468 -1.1921
  580TMC3    H1 8605   1.239   0.940  12.134 -1.2833  1.2184  1.0415
  580TMC3    H2 8606   1.518   1.213  12.319  1.4134  0.2729 -1.6066
  580TMC3    C7 8607   1.421   0.953  12.327  0.1948 -0.3277 -0.7581
  580TMC3    C8 8608   1.493   1.365  12.102 -0.1158  0.1905 -0.1856
  580TMC3    O1 8609   1.523   0.976  12.390  0.0013 -0.4255  0.2673
  580TMC3    O2 8610   1.481   1.487  12.102 -0.0380 -0.5276 -0.2135
  581MPD2     C 8611   4.012   0.637  15.484  0.7529  0.3978 -0.7719
  581MPD2    C1 8612   3.947   0.533  15.424 -0.4749 -0.2457 -0.7623
  581MPD2    C2 8613   3.829   0.566  15.357  0.5241 -0.0950  0.1100
  581MPD2    C3 8614   3.789   0.699  15.342  0.4477  0.2466 -0.6586
  581MPD2    C4 8615   3.857   0.798  15.412 -0.3379 -0.0556  0.6276
  581MPD2    C5 8616   3.971   0.765  15.470 -0.6690  0.7191  0.2735
  581MPD2     H 8617   3.774   0.488  15.307  0.0917 -2.2663  3.9091
  581MPD2    H1 8618   3.820   0.897  15.436  2.1356  1.4842 -1.7905
  581MPD2    H2 8619   4.100   0.610  15.541  1.2955 -1.4502 -2.4954
  581MPD2    H3 8620   4.027   0.837  15.528  2.2258 -0.5643 -0.9317
  581MPD2     N 8621   3.676   0.716  15.267 -0.4251  0.1275  0.1417
  581MPD2    H5 8622   3.636   0.637  15.218  1.7067 -0.1595 -1.1475
  581MPD2    N1 8623   4.000   0.401  15.444 -0.4355 -0.1853  0.1900
  581MPD2    H7 8624   4.091   0.400  15.490 -0.2621  3.8212 -0.0317
  582TMC3    C1 8625   3.977   0.167  15.495 -0.4626  0.2670 -0.2676
  582TMC3    C2 8626   4.010   0.184  15.624 -0.6448  0.7572 -0.6160
  582TMC3    C3 8627   3.972   0.087  15.713  0.7912 -0.0427 -0.1619
  582TMC3    C4 8628   3.923   0.050  15.448  0.8494  0.4671 -0.2149
  582TMC3    C5 8629   3.890   4.675  15.535 -0.9452 -0.2804  0.1082
  582TMC3    C6 8630   3.922   4.688  15.669 -0.7891 -0.8072  0.4514
  582TMC3     C 8631   3.922   0.288  15.432  0.1112  0.0692 -0.2032
  582TMC3     O 8632   3.820   0.267  15.368 -0.9739  1.1599 -0.4720
  582TMC3     H 8633   4.045   0.280  15.659 -1.4114  0.4210  1.0830
  582TMC3    H1 8634   3.895   0.032  15.345  3.4189  1.0283 -1.0220
  582TMC3    H2 8635   3.893   4.609  15.738 -1.7110 -0.3044  0.6391
  582TMC3    C7 8636   3.764   4.608  15.514  0.4659 -0.1727  0.1710
  582TMC3    C8 8637   3.906   0.133  15.837  0.1996  0.1069 -0.4889
  582TMC3    O1 8638   3.744   4.504  15.573  0.1604 -0.0080  0.2404
  582TMC3    O2 8639   3.865   0.249  15.842 -0.7183  0.3433  0.2768
  583MPD2     C 8640   3.331   2.600  16.428  0.4774  0.6206  0.0405
  583MPD2    C1 8641   3.422   2.542  16.515  0.1747  0.1143 -0.8411
  583MPD2    C2 8642   3.407   2.584  16.643 -0.7918 -0.1101  0.5895
  583MPD2    C3 8643   3.306   2.666  16.686  0.5834  0.3353 -0.4452
  583MPD2    C4 8644   3.217   2.719  16.596  0.2002  0.7685  0.2318
  583MPD2    C5 8645   3.239   2.683  16.468  0.9234 -0.1859 -0.3669
  583MPD2     H 8646   3.486   2.569  16.716  0.6869  0.4285 -0.8864
  583MPD2    H1 8647   3.133   2.784  16.618  0.2826  1.0865 -0.3977
  583MPD2    H2 8648   3.338   2.566  16.326  3.0749 -0.4062  0.5555
  583MPD2    H3 8649   3.183   2.727  16.386  2.2312  2.7944  0.3225
  583MPD2     N 8650   3.293   2.717  16.816  0.4447  0.2226  0.3376
  583MPD2    H5 8651   3.213   2.779  16.830  0.4708  0.2835  0.2089
  583MPD2    N1 8652   3.518   2.449  16.466  1.2848 -0.2850  0.0616
  583MPD2    H7 8653   3.500   2.410  16.374 -0.6986 -2.8869  1.5418
  584TMC3    C1 8654   3.333   2.751  17.043  0.5202  0.6205  0.9740
  584TMC3    C2 8655   3.362   2.887  17.024  0.1419 -0.0613  0.0093
  584TMC3    C3 8656   3.422   2.940  17.130 -0.1994 -0.4096  0.3140
  584TMC3    C4 8657   3.335   2.687  17.167  0.5001 -0.5386 -0.0557
  584TMC3    C5 8658   3.383   2.756  17.276  0.0906  0.4795 -0.1701
  584TMC3    C6 8659   3.433   2.884  17.251  0.0376 -0.1302 -0.2760
  584TMC3     C 8660   3.356   2.669  16.930  0.0852 -0.1790  0.3485
  584TMC3     O 8661   3.425   2.571  16.943 -0.0818  0.3903  0.2211
  584TMC3     H 8662   3.385   2.909  16.920 -0.1185 -1.0785 -0.2726
  584TMC3    H1 8663   3.300   2.584  17.173  0.6031 -0.5705 -0.0154
  584TMC3    H2 8664   3.490   2.932  17.330 -1.7358  1.6108 -0.0597
  584TMC3    C7 8665   3.378   2.707  17.410  0.6993  0.7625 -0.0878
  584TMC3    C8 8666   3.509   3.053  17.099  0.0668  0.5021 -0.4271
  584TMC3    O1 8667   3.331   2.593  17.416 -0.3054 -0.1928 -0.5493
  584TMC3    O2 8668   3.495   3.114  16.997 -0.3365  0.4530  0.0262
  585MPD2     C 8669   2.558   0.676   1.009  0.9074  0.7165 -0.7187
  585MPD2    C1 8670   2.629   0.670   0.892  0.8208  0.6773  0.0623
  585MPD2    C2 8671   2.564   0.612   0.787 -0.1878  0.4773 -0.0026
  585MPD2    C3 8672   2.437   0.568   0.794 -0.5727 -0.2263  0.0508
  585MPD2    C4 8673   2.372   0.577   0.910 -0.0035 -0.7590  0.5245
  585MPD2    C5 8674   2.427   0.639   1.015  0.2994  0.3356  0.1758
  585MPD2     H 8675   2.623   0.593   0.698  3.1265  1.9824  1.8656
  585MPD2    H1 8676   2.272   0.537   0.922 -0.1913 -1.0001 -1.9407
  585MPD2    H2 8677   2.599   0.714   1.102 -0.6433  1.7573 -0.4718
  585MPD2    H3 8678   2.372   0.640   1.109 -1.4442  1.2771 -0.8701
  585MPD2     N 8679   2.389   0.519   0.673  0.1757 -0.3854  0.1091
  585MPD2    H5 8680   2.461   0.505   0.603 -1.3166  0.0175 -1.4856
  585MPD2    N1 8681   2.768   0.702   0.891 -0.0770 -0.0131 -0.4544
  585MPD2    H7 8682   2.816   0.713   0.980  0.5835  0.6958 -0.8932
  586TMC3    C1 8683   2.238   0.437   0.515  0.8926  0.0187  1.1109
  586TMC3    C2 8684   2.317   0.482   0.418 -0.1845 -0.0873  0.2802
  586TMC3    C3 8685   2.325   0.408   0.301 -0.7751 -0.1180  0.3294
  586TMC3    C4 8686   2.177   0.314   0.508  0.0911  0.2412 -0.3605
  586TMC3    C5 8687   2.189   0.244   0.392  0.0962  0.6200  0.8116
  586TMC3    C6 8688   2.264   0.289   0.281 -0.2690 -0.6586  0.0396
  586TMC3     C 8689   2.260   0.482   0.648 -0.0255  0.1651 -0.0671
  586TMC3     O 8690   2.170   0.481   0.728 -0.0558 -0.0981  0.0153
  586TMC3     H 8691   2.367   0.578   0.428 -1.8931  1.1239 -2.8054
  586TMC3    H1 8692   2.127   0.280   0.598  2.6755 -2.2265  0.1140
  586TMC3    H2 8693   2.292   0.240   0.189  1.4302  0.0414  0.1737
  586TMC3    C7 8694   2.179   0.102   0.399 -0.1161 -0.7700 -0.1523
  586TMC3    C8 8695   2.418   0.453   0.196 -0.0389 -0.2932 -0.5352
  586TMC3    O1 8696   2.203   0.048   0.289 -0.2275  0.3167 -0.1269
  586TMC3    O2 8697   2.538   0.464   0.225  1.0031  0.6088 -0.1096
  587TMC3    C1 8698   0.907   4.196  16.894 -0.1476  0.2674 -0.3261
  587TMC3    C2 8699   0.869   4.296  16.804  0.2466  0.7634 -0.4234
  587TMC3    C3 8700   0.963   4.337  16.713 -0.0750  0.6776  0.3835
  587TMC3    C4 8701   1.026   4.135  16.887  0.1705 -0.0201 -0.2816
  587TMC3    C5 8702   1.109   4.167  16.787  1.1332 -0.4557 -0.4755
  587TMC3    C6 8703   1.094   4.274  16.704 -0.3989  0.1376 -0.3403
  587TMC3     C 8704   0.808   4.157  16.998 -0.4044  0.3604 -0.1528
  587TMC3     O 8705   0.861   4.102  17.092  0.2117 -0.2741  0.2835
  587TMC3     H 8706   0.781   4.357  16.818  0.3142  1.0511 -1.2992
  587TMC3    H1 8707   1.050   4.060  16.960 -3.0215 -0.7416  0.0459
  587TMC3    H2 8708   1.160   4.305  16.624  0.9558 -1.6839  0.0933
  587TMC3    C7 8709   1.243   4.103  16.803  0.5008  0.1151  0.4904
  587TMC3    C8 8710   0.930   4.428  16.598  0.0438 -0.6762 -0.3655
  587TMC3    O1 8711   1.239   3.991  16.853  0.0983  0.1006 -0.0171
  587TMC3    O2 8712   1.019   4.463  16.529 -0.0391 -0.0661  0.0293
  588TMC3    C1 8713   3.494   1.883   9.940  0.7781  0.0212  0.1159
  588TMC3    C2 8714   3.528   1.752   9.952 -0.3350 -0.1349 -0.3638
  588TMC3    C3 8715   3.622   1.716  10.050 -0.5812 -0.6699  0.1123
  588TMC3    C4 8716   3.546   1.981  10.017  0.5758 -0.0746 -0.1761
  588TMC3    C5 8717   3.647   1.940  10.110  0.9947  0.9948 -0.3463
  588TMC3    C6 8718   3.679   1.808  10.132 -0.4364 -0.2344  0.1665
  588TMC3     C 8719   3.399   1.920   9.836 -0.2977 -0.3972  0.3194
  588TMC3     O 8720   3.296   1.850   9.826 -0.4820  0.5603  0.4307
  588TMC3     H 8721   3.476   1.681   9.888  0.4814 -1.2937  0.2924
  588TMC3    H1 8722   3.512   2.083  10.004 -1.4999 -0.4641  2.1762
  588TMC3    H2 8723   3.746   1.780  10.213  0.6383  0.8878 -0.3274
  588TMC3    C7 8724   3.683   2.039  10.209  0.4780 -0.7541  0.4784
  588TMC3    C8 8725   3.646   1.573  10.070 -0.5487 -0.1281 -0.0595
  588TMC3    O1 8726   3.697   1.995  10.320 -0.1106 -0.6497  0.1705
  588TMC3    O2 8727   3.603   1.507   9.974  0.1305  0.1207 -0.1408
  589TMC3    C1 8728   1.803   4.485   1.457  0.1076  0.2926 -0.0967
  589TMC3    C2 8729   1.911   4.499   1.542 -0.4047 -0.0386  0.2260
  589TMC3    C3 8730   1.992   4.394   1.543 -0.6929  1.1305  0.0211
  589TMC3    C4 8731   1.792   4.386   1.372 -0.7867 -0.2063  0.3470
  589TMC3    C5 8732   1.884   4.282   1.373 -0.5250  0.5645  0.1267
  589TMC3    C6 8733   1.980   4.287   1.464 -0.0698  0.0363  0.8759
  589TMC3     C 8734   1.740   4.603   1.417 -0.4059 -0.5987  0.1803
  589TMC3     O 8735   1.690   4.609   1.305  0.2939 -0.5259 -0.3676
  589TMC3     H 8736   1.928   4.580   1.612  0.0386 -0.0755  0.1625
  589TMC3    H1 8737   1.710   4.381   1.301  0.1476  3.4502 -0.9672
  589TMC3    H2 8738   2.026   4.195   1.500  0.0895 -0.3094 -0.1921
  589TMC3    C7 8739   1.848   4.156   1.307  0.2110  0.7023 -0.2750
  589TMC3    C8 8740   2.106   4.401   1.634  0.3047  0.0357  0.0333
  589TMC3    O1 8741   1.902   4.057   1.359  0.1382  0.2075  0.4958
  589TMC3    O2 8742   2.095   4.484   1.722  0.0872 -0.2206  0.1445
  590MPD2     C 8743   1.678   3.363  16.687 -0.2817  0.5362  0.3241
  590MPD2    C1 8744   1.635   3.308  16.566 -0.1532  0.9270  0.6621
  590MPD2    C2 8745   1.699   3.350  16.449  0.2440 -0.6943  1.0418
  590MPD2    C3 8746   1.802   3.443  16.455  0.1239 -1.0182 -0.6588
  590MPD2    C4 8747   1.846   3.486  16.575 -0.1047  0.5346  0.0144
  590MPD2    C5 8748   1.789   3.445  16.687  0.4788  0.0196  0.1538
  590MPD2     H 8749   1.665   3.335  16.347  0.8839  0.6502  0.6210
  590MPD2    H1 8750   1.928   3.557  16.574 -0.1512  0.6054  1.0229
  590MPD2    H2 8751   1.639   3.341  16.785 -0.5428  0.5750  0.2273
  590MPD2    H3 8752   1.828   3.484  16.781  3.4505 -1.7533 -0.3396
  590MPD2     N 8753   1.854   3.491  16.334  0.0228  0.4647 -0.4921
  590MPD2    H5 8754   1.824   3.452  16.245 -0.2922 -1.4151  0.4380
  590MPD2    N1 8755   1.513   3.242  16.561 -0.0657 -0.1953 -0.2625
  590MPD2    H7 8756   1.456   3.233  16.644 -0.1572  1.4244 -0.1488
  591TMC3    C1 8757   1.962   3.627  16.175  0.2154 -0.1050 -0.1029
  591TMC3    C2 8758   1.977   3.526  16.089 -0.8874 -0.0124  0.4676
  591TMC3    C3 8759   2.027   3.558  15.965 -0.3821 -0.4426 -0.0754
  591TMC3    C4 8760   1.983   3.751  16.137 -0.0587  0.2783  0.0947
  591TMC3    C5 8761   2.036   3.780  16.013 -0.1552 -0.4211 -0.7237
  591TMC3    C6 8762   2.055   3.685  15.919 -0.2120  0.2994 -0.7926
  591TMC3     C 8763   1.930   3.605  16.317 -0.1666 -0.0589 -0.5516
  591TMC3     O 8764   1.954   3.699  16.389  0.3287 -0.1577  0.4412
  591TMC3     H 8765   1.944   3.425  16.110  0.7310 -1.2723 -3.0372
  591TMC3    H1 8766   1.954   3.838  16.195  1.4819  1.1559 -0.4412
  591TMC3    H2 8767   2.105   3.697  15.824 -1.1401 -1.0601 -1.4431
  591TMC3    C7 8768   2.084   3.917  15.995  0.3595  0.4296 -0.1748
  591TMC3    C8 8769   1.999   3.455  15.867  0.1509 -0.3574 -0.6254
  591TMC3    O1 8770   2.061   3.994  16.083  0.5267 -0.0010 -0.3542
  591TMC3    O2 8771   2.010   3.337  15.903 -0.4979  0.2006  0.1914
  592MPD2     C 8772   2.372   0.207  11.404 -0.5402  0.0962  0.5715
  592MPD2    C1 8773   2.389   0.261  11.533 -0.2304 -0.1330 -0.9887
  592MPD2    C2 8774   2.310   0.210  11.632 -0.1852  0.5092  0.6784
  592MPD2    C3 8775   2.215   0.112  11.607  0.1891  0.3648  0.9077
  592MPD2    C4 8776   2.192   0.067  11.477  0.7950 -0.1476 -0.0519
  592MPD2    C5 8777   2.273   0.110  11.384  0.1799 -0.0533 -0.3208
  592MPD2     H 8778   2.313   0.247  11.734 -0.0540  0.7010  0.6065
  592MPD2    H1 8779   2.111   4.721  11.454  1.6769 -1.2067 -0.0135
  592MPD2    H2 8780   2.428   0.228  11.314 -0.3571 -0.5507  0.5316
  592MPD2    H3 8781   2.248   0.065  11.289  1.2574  1.4275 -1.3082
  592MPD2     N 8782   2.141   0.076  11.720  0.6966  0.6667 -0.5620
  592MPD2    H5 8783   2.160   0.137  11.799 -3.0988  1.2512 -0.0819
  592MPD2    N1 8784   2.479   0.370  11.551 -0.0015 -0.6160 -0.4303
  592MPD2    H7 8785   2.544   0.398  11.478 -0.0231 -0.3222 -0.3383
  593TMC3    C1 8786   2.576   0.563  11.650  0.8888 -0.2408  0.8774
  593TMC3    C2 8787   2.580   0.651  11.752 -0.2329  0.0309 -1.0058
  593TMC3    C3 8788   2.694   0.724  11.761 -0.5157 -0.2881  0.0027
  593TMC3    C4 8789   2.674   0.559  11.553 -0.2250 -0.0571  0.2477
  593TMC3    C5 8790   2.780   0.643  11.560  0.3656 -0.4763 -0.1221
  593TMC3    C6 8791   2.791   0.730  11.665 -0.2109 -0.5621 -0.6829
  593TMC3     C 8792   2.475   0.455  11.659  0.4397 -0.0620  0.0534
  593TMC3     O 8793   2.403   0.462  11.754 -0.4749 -0.5633 -0.2675
  593TMC3     H 8794   2.498   0.659  11.823  0.2052 -4.3989  0.0143
  593TMC3    H1 8795   2.685   0.482  11.477  0.7192 -0.6638  1.0015
  593TMC3    H2 8796   2.872   0.802  11.660  1.1600 -1.9574  1.5487
  593TMC3    C7 8797   2.869   0.666  11.447  0.1582 -0.7295  0.2079
  593TMC3    C8 8798   2.693   0.852  11.835  0.5134 -0.0484  0.3828
  593TMC3    O1 8799   2.968   0.738  11.456 -0.2042 -0.3927 -0.3180
  593TMC3    O2 8800   2.592   0.922  11.834 -0.2208 -0.9258  0.4122
  594MPD2     C 8801   1.039   3.522  14.315  0.2828 -0.3980 -0.4956
  594MPD2    C1 8802   1.050   3.565  14.446 -0.3700  0.2435 -0.2927
  594MPD2    C2 8803   1.136   3.673  14.481 -0.4756 -0.2795  0.6535
  594MPD2    C3 8804   1.190   3.750  14.376 -0.3632  0.6146  0.1388
  594MPD2    C4 8805   1.166   3.711  14.241 -0.4995 -0.7978 -0.0909
  594MPD2    C5 8806   1.106   3.589  14.216  0.0455  0.3039  0.2062
  594MPD2     H 8807   1.142   3.702  14.585 -3.0083  0.4697  0.5929
  594MPD2    H1 8808   1.209   3.769  14.160 -0.1457 -1.1972 -0.1890
  594MPD2    H2 8809   0.983   3.435  14.284 -2.4801  1.7138 -1.4372
  594MPD2    H3 8810   1.095   3.558  14.112 -2.5330 -1.3767  0.9765
  594MPD2     N 8811   1.263   3.871  14.413 -0.5803 -0.2594  0.6868
  594MPD2    H5 8812   1.275   3.895  14.511 -0.8185 -1.0554  0.9075
  594MPD2    N1 8813   0.997   3.469  14.533 -0.0243 -0.7866 -0.3841
  594MPD2    H7 8814   0.957   3.385  14.492 -1.7153 -0.8412  1.3571
  595TMC3    C1 8815   1.579   4.142  14.487  0.2055  1.0508 -1.1463
  595TMC3    C2 8816   1.518   4.053  14.403  0.0944  0.7839 -0.0455
  595TMC3    C3 8817   1.386   4.054  14.407  0.2695 -0.1038 -0.8758
  595TMC3    C4 8818   1.516   4.238  14.557 -0.0419 -0.1793 -0.8374
  595TMC3    C5 8819   1.381   4.245  14.547  0.2107  0.2176 -0.1181
  595TMC3    C6 8820   1.311   4.154  14.466 -0.4123  0.6034  0.4925
  595TMC3     C 8821   1.714   4.171  14.456  0.1123  0.5861 -0.1784
  595TMC3     O 8822   1.786   4.214  14.544  0.3027  0.1623 -0.7998
  595TMC3     H 8823   1.570   3.974  14.349 -0.6321 -0.3745  0.9472
  595TMC3    H1 8824   1.582   4.297  14.619 -0.8251  0.6563 -0.8075
  595TMC3    H2 8825   1.207   4.174  14.445  0.0853  2.0833 -0.5651
  595TMC3    C7 8826   1.307   4.344  14.619 -0.8005 -0.0003 -0.0257
  595TMC3    C8 8827   1.325   3.953  14.325  0.3286 -0.6484 -0.0585
  595TMC3    O1 8828   1.188   4.355  14.592  0.2146  0.1674 -0.2497
  595TMC3    O2 8829   1.377   3.930  14.215  0.4433 -0.1668 -0.0181
  596MPD2     C 8830   4.263   1.824  16.545 -0.2652  0.6494  0.2515
  596MPD2    C1 8831   4.363   1.907  16.509  0.9433 -0.8456  0.5402
  596MPD2    C2 8832   4.445   1.882  16.405 -0.4850 -0.5167  0.0276
  596MPD2    C3 8833   4.435   1.765  16.339 -0.1838  0.4983 -0.2973
  596MPD2    C4 8834   4.329   1.682  16.367  0.4265 -0.4480 -1.3902
  596MPD2    C5 8835   4.249   1.704  16.474  0.8650 -0.6214  0.2068
  596MPD2     H 8836   4.517   1.958  16.377 -0.5863  1.3477  4.7322
  596MPD2    H1 8837   4.311   1.587  16.318  2.3235  0.3848 -3.6848
  596MPD2    H2 8838   4.204   1.831  16.635  1.8838  2.7281  1.4850
  596MPD2    H3 8839   4.178   1.626  16.497  0.4633 -1.4982 -4.0736
  596MPD2     N 8840   4.509   1.729  16.222 -0.1845  0.0501  0.8446
  596MPD2    H5 8841   4.478   1.649  16.167 -1.3944  0.2016  1.3030
  596MPD2    N1 8842   4.389   2.029  16.580  0.2121 -0.7100  0.1501
  596MPD2    H7 8843   4.464   2.088  16.545 -0.9292  0.7517  0.1800
  597TMC3    C1 8844   4.342   2.230  16.699 -0.3461  0.7874 -0.1012
  597TMC3    C2 8845   4.444   2.294  16.632  0.0968 -0.2374 -0.3842
  597TMC3    C3 8846   4.486   2.411  16.681 -0.4118  0.2629  0.1538
  597TMC3    C4 8847   4.291   2.280  16.812  0.4381 -0.7379  0.2125
  597TMC3    C5 8848   4.324   2.403  16.848 -0.1691 -0.4552 -0.2949
  597TMC3    C6 8849   4.426   2.472  16.790  1.2126 -0.7962  0.5158
  597TMC3     C 8850   4.315   2.085  16.684  0.1484  0.1514 -0.9090
  597TMC3     O 8851   4.240   2.027  16.765 -0.0698 -0.1662 -0.6773
  597TMC3     H 8852   4.477   2.268  16.532  1.0315 -1.9098  0.3560
  597TMC3    H1 8853   4.210   2.232  16.866  1.7336 -1.3883  1.5514
  597TMC3    H2 8854   4.462   2.550  16.857  0.2939  2.7154 -3.0812
  597TMC3    C7 8855   4.245   2.456  16.958 -0.1031 -1.1030 -0.3139
  597TMC3    C8 8856   4.615   2.456  16.642 -0.3018  0.8185 -0.0937
  597TMC3    O1 8857   4.235   2.383  17.060  1.0482 -0.4380  0.5988
  597TMC3    O2 8858   4.675   2.386  16.570 -0.4639  0.2364  0.2189
  598TMC3    C1 8859   2.729   3.523  15.421 -0.2519 -0.7688  0.7060
  598TMC3    C2 8860   2.634   3.438  15.366 -0.2791  0.4774 -1.0565
  598TMC3    C3 8861   2.644   3.411  15.232  0.7711 -0.5032 -0.3773
  598TMC3    C4 8862   2.818   3.580  15.338  0.0040 -0.7626  0.2675
  598TMC3    C5 8863   2.804   3.561  15.204  0.2297  0.2795  0.0979
  598TMC3    C6 8864   2.727   3.471  15.147  0.1165  0.6015  0.2333
  598TMC3     C 8865   2.740   3.532  15.570  0.0149 -0.4109 -0.2712
  598TMC3     O 8866   2.639   3.485  15.623 -0.2531 -0.8054  0.3882
  598TMC3     H 8867   2.560   3.391  15.429  1.6278  0.0483  0.9068
  598TMC3    H1 8868   2.896   3.643  15.380 -1.3433 -0.3508  2.1611
  598TMC3    H2 8869   2.708   3.480  15.041  0.2411  0.3850  0.1942
  598TMC3    C7 8870   2.913   3.593  15.120  0.1337  0.3932  0.0368
  598TMC3    C8 8871   2.531   3.327  15.185  0.4339  0.0351  0.8442
  598TMC3    O1 8872   2.934   3.515  15.031  0.1476  0.8663 -0.3184
  598TMC3    O2 8873   2.436   3.308  15.256  0.1742 -0.1342  0.4537
  599MPD2     C 8874   3.156   1.500  16.411  0.0642  0.3128  0.6927
  599MPD2    C1 8875   3.124   1.383  16.349 -0.0542 -0.5894  0.2303
  599MPD2    C2 8876   2.995   1.343  16.336  0.1582 -0.1766 -0.3242
  599MPD2    C3 8877   2.896   1.428  16.379  0.4018 -0.8695 -0.5757
  599MPD2    C4 8878   2.925   1.557  16.422 -0.5116 -0.1252  0.3118
  599MPD2    C5 8879   3.055   1.593  16.439 -0.1499 -0.0662  0.3861
  599MPD2     H 8880   2.970   1.253  16.282 -0.7145 -0.8192  1.1579
  599MPD2    H1 8881   2.854   1.633  16.453  1.5459  2.2920 -0.8376
  599MPD2    H2 8882   3.260   1.530  16.409  0.4815 -1.1986  0.2484
  599MPD2    H3 8883   3.074   1.695  16.469  0.5877  0.2836 -1.2744
  599MPD2     N 8884   2.760   1.396  16.382 -0.4990  0.8473  0.0187
  599MPD2    H5 8885   2.708   1.481  16.400 -0.3119  1.0434 -0.3645
  599MPD2    N1 8886   3.232   1.312  16.297 -0.0152 -0.0505 -0.5409
  599MPD2    H7 8887   3.326   1.349  16.298  0.2661 -0.6953 -2.7270
  600TMC3    C1 8888   2.570   1.258  16.396  0.2709  0.5032  0.0541
  600TMC3    C2 8889   2.508   1.137  16.362 -0.5221 -0.1555 -0.6710
  600TMC3    C3 8890   2.375   1.125  16.373 -0.0401  0.1808  0.1136
  600TMC3    C4 8891   2.507   1.362  16.454  0.6254  0.1995  0.7698
  600TMC3    C5 8892   2.371   1.329  16.479 -0.1586  0.3240 -0.6760
  600TMC3    C6 8893   2.309   1.210  16.448  0.1197  0.0677 -0.2946
  600TMC3     C 8894   2.710   1.270  16.378 -0.5861 -0.7000 -0.1354
  600TMC3     O 8895   2.771   1.166  16.365  0.5669 -0.6769  0.0757
  600TMC3     H 8896   2.570   1.061  16.317  1.0550  0.4426  0.5251
  600TMC3    H1 8897   2.561   1.437  16.511 -1.0652  0.6137  1.8150
  600TMC3    H2 8898   2.206   1.193  16.477  0.4830 -0.5274  0.6320
  600TMC3    C7 8899   2.287   1.428  16.546  0.3680 -0.1037 -0.0070
  600TMC3    C8 8900   2.335   0.986  16.380  0.1157  0.3675  0.3146
  600TMC3    O1 8901   2.181   1.396  16.600 -0.2314 -0.7758 -0.4832
  600TMC3    O2 8902   2.426   0.906  16.369  0.5367  0.1521  0.1852
  601MPD2     C 8903   0.303   3.920   0.371  0.4654 -0.2951  0.2339
  601MPD2    C1 8904   0.236   3.821   0.311 -0.0795  0.2218  0.2351
  601MPD2    C2 8905   0.286   3.688   0.321  0.4056  0.3507  1.2571
  601MPD2    C3 8906   0.401   3.668   0.397  0.0212  0.1256 -0.1814
  601MPD2    C4 8907   0.448   3.762   0.481 -0.0802 -1.0346  0.1048
  601MPD2    C5 8908   0.404   3.889   0.460  0.4682  0.7366 -0.3424
  601MPD2     H 8909   0.233   3.608   0.271  2.0816  0.7595 -1.1812
  601MPD2    H1 8910   0.525   3.751   0.556  1.2356 -2.2124 -1.4057
  601MPD2    H2 8911   0.280   4.025   0.373 -0.8066 -0.5558 -0.9851
  601MPD2    H3 8912   0.444   3.973   0.515  1.4783 -0.1119  0.2322
  601MPD2     N 8913   0.456   3.541   0.402  0.1747 -0.1444 -0.1700
  601MPD2    H5 8914   0.516   3.527   0.483  0.2122  0.9465 -0.0100
  601MPD2    N1 8915   0.113   3.843   0.234 -0.0069 -0.2038  0.3729
  601MPD2    H7 8916   0.069   3.759   0.199  0.0693  0.1351 -0.5317
  602TMC3    C1 8917   4.680   3.971   0.094  0.3318  0.0527  0.0739
  602TMC3    C2 8918   4.572   3.879   0.122  0.7777 -0.3379 -0.1163
  602TMC3    C3 8919   4.458   3.888   0.045  0.6212  0.0365 -0.0745
  602TMC3    C4 8920   4.668   4.063  17.679  0.4242 -0.0352  0.7548
  602TMC3    C5 8921   4.550   4.072  17.610  0.0301  0.0710  0.4216
  602TMC3    C6 8922   4.444   3.994  17.648 -0.4918  0.2749 -0.2280
  602TMC3     C 8923   0.076   3.976   0.185  0.3615  0.2625 -0.0481
  602TMC3     O 8924   0.143   4.079   0.185 -0.4464  0.2567  0.1204
  602TMC3     H 8925   4.577   3.804   0.201 -1.8734 -1.1462 -0.6936
  602TMC3    H1 8926   0.036   4.117  17.652 -1.9177  2.3492 -2.2920
  602TMC3    H2 8927   4.341   4.011  17.622 -0.5042  1.4084  0.5748
  602TMC3    C7 8928   4.529   4.169  17.498  0.2346  0.2891 -0.6788
  602TMC3    C8 8929   4.345   3.805   0.089 -0.1523 -0.1398 -0.1624
  602TMC3    O1 8930   4.593   4.267  17.501 -0.0432 -0.3385  0.5445
  602TMC3    O2 8931   4.354   3.736   0.188  0.3811  0.2417 -0.3796
  603TMC3    C1 8932   3.435   4.548  10.867 -0.4131  0.3619  0.6381
  603TMC3    C2 8933   3.437   4.527  11.003  0.0654  0.1671  0.1172
  603TMC3    C3 8934   3.432   4.642  11.079 -0.1285  0.1700 -0.6073
  603TMC3    C4 8935   3.397   4.670  10.815  0.4622 -0.4900  0.1081
  603TMC3    C5 8936   3.402   0.053  10.894 -0.8000 -0.3302  0.0919
  603TMC3    C6 8937   3.422   0.040  11.032 -0.7562  0.3758 -0.3384
  603TMC3     C 8938   3.445   4.429  10.782 -1.0780 -0.0659 -0.0980
  603TMC3     O 8939   3.447   4.319  10.833 -0.2379 -0.5159  0.4657
  603TMC3     H 8940   3.469   4.431  11.041 -0.5866 -0.9097 -2.0780
  603TMC3    H1 8941   3.382   4.675  10.708  0.0134  0.1763  0.2075
  603TMC3    H2 8942   3.415   0.134  11.086  1.5830  0.5563 -0.3563
  603TMC3    C7 8943   3.377   0.184  10.835  0.0252 -0.5164  0.7818
  603TMC3    C8 8944   3.443   4.618  11.223  0.0392 -0.2171  0.0636
  603TMC3    O1 8945   3.419   0.285  10.894  0.3702 -0.3478 -0.1031
  603TMC3    O2 8946   3.452   4.504  11.261  0.4619 -0.1493 -0.1874
  604MPD2     C 8947   3.635   3.707  15.873  0.3209  0.3362  0.3241
  604MPD2    C1 8948   3.629   3.629  15.988 -0.2408 -0.8756 -0.1021
  604MPD2    C2 8949   3.725   3.520  15.998 -0.5264  0.1710  0.3383
  604MPD2    C3 8950   3.820   3.504  15.898 -0.1547 -0.0761  0.6793
  604MPD2    C4 8951   3.818   3.582  15.788  0.6175  0.4267 -0.2345
  604MPD2    C5 8952   3.731   3.684  15.775  0.0654  0.6633 -0.1475
  604MPD2     H 8953   3.733   3.450  16.080 -2.0118 -0.1157  0.2357
  604MPD2    H1 8954   3.881   3.562  15.702  1.0679 -0.8498  0.4064
  604MPD2    H2 8955   3.552   3.775  15.855 -0.4676 -0.5729  0.5180
  604MPD2    H3 8956   3.724   3.726  15.676 -1.2451 -0.7709 -0.6666
  604MPD2     N 8957   3.900   3.395  15.910  0.1733 -1.3205 -0.1059
  604MPD2    H5 8958   3.857   3.324  15.968  1.8193 -0.9281  1.6184
  604MPD2    N1 8959   3.546   3.670  16.100  0.8258 -0.5733 -0.1061
  604MPD2    H7 8960   3.506   3.761  16.077  0.8007 -0.2661  1.1570
  605TMC3    C1 8961   3.443   3.654  16.313 -0.4438  0.5098  0.1224
  605TMC3    C2 8962   3.469   3.616  16.441 -0.0946 -0.0935 -0.3578
  605TMC3    C3 8963   3.387   3.648  16.539  0.2094 -0.3312 -0.4972
  605TMC3    C4 8964   3.340   3.737  16.283  0.4025  0.0289  0.0317
  605TMC3    C5 8965   3.257   3.761  16.386  0.3477  0.2147 -0.7367
  605TMC3    C6 8966   3.274   3.726  16.514  0.6143 -0.2617 -0.1895
  605TMC3     C 8967   3.519   3.588  16.209  0.2712 -0.5404  0.0944
  605TMC3     O 8968   3.572   3.481  16.242  0.0430  0.4845  0.7058
  605TMC3     H 8969   3.554   3.551  16.462 -0.5877 -0.9208 -0.9199
  605TMC3    H1 8970   3.308   3.770  16.185  1.9706  0.7767 -0.2343
  605TMC3    H2 8971   3.211   3.781  16.583  0.3342 -0.8338  0.0051
  605TMC3    C7 8972   3.119   3.784  16.335  0.1855 -0.0749 -0.1018
  605TMC3    C8 8973   3.465   3.665  16.661  0.1497 -0.4163  0.8645
  605TMC3    O1 8974   3.101   3.855  16.236  0.3780 -0.5310  0.4025
  605TMC3    O2 8975   3.534   3.569  16.690  0.2266 -0.3034  0.0723
  606TMC3    C1 8976   0.581   2.646  17.610  0.0257 -0.0561 -0.3596
  606TMC3    C2 8977   0.616   2.598   0.039 -0.0780  0.2096  1.0190
  606TMC3    C3 8978   0.541   2.491   0.086 -0.6161  0.5413 -0.1584
  606TMC3    C4 8979   0.469   2.605  17.544  0.7728 -0.5081  0.0635
  606TMC3    C5 8980   0.397   2.503  17.599 -0.4669  1.2346 -0.4076
  606TMC3    C6 8981   0.431   2.444   0.026  0.4080  0.1087  0.1783
  606TMC3     C 8982   0.651   2.765  17.556  0.0297  0.6038 -0.5798
  606TMC3     O 8983   0.689   2.851  17.640  0.6323  0.6803 -0.5256
  606TMC3     H 8984   0.700   2.637   0.095  2.6759 -2.3521 -1.2912
  606TMC3    H1 8985   0.432   2.674  17.469  0.4258 -0.2383  0.4805
  606TMC3    H2 8986   0.362   2.374   0.072 -0.4151  0.1872 -0.9634
  606TMC3    C7 8987   0.306   2.436  17.511  0.4473  0.1434 -0.3281
  606TMC3    C8 8988   0.571   2.464   0.232 -0.0361  0.0337 -0.6410
  606TMC3    O1 8989   0.287   2.493  17.408  0.2449 -0.6798  0.4584
  606TMC3    O2 8990   0.671   2.511   0.272 -0.6264 -0.4877  0.3841
  607MPD2     C 8991   2.247   4.629  12.128  0.5322  0.7323  0.3372
  607MPD2    C1 8992   2.317   4.683  12.235  0.4928 -0.0498  0.5437
  607MPD2    C2 8993   2.333   4.607  12.349 -1.1779  0.1960 -0.0611
  607MPD2    C3 8994   2.309   4.469  12.352  0.7404  0.6368 -0.0971
  607MPD2    C4 8995   2.238   4.418  12.242 -0.0125  0.4966 -0.9784
  607MPD2    C5 8996   2.206   4.498  12.134  0.3146 -0.2791  0.1214
  607MPD2     H 8997   2.368   4.653  12.440 -0.0549  3.5775 -2.2289
  607MPD2    H1 8998   2.206   4.314  12.233  1.1460  0.2169 -1.9416
  607MPD2    H2 8999   2.234   4.675  12.030  0.1590  0.5795  0.3152
  607MPD2    H3 9000   2.158   4.450  12.050 -2.0711  0.0319  1.2946
  607MPD2     N 9001   2.359   4.390  12.453  0.1337  0.1426  0.5433
  607MPD2    H5 9002   2.414   4.438  12.524 -0.3120 -0.2872  1.1888
  607MPD2    N1 9003   2.354   0.096  12.237  0.1168  0.2940  0.2326
  607MPD2    H7 9004   2.385   0.138  12.324 -0.8547 -2.9666  2.1615
  608TMC3    C1 9005   2.467   0.288  12.169 -0.2507  0.1654  0.0326
  608TMC3    C2 9006   2.503   0.312  12.293  0.3179  0.4534  0.4562
  608TMC3    C3 9007   2.605   0.399  12.321 -0.1894  0.1684 -0.3814
  608TMC3    C4 9008   2.529   0.348  12.060 -0.0546  0.1944  0.3351
  608TMC3    C5 9009   2.623   0.447  12.084 -0.4801  0.3584  0.5049
  608TMC3    C6 9010   2.665   0.475  12.213 -0.1322  0.2453 -1.0258
  608TMC3     C 9011   2.379   0.174  12.130  0.1019  0.3102 -0.4203
  608TMC3     O 9012   2.373   0.144  12.011 -0.2209  0.2038  0.0024
  608TMC3     H 9013   2.426   0.308  12.370 -1.1998  1.2598 -1.0161
  608TMC3    H1 9014   2.487   0.356  11.960 -0.5520 -1.2158  0.4307
  608TMC3    H2 9015   2.726   0.562  12.234 -0.7908 -0.0811  2.3452
  608TMC3    C7 9016   2.730   0.456  11.986  0.6788  0.3809  0.0412
  608TMC3    C8 9017   2.713   0.345  12.396 -0.0750  0.1495 -0.0222
  608TMC3    O1 9018   2.718   0.391  11.885 -0.3562 -0.4348  0.1732
  608TMC3    O2 9019   2.827   0.382  12.367 -0.2435 -0.0344  0.1737
  609TMC3    C1 9020   1.994   2.774   9.356  0.3258  0.0294  0.1370
  609TMC3    C2 9021   2.027   2.726   9.231  0.3234  0.3340  0.1313
  609TMC3    C3 9022   2.136   2.641   9.224 -0.0464 -0.0665  0.0023
  609TMC3    C4 9023   2.064   2.730   9.467  0.7756  0.5627  0.3580
  609TMC3    C5 9024   2.169   2.640   9.454 -0.7622  0.3919 -0.3430
  609TMC3    C6 9025   2.205   2.585   9.329  0.2768  0.1465 -0.0315
  609TMC3     C 9026   1.875   2.851   9.362  0.4828  1.0387 -0.3705
  609TMC3     O 9027   1.800   2.839   9.459 -0.0125  0.0175 -0.2302
  609TMC3     H 9028   1.981   2.760   9.139  1.3328  2.1055  0.2791
  609TMC3    H1 9029   2.043   2.775   9.563 -0.5892 -1.4463  0.9904
  609TMC3    H2 9030   2.286   2.515   9.315  0.2477 -0.0829  0.9049
  609TMC3    C7 9031   2.272   2.663   9.553 -0.8702 -0.5472  0.0936
  609TMC3    C8 9032   2.210   2.637   9.103  0.3669  0.2877  0.1044
  609TMC3    O1 9033   2.244   2.739   9.647 -0.3982  0.6425 -0.1036
  609TMC3    O2 9034   2.325   2.590   9.107 -0.1558 -0.5144 -0.0747
  610TMC3    C1 9035   3.097   4.431  13.069 -0.7404 -0.1849 -0.2331
  610TMC3    C2 9036   3.119   4.512  12.960  1.1086  0.1152  0.4918
  610TMC3    C3 9037   3.248   4.528  12.934  0.1603  0.0816 -0.1783
  610TMC3    C4 9038   3.195   4.390  13.159  0.0672 -0.4986 -0.2260
  610TMC3    C5 9039   3.320   4.423  13.127  0.3235  0.7384  0.6674
  610TMC3    C6 9040   3.349   4.498  13.015 -1.0327 -0.5816 -0.3074
  610TMC3     C 9041   2.963   4.376  13.098  0.1105 -0.6241 -0.0233
  610TMC3     O 9042   2.962   4.284  13.174  0.4704  0.5620  0.2408
  610TMC3     H 9043   3.046   4.537  12.884  2.1061  1.8358  0.1138
  610TMC3    H1 9044   3.174   4.333  13.249 -1.9961 -1.0039 -1.0235
  610TMC3    H2 9045   3.449   4.498  12.972 -0.6309  2.7207  0.6484
  610TMC3    C7 9046   3.430   4.351  13.186 -0.0709  0.4128 -0.2479
  610TMC3    C8 9047   3.283   4.568  12.806 -0.6842  0.1321  0.1093
  610TMC3    O1 9048   3.499   4.279  13.112  0.1574  0.6279  0.3785
  610TMC3    O2 9049   3.215   4.520  12.719  0.0471  0.3864 -0.2673
  611MPD2     C 9050   2.734   4.310  10.394 -0.1333  0.1364  0.3306
  611MPD2    C1 9051   2.620   4.378  10.363 -0.2427 -0.0963 -0.6477
  611MPD2    C2 9052   2.635   4.499  10.299  0.1289  0.0109 -0.6506
  611MPD2    C3 9053   2.760   4.546  10.271  0.0760  0.1420 -0.7473
  611MPD2    C4 9054   2.870   4.476  10.305  0.5948 -0.3285 -0.9772
  611MPD2    C5 9055   2.861   4.349  10.358 -0.9669 -1.5976 -0.4470
  611MPD2     H 9056   2.549   4.561  10.278 -1.0265 -0.5097  2.6064
  611MPD2    H1 9057   2.972   4.508  10.286  0.0513  1.4306 -0.8823
  611MPD2    H2 9058   2.732   4.214  10.444 -2.3101 -0.8679 -1.6567
  611MPD2    H3 9059   2.949   4.288  10.373  0.4081  0.4405 -0.2241
  611MPD2     N 9060   2.780   4.677  10.215  0.2586  0.5044 -0.1132
  611MPD2    H5 9061   2.878   4.699  10.206  0.1940  0.4093 -1.1304
  611MPD2    N1 9062   2.491   4.328  10.408  0.2051 -0.2009 -0.9700
  611MPD2    H7 9063   2.483   4.231  10.437  0.6998  0.2043  0.5367
  612TMC3    C1 9064   2.728   0.172  10.134 -0.0477  0.5658 -0.1886
  612TMC3    C2 9065   2.822   0.229  10.218 -0.3966 -0.0727 -0.2877
  612TMC3    C3 9066   2.830   0.363  10.226  0.5496  0.2256 -0.0411
  612TMC3    C4 9067   2.647   0.252  10.057  0.1960  0.1629  0.6702
  612TMC3    C5 9068   2.657   0.385  10.072 -0.2773 -0.2097  0.2491
  612TMC3    C6 9069   2.750   0.441  10.148 -0.5958  0.1777  0.7003
  612TMC3     C 9070   2.681   0.039  10.173 -0.1299 -0.5576  0.8716
  612TMC3     O 9071   2.563   0.019  10.142  0.5314 -0.4699  0.0404
  612TMC3     H 9072   2.860   0.162  10.294 -3.0603 -1.1485  0.1187
  612TMC3    H1 9073   2.557   0.211  10.012 -0.0858  0.0566  1.3322
  612TMC3    H2 9074   2.759   0.548  10.160  0.9830  0.1510 -0.2146
  612TMC3    C7 9075   2.537   0.456  10.034  0.5720 -0.0297  0.5276
  612TMC3    C8 9076   2.896   0.431  10.334 -0.5628  0.1765 -0.5138
  612TMC3    O1 9077   2.468   0.401   9.950 -0.5721  0.3323  0.1104
  612TMC3    O2 9078   2.840   0.530  10.378  0.7221 -0.0655  0.0689
  613MPD2     C 9079   1.229   2.201  16.762 -0.0086  0.0453 -0.1378
  613MPD2    C1 9080   1.250   2.103  16.671 -0.9852  0.2457  0.9916
  613MPD2    C2 9081   1.265   1.974  16.710 -0.7199 -0.7072 -0.1815
  613MPD2    C3 9082   1.243   1.939  16.844  1.2271  0.0895  0.9286
  613MPD2    C4 9083   1.230   2.039  16.934 -0.1331 -0.1869 -0.3409
  613MPD2    C5 9084   1.232   2.170  16.895 -0.3341  0.7078 -0.1272
  613MPD2     H 9085   1.265   1.897  16.634 -0.7461 -1.4088  0.5258
  613MPD2    H1 9086   1.215   2.015  17.038  0.1856  0.7990 -0.0700
  613MPD2    H2 9087   1.203   2.303  16.734  0.5991  0.2026 -0.1347
  613MPD2    H3 9088   1.204   2.251  16.961  1.2528  2.5122 -1.6629
  613MPD2     N 9089   1.217   1.805  16.876 -0.1281  0.0212  0.4169
  613MPD2    H5 9090   1.229   1.733  16.806  0.6175  1.0975 -0.5586
  613MPD2    N1 9091   1.244   2.125  16.530  0.1680 -0.3449  0.4150
  613MPD2    H7 9092   1.261   2.045  16.470  1.3083 -1.0469  1.6865
  614TMC3    C1 9093   1.218   2.215  16.325 -0.8263 -0.0484 -0.4300
  614TMC3    C2 9094   1.282   2.097  16.300  0.2841  0.3139  0.0123
  614TMC3    C3 9095   1.220   1.998  16.225 -0.0736  0.3909 -0.1537
  614TMC3    C4 9096   1.093   2.237  16.269 -0.3128 -0.5676  0.7086
  614TMC3    C5 9097   1.039   2.143  16.186  0.0065  0.2803 -0.0536
  614TMC3    C6 9098   1.102   2.023  16.160  0.6417  1.2292 -0.0748
  614TMC3     C 9099   1.222   2.243  16.467 -0.0092 -0.7287 -0.5244
  614TMC3     O 9100   1.177   2.352  16.506 -0.2326 -0.1502 -0.6443
  614TMC3     H 9101   1.379   2.073  16.341  0.0237 -0.6012  0.0995
  614TMC3    H1 9102   1.032   2.325  16.285 -0.8849 -0.6426 -1.0638
  614TMC3    H2 9103   1.044   1.943  16.117 -0.3227  1.9550 -0.1101
  614TMC3    C7 9104   0.902   2.156  16.140 -0.2550 -0.2111  0.1570
  614TMC3    C8 9105   1.215   1.870  16.287 -0.5912 -0.0133 -0.7909
  614TMC3    O1 9106   0.824   2.216  16.211 -0.5219  0.5021 -0.3188
  614TMC3    O2 9107   1.260   1.872  16.404  0.3595 -0.7622  0.2051
  615MPD2     C 9108   0.898   3.329  15.897 -0.0137  0.4265  0.2746
  615MPD2    C1 9109   0.828   3.279  15.997 -0.0594  0.0128  0.2826
  615MPD2    C2 9110   0.726   3.185  15.978 -0.4726 -0.2015  0.0181
  615MPD2    C3 9111   0.689   3.156  15.844 -0.4955  0.3079  0.2134
  615MPD2    C4 9112   0.755   3.217  15.743  0.1695  0.6717  0.2026
  615MPD2    C5 9113   0.864   3.294  15.768  0.0710 -0.1174 -0.7249
  615MPD2     H 9114   0.674   3.141  16.062  0.8588 -1.2181  0.3138
  615MPD2    H1 9115   0.729   3.185  15.642  2.2986  0.2841 -0.2440
  615MPD2    H2 9116   0.968   3.411  15.905  0.5325 -0.1657  1.4845
  615MPD2    H3 9117   0.924   3.332  15.686  0.4233  0.9711  0.0361
  615MPD2     N 9118   0.596   3.053  15.806 -0.4142 -0.2091  0.5767
  615MPD2    H5 9119   0.584   3.025  15.709 -0.0859 -0.3141  0.5663
  615MPD2    N1 9120   0.857   3.328  16.128  0.5777 -0.7401  0.2069
  615MPD2    H7 9121   0.799   3.293  16.203  0.7785  0.5937  0.9836
  616TMC3    C1 9122   0.914   3.500  16.272  0.2730 -0.2075 -0.0395
  616TMC3    C2 9123   0.978   3.618  16.274 -0.0308 -0.1862  0.4561
  616TMC3    C3 9124   0.915   3.727  16.334  0.2509  0.3170 -0.2806
  616TMC3    C4 9125   0.790   3.483  16.325  0.8908 -0.5583  0.2753
  616TMC3    C5 9126   0.733   3.586  16.400  0.0173 -0.1753  0.1433
  616TMC3    C6 9127   0.791   3.711  16.394 -0.1267 -0.1420  0.3314
  616TMC3     C 9128   0.960   3.409  16.165  0.4143  1.1073 -0.0360
  616TMC3     O 9129   1.070   3.429  16.118 -0.4531  0.2747 -0.0067
  616TMC3     H 9130   1.077   3.616  16.230 -0.7622  1.7207 -1.2961
  616TMC3    H1 9131   0.739   3.387  16.331  1.0697 -0.7555 -1.4052
  616TMC3    H2 9132   0.746   3.788  16.455 -1.1662  0.3501 -1.0610
  616TMC3    C7 9133   0.605   3.562  16.465  0.0194  0.6392 -0.3430
  616TMC3    C8 9134   0.962   3.866  16.318  0.6423 -0.1275  0.6391
  616TMC3    O1 9135   0.565   3.449  16.499 -0.0507 -0.5976 -0.8107
  616TMC3    O2 9136   0.886   3.964  16.342  0.0402 -0.0249 -0.0335
  617MPD2     C 9137   3.475   1.746  13.708  0.0281  0.2421  0.4164
  617MPD2    C1 9138   3.522   1.649  13.793 -0.6116 -0.0552  0.1321
  617MPD2    C2 9139   3.437   1.578  13.876 -0.2383  0.2365 -0.0498
  617MPD2    C3 9140   3.299   1.592  13.862 -0.3918  0.0826 -0.4008
  617MPD2    C4 9141   3.253   1.670  13.756  0.3323 -0.2161  0.2296
  617MPD2    C5 9142   3.337   1.752  13.690  0.2018  0.9195  0.2509
  617MPD2     H 9143   3.473   1.526  13.964  0.4975  1.5783  0.4480
  617MPD2    H1 9144   3.148   1.674  13.731  1.0288  3.7382 -2.2080
  617MPD2    H2 9145   3.537   1.813  13.650  0.7937 -0.8700 -0.0619
  617MPD2    H3 9146   3.289   1.819  13.620  1.6458  0.7824 -0.8615
  617MPD2     N 9147   3.197   1.529  13.936 -0.4182  0.2877  0.2176
  617MPD2    H5 9148   3.103   1.560  13.913 -0.6681  2.4500  4.1852
  617MPD2    N1 9149   3.663   1.630  13.797  0.1992 -0.2082 -0.2811
  617MPD2    H7 9150   3.726   1.683  13.738  0.7652  0.3908  0.8675
  618TMC3    C1 9151   3.861   1.560  13.863 -0.1255  0.6479 -0.4698
  618TMC3    C2 9152   3.954   1.460  13.881 -0.3578  0.2376  0.3487
  618TMC3    C3 9153   4.086   1.498  13.864  0.0527  0.0209  0.9065
  618TMC3    C4 9154   3.899   1.686  13.885 -0.0331  0.1618  0.0375
  618TMC3    C5 9155   4.028   1.714  13.887  0.1757  0.0562  0.5896
  618TMC3    C6 9156   4.131   1.627  13.879 -0.6593  0.0965  0.6096
  618TMC3     C 9157   3.725   1.536  13.873 -0.4155 -0.0585 -0.7299
  618TMC3     O 9158   3.683   1.439  13.935 -0.5348  0.1462  0.3851
  618TMC3     H 9159   3.931   1.356  13.860 -0.6418  0.5005 -0.6698
  618TMC3    H1 9160   3.826   1.764  13.900  2.0357  1.8350  1.3329
  618TMC3    H2 9161   4.236   1.655  13.884 -1.0267  1.3159  1.3994
  618TMC3    C7 9162   4.066   1.861  13.898  0.0026 -0.2022  0.4448
  618TMC3    C8 9163   4.176   1.389  13.828  0.1539  0.0162  0.2348
  618TMC3    O1 9164   4.029   1.932  13.989 -0.4671  0.5567 -1.0794
  618TMC3    O2 9165   4.129   1.286  13.779  0.2243 -0.2194 -0.4689
  619MPD2     C 9166   0.034   2.897  13.265  0.0728  0.2793 -0.4357
  619MPD2    C1 9167   0.001   3.004  13.346 -0.3026 -0.1882 -0.4601
  619MPD2    C2 9168   4.673   2.981  13.477 -0.1554 -0.5246 -0.0423
  619MPD2    C3 9169   4.650   2.855  13.522 -0.1014  0.0692  0.0455
  619MPD2    C4 9170   4.691   2.751  13.439 -0.3380 -0.1831 -0.0635
  619MPD2    C5 9171   0.029   2.772  13.316 -0.2242  0.2047 -0.5799
  619MPD2     H 9172   4.658   3.067  13.542 -0.6529 -1.9853  1.7507
  619MPD2    H1 9173   4.676   2.648  13.470  0.2211  0.1146  1.1604
  619MPD2    H2 9174   0.074   2.913  13.165  2.7845  0.6142  0.7042
  619MPD2    H3 9175   0.063   2.691  13.253  0.7602 -0.7504  1.1757
  619MPD2     N 9176   4.617   2.825  13.652  0.7675  0.3152  0.2014
  619MPD2    H5 9177   4.635   2.729  13.678 -1.0785  0.1114  0.7663
  619MPD2    N1 9178   0.010   3.133  13.308 -0.2156 -0.2332 -0.4746
  619MPD2    H7 9179   4.697   3.203  13.373  0.8640  0.2025 -0.3705
  620TMC3    C1 9180   0.081   3.343  13.207 -0.3423 -0.0893 -0.0013
  620TMC3    C2 9181   4.689   3.395  13.264 -0.3317 -0.0587  0.0089
  620TMC3    C3 9182   4.700   3.493  13.363  0.3176 -1.0014 -0.6881
  620TMC3    C4 9183   0.204   3.384  13.239  0.3590  0.1160 -0.8857
  620TMC3    C5 9184   0.217   3.463  13.350  0.1324  0.0761  0.1906
  620TMC3    C6 9185   0.107   3.527  13.400  0.4308 -0.3959 -0.2161
  620TMC3     C 9186   0.076   3.193  13.196 -0.0948 -0.5790 -0.0473
  620TMC3     O 9187   0.163   3.133  13.132  0.2389  0.0236 -0.3448
  620TMC3     H 9188   4.592   3.352  13.239  0.4488 -0.6407 -2.0033
  620TMC3    H1 9189   0.287   3.339  13.186  1.0576 -1.6605  1.6941
  620TMC3    H2 9190   0.131   3.598  13.478 -0.4161 -0.4027  0.0434
  620TMC3    C7 9191   0.339   3.431  13.427  0.4732 -0.7162 -0.0568
  620TMC3    C8 9192   4.630   3.445  13.482  0.1075  0.2651  0.2462
  620TMC3    O1 9193   0.438   3.376  13.376 -0.3366  0.3432 -0.3240
  620TMC3    O2 9194   4.596   3.325  13.479 -0.1815  0.3380 -0.0766
  621MPD2     C 9195   1.275   2.645  10.823 -0.1263 -0.3643  0.5677
  621MPD2    C1 9196   1.282   2.625  10.685  0.1545 -0.2812 -0.8686
  621MPD2    C2 9197   1.346   2.722  10.607 -0.1511 -1.5008  0.6302
  621MPD2    C3 9198   1.393   2.845  10.663 -0.0770  0.4893  0.3662
  621MPD2    C4 9199   1.386   2.853  10.802  0.7801  0.0941 -0.4542
  621MPD2    C5 9200   1.328   2.754  10.882 -0.7209 -0.1582  0.4391
  621MPD2     H 9201   1.350   2.701  10.501  0.4162 -0.9508  0.5402
  621MPD2    H1 9202   1.417   2.942  10.856 -0.1517 -0.5038  1.0852
  621MPD2    H2 9203   1.228   2.574  10.890 -3.4363  1.0224 -0.2800
  621MPD2    H3 9204   1.320   2.778  10.987  0.1059  0.5933  0.3295
  621MPD2     N 9205   1.447   2.953  10.581  0.1092 -0.4653  0.5513
  621MPD2    H5 9206   1.501   3.024  10.629 -0.4264 -1.6233  2.8977
  621MPD2    N1 9207   1.245   2.513  10.608 -0.2931 -0.4346  0.3991
  621MPD2    H7 9208   1.253   2.520  10.507  0.6292 -3.4663  0.2595
  622TMC3    C1 9209   1.166   2.309  10.557  0.7212 -0.2175 -0.2880
  622TMC3    C2 9210   1.033   2.283  10.541  0.8239  0.1990 -1.0139
  622TMC3    C3 9211   0.998   2.240  10.415 -0.5669 -0.1828  0.3129
  622TMC3    C4 9212   1.265   2.280  10.464 -0.0004  0.1206 -0.5249
  622TMC3    C5 9213   1.225   2.237  10.340 -0.8575  1.1640  0.2144
  622TMC3    C6 9214   1.090   2.214  10.314 -0.5191  0.1853 -1.1896
  622TMC3     C 9215   1.194   2.399  10.665 -0.7063 -0.4123 -0.3835
  622TMC3     O 9216   1.153   2.376  10.778 -0.1119 -0.3593  0.2247
  622TMC3     H 9217   0.979   2.297  10.634  0.3884  0.3178 -1.2877
  622TMC3    H1 9218   1.369   2.306  10.480 -0.0947 -1.0141  1.8273
  622TMC3    H2 9219   1.053   2.177  10.218  1.0761  0.6449 -1.9751
  622TMC3    C7 9220   1.329   2.239  10.236  0.1102  0.5102  0.1401
  622TMC3    C8 9221   0.859   2.250  10.369  0.1734 -0.0882 -0.3253
  622TMC3    O1 9222   1.448   2.235  10.270 -0.2932  0.2696  0.3096
  622TMC3    O2 9223   0.828   2.173  10.278 -0.5159 -0.3597 -0.2518
  623MPD2     C 9224   3.916   3.646  16.230 -0.5549 -0.2396  0.4533
  623MPD2    C1 9225   3.861   3.705  16.343 -0.2579 -0.2586 -0.2318
  623MPD2    C2 9226   3.895   3.658  16.465  0.1201  0.0973 -0.4050
  623MPD2    C3 9227   3.989   3.560  16.478  0.8729 -0.0100 -0.1437
  623MPD2    C4 9228   4.042   3.499  16.367  0.3678  0.1716 -0.2079
  623MPD2    C5 9229   4.006   3.544  16.241 -0.5977 -0.1147 -0.1394
  623MPD2     H 9230   3.855   3.700  16.557  1.9648  0.2680  0.3104
  623MPD2    H1 9231   4.109   3.415  16.381 -0.8604 -0.7772  0.0642
  623MPD2    H2 9232   3.904   3.675  16.127 -0.1098 -0.1018  0.4380
  623MPD2    H3 9233   4.039   3.497  16.149  0.4520  0.8712 -0.2619
  623MPD2     N 9234   4.011   3.514  16.611  0.1066 -0.3212 -0.2790
  623MPD2    H5 9235   3.958   3.558  16.686 -0.3064  0.6051 -1.1100
  623MPD2    N1 9236   3.769   3.814  16.320  0.2571  0.3952  0.0160
  623MPD2    H7 9237   3.745   3.854  16.230 -0.3646  1.2570  0.5584
  624TMC3    C1 9238   4.264   3.631  16.902 -0.4719 -0.1211 -0.3560
  624TMC3    C2 9239   4.157   3.679  16.968  0.4311  0.3879  0.6220
  624TMC3    C3 9240   4.037   3.610  16.954  0.4454  0.6423  0.0095
  624TMC3    C4 9241   4.270   3.528  16.815  0.3202  0.4987 -0.2440
  624TMC3    C5 9242   4.150   3.469  16.791 -0.1935  0.4298  0.2619
  624TMC3    C6 9243   4.042   3.497  16.868  0.3427 -0.4467 -0.1883
  624TMC3     C 9244   4.388   3.704  16.924 -0.3850  0.2242  0.0576
  624TMC3     O 9245   4.433   3.710  17.037  0.3422 -0.5881 -0.2876
  624TMC3     H 9246   4.170   3.767  17.030 -0.0765  2.5593 -2.3583
  624TMC3    H1 9247   4.355   3.524  16.748 -1.2302 -1.2400 -2.1376
  624TMC3    H2 9248   3.948   3.444  16.864  1.0444 -1.9632  2.9712
  624TMC3    C7 9249   4.121   3.449  16.648  0.7812  0.1694 -0.4289
  624TMC3    C8 9250   3.921   3.682  16.910  0.4889  0.3269  0.7481
  624TMC3    O1 9251   4.210   3.403  16.579  0.2945  0.3309 -0.0008
  624TMC3    O2 9252   3.893   3.675  16.792 -0.0140  0.9504  0.0143
  625MPD2     C 9253   4.498   4.668   0.476 -0.0795  0.1416  1.5067
  625MPD2    C1 9254   4.557   0.074   0.454 -0.4579  0.2300 -0.1225
  625MPD2    C2 9255   4.687   0.100   0.497  0.5570 -0.2708  0.3246
  625MPD2    C3 9256   0.041   4.721   0.541 -0.5833 -0.0439  0.7075
  625MPD2    C4 9257   4.707   4.597   0.567 -0.3572 -0.2470 -0.5254
  625MPD2    C5 9258   4.575   4.572   0.529  0.0244 -0.4311 -0.7474
  625MPD2     H 9259   0.009   0.199   0.490  0.9308 -0.4483  0.2013
  625MPD2    H1 9260   0.036   4.513   0.612 -1.6022 -0.6375  0.1668
  625MPD2    H2 9261   4.393   4.649   0.459  0.4406 -0.6630 -0.7683
  625MPD2    H3 9262   4.542   4.471   0.551 -1.0761 -0.0431 -0.6473
  625MPD2     N 9263   0.172   0.027   0.575  1.2887 -0.1046  0.4191
  625MPD2    H5 9264   0.189   0.124   0.549  1.0893 -0.2092 -0.1033
  625MPD2    N1 9265   4.475   0.179   0.410  0.4959 -0.0895  0.0210
  625MPD2    H7 9266   4.521   0.269   0.419 -0.0242  0.0906  0.8695
  626TMC3    C1 9267   4.285   0.305   0.334 -0.9444 -0.4025 -0.3697
  626TMC3    C2 9268   4.191   0.332   0.232 -0.7828  0.0062 -0.1753
  626TMC3    C3 9269   4.108   0.439   0.243  0.1906  0.3823  0.5881
  626TMC3    C4 9270   4.291   0.379   0.441 -0.4183  0.0697 -0.1664
  626TMC3    C5 9271   4.204   0.487   0.451  0.7490  0.2156  0.1127
  626TMC3    C6 9272   4.111   0.513   0.356  0.0050 -0.0536 -0.6613
  626TMC3     C 9273   4.357   0.172   0.342  0.4856  0.3085  0.4910
  626TMC3     O 9274   4.307   0.079   0.279 -0.0621  0.3893  0.6112
  626TMC3     H 9275   4.185   0.255   0.156  1.6986  0.3710 -0.7371
  626TMC3    H1 9276   4.358   0.368   0.525 -0.0137  1.6321 -0.2937
  626TMC3    H2 9277   4.063   0.611   0.355  0.4836  0.1799 -1.0464
  626TMC3    C7 9278   4.166   0.508   0.591  0.3914 -0.0402 -0.3739
  626TMC3    C8 9279   4.062   0.478   0.108  0.0829  0.3296  0.0705
  626TMC3    O1 9280   4.237   0.455   0.677  0.4040 -0.3498  0.7505
  626TMC3    O2 9281   4.118   0.439   0.011  0.3654  0.3741  0.8188
  627MPD2     C 9282   3.634   0.504  14.645  0.1932  0.5739  0.0137
  627MPD2    C1 9283   3.525   0.489  14.735  0.0246  0.1836 -0.4472
  627MPD2    C2 9284   3.467   0.367  14.749  0.1353  0.1609 -0.1957
  627MPD2    C3 9285   3.514   0.257  14.676  0.7265 -0.4140  0.0039
  627MPD2    C4 9286   3.620   0.274  14.587  0.0212 -0.1859 -0.2147
  627MPD2    C5 9287   3.682   0.396  14.577 -0.1701 -0.1006  0.1451
  627MPD2     H 9288   3.389   0.360  14.823  0.4786  1.8199  0.3318
  627MPD2    H1 9289   3.654   0.197  14.519 -2.4912 -0.4342 -1.2015
  627MPD2    H2 9290   3.685   0.598  14.629  1.2286 -0.4372 -2.6336
  627MPD2    H3 9291   3.766   0.408  14.510 -0.0049  1.6919  0.6702
  627MPD2     N 9292   3.444   0.133  14.690  0.0308 -0.6089  0.3638
  627MPD2    H5 9293   3.360   0.128  14.748  0.1366 -1.4370  0.4404
  627MPD2    N1 9294   3.492   0.597  14.818 -0.2860 -0.1981 -0.2347
  627MPD2    H7 9295   3.436   0.580  14.901  1.4743 -0.2479  0.9433
  628TMC3    C1 9296   3.485   0.801  14.913 -0.6168  0.3414  0.2428
  628TMC3    C2 9297   3.519   0.750  15.035  0.1973  0.3098 -0.8017
  628TMC3    C3 9298   3.503   0.833  15.144 -0.2305 -0.1502  0.4190
  628TMC3    C4 9299   3.422   0.922  14.899  0.7001 -0.2715  0.3824
  628TMC3    C5 9300   3.402   0.994  15.015  0.1447  0.3315  0.3396
  628TMC3    C6 9301   3.425   0.949  15.141  0.5581 -0.1930 -0.1655
  628TMC3     C 9302   3.526   0.727  14.798  0.2960 -0.5423  0.4113
  628TMC3     O 9303   3.553   0.789  14.697  0.6409 -0.0396  0.2747
  628TMC3     H 9304   3.582   0.662  15.037 -1.8573 -1.1952 -1.4019
  628TMC3    H1 9305   3.412   0.961  14.798  1.1147 -1.6017 -0.1722
  628TMC3    H2 9306   3.436   1.026  15.218 -2.2382 -1.4599  1.4989
  628TMC3    C7 9307   3.338   1.125  15.007  0.4742  0.1601 -0.3326
  628TMC3    C8 9308   3.622   0.840  15.232  0.4014 -0.3285 -0.1273
  628TMC3    O1 9309   3.370   1.210  15.091 -0.2323  0.0813  0.4270
  628TMC3    O2 9310   3.643   0.944  15.291  0.0386  0.3705 -0.8406
  629MPD2     C 9311   1.366   4.171  16.366 -0.2628  0.0546 -0.3664
  629MPD2    C1 9312   1.408   4.044  16.381 -0.3932  0.3431  0.4897
  629MPD2    C2 9313   1.324   3.934  16.362  0.6281  0.5186 -0.2884
  629MPD2    C3 9314   1.193   3.965  16.323  1.0363  0.3024 -0.1109
  629MPD2    C4 9315   1.154   4.097  16.305  0.7826 -0.6323  0.8643
  629MPD2    C5 9316   1.241   4.200  16.333 -0.1227 -0.5530 -0.3801
  629MPD2     H 9317   1.370   3.838  16.381 -0.0196  0.0966 -0.8574
  629MPD2    H1 9318   1.050   4.118  16.281  1.6971  3.6331  0.7257
  629MPD2    H2 9319   1.435   4.253  16.383  1.3848 -1.5164  0.4786
  629MPD2    H3 9320   1.204   4.299  16.312 -0.4008 -0.9624 -1.8075
  629MPD2     N 9321   1.104   3.856  16.311  0.1255 -0.2136 -0.5527
  629MPD2    H5 9322   1.139   3.761  16.304  0.4729 -0.0263 -1.3951
  629MPD2    N1 9323   1.546   4.026  16.411  0.2648 -0.5107  0.3946
  629MPD2    H7 9324   1.600   4.107  16.438  2.9378 -1.4647 -2.0471
  630TMC3    C1 9325   1.738   3.931  16.491 -0.3156 -0.0634 -0.3101
  630TMC3    C2 9326   1.823   4.021  16.439  0.9691  0.2892  0.1835
  630TMC3    C3 9327   1.949   4.024  16.498  0.3193 -0.8860  1.1490
  630TMC3    C4 9328   1.759   3.865  16.607 -0.0948  0.4198 -0.2460
  630TMC3    C5 9329   1.886   3.857  16.648  0.0904 -0.3012 -0.1236
  630TMC3    C6 9330   1.983   3.937  16.598 -0.0780  0.4343 -0.1944
  630TMC3     C 9331   1.606   3.911  16.439  0.3195  0.0012  0.6935
  630TMC3     O 9332   1.561   3.798  16.452 -0.5738 -0.2503 -0.3651
  630TMC3     H 9333   1.807   4.063  16.340 -1.9595  1.7173  1.2619
  630TMC3    H1 9334   1.690   3.786  16.631  1.4094 -0.9712 -0.5304
  630TMC3    H2 9335   2.086   3.938  16.631 -0.6246 -0.2030  1.5513
  630TMC3    C7 9336   1.908   3.797  16.780  0.4537  0.5230  0.4610
  630TMC3    C8 9337   2.042   4.127  16.461  0.2716 -0.2649 -0.4406
  630TMC3    O1 9338   1.807   3.763  16.834 -0.4622  0.7116 -0.1769
  630TMC3    O2 9339   2.149   4.123  16.510 -0.0157  0.2333  0.1035
  631MPD2     C 9340   4.458   3.238  15.820  0.1677 -0.0902 -0.1593
  631MPD2    C1 9341   4.576   3.270  15.760  1.1153 -0.1232  0.6843
  631MPD2    C2 9342   4.679   3.180  15.756 -0.1912  0.0067  0.1059
  631MPD2    C3 9343   4.664   3.062  15.822 -0.4272  0.7615  0.5099
  631MPD2    C4 9344   4.551   3.030  15.884 -0.3059  0.1883  0.1959
  631MPD2    C5 9345   4.439   3.108  15.866 -0.0059  0.0101  0.2101
  631MPD2     H 9346   0.050   3.207  15.707 -0.0375 -0.7749 -0.0301
  631MPD2    H1 9347   4.520   2.943  15.941  0.9890  1.0410  2.2064
  631MPD2    H2 9348   4.372   3.302  15.812  0.9690  1.2311  2.0010
  631MPD2    H3 9349   4.338   3.081  15.896 -0.2053  0.3181 -0.1824
  631MPD2     N 9350   0.049   2.975  15.802  0.3532 -0.7426 -0.2611
  631MPD2    H5 9351   0.112   3.012  15.731 -0.2548  1.8345  0.5477
  631MPD2    N1 9352   4.571   3.394  15.691  0.2171  0.3421 -0.2696
  631MPD2    H7 9353   4.490   3.451  15.711  0.5296 -0.1668  2.4467
  632TMC3    C1 9354   4.682   3.577  15.594  0.1745  0.4398  0.3848
  632TMC3    C2 9355   4.607   3.654  15.675 -0.8518 -0.2569  0.1300
  632TMC3    C3 9356   4.615   3.786  15.656  0.1399  0.0189 -0.2107
  632TMC3    C4 9357   0.050   3.628  15.507 -0.0967  0.3276  0.2464
  632TMC3    C5 9358   0.072   3.760  15.509  0.2347 -0.1061 -1.0935
  632TMC3    C6 9359   4.713   3.843  15.583 -0.3369  0.2479 -0.1966
  632TMC3     C 9360   4.670   3.437  15.603 -0.1638  0.0386 -0.0283
  632TMC3     O 9361   0.040   3.375  15.550 -0.0593  0.7041  0.4753
  632TMC3     H 9362   4.543   3.618  15.754 -2.5976 -0.5739 -1.4367
  632TMC3    H1 9363   0.107   3.567  15.438  0.3787 -0.0372  0.9718
  632TMC3    H2 9364   4.714   3.950  15.564 -1.2395  0.3109  0.0866
  632TMC3    C7 9365   0.161   3.802  15.405 -0.9541  0.5135  0.0041
  632TMC3    C8 9366   4.505   3.864  15.717  0.3393  0.0055  0.4654
  632TMC3    O1 9367   0.153   3.734  15.304  0.3642 -0.2924  0.2102
  632TMC3    O2 9368   4.433   3.812  15.799 -0.1992 -0.0162  0.1770
  633MPD2     C 9369   4.099   2.287  17.538 -1.0542  0.1194  0.1767
  633MPD2    C1 9370   4.079   2.171  17.475 -0.3418  0.5195 -0.5696
  633MPD2    C2 9371   4.138   2.066  17.524 -0.0515  0.2476  0.1419
  633MPD2    C3 9372   4.221   2.065  17.636  0.0615 -0.9501  0.4335
  633MPD2    C4 9373   4.241   2.183   0.010 -0.2744  0.1891 -0.2363
  633MPD2    C5 9374   4.185   2.298  17.647 -0.1568 -1.0539  0.1478
  633MPD2     H 9375   4.124   1.971  17.475 -0.2625  0.8611 -0.9851
  633MPD2    H1 9376   4.299   2.186   0.101 -0.2751  2.8419 -0.3143
  633MPD2    H2 9377   4.057   2.381  17.504  3.3745  1.3491 -1.9583
  633MPD2    H3 9378   4.217   2.388   0.008 -2.6566 -0.2582  0.3095
  633MPD2     N 9379   4.268   1.946   0.007  0.2320 -0.0274 -0.2162
  633MPD2    H5 9380   4.334   1.952   0.084  1.2487 -0.1084 -1.0886
  633MPD2    N1 9381   4.010   2.154  17.351  0.3757  0.2136  0.3498
  633MPD2    H7 9382   4.016   2.062  17.310 -0.5274  0.8566 -1.2329
  634TMC3    C1 9383   3.931   2.218  17.145 -0.5428  0.2731  0.2318
  634TMC3    C2 9384   3.923   2.087  17.110 -0.2061  1.0101  0.0315
  634TMC3    C3 9385   3.925   2.060  16.975 -0.1953 -0.5870  0.0739
  634TMC3    C4 9386   3.922   2.324  17.059 -0.2154 -1.1304 -0.2232
  634TMC3    C5 9387   3.922   2.292  16.929 -0.6012  0.7747  0.0974
  634TMC3    C6 9388   3.933   2.163  16.885 -0.3686  0.3574  0.6248
  634TMC3     C 9389   3.951   2.262  17.285  0.0831 -0.0397  0.1714
  634TMC3     O 9390   3.951   2.383  17.316  0.1379 -0.1297 -0.6565
  634TMC3     H 9391   3.900   2.000  17.172  0.9277  1.1914  0.7142
  634TMC3    H1 9392   3.920   2.424  17.101  0.1650 -2.3941  2.7522
  634TMC3    H2 9393   3.922   2.145  16.779  0.9973 -0.2810  0.5927
  634TMC3    C7 9394   3.918   2.396  16.830  0.6319  0.0180  0.4975
  634TMC3    C8 9395   3.939   1.921  16.929  0.5803  0.4050  0.0549
  634TMC3    O1 9396   3.987   2.379  16.730  0.3378  0.0547 -0.3575
  634TMC3    O2 9397   3.960   1.834  17.010 -0.2219 -0.2004  0.6362
  635TMC3    C1 9398   4.709   2.732  17.420  0.0433  0.4941  0.3358
  635TMC3    C2 9399   4.719   2.823  17.316 -0.0446 -0.1240 -0.1186
  635TMC3    C3 9400   4.656   2.795  17.200 -0.2722  0.1326 -0.5271
  635TMC3    C4 9401   4.649   2.608  17.402 -0.1362  0.1204  0.1896
  635TMC3    C5 9402   4.585   2.588  17.276 -0.4941 -0.3543  0.5796
  635TMC3    C6 9403   4.586   2.681  17.173 -1.0000  0.2789 -0.1919
  635TMC3     C 9404   0.068   2.760  17.540 -0.2788 -0.1892 -0.0842
  635TMC3     O 9405   0.129   2.864  17.526 -0.1651 -0.3024 -0.2807
  635TMC3     H 9406   0.056   2.913  17.324 -1.5001  1.0594 -2.5220
  635TMC3    H1 9407   4.646   2.529  17.477 -1.2010 -0.0970 -0.0893
  635TMC3    H2 9408   4.521   2.669  17.087 -0.8826 -1.5460 -0.0199
  635TMC3    C7 9409   4.570   2.452  17.231  0.0034  0.1284 -0.1990
  635TMC3    C8 9410   4.647   2.906  17.120  0.5465  0.8663  0.0980
  635TMC3    O1 9411   4.547   2.365  17.315 -0.0253 -0.0858  0.5297
  635TMC3    O2 9412   0.026   2.973  17.101 -0.0953  0.3842 -0.1638
  636MPD2     C 9413   0.403   1.814  16.561  0.3744  0.4854 -0.1743
  636MPD2    C1 9414   0.515   1.892  16.559 -0.3572 -0.4189 -0.4169
  636MPD2    C2 9415   0.627   1.841  16.620 -0.5126  0.1810  0.3354
  636MPD2    C3 9416   0.628   1.709  16.664  0.4778  0.0880 -1.0733
  636MPD2    C4 9417   0.514   1.630  16.669  0.5980  0.3669  0.3437
  636MPD2    C5 9418   0.402   1.685  16.605  0.2686 -0.4507  0.3001
  636MPD2     H 9419   0.716   1.903  16.614 -1.5320  1.8322  2.0716
  636MPD2    H1 9420   0.524   1.532  16.713  0.4529  0.6154  0.9314
  636MPD2    H2 9421   0.309   1.844  16.517 -1.6093 -5.6214 -0.0499
  636MPD2    H3 9422   0.306   1.637  16.596 -0.1032  0.5717 -1.3462
  636MPD2     N 9423   0.747   1.671  16.721  0.8732  0.1337  0.2593
  636MPD2    H5 9424   0.817   1.741  16.742 -0.4336  2.6370 -3.8527
  636MPD2    N1 9425   0.528   2.027  16.502 -0.1687  0.3810  0.0598
  636MPD2    H7 9426   0.621   2.063  16.483 -0.3620  0.2472 -1.1694
  637TMC3    C1 9427   0.905   1.546  16.817 -0.2268 -0.3771  0.2051
  637TMC3    C2 9428   0.943   1.632  16.923  0.1525  0.8115  0.2201
  637TMC3    C3 9429   1.079   1.636  16.955 -0.7728 -0.6765 -0.4009
  637TMC3    C4 9430   0.993   1.458  16.759 -0.1500  0.9263 -0.6353
  637TMC3    C5 9431   1.125   1.471  16.789 -0.6618 -0.1795 -0.2353
  637TMC3    C6 9432   1.171   1.552  16.890  0.1033  0.4435 -0.4132
  637TMC3     C 9433   0.777   1.548  16.763  0.1671 -0.4283  0.0588
  637TMC3     O 9434   0.730   1.444  16.718 -0.3230  0.2438  0.0757
  637TMC3     H 9435   0.873   1.699  16.972 -1.5242 -1.2231  0.6103
  637TMC3    H1 9436   0.958   1.397  16.677  0.9262  3.1987 -2.8087
  637TMC3    H2 9437   1.275   1.574  16.910  0.4236 -1.8976  0.5113
  637TMC3    C7 9438   1.199   1.516  16.673 -0.5259 -0.3772  0.1992
  637TMC3    C8 9439   1.134   1.767  16.982 -0.1799  0.3252  0.1047
  637TMC3    O1 9440   1.235   1.634  16.668 -0.3141  0.3101 -0.7729
  637TMC3    O2 9441   1.067   1.838  17.059  0.0122 -0.7141 -0.0063
  638MPD2     C 9442   0.819   1.059  15.111 -0.3690 -0.2889 -0.1847
  638MPD2    C1 9443   0.724   1.001  15.035 -0.5383  0.3008  0.1352
  638MPD2    C2 9444   0.667   0.878  15.063  0.2344  0.8312 -0.2604
  638MPD2    C3 9445   0.715   0.807  15.171  0.2135  0.1496  0.2001
  638MPD2    C4 9446   0.817   0.864  15.246 -0.1401  0.7769 -0.3035
  638MPD2    C5 9447   0.864   0.991  15.218 -0.0219  0.0549  0.0610
  638MPD2     H 9448   0.580   0.846  15.007  0.1231 -0.5825  0.7222
  638MPD2    H1 9449   0.853   0.814  15.335 -2.7450 -0.3598  0.1352
  638MPD2    H2 9450   0.867   1.153  15.086 -2.4667  1.4343  2.2377
  638MPD2    H3 9451   0.934   1.046  15.279  1.1950 -1.3497 -0.0758
  638MPD2     N 9452   0.654   0.684  15.198  0.4955 -0.7055 -0.6056
  638MPD2    H5 9453   0.567   0.671  15.148 -1.1417  3.9063  1.0034
  638MPD2    N1 9454   0.692   1.064  14.914  0.4798 -0.2262  0.1499
  638MPD2    H7 9455   0.749   1.146  14.900 -1.3756  0.5836 -2.7497
  639TMC3    C1 9456   0.603   0.478  15.301  0.9771 -0.3116  0.3079
  639TMC3    C2 9457   0.544   0.436  15.187  0.1716 -0.1906  0.1856
  639TMC3    C3 9458   0.473   0.317  15.188 -0.1384 -0.4477  0.0663
  639TMC3    C4 9459   0.605   0.399  15.407  0.3248  0.8600 -0.1548
  639TMC3    C5 9460   0.534   0.278  15.411 -0.0291  0.2471  0.3572
  639TMC3    C6 9461   0.466   0.242  15.296 -0.0488  0.1679  0.0595
  639TMC3     C 9462   0.693   0.592  15.296 -0.6391 -0.0483  0.1130
  639TMC3     O 9463   0.786   0.589  15.379 -0.6445  0.5220 -0.0919
  639TMC3     H 9464   0.549   0.495  15.096  0.9774 -1.3881 -0.5397
  639TMC3    H1 9465   0.647   0.440  15.498 -0.1982  0.3213  0.3288
  639TMC3    H2 9466   0.429   0.140  15.288 -0.0840  0.1578  0.3682
  639TMC3    C7 9467   0.616   0.173  15.470  0.6514 -0.1203  0.5416
  639TMC3    C8 9468   0.398   0.273  15.069  0.3797 -0.2011 -0.0285
  639TMC3    O1 9469   0.564   0.065  15.469 -0.1166  0.3793 -0.2248
  639TMC3    O2 9470   0.425   0.329  14.963 -0.3044 -0.0479  0.0953
  640MPD2     C 9471   1.832   3.318   9.946  0.0801 -0.3386 -0.1384
  640MPD2    C1 9472   1.895   3.440   9.943  0.0550  0.4462 -0.3834
  640MPD2    C2 9473   1.825   3.554   9.978 -0.1995 -0.1813 -1.3393
  640MPD2    C3 9474   1.696   3.537  10.028  0.7118  0.2671  0.8702
  640MPD2    C4 9475   1.632   3.417  10.023  0.3885  0.2147 -0.5191
  640MPD2    C5 9476   1.703   3.301   9.987  0.2210  0.0132  0.2664
  640MPD2     H 9477   1.880   3.647   9.987  0.7420 -0.7465 -1.2646
  640MPD2    H1 9478   1.530   3.392  10.049  0.9399 -0.7956  0.6929
  640MPD2    H2 9479   1.894   3.229   9.934  2.0021  0.9567  0.1280
  640MPD2    H3 9480   1.648   3.208   9.977 -1.4685  0.5898  4.4159
  640MPD2     N 9481   1.631   3.631  10.109 -0.1166  0.1608 -0.4010
  640MPD2    H5 9482   1.548   3.597  10.155 -0.7109  0.5915 -1.1429
  640MPD2    N1 9483   2.027   3.454   9.892 -0.3661 -0.3031 -0.9464
  640MPD2    H7 9484   2.079   3.368   9.880  0.4718 -0.4485  3.6840
  641TMC3    C1 9485   2.238   3.554   9.874 -0.0018 -0.4489 -0.8927
  641TMC3    C2 9486   2.291   3.461   9.954 -0.1670 -0.3199  0.2435
  641TMC3    C3 9487   2.426   3.463   9.969  0.3265 -0.5219  0.3403
  641TMC3    C4 9488   2.319   3.655   9.812  0.0121 -0.0492  0.5170
  641TMC3    C5 9489   2.459   3.651   9.828 -0.1948  0.6908  0.3407
  641TMC3    C6 9490   2.514   3.549   9.903  0.2345  0.9562 -0.0313
  641TMC3     C 9491   2.093   3.570   9.862 -0.5595  0.4027 -0.6154
  641TMC3     O 9492   2.041   3.676   9.831 -0.4313  0.3796 -0.3928
  641TMC3     H 9493   2.232   3.392  10.013  0.7544 -0.3375  1.1364
  641TMC3    H1 9494   2.272   3.724   9.744  1.4509 -1.3962 -1.8555
  641TMC3    H2 9495   2.620   3.542   9.927  0.4342  1.6132 -0.7043
  641TMC3    C7 9496   2.544   3.755   9.780 -0.3033 -0.4075  0.8134
  641TMC3    C8 9497   2.488   3.353  10.038  0.6272 -0.7332 -0.9642
  641TMC3    O1 9498   2.666   3.729   9.780 -0.1155 -0.0496 -0.4238
  641TMC3    O2 9499   2.417   3.252  10.031 -0.1448 -0.0912 -0.5159
  642TMC3    C1 9500   2.368   1.064  12.067 -0.3356 -0.0486 -0.3728
  642TMC3    C2 9501   2.501   1.051  12.115 -0.3988 -0.1689 -0.8616
  642TMC3    C3 9502   2.543   0.919  12.147  0.6415 -0.0570 -0.5549
  642TMC3    C4 9503   2.281   0.959  12.053 -0.0696 -0.5125  0.4519
  642TMC3    C5 9504   2.341   0.837  12.082 -0.3971  0.0804 -1.0584
  642TMC3    C6 9505   2.467   0.812  12.121 -0.3263 -0.3797 -0.1088
  642TMC3     C 9506   2.319   1.199  12.052  0.5555  0.1601 -0.2478
  642TMC3     O 9507   2.380   1.269  11.972  0.0146  0.0710 -0.2479
  642TMC3     H 9508   2.565   1.137  12.123  0.0160 -0.4383 -1.2988
  642TMC3    H1 9509   2.176   0.969  12.029  0.1869  2.8678  0.6462
  642TMC3    H2 9510   2.489   0.709  12.144  0.8965 -0.4333 -1.5469
  642TMC3    C7 9511   2.246   0.721  12.081  0.2211 -0.5776  0.0725
  642TMC3    C8 9512   2.660   0.895  12.227  0.5859 -0.4967 -0.1429
  642TMC3    O1 9513   2.281   0.634  12.000  0.3211  0.1659 -0.3109
  642TMC3    O2 9514   2.705   0.782  12.229  0.0597  0.0596 -0.3605
  643TMC3    C1 9515   1.122   0.180   0.759  0.3466 -0.0717  0.8610
  643TMC3    C2 9516   0.997   0.223   0.745  0.6676 -0.1594 -0.2524
  643TMC3    C3 9517   0.907   0.163   0.664 -0.5399 -0.0501  0.5762
  643TMC3    C4 9518   1.166   0.081   0.678  0.5695  0.6369 -0.4252
  643TMC3    C5 9519   1.079   0.018   0.595 -0.5419 -0.4890  0.0065
  643TMC3    C6 9520   0.943   0.051   0.599 -0.4673  0.1615 -0.3816
  643TMC3     C 9521   1.214   0.281   0.792 -0.0180 -0.3953 -0.1519
  643TMC3     O 9522   1.179   0.396   0.766  0.1281  0.1279 -0.7063
  643TMC3     H 9523   0.961   0.308   0.802 -0.6211 -1.6989  1.2136
  643TMC3    H1 9524   1.272   0.059   0.681  0.2169 -0.7312  1.6093
  643TMC3    H2 9525   0.877   4.712   0.538  0.7245 -0.5303 -0.9770
  643TMC3    C7 9526   1.126   4.700   0.469  0.0735 -0.4764  0.5654
  643TMC3    C8 9527   0.870   0.253   0.561 -0.0029 -0.4670 -0.4405
  643TMC3    O1 9528   1.091   0.051   0.374  0.5530 -0.0475  0.2982
  643TMC3    O2 9529   0.784   0.211   0.480 -0.1406 -0.3022 -0.6407
  644MPD2     C 9530   2.891   4.649   9.825 -0.3748 -0.4396 -0.6129
  644MPD2    C1 9531   2.746   4.651   9.832 -0.6335 -0.3363  0.1022
  644MPD2    C2 9532   2.680   0.041   9.793 -0.4720 -0.5671 -0.6238
  644MPD2    C3 9533   2.752   0.149   9.742 -0.2068  0.3443 -0.0202
  644MPD2    C4 9534   2.891   0.136   9.730 -0.1548 -0.7187  0.2765
  644MPD2    C5 9535   2.957   0.027   9.777  0.4697  0.2229  0.9724
  644MPD2     H 9536   2.571   0.042   9.797 -0.4346  2.8461 -0.5847
  644MPD2    H1 9537   2.939   0.220   9.681  0.0995 -0.0171  1.7323
  644MPD2    H2 9538   2.956   4.566   9.849 -0.8716 -0.8537 -0.6960
  644MPD2    H3 9539   3.066   0.030   9.779  0.4894  0.4552 -0.4536
  644MPD2     N 9540   2.688   0.273   9.733 -0.6205 -0.0818 -0.3040
  644MPD2    H5 9541   2.587   0.268   9.742 -0.5332 -0.2832  0.5188
  644MPD2    N1 9542   2.689   4.539   9.893 -0.1669  0.4989  0.2922
  644MPD2    H7 9543   2.754   4.473   9.935  1.2740  1.9084  0.2614
  645TMC3    C1 9544   2.649   0.507   9.709  0.2821 -0.1945  0.0585
  645TMC3    C2 9545   2.519   0.479   9.668  0.1624 -0.0105 -1.1306
  645TMC3    C3 9546   2.455   0.588   9.614 -0.2191  0.4233 -0.0395
  645TMC3    C4 9547   2.706   0.628   9.716 -0.1441 -0.2091 -0.2664
  645TMC3    C5 9548   2.634   0.736   9.671  0.0340  0.3345  1.0619
  645TMC3    C6 9549   2.511   0.719   9.613 -0.0605  0.0719 -0.5880
  645TMC3     C 9550   2.746   0.395   9.718 -0.0835  0.3234  0.4583
  645TMC3     O 9551   2.868   0.427   9.722  0.0389  0.4695 -0.1890
  645TMC3     H 9552   2.481   0.379   9.652  1.6538 -0.2846 -2.9314
  645TMC3    H1 9553   2.797   0.645   9.772  0.6321  0.4976 -1.7290
  645TMC3    H2 9554   2.461   0.809   9.582  1.0540  1.1324  0.7096
  645TMC3    C7 9555   2.703   0.863   9.672 -0.6658  0.2920 -0.1172
  645TMC3    C8 9556   2.318   0.562   9.581  0.1446  0.5075  0.0794
  645TMC3    O1 9557   2.686   0.934   9.572  0.9064  0.5439  0.0214
  645TMC3    O2 9558   2.265   0.461   9.623 -0.4736  0.7109  0.0974
  646MPD2     C 9559   0.943   4.546  14.509 -0.2566  0.3367 -0.5931
  646MPD2    C1 9560   0.850   4.460  14.550  0.4781 -0.0169  0.5241
  646MPD2    C2 9561   0.721   4.479  14.512  0.0980 -0.7216  0.4007
  646MPD2    C3 9562   0.695   4.576  14.418  0.2684  0.1228 -0.2753
  646MPD2    C4 9563   0.798   4.657  14.368 -0.3681  0.7976 -0.3557
  646MPD2    C5 9564   0.923   4.642  14.412  0.8961 -0.6657 -0.0009
  646MPD2     H 9565   0.635   4.427  14.553 -0.1048 -0.6682  0.0437
  646MPD2    H1 9566   0.786   0.012  14.293  0.4319  2.0559  0.8157
  646MPD2    H2 9567   1.038   4.555  14.560 -0.1232  1.6341 -1.0710
  646MPD2    H3 9568   1.004   4.701  14.372  1.4640 -1.8306 -0.5782
  646MPD2     N 9569   0.560   4.595  14.386 -0.1394  0.5055  0.8225
  646MPD2    H5 9570   0.487   4.562  14.448 -0.8972  0.9567  0.1803
  646MPD2    N1 9571   0.892   4.360  14.642 -0.4137 -0.0355 -0.2432
  646MPD2    H7 9572   0.990   4.366  14.667 -1.3147 -1.5426  3.6077
  647TMC3    C1 9573   0.874   4.145  14.743 -0.8238  0.0918 -0.0765
  647TMC3    C2 9574   0.795   4.033  14.774 -0.6638 -0.2280  0.2587
  647TMC3    C3 9575   0.859   3.919  14.812 -0.3378 -0.1878 -0.1954
  647TMC3    C4 9576   1.009   4.149  14.767  0.6034 -0.1125  0.5193
  647TMC3    C5 9577   1.066   4.024  14.775  0.8051  0.2327  0.3734
  647TMC3    C6 9578   0.996   3.909  14.793 -0.2308  0.5006 -0.5216
  647TMC3     C 9579   0.806   4.261  14.694  0.4489  0.6997 -0.5402
  647TMC3     O 9580   0.684   4.248  14.684 -0.0420  0.4087  0.1394
  647TMC3     H 9581   0.687   4.036  14.786 -0.8029  0.0039 -1.0660
  647TMC3    H1 9582   1.071   4.234  14.739 -1.5640  1.0506 -0.7596
  647TMC3    H2 9583   1.045   3.813  14.794 -0.9607  0.1388  0.4334
  647TMC3    C7 9584   1.211   4.006  14.778 -0.0533 -0.2139  0.3183
  647TMC3    C8 9585   0.777   3.807  14.843  0.8998  0.4963 -0.2106
  647TMC3    O1 9586   1.249   3.902  14.720 -0.1397 -0.2201 -0.6746
  647TMC3    O2 9587   0.661   3.821  14.808  0.0461 -0.2336 -0.1662
  648TMC3    C1 9588   4.597   1.809  16.029 -0.1524  0.2717  0.0928
  648TMC3    C2 9589   4.625   1.696  15.961 -0.0744  0.6169  0.1137
  648TMC3    C3 9590   4.574   1.692  15.834  0.3079  0.0375  0.0896
  648TMC3    C4 9591   4.504   1.903  15.987 -0.2083 -0.8057  0.4350
  648TMC3    C5 9592   4.446   1.886  15.867  0.1805 -0.3800  0.1693
  648TMC3    C6 9593   4.483   1.777  15.791 -0.0868 -0.3449 -0.0836
  648TMC3     C 9594   4.613   1.802  16.174  0.0063 -1.0027 -0.6218
  648TMC3     O 9595   4.693   1.877  16.231  0.5181  1.0163  0.6298
  648TMC3     H 9596   4.695   1.627  16.008  0.6720  0.1484 -1.7191
  648TMC3    H1 9597   4.479   1.986  16.053 -1.0235 -0.9653  0.3185
  648TMC3    H2 9598   4.441   1.748  15.695  2.2074  1.1970 -1.5573
  648TMC3    C7 9599   4.367   1.995  15.806 -0.1279 -0.7125  0.4200
  648TMC3    C8 9600   4.560   1.557  15.779 -0.0429  0.0627 -0.3504
  648TMC3    O1 9601   4.340   1.978  15.688  0.4359 -0.8034  0.2827
  648TMC3    O2 9602   4.452   1.520  15.740 -0.4616 -0.5593  0.1166
  649TMC3    C1 9603   3.509   2.745  13.334  0.0969  0.3641  0.4853
  649TMC3    C2 9604   3.643   2.749  13.332 -0.0285  0.5225  0.3156
  649TMC3    C3 9605   3.715   2.642  13.383 -0.9398 -0.5189  0.3814
  649TMC3    C4 9606   3.447   2.631  13.391 -0.5786  0.1999 -0.3314
  649TMC3    C5 9607   3.524   2.540  13.457  0.1118 -0.1000 -0.0644
  649TMC3    C6 9608   3.660   2.534  13.455 -0.0317  0.0910 -0.3177
  649TMC3     C 9609   3.439   2.844  13.256  0.5005  0.5664 -0.0835
  649TMC3     O 9610   3.501   2.949  13.241  0.5750  0.1888 -0.6208
  649TMC3     H 9611   3.695   2.817  13.265  0.1277  0.5365  0.4535
  649TMC3    H1 9612   3.340   2.630  13.410 -0.4920  0.0360  0.1366
  649TMC3    H2 9613   3.713   2.468  13.523 -0.1050 -1.4417 -1.7626
  649TMC3    C7 9614   3.466   2.508  13.584  0.3992 -0.1554  0.5320
  649TMC3    C8 9615   3.863   2.660  13.385 -0.0230  0.0546 -0.6911
  649TMC3    O1 9616   3.420   2.603  13.645 -0.2235  0.4771 -0.4738
  649TMC3    O2 9617   3.921   2.567  13.441  0.6031  0.9038 -0.4575
  650TMC3    C1 9618   1.810   0.468  13.047 -0.0989 -0.0254  0.3191
  650TMC3    C2 9619   1.855   0.602  13.061  0.3728  0.9031 -0.5142
  650TMC3    C3 9620   1.841   0.684  12.954 -0.7928 -0.2240 -0.5245
  650TMC3    C4 9621   1.754   0.429  12.932  0.3788 -0.0159  0.1307
  650TMC3    C5 9622   1.729   0.518  12.835  0.0684  0.7636 -0.4970
  650TMC3    C6 9623   1.780   0.643  12.836 -0.1157  0.3905 -0.5237
  650TMC3     C 9624   1.827   0.375  13.148  0.3357  0.0067  0.4599
  650TMC3     O 9625   1.830   0.419  13.261  0.0495  0.2821 -0.0802
  650TMC3     H 9626   1.912   0.631  13.149  1.3430 -1.3914 -0.3719
  650TMC3    H1 9627   1.711   0.329  12.927 -1.3101  0.6572  1.1357
  650TMC3    H2 9628   1.778   0.710  12.751 -1.3411  0.8779 -0.1077
  650TMC3    C7 9629   1.653   0.480  12.711  0.0802 -0.2153 -0.4733
  650TMC3    C8 9630   1.861   0.820  12.969  1.1152 -0.9250  0.1387
  650TMC3    O1 9631   1.627   0.362  12.694  0.2810  0.4949 -0.0707
  650TMC3    O2 9632   1.909   0.878  12.872 -0.7186  0.1435 -0.2930
  651MPD2     C 9633   0.945   1.529  10.976 -0.4018  0.1828  0.8123
  651MPD2    C1 9634   0.917   1.622  10.882 -0.1436  0.1051  0.5746
  651MPD2    C2 9635   1.019   1.696  10.827 -0.2393  0.2471  0.2161
  651MPD2    C3 9636   1.156   1.669  10.856 -0.2254  0.0414 -0.6504
  651MPD2    C4 9637   1.178   1.574  10.950  0.4634 -0.6067  0.4935
  651MPD2    C5 9638   1.069   1.513  11.022 -0.6114 -0.7282  0.0415
  651MPD2     H 9639   0.991   1.771  10.753 -0.6693 -0.2915 -0.1638
  651MPD2    H1 9640   1.275   1.564  10.998 -0.2740  0.3910  2.1853
  651MPD2    H2 9641   0.867   1.478  11.031 -0.5768 -0.1389  0.2692
  651MPD2    H3 9642   1.089   1.440  11.099 -0.6959  1.4645  2.1198
  651MPD2     N 9643   1.261   1.744  10.790  0.5604  0.0752 -0.5961
  651MPD2    H5 9644   1.229   1.819  10.730 -0.0258 -0.3691 -0.8436
  651MPD2    N1 9645   0.786   1.651  10.837  0.1699 -0.0038 -0.1439
  651MPD2    H7 9646   0.785   1.716  10.759  0.9939  0.8673  0.5874
  652TMC3    C1 9647   1.704   1.806  10.649 -0.8361 -0.2543  0.0719
  652TMC3    C2 9648   1.605   1.731  10.702 -0.3198  0.1819 -0.3789
  652TMC3    C3 9649   1.483   1.785  10.726 -0.0713  0.1574 -0.1229
  652TMC3    C4 9650   1.675   1.928  10.603 -0.1384 -0.2842  0.2049
  652TMC3    C5 9651   1.552   1.979  10.627  0.2506 -0.2063  0.9641
  652TMC3    C6 9652   1.454   1.912  10.689 -0.2911  0.0239 -0.0784
  652TMC3     C 9653   1.842   1.774  10.673 -0.0533  0.7002 -0.2535
  652TMC3     O 9654   1.858   1.671  10.738  0.2894  0.1959  0.4474
  652TMC3     H 9655   1.629   1.631  10.736 -0.3066  0.3274  0.0425
  652TMC3    H1 9656   1.749   1.990  10.554 -0.9358 -1.5394 -2.5538
  652TMC3    H2 9657   1.362   1.961  10.720 -1.1989 -1.8557  0.1878
  652TMC3    C7 9658   1.550   2.121  10.645  0.1799  0.0931 -0.2079
  652TMC3    C8 9659   1.395   1.708  10.808  0.4903  0.7315 -0.4443
  652TMC3    O1 9660   1.473   2.160  10.726  0.6348  0.2392 -0.2348
  652TMC3    O2 9661   1.447   1.610  10.865 -0.2575 -0.1753  0.2932
  653MPD2     C 9662   3.745   2.020  17.449 -0.0600 -0.0942  0.4587
  653MPD2    C1 9663   3.659   2.105  17.387 -0.1002  0.2232  0.4757
  653MPD2    C2 9664   3.587   2.056  17.274  0.0258  0.3366  0.2279
  653MPD2    C3 9665   3.607   1.930  17.219  0.0185  0.7079 -0.4197
  653MPD2    C4 9666   3.691   1.842  17.289  0.0485 -0.2357 -0.7518
  653MPD2    C5 9667   3.760   1.888  17.398 -0.3413  0.1872 -1.3199
  653MPD2     H 9668   3.524   2.131  17.227 -1.7417 -1.8544 -0.9247
  653MPD2    H1 9669   3.710   1.736  17.274  0.6294 -0.0635 -1.2524
  653MPD2    H2 9670   3.803   2.059  17.532  0.7646 -0.2058 -0.0656
  653MPD2    H3 9671   3.826   1.823  17.455 -0.7866  0.9813  0.1193
  653MPD2     N 9672   3.538   1.903  17.100  0.7401  1.0353 -0.4215
  653MPD2    H5 9673   3.479   1.974  17.058 -1.3267 -1.7412 -2.1834
  653MPD2    N1 9674   3.652   2.239  17.429  0.2304  0.0158  0.1732
  653MPD2    H7 9675   3.589   2.300  17.377 -0.9760  0.0768  1.6869
  654TMC3    C1 9676   3.496   1.787  16.902 -0.1983 -0.0199 -0.2195
  654TMC3    C2 9677   3.356   1.811  16.902  0.0776 -0.5252  0.3700
  654TMC3    C3 9678   3.282   1.744  16.810  0.2074  0.5644  0.2169
  654TMC3    C4 9679   3.542   1.695  16.815  0.5575 -0.4764 -0.9135
  654TMC3    C5 9680   3.464   1.627  16.728 -0.5057  0.2653 -0.3709
  654TMC3    C6 9681   3.331   1.654  16.716  0.1047  0.0132 -0.7067
  654TMC3     C 9682   3.557   1.785  17.031 -0.1693 -0.4943  0.3214
  654TMC3     O 9683   3.638   1.691  17.048 -0.1405  0.3464  0.0273
  654TMC3     H 9684   3.313   1.884  16.970  0.2957 -1.3866  1.4265
  654TMC3    H1 9685   3.646   1.666  16.828  0.7441  0.8186  0.5136
  654TMC3    H2 9686   3.264   1.602  16.648 -0.7943  1.0936 -0.6522
  654TMC3    C7 9687   3.513   1.517  16.638  0.1002 -0.9193 -0.6181
  654TMC3    C8 9688   3.136   1.756  16.835 -0.2019  0.5267 -0.2944
  654TMC3    O1 9689   3.457   1.486  16.536  0.2200 -0.0899 -0.1726
  654TMC3    O2 9690   3.103   1.831  16.926  0.7719  0.0920 -0.7268
  655MPD2     C 9691   0.353   1.859  15.796  0.2335  1.0666 -0.9309
  655MPD2    C1 9692   0.269   1.940  15.725 -0.8485  0.3830 -0.2461
  655MPD2    C2 9693   0.255   1.922  15.590  0.0133  0.1240 -0.3680
  655MPD2    C3 9694   0.327   1.824  15.524  0.0030 -0.3678  0.0604
  655MPD2    C4 9695   0.408   1.735  15.596  0.2056  0.0463  1.1098
  655MPD2    C5 9696   0.421   1.760  15.734 -0.0820 -0.6054  0.2147
  655MPD2     H 9697   0.181   1.981  15.538  0.2088 -0.1406 -0.9405
  655MPD2    H1 9698   0.471   1.663  15.547 -0.9815 -1.7673  2.2631
  655MPD2    H2 9699   0.374   1.884  15.899  0.9515 -1.1217 -0.5497
  655MPD2    H3 9700   0.488   1.703  15.798  0.4369  1.7294  1.7956
  655MPD2     N 9701   0.323   1.801  15.382  1.0868 -0.5344  0.1871
  655MPD2    H5 9702   0.377   1.720  15.351  0.6787 -0.1108 -1.5988
  655MPD2    N1 9703   0.189   2.041  15.786  0.3790  0.4724  0.3963
  655MPD2    H7 9704   0.125   2.097  15.729  0.9262 -1.2806 -1.9356
  656TMC3    C1 9705   0.091   2.171  15.947 -0.3399  0.0165  0.3309
  656TMC3    C2 9706   0.014   2.180  16.052 -0.5148 -0.2680 -0.7004
  656TMC3    C3 9707   4.644   2.277  16.055 -0.1148 -0.3099 -0.4269
  656TMC3    C4 9708   0.086   2.261  15.842  0.1483  0.0372  0.0649
  656TMC3    C5 9709   4.712   2.357  15.851 -0.0416  0.5213 -0.5954
  656TMC3    C6 9710   4.626   2.371  15.961  0.0983 -0.7869 -0.0038
  656TMC3     C 9711   0.179   2.057  15.919  0.7460  0.5245  0.0219
  656TMC3     O 9712   0.219   1.998  16.018  0.0565 -0.4382 -0.2133
  656TMC3     H 9713   0.021   2.104  16.129  0.0042 -0.3137 -0.7907
  656TMC3    H1 9714   0.152   2.262  15.756  0.0038 -0.4238 -0.0516
  656TMC3    H2 9715   4.529   2.419  15.961  0.4351 -0.0930 -2.5671
  656TMC3    C7 9716   4.697   2.446  15.740 -0.1483  0.1631  0.3167
  656TMC3    C8 9717   4.548   2.271  16.169  0.5710 -0.2984 -0.3383
  656TMC3    O1 9718   0.031   2.411  15.638 -0.0544 -0.0070 -0.3349
  656TMC3    O2 9719   4.502   2.163  16.201 -0.1226 -0.8304 -0.3653
  657TMC3    C1 9720   4.036   1.290  14.759  0.2454  0.4527  0.5360
  657TMC3    C2 9721   4.023   1.306  14.897  0.1625  0.0419  0.1215
  657TMC3    C3 9722   3.965   1.429  14.943  0.9280  0.0692 -0.2502
  657TMC3    C4 9723   3.997   1.391  14.679 -0.0679 -0.1188  0.0413
  657TMC3    C5 9724   3.930   1.499  14.729 -0.6252 -1.1309 -0.2335
  657TMC3    C6 9725   3.912   1.514  14.861  0.4408  0.4092  0.2249
  657TMC3     C 9726   4.098   1.174  14.701  0.3877 -0.2637  0.4373
  657TMC3     O 9727   4.071   1.144  14.586 -0.5148  0.2497  0.2958
  657TMC3     H 9728   4.058   1.235  14.970  0.7342  0.5784  0.3660
  657TMC3    H1 9729   4.014   1.378  14.573  1.3515  0.1652  0.2418
  657TMC3    H2 9730   3.861   1.600  14.902  0.3629  1.0062 -1.1036
  657TMC3    C7 9731   3.919   1.604  14.635 -0.9618 -0.3631 -0.3044
  657TMC3    C8 9732   3.990   1.478  15.078  0.0972 -0.1807  0.0385
  657TMC3    O1 9733   4.006   1.601  14.548 -0.0136  0.4813 -0.3606
  657TMC3    O2 9734   3.918   1.572  15.109  0.4790  0.4775  0.5901
  658MPD2     C 9735   0.794   1.833  14.913 -0.2896  0.7575 -0.1218
  658MPD2    C1 9736   0.682   1.854  14.837 -0.1050 -0.1546 -0.1765
  658MPD2    C2 9737   0.691   1.916  14.710 -0.3275 -0.7480 -0.2727
  658MPD2    C3 9738   0.808   1.936  14.644 -0.5118  0.1446 -0.0300
  658MPD2    C4 9739   0.919   1.922  14.725  0.1675 -0.9084  0.0497
  658MPD2    C5 9740   0.913   1.872  14.855  0.1833  0.3208 -0.0492
  658MPD2     H 9741   0.607   1.936  14.644  0.7566 -0.2167 -1.4971
  658MPD2    H1 9742   1.016   1.911  14.676  0.4401  1.6581  0.0400
  658MPD2    H2 9743   0.798   1.779  15.007 -2.1430  1.8938  0.5861
  658MPD2    H3 9744   1.008   1.846  14.902 -0.1407 -0.6639  0.0668
  658MPD2     N 9745   0.807   1.978  14.511  0.2483 -0.2556  0.1750
  658MPD2    H5 9746   0.713   1.988  14.474 -1.0693 -1.5780  3.1421
  658MPD2    N1 9747   0.561   1.825  14.898  0.4838 -0.3774  0.1977
  658MPD2    H7 9748   0.575   1.776  14.986  0.8720 -2.0395 -0.7868
  659TMC3    C1 9749   0.328   1.801  14.933 -0.4003  0.0263  0.7268
  659TMC3    C2 9750   0.349   1.814  15.069  0.2404  0.8271 -0.2611
  659TMC3    C3 9751   0.241   1.828  15.156  0.7451 -0.3281  0.5018
  659TMC3    C4 9752   0.201   1.815  14.880 -0.9276 -0.2986  0.3429
  659TMC3    C5 9753   0.096   1.816  14.970  0.5354 -0.7220  0.0409
  659TMC3    C6 9754   0.115   1.815  15.104 -0.1484  0.2779  1.3598
  659TMC3     C 9755   0.434   1.832  14.845  0.3346 -0.6115  0.2329
  659TMC3     O 9756   0.402   1.874  14.734 -0.3738 -0.5428 -0.1224
  659TMC3     H 9757   0.445   1.814  15.119  0.7844  1.3276 -1.3075
  659TMC3    H1 9758   0.178   1.817  14.774  2.2734  0.1721 -0.3453
  659TMC3    H2 9759   0.029   1.818  15.170 -1.4944  2.0202 -0.4804
  659TMC3    C7 9760   4.680   1.811  14.924  0.1159 -0.3543  0.6445
  659TMC3    C8 9761   0.257   1.879  15.292  0.4602 -0.0981 -0.6768
  659TMC3    O1 9762   4.594   1.849  15.005 -0.6812 -0.0737 -0.2570
  659TMC3    O2 9763   0.209   1.993  15.307 -0.5597  0.2506 -0.1190
  660MPD2     C 9764   3.576   0.729  12.954  0.0146  0.7775  0.7102
  660MPD2    C1 9765   3.464   0.741  12.871  0.0918  0.3432 -0.6328
  660MPD2    C2 9766   3.341   0.699  12.917  0.2537 -0.2832  0.2362
  660MPD2    C3 9767   3.320   0.650  13.044  0.2349  0.0597  0.2575
  660MPD2    C4 9768   3.431   0.638  13.123  0.1040 -0.4506  0.5907
  660MPD2    C5 9769   3.554   0.673  13.078  0.0043 -0.4007 -0.0411
  660MPD2     H 9770   3.260   0.697  12.845 -1.3392  0.1669  2.0207
  660MPD2    H1 9771   3.426   0.603  13.226  2.4203 -1.3574  0.3862
  660MPD2    H2 9772   3.680   0.740  12.924 -0.3697  0.0897 -0.8419
  660MPD2    H3 9773   3.639   0.649  13.140 -0.4201 -1.4188  0.1341
  660MPD2     N 9774   3.194   0.610  13.092  0.3699 -0.1365  0.4692
  660MPD2    H5 9775   3.192   0.566  13.183  1.3714 -1.3539 -0.1090
  660MPD2    N1 9776   3.484   0.803  12.746  0.2594 -0.1469  0.0564
  660MPD2    H7 9777   3.576   0.809  12.704  0.9102 -0.9854  1.3543
  661TMC3    C1 9778   3.430   0.921  12.550  0.0213 -0.4495  0.1892
  661TMC3    C2 9779   3.517   0.862  12.465 -0.1074  1.2658  0.2202
  661TMC3    C3 9780   3.509   0.884  12.326  0.4568 -0.0426 -0.0613
  661TMC3    C4 9781   3.328   0.998  12.496  0.5049  0.3316 -0.3521
  661TMC3    C5 9782   3.314   1.009  12.356  0.5734 -0.5599  0.1016
  661TMC3    C6 9783   3.402   0.952  12.270 -0.2601  0.4513 -0.0059
  661TMC3     C 9784   3.381   0.866  12.679  0.4718  0.0473 -0.0642
  661TMC3     O 9785   3.259   0.875  12.704  0.3821 -0.3673  0.0793
  661TMC3     H 9786   3.582   0.785  12.505 -1.1051 -1.0081 -2.5084
  661TMC3    H1 9787   3.256   1.044  12.562 -0.4176 -1.3695 -0.1901
  661TMC3    H2 9788   3.399   0.981  12.165 -1.1370 -0.8150 -0.3346
  661TMC3    C7 9789   3.203   1.082  12.306 -0.2337  0.6929 -0.1842
  661TMC3    C8 9790   3.624   0.843  12.245  0.7188  0.0133 -1.0618
  661TMC3    O1 9791   3.180   1.193  12.353  0.6031 -0.2274  0.8433
  661TMC3    O2 9792   3.708   0.779  12.305 -0.3445  0.1481  0.3501
  662MPD2     C 9793   2.557   0.395  17.392  0.2569 -0.4758  0.3135
  662MPD2    C1 9794   2.617   0.361  17.513  0.3009 -0.1430 -0.0649
  662MPD2    C2 9795   2.554   0.390  17.631  0.6479  0.3590 -0.2923
  662MPD2    C3 9796   2.431   0.447  17.637 -0.2072  0.1228 -0.5293
  662MPD2    C4 9797   2.366   0.470  17.519  0.2013 -0.0572  0.7610
  662MPD2    C5 9798   2.438   0.459  17.401  0.2154 -0.1421  0.2573
  662MPD2     H 9799   2.609   0.360   0.029 -0.2888  1.2450  0.5903
  662MPD2    H1 9800   2.269   0.517  17.514  0.8446  1.2578  0.6766
  662MPD2    H2 9801   2.606   0.374  17.298 -0.3492 -0.9603  0.1056
  662MPD2    H3 9802   2.397   0.496  17.308  0.4159 -1.3523 -0.3218
  662MPD2     N 9803   2.357   0.455   0.067 -0.5428 -0.1928 -0.4742
  662MPD2    H5 9804   2.257   0.466   0.057 -0.5416 -0.3327 -0.6199
  662MPD2    N1 9805   2.735   0.288  17.516  0.0819  0.3927 -0.0725
  662MPD2    H7 9806   2.773   0.261  17.606  1.6807 -0.2615 -0.9591
  663TMC3    C1 9807   2.931   0.177  17.436 -0.3554  0.4376  0.0333
  663TMC3    C2 9808   2.986   0.169  17.567 -0.2026  0.3669  0.1809
  663TMC3    C3 9809   3.102   0.101  17.581 -0.0965 -0.0050  0.1123
  663TMC3    C4 9810   2.985   0.101  17.334  0.1080 -0.2200  0.1209
  663TMC3    C5 9811   3.091   0.019  17.362 -0.4021 -0.2594 -0.0657
  663TMC3    C6 9812   3.147   0.012  17.484 -0.3496 -0.1146  0.0047
  663TMC3     C 9813   2.801   0.238  17.408 -0.3951  0.2681 -0.1782
  663TMC3     O 9814   2.745   0.202  17.304  0.1563 -0.2585  0.3274
  663TMC3     H 9815   2.968   0.246  17.641 -0.3006 -0.7241  1.3025
  663TMC3    H1 9816   2.949   0.095  17.232 -0.9649 -0.5437  0.5252
  663TMC3    H2 9817   3.254   4.716  17.486  0.0900  2.5734  1.1587
  663TMC3    C7 9818   3.106   4.629  17.268 -0.3477  0.6483  0.1616
  663TMC3    C8 9819   3.138   0.057   0.027 -0.2312  0.5660 -0.7374
  663TMC3    O1 9820   3.078   4.643  17.151 -0.4275  0.0763  0.4699
  663TMC3    O2 9821   3.241   4.719   0.035 -0.3989 -0.4033  0.2700
  664MPD2     C 9822   1.414   3.023  17.612 -0.1286  0.4947 -0.7154
  664MPD2    C1 9823   1.433   3.156  17.647  0.0133  0.5990 -0.4504
  664MPD2    C2 9824   1.423   3.182   0.089 -0.2849 -0.1738 -0.0278
  664MPD2    C3 9825   1.382   3.090   0.179  0.5971  0.3291 -0.4168
  664MPD2    C4 9826   1.366   2.957   0.142  0.1065 -0.4300 -0.1053
  664MPD2    C5 9827   1.384   2.924   0.011  0.7443 -0.6939 -0.3314
  664MPD2     H 9828   1.435   3.287   0.112 -2.3833  0.7297 -3.1305
  664MPD2    H1 9829   1.342   2.880   0.215  0.2503 -0.8114 -0.4587
  664MPD2    H2 9830   1.418   2.994  17.508  2.2180  1.4258 -0.8771
  664MPD2    H3 9831   1.388   2.823  17.661  0.0962 -0.7859 -0.1619
  664MPD2     N 9832   1.357   3.132   0.314  0.6366 -0.0550  0.7289
  664MPD2    H5 9833   1.352   3.232   0.327 -1.4554 -0.0751  0.0808
  664MPD2    N1 9834   1.475   3.258  17.557 -0.1166 -0.3314 -0.0129
  664MPD2    H7 9835   1.482   3.352  17.594  2.5096  0.2440 -1.9521
  665TMC3    C1 9836   1.314   3.159   0.543  0.6439  0.2500 -0.0748
  665TMC3    C2 9837   1.229   3.123   0.648  0.0445  0.0981  0.3929
  665TMC3    C3 9838   1.235   3.200   0.757  0.1321 -0.5266 -0.2326
  665TMC3    C4 9839   1.405   3.262   0.554 -1.0718 -0.2256 -0.2198
  665TMC3    C5 9840   1.396   3.341   0.661 -0.5967  0.1109  0.0179
  665TMC3    C6 9841   1.312   3.311   0.767 -0.1354 -0.0636 -0.8401
  665TMC3     C 9842   1.309   3.071   0.428  0.7788 -0.3978 -0.0228
  665TMC3     O 9843   1.269   2.954   0.440 -0.1319 -0.5675 -0.3888
  665TMC3     H 9844   1.151   3.051   0.630 -0.0370  0.9227 -2.5490
  665TMC3    H1 9845   1.475   3.296   0.478  0.8001  0.6603  1.8901
  665TMC3    H2 9846   1.316   3.368   0.859  2.6558  1.5519 -1.9643
  665TMC3    C7 9847   1.403   3.489   0.643  0.3691  0.3633 -0.7623
  665TMC3    C8 9848   1.124   3.193   0.852  0.0737 -0.5517  0.7302
  665TMC3    O1 9849   1.388   3.529   0.528 -0.2982 -0.0327 -0.3739
  665TMC3    O2 9850   1.086   3.302   0.886  0.3099  0.1309  0.0186
  666TMC3    C1 9851   1.549   3.027  10.372  0.0645  0.1045  0.1310
  666TMC3    C2 9852   1.586   2.974  10.253 -0.8157 -0.2381  0.3096
  666TMC3    C3 9853   1.698   3.024  10.194 -0.1484 -0.7446 -0.0258
  666TMC3    C4 9854   1.617   3.133  10.427 -0.1267  0.6875 -0.0462
  666TMC3    C5 9855   1.715   3.193  10.353  0.5710  0.6634 -0.2649
  666TMC3    C6 9856   1.765   3.128  10.243 -0.4912 -0.0100  0.2138
  666TMC3     C 9857   1.449   2.945  10.442  0.2425 -0.5546  0.4972
  666TMC3     O 9858   1.372   2.880  10.373  0.1567  0.1111 -0.4726
  666TMC3     H 9859   1.541   2.879  10.224 -0.7439  0.0890 -0.8529
  666TMC3    H1 9860   1.576   3.186  10.511  0.6671  1.1286  0.0616
  666TMC3    H2 9861   1.848   3.169  10.186 -0.1633 -0.9912 -0.0283
  666TMC3    C7 9862   1.737   3.333  10.363  0.2909  0.1543  0.0269
  666TMC3    C8 9863   1.740   2.958  10.076  0.3900 -0.8877 -0.0267
  666TMC3    O1 9864   1.845   3.371  10.323  0.1478  0.0060  0.2117
  666TMC3    O2 9865   1.858   2.977  10.047 -0.6185  0.1074 -0.1554
  667MPD2     C 9866   2.537   3.498  14.301  0.8741 -0.0077 -0.0734
  667MPD2    C1 9867   2.451   3.583  14.365 -1.1313  0.1344  0.4214
  667MPD2    C2 9868   2.323   3.585  14.318  0.1574  0.2239 -0.1513
  667MPD2    C3 9869   2.267   3.497  14.228 -0.6660  0.4044 -0.3220
  667MPD2    C4 9870   2.347   3.404  14.176 -0.0027  0.5909 -0.7208
  667MPD2    C5 9871   2.480   3.409  14.214  0.0448 -0.3574  0.3540
  667MPD2     H 9872   2.255   3.660  14.357  1.7924  1.5355  0.1532
  667MPD2    H1 9873   2.311   3.329  14.106 -0.4039 -0.0295  0.1551
  667MPD2    H2 9874   2.637   3.483  14.341  0.9355 -1.2926 -0.6970
  667MPD2    H3 9875   2.545   3.327  14.183 -1.2750 -0.9932 -0.7560
  667MPD2     N 9876   2.133   3.489  14.202  0.5671  0.3783 -0.2316
  667MPD2    H5 9877   2.101   3.404  14.155  2.0147  0.4366 -1.3395
  667MPD2    N1 9878   2.484   3.662  14.477  0.3706 -0.7330 -0.1558
  667MPD2    H7 9879   2.412   3.708  14.533  0.8480 -1.6173  1.1866
  668TMC3    C1 9880   2.622   3.698  14.664 -0.1885  0.2804 -0.4365
  668TMC3    C2 9881   2.727   3.776  14.698  0.2343 -0.0090  0.0783
  668TMC3    C3 9882   2.732   3.808  14.832  0.0771 -0.5184 -0.1054
  668TMC3    C4 9883   2.526   3.658  14.754 -0.6411 -0.3537 -0.2553
  668TMC3    C5 9884   2.543   3.687  14.887 -0.3968 -0.3142  0.2306
  668TMC3    C6 9885   2.648   3.760  14.931  0.1897  0.0020 -0.0938
  668TMC3     C 9886   2.615   3.657  14.529  0.6947 -0.6182  0.3670
  668TMC3     O 9887   2.719   3.646  14.467  0.2261 -0.1921 -0.0777
  668TMC3     H 9888   2.798   3.808  14.621  0.3245  0.9358  0.5465
  668TMC3    H1 9889   2.449   3.594  14.712 -0.2103  0.1339 -1.7748
  668TMC3    H2 9890   2.650   3.776  15.038  0.3881 -2.3172  0.2443
  668TMC3    C7 9891   2.428   3.676  14.974  0.4071 -0.4191  0.0809
  668TMC3    C8 9892   2.814   3.918  14.875  0.9450 -0.0582  0.0244
  668TMC3    O1 9893   2.446   3.673  15.096  0.4865 -0.3609  0.0730
  668TMC3    O2 9894   2.784   3.966  14.982  0.2742 -0.2695 -0.5105
  669TMC3    C1 9895   0.922   3.139  14.809 -0.3483  0.5469 -0.0278
  669TMC3    C2 9896   0.796   3.126  14.760  0.4448  0.1254 -0.6768
  669TMC3    C3 9897   0.745   3.229  14.684 -0.1499  0.1248  0.3379
  669TMC3    C4 9898   0.989   3.258  14.794  0.3842 -0.0396  0.1517
  669TMC3    C5 9899   0.937   3.362  14.718 -0.2528 -0.9163 -0.2842
  669TMC3    C6 9900   0.812   3.346  14.665  0.2094  0.4305  0.1427
  669TMC3     C 9901   0.979   3.022  14.884  0.2767  0.1574 -0.1235
  669TMC3     O 9902   0.907   2.928  14.912 -0.5267 -0.4932  0.4578
  669TMC3     H 9903   0.751   3.028  14.774  2.1009 -0.2189  2.2143
  669TMC3    H1 9904   1.083   3.289  14.838  0.5273 -0.2581  0.0010
  669TMC3    H2 9905   0.757   3.426  14.617 -0.7354  1.1942  2.5245
  669TMC3    C7 9906   1.012   3.470  14.667  0.0856  0.1753 -0.7394
  669TMC3    C8 9907   0.614   3.214  14.627 -0.6962  0.3491  0.4544
  669TMC3    O1 9908   1.075   3.542  14.740 -1.2545  0.1346  0.5181
  669TMC3    O2 9909   0.583   3.284  14.534 -0.0853 -0.5073  0.0673
  670MPD2     C 9910   3.276   1.261  13.572 -0.1249 -0.5663 -0.5019
  670MPD2    C1 9911   3.391   1.310  13.635 -0.9161 -0.1325 -0.1543
  670MPD2    C2 9912   3.428   1.279  13.758  0.1487  0.6136 -0.9357
  670MPD2    C3 9913   3.344   1.205  13.834  0.3364  0.3000  0.2778
  670MPD2    C4 9914   3.229   1.150  13.774 -0.0918  0.9974 -0.3874
  670MPD2    C5 9915   3.200   1.176  13.642  0.4347  0.0064 -0.2388
  670MPD2     H 9916   3.525   1.311  13.796 -1.1470  0.1171  2.8329
  670MPD2    H1 9917   3.152   1.103  13.834  1.6331 -0.4481  0.6819
  670MPD2    H2 9918   3.254   1.281  13.467 -0.8600  0.7399 -0.1086
  670MPD2    H3 9919   3.117   1.121  13.600 -1.5289  1.2358  2.0068
  670MPD2     N 9920   3.377   1.188  13.973  0.0747  0.1766 -0.0130
  670MPD2    H5 9921   3.463   1.225  14.013  0.2024 -2.1129  1.7954
  670MPD2    N1 9922   3.482   1.382  13.557  0.2668  0.2759  0.3010
  670MPD2    H7 9923   3.566   1.418  13.602  0.2322 -0.7715  1.1972
  671TMC3    C1 9924   3.351   1.136  14.204  0.2568 -0.0509  0.0157
  671TMC3    C2 9925   3.484   1.146  14.233 -0.6166 -0.4879 -0.7370
  671TMC3    C3 9926   3.535   1.092  14.344  0.1916 -0.3888 -0.2384
  671TMC3    C4 9927   3.261   1.097  14.302  1.0698 -0.3105 -0.0520
  671TMC3    C5 9928   3.315   1.063  14.421 -0.2876 -0.3547 -1.1911
  671TMC3    C6 9929   3.450   1.046  14.444  0.7836 -0.5104  0.4867
  671TMC3     C 9930   3.296   1.133  14.068  0.1077  0.2624  0.2353
  671TMC3     O 9931   3.183   1.084  14.064 -0.6561 -0.0509  0.0269
  671TMC3     H 9932   3.552   1.163  14.149 -2.2398  0.8110 -1.7847
  671TMC3    H1 9933   3.157   1.080  14.277  0.5571  1.7985  0.6545
  671TMC3    H2 9934   3.488   0.998  14.534 -1.2324 -0.4345  1.3681
  671TMC3    C7 9935   3.252   0.954  14.489 -0.9545  1.0609 -0.6072
  671TMC3    C8 9936   3.658   1.017  14.335 -0.0183 -0.5850 -0.1696
  671TMC3    O1 9937   3.276   0.937  14.607  0.6179 -0.3326 -0.3962
  671TMC3    O2 9938   3.669   0.958  14.227 -0.0407 -0.3150 -0.0184
  672MPD2     C 9939   3.508   1.283   0.697  0.4638  0.1662  0.0537
  672MPD2    C1 9940   3.632   1.319   0.666 -0.6016  0.0777 -0.6522
  672MPD2    C2 9941   3.704   1.404   0.743 -0.6326  0.4480 -0.1021
  672MPD2    C3 9942   3.649   1.446   0.860 -0.2873 -0.1690  0.6771
  672MPD2    C4 9943   3.525   1.410   0.899 -0.5026  0.3367 -0.1422
  672MPD2    C5 9944   3.449   1.335   0.810  0.1443 -0.3186 -0.2847
  672MPD2     H 9945   3.804   1.425   0.708  0.4057  0.5915  2.9006
  672MPD2    H1 9946   3.478   1.436   0.993 -1.4693 -0.5935 -0.3699
  672MPD2    H2 9947   3.455   1.211   0.637  0.7277  0.9919 -1.1690
  672MPD2    H3 9948   3.345   1.309   0.829  0.1921 -0.3815 -0.1109
  672MPD2     N 9949   3.728   1.530   0.950  0.9120  0.2240  0.1889
  672MPD2    H5 9950   3.689   1.579   1.029  1.4773  0.8057  0.1061
  672MPD2    N1 9951   3.685   1.271   0.541 -0.1587  0.1634 -0.0025
  672MPD2    H7 9952   3.734   1.341   0.486 -3.1530  2.1994 -0.0987
  673TMC3    C1 9953   3.723   1.140   0.364 -0.5060  0.7078 -0.0692
  673TMC3    C2 9954   3.817   1.040   0.342  0.0245 -0.1426  0.2787
  673TMC3    C3 9955   3.892   1.038   0.222 -0.2858 -0.2536 -0.0987
  673TMC3    C4 9956   3.712   1.243   0.276 -0.0469  0.1189 -0.3598
  673TMC3    C5 9957   3.785   1.239   0.154 -1.3820  0.6173  0.2873
  673TMC3    C6 9958   3.870   1.130   0.121 -0.3210 -0.3084 -0.1471
  673TMC3     C 9959   3.664   1.148   0.495 -0.6991 -0.0440  0.2851
  673TMC3     O 9960   3.632   1.051   0.559  0.0068  0.0439 -0.2856
  673TMC3     H 9961   3.833   0.966   0.419 -1.5295  0.9411  1.6623
  673TMC3    H1 9962   3.626   1.309   0.283  1.2419  1.8876 -1.4204
  673TMC3    H2 9963   3.931   1.129   0.032  1.0040  1.0525  0.7419
  673TMC3    C7 9964   3.744   1.335   0.048 -0.0583 -0.3249 -0.5522
  673TMC3    C8 9965   4.010   0.960   0.205  0.4723 -0.3230 -0.1873
  673TMC3    O1 9966   3.755   1.295  17.624  0.1858  0.2844 -0.2960
  673TMC3    O2 9967   4.063   0.961   0.093  0.2004 -0.3991  0.0580
  674MPD2     C 9968   3.397   0.940   0.135 -0.5486  0.2793 -0.3714
  674MPD2    C1 9969   3.262   0.915   0.148 -0.5524 -0.2770  0.0607
  674MPD2    C2 9970   3.212   0.860   0.266 -0.0180 -0.8241 -0.7548
  674MPD2    C3 9971   3.298   0.828   0.372 -0.1179 -0.2298  0.9171
  674MPD2    C4 9972   3.430   0.862   0.363 -0.2850  0.3532  0.1856
  674MPD2    C5 9973   3.481   0.921   0.243 -0.5275 -0.0213  0.2526
  674MPD2     H 9974   3.106   0.839   0.277  0.2294 -1.3161  0.7536
  674MPD2    H1 9975   3.503   0.854   0.442 -0.1646 -0.1762  0.0261
  674MPD2    H2 9976   3.440   0.995   0.052 -0.5234  0.5814 -0.1578
  674MPD2    H3 9977   3.584   0.953   0.247 -0.4588 -0.1566 -0.4114
  674MPD2     N 9978   3.235   0.788   0.491  0.0882  0.3821  0.3685
  674MPD2    H5 9979   3.134   0.783   0.486  0.2304 -0.2012 -1.8756
  674MPD2    N1 9980   3.175   0.947   0.039 -0.3140  0.0077  0.6881
  674MPD2    H7 9981   3.228   0.969  17.646  0.0485 -1.3624  0.5521
  675TMC3    C1 9982   2.990   0.955  17.597 -0.1788 -0.4162 -0.1721
  675TMC3    C2 9983   2.902   0.855  17.569 -0.0747 -1.1470  0.2962
  675TMC3    C3 9984   2.895   0.801  17.443 -0.2410  0.1896 -0.4993
  675TMC3    C4 9985   3.060   1.020  17.498  0.3134  0.3756 -0.0154
  675TMC3    C5 9986   3.025   0.982  17.370  0.9888 -0.3652 -0.1081
  675TMC3    C6 9987   2.946   0.876  17.345 -0.3582  0.4818  0.7322
  675TMC3     C 9988   3.042   0.948   0.038  0.5498  0.1358  0.1744
  675TMC3     O 9989   2.969   0.917   0.133  1.0709 -0.1213 -0.0622
  675TMC3     H 9990   2.848   0.807  17.650 -1.1888 -3.8778 -2.0980
  675TMC3    H1 9991   3.113   1.110  17.528  2.9265 -1.3364  0.6009
  675TMC3    H2 9992   2.936   0.842  17.243  3.1328 -1.1288  0.9162
  675TMC3    C7 9993   3.075   1.067  17.264  0.2559  0.6204  0.1024
  675TMC3    C8 9994   2.948   0.662  17.432  0.2561 -0.2932  0.7904
  675TMC3    O1 9995   2.996   1.079  17.170  0.0333 -0.0372  0.0630
  675TMC3    O2 9996   3.001   0.633  17.327 -0.9622  0.0296  0.1516
  676MPD2     C 9997   1.628   4.454  11.307 -0.2020 -0.5407 -0.3726
  676MPD2    C1 9998   1.602   4.387  11.423  0.1929 -0.1133  0.3058
  676MPD2    C2 9999   1.613   4.250  11.423 -0.1642  0.1542 -0.5360
  676MPD2    C310000   1.656   4.185  11.307  0.2482  0.4259 -0.2867
  676MPD2    C410001   1.676   4.252  11.190  0.6894  0.5252  0.3890
  676MPD2    C510002   1.672   4.390  11.192 -0.2557 -0.2400  0.3302
  676MPD2     H10003   1.578   4.205  11.515  1.2245 -1.8626 -0.9974
  676MPD2    H110004   1.703   4.186  11.108 -0.2168  0.9242 -0.2266
  676MPD2    H210005   1.624   4.562  11.295 -0.5323 -0.4886  0.2222
  676MPD2    H310006   1.688   4.450  11.103 -0.0881  0.4821  0.8408
  676MPD2     N10007   1.671   4.045  11.293  0.1979  0.5020 -0.1941
  676MPD2    H510008   1.694   4.012  11.200  0.5936 -0.2753  0.1763
  676MPD2    N110009   1.564   4.451  11.550  0.1908 -0.3035 -0.0154
  676MPD2    H710010   1.530   4.398  11.629  1.1186 -0.1966  0.4550
  677TMC3    C110011   1.519   4.630  11.686 -0.6160  0.2058 -0.7513
  677TMC3    C210012   1.402   4.566  11.716  0.3076  0.2423  0.2230
  677TMC3    C310013   1.326   4.627  11.808  0.7110 -0.2386  0.3940
  677TMC3    C410014   1.562   0.025  11.745 -0.3426 -0.1014  0.2146
  677TMC3    C510015   1.478   0.082  11.836 -0.3193  0.4560 -0.9518
  677TMC3    C610016   1.362   0.022  11.870  0.1765  0.0683 -0.1301
  677TMC3     C10017   1.586   4.583  11.571 -0.0788 -0.5067 -0.1722
  677TMC3     O10018   1.654   4.663  11.511 -0.1286 -0.4415 -0.4541
  677TMC3     H10019   1.358   4.479  11.668  1.2320  0.0838 -0.3535
  677TMC3    H110020   1.659   0.065  11.717 -1.3094  2.2529  0.2199
  677TMC3    H210021   1.297   0.064  11.946  2.2243  3.4445 -0.2369
  677TMC3    C710022   1.527   0.191  11.922 -0.8072 -0.2689  0.4637
  677TMC3    C810023   1.208   4.550  11.853  0.6337  0.7536  0.1239
  677TMC3    O110024   1.484   0.187  12.033  0.7516  0.4850 -0.0982
  677TMC3    O210025   1.115   4.529  11.773  0.0335  0.0296 -0.4068
  678MPD2     C10026   2.544   4.225   1.843  0.4596  0.3687 -0.2471
  678MPD2    C110027   2.554   4.213   1.708  0.5348 -0.3867 -0.2611
  678MPD2    C210028   2.443   4.235   1.630 -1.1164 -0.2722  0.0707
  678MPD2    C310029   2.333   4.293   1.686 -0.1246  0.1327 -0.1022
  678MPD2    C410030   2.325   4.321   1.821 -0.1386  0.1341 -0.3698
  678MPD2    C510031   2.427   4.276   1.904  0.3840 -0.1354  0.2242
  678MPD2     H10032   2.448   4.213   1.524  1.8938  1.0798 -0.0514
  678MPD2    H110033   2.234   4.360   1.866  0.2670 -1.3510  1.7606
  678MPD2    H210034   2.625   4.193   1.908 -1.2969 -1.1677  1.1815
  678MPD2    H310035   2.420   4.284   2.012 -3.0727  0.5925 -0.0283
  678MPD2     N10036   2.214   4.318   1.607 -0.0869  0.7127 -0.3516
  678MPD2    H510037   2.223   4.280   1.513 -0.4792 -0.2367 -0.0069
  678MPD2    N110038   2.668   4.163   1.638 -0.4083  0.5155  0.2602
  678MPD2    H710039   2.667   4.171   1.537 -1.1234  1.5307  0.3472
  679TMC3    C110040   3.105   4.011   1.557  0.3302  0.1376  0.4938
  679TMC3    C210041   3.013   4.078   1.634 -0.0420  0.1220 -0.1781
  679TMC3    C310042   2.888   4.091   1.586 -0.2644 -0.8378  0.3143
  679TMC3    C410043   3.071   3.958   1.435 -0.3732  0.9376 -0.8742
  679TMC3    C510044   2.944   3.987   1.387  0.5823 -0.1142  0.4773
  679TMC3    C610045   2.851   4.057   1.458 -0.2329 -0.3375  0.4098
  679TMC3     C10046   3.242   4.005   1.607  0.0104  0.1174 -0.1039
  679TMC3     O10047   3.338   4.016   1.536 -0.2430  0.1443  0.0398
  679TMC3     H10048   3.033   4.121   1.732  2.1801  1.8030 -1.3722
  679TMC3    H110049   3.146   3.897   1.386  1.7374  1.3040  1.8733
  679TMC3    H210050   2.747   4.054   1.429 -0.6929  2.6653  1.7592
  679TMC3    C710051   2.921   3.972   1.244  0.4189  0.1446 -0.0925
  679TMC3    C810052   2.786   4.133   1.688  0.8395 -0.0577  0.1822
  679TMC3    O110053   3.000   3.901   1.186 -0.5078  0.2326  0.0186
  679TMC3    O210054   2.815   4.122   1.804 -0.2994 -0.3645  0.3849
  680MPD2     C10055   3.120   3.125  14.020  0.2785 -0.1814 -0.0109
  680MPD2    C110056   3.144   3.065  14.138 -0.0764 -0.0145  0.3028
  680MPD2    C210057   3.240   3.120  14.218 -0.4197 -0.6414  1.4496
  680MPD2    C310058   3.318   3.225  14.175 -0.2864 -0.1089 -0.5675
  680MPD2    C410059   3.279   3.285  14.057 -0.5548  0.4240 -0.3959
  680MPD2    C510060   3.182   3.237  13.980 -0.8008 -0.6277  0.4823
  680MPD2     H10061   3.262   3.079  14.316  0.8187 -0.2505  1.3420
  680MPD2    H110062   3.336   3.365  14.012  1.7745  0.4378  2.5550
  680MPD2    H210063   3.041   3.082  13.959 -0.8375  2.6890 -0.6176
  680MPD2    H310064   3.163   3.282  13.883  0.7423 -0.1117  0.4117
  680MPD2     N10065   3.421   3.294  14.244 -0.1287  0.7619 -0.2308
  680MPD2    H510066   3.482   3.352  14.189  0.8971 -1.0090 -0.9591
  680MPD2    N110067   3.085   2.938  14.171 -0.3387 -0.3012  0.1781
  680MPD2    H710068   3.115   2.886  14.252 -2.2869  0.5782  1.4676
  681TMC3    C110069   2.980   2.736  14.144  0.4094  0.2770 -0.0786
  681TMC3    C210070   2.947   2.727  14.272 -0.5643 -0.7345  0.2119
  681TMC3    C310071   2.895   2.602  14.306  0.5338 -1.5703  0.8744
  681TMC3    C410072   2.996   2.639  14.049  0.1094 -0.1406  0.8698
  681TMC3    C510073   2.963   2.515  14.092  0.3403  0.8792 -0.7291
  681TMC3    C610074   2.903   2.494  14.214  0.3252 -0.0190 -0.5094
  681TMC3     C10075   2.991   2.873  14.094 -0.2149 -0.4043 -0.4533
  681TMC3     O10076   2.939   2.895  13.986  0.1079 -0.6276 -0.2207
  681TMC3     H10077   2.937   2.814  14.336 -0.9434 -1.7664  1.5336
  681TMC3    H110078   3.026   2.654  13.946  0.8260  2.0989  1.4119
  681TMC3    H210079   2.878   2.393  14.246 -0.1889  0.2736  0.0140
  681TMC3    C710080   3.000   2.397  14.015  0.0485 -0.3787  0.0953
  681TMC3    C810081   2.853   2.571  14.440 -1.0302 -0.3240  0.2501
  681TMC3    O110082   2.948   2.291  14.047  0.6952  0.6552  0.2251
  681TMC3    O210083   2.787   2.472  14.453 -0.4428  0.3211 -0.1457
  682MPD2     C10084   0.924   4.439  10.971  0.1709  0.3543  0.0813
  682MPD2    C110085   0.923   4.320  11.033 -0.1227 -0.1758 -0.3514
  682MPD2    C210086   0.859   4.315  11.160  0.2488 -0.6330 -0.1107
  682MPD2    C310087   0.837   4.438  11.229 -0.6981 -0.0926  0.2153
  682MPD2    C410088   0.849   4.558  11.166 -0.0729  0.4181 -0.2918
  682MPD2    C510089   0.881   4.558  11.030 -0.6984  0.4631  0.9126
  682MPD2     H10090   0.822   4.225  11.208 -1.3891 -0.1510 -0.4832
  682MPD2    H110091   0.823   4.649  11.218 -2.1467  0.9960 -2.2985
  682MPD2    H210092   0.950   4.455  10.867  0.9866 -2.1427 -0.0953
  682MPD2    H310093   0.881   4.653  10.979 -2.3638 -0.1149 -0.1431
  682MPD2     N10094   0.762   4.446  11.355 -0.7983  0.1374 -0.2512
  682MPD2    H510095   0.784   4.535  11.399 -1.6373  0.2077  0.0219
  682MPD2    N110096   0.963   4.200  10.973  0.4253 -0.0640 -1.0379
  682MPD2    H710097   0.949   4.111  11.019 -1.9557 -0.2172 -2.0642
  683TMC3    C110098   0.692   4.465  11.762  0.0163 -0.0843  0.0988
  683TMC3    C210099   0.587   4.392  11.811  0.9572 -0.5214 -0.3945
  683TMC3    C310100   0.490   4.337  11.724  0.7624 -0.0503 -0.3328
  683TMC3    C410101   0.716   4.459  11.625 -0.5845  0.0087 -0.0443
  683TMC3    C510102   0.636   4.388  11.543 -0.2581 -0.0333  0.6809
  683TMC3    C610103   0.512   4.346  11.589  0.5700  0.1924 -0.4779
  683TMC3     C10104   0.764   4.558  11.850  0.7901 -1.4037  0.4011
  683TMC3     O10105   0.740   4.547  11.970 -0.5874  0.5144  0.0048
  683TMC3     H10106   0.564   4.405  11.915 -1.1955  0.1133 -0.9661
  683TMC3    H110107   0.814   4.489  11.591 -0.5151 -1.1901 -0.9246
  683TMC3    H210108   0.442   4.295  11.524  1.7446  0.3730 -1.8885
  683TMC3    C710109   0.693   4.345  11.410 -0.2330  0.5014 -0.1175
  683TMC3    C810110   0.366   4.280  11.776  0.2435 -0.1731  0.2661
  683TMC3    O110111   0.646   4.244  11.357  0.6002 -0.0587 -0.2549
  683TMC3    O210112   0.273   4.272  11.699 -0.4934 -0.8464 -0.1222
  684MPD2     C10113   3.110   4.152  16.721  0.4182 -0.0361 -0.2996
  684MPD2    C110114   3.165   4.238  16.631  0.4289 -0.4585 -0.4338
  684MPD2    C210115   3.157   4.376  16.651 -0.4661  0.0027 -0.7982
  684MPD2    C310116   3.083   4.422  16.762 -0.5025  0.0240 -0.4731
  684MPD2    C410117   3.030   4.326  16.852 -0.3024 -0.2753 -0.0308
  684MPD2    C510118   3.048   4.194  16.834  0.3031 -0.1610  0.1433
  684MPD2     H10119   3.220   4.447  16.598  0.9175 -1.5734 -1.2692
  684MPD2    H110120   2.973   4.362  16.937  1.0734  1.0638  0.3223
  684MPD2    H210121   3.103   4.045  16.708 -1.3645  0.0892 -0.4195
  684MPD2    H310122   3.008   4.131  16.913  0.5869 -1.0135 -0.3943
  684MPD2     N10123   3.075   4.558  16.791 -0.3208  0.4826 -0.1431
  684MPD2    H510124   3.041   4.583  16.883 -0.2548 -0.7519  0.2207
  684MPD2    N110125   3.241   4.194  16.528 -0.0602  0.0880 -0.5508
  684MPD2    H710126   3.266   4.266  16.460 -1.1768  1.1270  0.1346
  685TMC3    C110127   3.388   4.054  16.420  0.5440 -0.2708  1.2816
  685TMC3    C210128   3.356   4.089  16.285  0.9589 -0.1141  0.1959
  685TMC3    C310129   3.456   4.058  16.195 -0.3214 -0.0527  0.1822
  685TMC3    C410130   3.497   3.989  16.460  0.1655  0.4778 -0.0687
  685TMC3    C510131   3.594   3.969  16.367  0.0021  0.0155  1.0453
  685TMC3    C610132   3.574   3.992  16.235  0.2670  0.3350  0.1544
  685TMC3     C10133   3.298   4.071  16.528  0.6240 -0.2521  0.0466
  685TMC3     O10134   3.297   3.982  16.614  0.0008  0.5183 -0.3534
  685TMC3     H10135   3.265   4.141  16.259 -0.3557 -3.1562 -1.2471
  685TMC3    H110136   3.529   3.979  16.563  1.9687  2.1103 -0.4549
  685TMC3    H210137   3.652   3.989  16.159 -1.4624 -0.7103 -1.5635
  685TMC3    C710138   3.706   3.891  16.417  0.2346  0.1427 -0.6801
  685TMC3    C810139   3.415   4.023  16.057  0.0140  0.4300 -0.6765
  685TMC3    O110140   3.721   3.884  16.536 -0.0664  0.3257 -0.4732
  685TMC3    O210141   3.498   3.954  15.998 -0.3239  0.3039  0.8552
  686MPD2     C10142   0.564   3.439  15.511  0.7237  0.1424 -0.3058
  686MPD2    C110143   0.451   3.397  15.573 -0.6495  0.2671 -0.1034
  686MPD2    C210144   0.398   3.271  15.560 -0.2271 -0.8659 -0.2417
  686MPD2    C310145   0.467   3.178  15.492  0.0096  0.0441 -0.1068
  686MPD2    C410146   0.588   3.215  15.436 -0.4644  0.0799 -0.2941
  686MPD2    C510147   0.630   3.345  15.442  0.5033 -0.1194  0.6920
  686MPD2     H10148   0.301   3.243  15.599  0.5671  0.7872  2.8669
  686MPD2    H110149   0.658   3.144  15.393 -0.8459 -0.6805  0.3256
  686MPD2    H210150   0.595   3.541  15.530  0.6111  0.1881 -0.3702
  686MPD2    H310151   0.728   3.357  15.397  0.9406  0.9031  1.9001
  686MPD2     N10152   0.442   3.039  15.502  0.2232 -0.9733 -0.7014
  686MPD2    H510153   0.520   2.975  15.495  1.0689 -0.3596  3.1428
  686MPD2    N110154   0.392   3.490  15.661  0.8585  0.2595 -0.1677
  686MPD2    H710155   0.440   3.579  15.668  0.2043  0.6485 -0.5437
  687TMC3    C110156   0.348   2.856  15.617  0.6421 -0.6961 -0.5223
  687TMC3    C210157   0.224   2.830  15.678 -0.0007 -0.5099  0.5882
  687TMC3    C310158   0.221   2.836  15.813  0.1862 -0.4171  0.0479
  687TMC3    C410159   0.458   2.863  15.692 -0.0496 -0.7646  0.1147
  687TMC3    C510160   0.452   2.865  15.831 -0.3822 -0.2767  0.5027
  687TMC3    C610161   0.331   2.838  15.895  0.3657 -0.1872 -1.0238
  687TMC3     C10162   0.331   2.987  15.561  0.2448 -0.1700  0.0745
  687TMC3     O10163   0.218   3.034  15.580 -0.3291 -0.0856 -0.1696
  687TMC3     H10164   0.138   2.832  15.613 -0.0474  0.2469  0.6699
  687TMC3    H110165   0.554   2.876  15.644 -0.3601 -3.9861 -1.3390
  687TMC3    H210166   0.312   2.843  16.001  1.3934 -2.1351 -0.7448
  687TMC3    C710167   0.535   2.969  15.898  0.0613  0.3281  0.2394
  687TMC3    C810168   0.093   2.865  15.875  0.4334  0.5474  0.1681
  687TMC3    O110169   0.525   2.976  16.022  0.3240  0.0624  0.5840
  687TMC3    O210170   0.058   2.824  15.986  0.0508 -0.2977  0.3678
  688MPD2     C10171   3.930   2.843  17.117  0.9220  0.3752  1.2896
  688MPD2    C110172   3.952   2.721  17.171 -0.4366  0.5269 -0.0725
  688MPD2    C210173   4.038   2.637  17.111  0.6691  0.5225  0.5268
  688MPD2    C310174   4.113   2.669  16.998  0.3096 -0.6694  0.0448
  688MPD2    C410175   4.099   2.798  16.951 -0.1502 -0.0710 -0.0149
  688MPD2    C510176   4.006   2.880  17.008 -0.2351 -0.9284  0.0944
  688MPD2     H10177   4.066   2.542  17.155 -1.1403 -0.8385 -1.2857
  688MPD2    H110178   4.164   2.836  16.873 -1.8544  0.5509 -1.1213
  688MPD2    H210179   3.870   2.922  17.163 -1.5406 -0.9768  0.4227
  688MPD2    H310180   3.987   2.980  16.970  0.8604  0.2244  2.5875
  688MPD2     N10181   4.205   2.583  16.931 -0.1624 -0.4420  0.1401
  688MPD2    H510182   4.221   2.613  16.835  2.1607 -2.6881 -0.1626
  688MPD2    N110183   3.881   2.667  17.284 -0.6891 -0.6739 -0.9244
  688MPD2    H710184   3.906   2.572  17.312 -0.6730  0.1227  1.6973
  689TMC3    C110185   3.724   2.657  17.455  0.3895 -0.0057  0.4144
  689TMC3    C210186   3.750   2.716  17.578 -0.1976  0.9608  0.1743
  689TMC3    C310187   3.749   2.632  17.689 -0.1150  0.1729 -0.9775
  689TMC3    C410188   3.696   2.525  17.441 -0.5451  0.4721  0.1079
  689TMC3    C510189   3.702   2.445  17.557 -0.3252  0.3029  0.0112
  689TMC3    C610190   3.733   2.496  17.680 -0.1849  0.3548 -0.0568
  689TMC3     C10191   3.771   2.724  17.343 -0.2370  0.0716  0.2222
  689TMC3     O10192   3.728   2.837  17.339  0.3051  0.0380 -0.2221
  689TMC3     H10193   3.803   2.811  17.575  0.2072  0.7342  0.0409
  689TMC3    H110194   3.673   2.483  17.344  0.4445 -2.6073  1.2060
  689TMC3    H210195   3.742   2.437   0.080  0.6940  1.7832  0.7844
  689TMC3    C710196   3.685   2.292  17.554 -0.7812  0.3649 -0.4229
  689TMC3    C810197   3.757   2.678   0.139  0.0401  0.4324  0.4087
  689TMC3    O110198   3.731   2.240  17.656  0.2804  0.3195 -0.0214
  689TMC3    O210199   3.774   2.596   0.228  0.2102 -1.0216  0.2948
  690MPD2     C10200   1.652   4.401  16.055 -0.0754 -0.4891  0.0263
  690MPD2    C110201   1.658   4.336  15.933 -0.0533 -0.8037 -0.6759
  690MPD2    C210202   1.761   4.368  15.850 -0.1460  0.1515  0.2474
  690MPD2    C310203   1.862   4.455  15.889 -0.3713 -0.0883 -0.0893
  690MPD2    C410204   1.846   4.521  16.010  0.8854 -0.1545 -0.1389
  690MPD2    C510205   1.741   4.495  16.088  0.8210  0.4362  0.7459
  690MPD2     H10206   1.761   4.320  15.753  0.8782  0.1869  0.2339
  690MPD2    H110207   1.915   4.591  16.056  1.4720  0.2134 -1.5741
  690MPD2    H210208   1.574   4.381  16.126  0.4131  3.0187  1.5775
  690MPD2    H310209   1.740   4.551  16.181  1.7109  0.5401  0.6868
  690MPD2     N10210   1.971   4.480  15.802 -0.0579 -0.5368  0.1053
  690MPD2    H510211   1.968   4.435  15.712 -0.1520  0.6848 -0.5065
  690MPD2    N110212   1.578   4.224  15.896  0.6326 -0.0137  0.2029
  690MPD2    H710213   1.616   4.156  15.832 -2.0987 -0.5822 -0.8165
  691TMC3    C110214   1.386   4.074  15.909 -0.1854 -0.7321  0.1769
  691TMC3    C210215   1.255   4.050  15.947 -0.5151 -0.2827 -0.4481
  691TMC3    C310216   1.202   3.927  15.921  0.6279 -0.1937  0.2331
  691TMC3    C410217   1.452   3.968  15.847  0.4683 -0.6715  0.2182
  691TMC3    C510218   1.387   3.852  15.817  0.3186  0.5965 -1.2723
  691TMC3    C610219   1.264   3.824  15.856 -0.0480 -0.3119  0.1753
  691TMC3     C10220   1.447   4.205  15.941 -0.3578  0.2297 -0.5813
  691TMC3     O10221   1.380   4.298  15.997 -0.8356 -0.0972  0.6370
  691TMC3     H10222   1.199   4.125  16.002  0.3245 -0.4211  0.5898
  691TMC3    H110223   1.552   3.982  15.806  0.5230 -0.1765  0.5194
  691TMC3    H210224   1.205   3.736  15.835 -0.0222  0.0424 -1.3471
  691TMC3    C710225   1.466   3.747  15.768 -0.0033  0.4620 -0.7650
  691TMC3    C810226   1.059   3.911  15.957 -0.4379  0.0424  0.5214
  691TMC3    O110227   1.584   3.747  15.797 -0.2472 -0.1407 -0.2452
  691TMC3    O210228   1.026   3.794  15.969 -0.5054  0.9031  0.3346
  692TMC3    C110229   3.356   1.144  16.183  0.4929 -0.2232  0.3155
  692TMC3    C210230   3.445   1.129  16.287  0.0857 -0.0816 -0.6953
  692TMC3    C310231   3.524   1.013  16.292  0.1713  0.5976  0.2652
  692TMC3    C410232   3.332   1.050  16.080  0.2917  0.0072  0.1041
  692TMC3    C510233   3.409   0.939  16.099 -0.9232  0.5221  0.4495
  692TMC3    C610234   3.509   0.925  16.189 -0.1089  0.0914  0.7119
  692TMC3     C10235   3.228   1.198  16.224 -0.5057  0.0894 -0.2422
  692TMC3     O10236   3.129   1.142  16.178  0.1210 -0.2412 -0.1226
  692TMC3     H10237   3.422   1.181  16.379 -0.3361 -1.1024 -0.2255
  692TMC3    H110238   3.245   1.051  16.016  1.4590 -0.4728 -1.5077
  692TMC3    H210239   3.568   0.835  16.198 -2.3174 -1.2640  1.3576
  692TMC3    C710240   3.339   0.816  16.070 -0.4949 -0.8806  0.4892
  692TMC3    C810241   3.490   0.940  16.415 -0.2023 -0.0259 -0.2085
  692TMC3    O110242   3.254   0.821  15.982  0.4524  0.0811 -0.3607
  692TMC3    O210243   3.461   0.821  16.400 -0.0584  0.1811  0.3597
  693MPD2     C10244   2.692   3.660  11.266  0.0339 -0.7212  0.0816
  693MPD2    C110245   2.712   3.552  11.196 -0.8475  0.4946  0.0703
  693MPD2    C210246   2.805   3.547  11.096 -0.5355 -0.0549 -0.2256
  693MPD2    C310247   2.884   3.658  11.072 -0.0640  0.1540  0.6880
  693MPD2    C410248   2.882   3.764  11.158 -0.0376  0.4492  1.1206
  693MPD2    C510249   2.773   3.771  11.247  0.1830  0.2225 -0.0844
  693MPD2     H10250   2.821   3.459  11.035 -0.9988  0.3470 -0.9254
  693MPD2    H110251   2.947   3.848  11.140  0.2247  0.1773  0.8022
  693MPD2    H210252   2.603   3.675  11.327  0.7910  0.6344  0.8492
  693MPD2    H310253   2.755   3.857  11.310 -1.3902 -1.3981  1.7061
  693MPD2     N10254   2.983   3.668  10.970  0.1354 -0.4707 -0.0483
  693MPD2    H510255   3.055   3.738  10.981 -0.5054  0.5168 -2.1727
  693MPD2    N110256   2.613   3.453  11.203 -0.4090 -0.2937  0.1518
  693MPD2    H710257   2.558   3.450  11.288  0.8435 -0.9612  0.9473
  694TMC3    C110258   2.479   3.268  11.151  0.0202 -0.1315  0.3666
  694TMC3    C210259   2.461   3.165  11.064  0.0544 -0.3444 -0.3175
  694TMC3    C310260   2.433   3.042  11.114 -0.4133  0.1081  0.9213
  694TMC3    C410261   2.464   3.245  11.281 -0.2857 -0.5397 -0.1021
  694TMC3    C510262   2.419   3.126  11.330  0.4630  0.3699  0.0257
  694TMC3    C610263   2.411   3.017  11.245  0.3088 -0.4985  0.2610
  694TMC3     C10264   2.584   3.355  11.112 -0.4365 -0.5276  0.0692
  694TMC3     O10265   2.634   3.325  11.002 -0.4839  0.0136 -0.0361
  694TMC3     H10266   2.459   3.187  10.958 -2.8636  1.2696  0.0650
  694TMC3    H110267   2.483   3.322  11.356  3.7034 -0.2815 -1.3496
  694TMC3    H210268   2.415   2.913  11.274  1.4382 -0.6707 -0.5320
  694TMC3    C710269   2.427   3.105  11.478 -0.0832  0.3114 -0.4763
  694TMC3    C810270   2.378   2.948  11.018 -0.3369 -0.1963  0.2674
  694TMC3    O110271   2.469   3.192  11.544  0.0404  0.1007 -0.0545
  694TMC3    O210272   2.344   2.842  11.071  0.5832 -0.2332  0.3821
  695MPD2     C10273   3.566   0.009  13.842  0.2413  0.4689 -0.5421
  695MPD2    C110274   3.552   0.132  13.905 -0.1611  0.4435  0.5969
  695MPD2    C210275   3.426   0.192  13.924  0.2311  0.7312  0.2878
  695MPD2    C310276   3.314   0.146  13.856 -0.2094 -0.3672  0.1365
  695MPD2    C410277   3.330   0.028  13.791  0.1426 -0.4198  0.3951
  695MPD2    C510278   3.449   4.680  13.794  0.3709 -1.4156 -0.0251
  695MPD2     H10279   3.433   0.277  13.990  0.3909  1.2951 -0.4484
  695MPD2    H110280   3.248   4.710  13.733  0.1688  0.3319 -0.1587
  695MPD2    H210281   3.657   4.673  13.849  0.3614  0.7662  0.4515
  695MPD2    H310282   3.446   4.577  13.763  1.4049 -1.7415  0.9652
  695MPD2     N10283   3.185   0.214  13.875  0.5003  0.0493 -0.7664
  695MPD2    H510284   3.184   0.304  13.923 -1.4116 -0.9248  0.9912
  695MPD2    N110285   3.660   0.204  13.966 -0.6491  0.2436  0.0368
  695MPD2    H710286   3.639   0.278  14.032  2.3915  1.4009 -0.2823
  696TMC3    C110287   2.975   0.278  13.860  0.1972  0.5122 -0.6589
  696TMC3    C210288   2.964   0.300  13.999  0.1163 -0.3538  0.1294
  696TMC3    C310289   2.880   0.399  14.033 -0.1723 -0.0511 -0.0019
  696TMC3    C410290   2.906   0.339  13.763  0.1380 -0.6449  0.2076
  696TMC3    C510291   2.821   0.435  13.810 -0.0387  0.6459 -0.6381
  696TMC3    C610292   2.810   0.463  13.939 -0.1183 -0.0093  0.5911
  696TMC3     C10293   3.070   0.184  13.809  0.7989  0.2370  0.2299
  696TMC3     O10294   3.030   0.106  13.719  0.2986  0.5141 -0.8395
  696TMC3     H10295   3.031   0.255  14.071  1.9796 -0.0347 -1.3945
  696TMC3    H110296   2.931   0.341  13.657 -0.3527  0.6102  0.1180
  696TMC3    H210297   2.744   0.536  13.984  1.0988  0.2892  1.8893
  696TMC3    C710298   2.822   0.558  13.732  0.4684  0.1784  0.4053
  696TMC3    C810299   2.933   0.501  14.123 -0.1025  0.1569  0.3521
  696TMC3    O110300   2.819   0.547  13.612  0.5487 -0.3863  0.5942
  696TMC3    O210301   2.924   0.617  14.083 -0.0951  0.4774  0.1870
  697MPD2     C10302   2.574   2.711  16.001  0.6449  0.7371 -0.3064
  697MPD2    C110303   2.561   2.623  15.888 -0.3502  0.0259  0.0404
  697MPD2    C210304   2.543   2.677  15.763 -0.6182  0.8299 -0.4615
  697MPD2    C310305   2.545   2.816  15.743 -0.7617 -0.0228 -0.1973
  697MPD2    C410306   2.566   2.901  15.852  0.1512  0.3096 -0.0819
  697MPD2    C510307   2.569   2.848  15.982  0.3986 -0.5738  0.0540
  697MPD2     H10308   2.519   2.603  15.687 -1.2102  0.2506  0.2945
  697MPD2    H110309   2.573   3.008  15.837 -2.8486  0.7005  1.1676
  697MPD2    H210310   2.583   2.676  16.103  0.6248  0.1701 -0.4956
  697MPD2    H310311   2.579   2.911  16.069  0.3902 -0.4306 -0.0494
  697MPD2     N10312   2.536   2.865  15.608 -0.5964  0.8710 -0.2529
  697MPD2    H510313   2.541   2.797  15.533  1.8843 -0.4909  1.1723
  697MPD2    N110314   2.559   2.483  15.900  0.6579  0.3482  0.4453
  697MPD2    H710315   2.560   2.429  15.814 -1.0348  3.6281 -1.6500
  698TMC3    C110316   2.566   3.008  15.423  0.2676  0.3008 -0.6148
  698TMC3    C210317   2.681   3.063  15.367  0.5363 -0.2714 -0.5470
  698TMC3    C310318   2.709   3.024  15.236  0.3746 -0.6853  0.2979
  698TMC3    C410319   2.477   2.937  15.350  0.4032  0.5267 -0.3382
  698TMC3    C510320   2.501   2.916  15.219  0.3257  0.5007  0.3189
  698TMC3    C610321   2.614   2.958  15.159 -0.2107 -0.6250 -0.1387
  698TMC3     C10322   2.548   3.000  15.566 -0.9442  0.3254 -0.1816
  698TMC3     O10323   2.588   3.090  15.637  0.3692 -0.6076  0.5621
  698TMC3     H10324   2.746   3.117  15.435  0.8283 -0.4603 -0.6764
  698TMC3    H110325   2.383   2.899  15.389  0.6619 -0.4599 -0.6557
  698TMC3    H210326   2.646   2.923  15.062 -0.1186 -1.2773  0.1253
  698TMC3    C710327   2.403   2.828  15.161  0.3906  0.5178 -0.1937
  698TMC3    C810328   2.842   3.038  15.179 -0.1895  0.1884  0.6300
  698TMC3    O110329   2.325   2.768  15.231 -0.1721  0.3758 -0.3155
  698TMC3    O210330   2.875   2.958  15.095 -0.5949  0.0899 -0.0452
  699TMC3    C110331   2.959   0.604  13.102 -0.3978 -0.3178  0.2974
  699TMC3    C210332   2.958   0.480  13.163  0.1410 -0.5226  0.8370
  699TMC3    C310333   2.836   0.416  13.196 -0.2808 -0.0748 -0.1285
  699TMC3    C410334   2.844   0.665  13.066 -0.6340 -0.3933 -0.0390
  699TMC3    C510335   2.726   0.600  13.096  0.0542  0.1225  0.2328
  699TMC3    C610336   2.721   0.479  13.158  0.3723  0.0317 -0.0698
  699TMC3     C10337   3.076   0.657  13.042 -0.2355 -0.6505 -0.0674
  699TMC3     O10338   3.052   0.734  12.948  0.8849  0.3861  0.1575
  699TMC3     H10339   3.052   0.443  13.202  1.1090  0.9958 -0.0780
  699TMC3    H110340   2.846   0.767  13.032 -0.7855 -0.2659  0.3355
  699TMC3    H210341   2.628   0.434  13.193 -0.9620  3.0182  0.2299
  699TMC3    C710342   2.604   0.667  13.078 -0.1330 -0.0940 -0.2794
  699TMC3    C810343   2.839   0.315  13.298  0.7030 -0.6772  0.2873
  699TMC3    O110344   2.505   0.616  13.129 -0.1291 -0.5568 -0.1818
  699TMC3    O210345   2.934   0.310  13.379 -0.8145 -0.0030  0.0700
  700TMC3    C110346   1.702   2.814  17.407  0.1122 -0.6212  0.1089
  700TMC3    C210347   1.740   2.686  17.409  0.3287  0.0088 -0.2465
  700TMC3    C310348   1.833   2.640  17.498  0.0532 -0.4503 -0.0058
  700TMC3    C410349   1.755   2.897  17.507 -0.3459 -0.0783  0.0308
  700TMC3    C510350   1.854   2.848  17.591 -0.6407  0.1753 -0.3502
  700TMC3    C610351   1.905   2.722  17.578  0.3744 -0.0430 -0.1901
  700TMC3     C10352   1.684   2.862  17.273  0.5805  0.3150  0.7631
  700TMC3     O10353   1.606   2.800  17.202  0.1661  0.3561 -0.2625
  700TMC3     H10354   1.676   2.624  17.347  0.9500  0.7454 -1.6063
  700TMC3    H110355   1.725   3.001  17.500 -0.9093 -0.2918 -0.7563
  700TMC3    H210356   1.983   2.696  17.650  1.2347  2.2211 -0.3114
  700TMC3    C710357   1.922   2.942  17.687 -0.0364 -0.4056  0.2706
  700TMC3    C810358   1.886   2.511  17.473  0.3401 -0.4340 -0.4387
  700TMC3    O110359   2.022   2.905   0.057  0.5578  0.1306  0.8874
  700TMC3    O210360   2.002   2.492  17.506 -0.1205 -0.4598 -0.4159
  701TMC3    C110361   2.096   1.793  15.855 -0.6239 -0.0862 -0.1185
  701TMC3    C210362   2.139   1.723  15.746  0.0212 -0.6622  0.0623
  701TMC3    C310363   2.244   1.768  15.679 -0.3265 -0.2109  0.1411
  701TMC3    C410364   2.170   1.909  15.894  0.2029  0.7628  0.6041
  701TMC3    C510365   2.279   1.955  15.827 -0.3746 -0.2282  0.6264
  701TMC3    C610366   2.314   1.887  15.718 -0.5307  0.5561  0.2350
  701TMC3     C10367   1.983   1.738  15.926  0.3152  0.7821 -0.5501
  701TMC3     O10368   1.938   1.631  15.885  0.6501  0.2051 -0.3175
  701TMC3     H10369   2.088   1.633  15.711  0.7485 -0.5737 -1.2132
  701TMC3    H110370   2.150   1.941  15.996  2.3587  2.2493  0.5470
  701TMC3    H210371   2.389   1.928  15.651 -0.7649 -1.1735 -1.0997
  701TMC3    C710372   2.322   2.095  15.836 -0.0889 -0.6205  0.2012
  701TMC3    C810373   2.280   1.719  15.545  0.1394 -0.1148 -0.1868
  701TMC3    O110374   2.397   2.134  15.745  0.2540  0.2864 -0.1812
  701TMC3    O210375   2.393   1.745  15.505  0.2432 -0.1635  0.7375
  702MPD2     C10376   1.956   3.608  10.816  0.1476  0.0364  0.1868
  702MPD2    C110377   1.906   3.725  10.864 -0.3659  0.0479 -0.2341
  702MPD2    C210378   1.930   3.841  10.798  0.1533  0.1249 -0.0522
  702MPD2    C310379   1.998   3.842  10.677 -1.0604  0.6823  0.5759
  702MPD2    C410380   2.038   3.721  10.621 -0.1050 -1.0595 -0.7859
  702MPD2    C510381   2.025   3.605  10.694  0.3776  0.2480  0.1942
  702MPD2     H10382   1.899   3.940  10.829 -0.3196  0.2081 -0.7892
  702MPD2    H110383   2.087   3.723  10.524  4.1051  0.7450  1.4090
  702MPD2    H210384   1.941   3.507  10.853  0.9610  0.3753  1.4578
  702MPD2    H310385   2.063   3.512  10.655 -0.6240  0.3675 -1.0360
  702MPD2     N10386   2.023   3.970  10.620 -0.2649 -0.9172  0.2701
  702MPD2    H510387   1.977   4.046  10.670  0.0159 -0.7719  0.3061
  702MPD2    N110388   1.826   3.731  10.985 -0.1588 -0.0446 -0.1916
  702MPD2    H710389   1.796   3.823  11.014 -0.3515 -0.3849  0.6809
  703TMC3    C110390   2.128   4.152  10.527  0.3961 -0.5113 -0.0285
  703TMC3    C210391   2.034   4.235  10.577 -0.2779  0.0777  0.6755
  703TMC3    C310392   2.058   4.373  10.571 -0.2475 -0.5007  0.1354
  703TMC3    C410393   2.240   4.206  10.473 -0.2438 -0.8927  0.2299
  703TMC3    C510394   2.262   4.339  10.479 -0.5602  0.0057  1.0199
  703TMC3    C610395   2.175   4.429  10.528 -0.3429 -0.5082 -0.4500
  703TMC3     C10396   2.119   4.005  10.533 -0.5220 -0.8122  0.3898
  703TMC3     O10397   2.208   3.948  10.475  0.0700 -0.2262 -0.0501
  703TMC3     H10398   1.931   4.202  10.589 -1.1935  2.0801 -1.5465
  703TMC3    H110399   2.313   4.146  10.420  0.5497 -0.8913  1.3309
  703TMC3    H210400   2.195   4.536  10.535  1.6675 -0.8550 -0.8815
  703TMC3    C710401   2.370   4.403  10.413  0.2907 -0.5395 -0.1606
  703TMC3    C810402   1.968   4.466  10.643  0.2352 -0.3816  0.4495
  703TMC3    O110403   2.361   4.523  10.391 -0.4920 -0.9962  0.1045
  703TMC3    O210404   2.005   4.585  10.634 -0.2200 -0.1558 -0.1984
  704TMC3    C110405   3.833   2.114  12.757 -0.4304  0.5015  0.4600
  704TMC3    C210406   3.917   2.180  12.671  0.3179 -0.4518  0.0088
  704TMC3    C310407   4.030   2.237  12.723  0.4220 -0.4260 -0.0781
  704TMC3    C410408   3.864   2.106  12.896 -0.4313 -0.1103 -0.6236
  704TMC3    C510409   3.979   2.159  12.944 -0.4484  0.2363 -0.0450
  704TMC3    C610410   4.059   2.231  12.858  0.2228  0.3551 -0.2884
  704TMC3     C10411   3.774   1.983  12.718 -0.1284 -0.3756 -0.8882
  704TMC3     O10412   3.713   1.916  12.798  0.3829  0.5437  0.6871
  704TMC3     H10413   3.899   2.194  12.565  0.8380 -1.1323 -0.1711
  704TMC3    H110414   3.805   2.039  12.957 -0.4733  2.0837  1.7460
  704TMC3    H210415   4.162   2.247  12.887 -0.7265 -1.5064  4.1586
  704TMC3    C710416   4.040   2.072  13.036  1.0082 -0.8098 -0.8234
  704TMC3    C810417   4.149   2.233  12.637  0.4278  0.2043  0.1123
  704TMC3    O110418   3.994   1.955  13.038 -0.2611 -0.0328 -0.8906
  704TMC3    O210419   4.150   2.146  12.552 -0.5693 -0.4644 -0.7714
  705MPD2     C10420   3.472   0.770  17.000 -0.2645  1.0991  0.0931
  705MPD2    C110421   3.427   0.693  16.902  0.3014  0.2372 -0.3736
  705MPD2    C210422   3.298   0.642  16.924 -0.0777 -0.5411  0.0233
  705MPD2    C310423   3.231   0.649  17.046 -0.7302  0.5994  0.4546
  705MPD2    C410424   3.290   0.712  17.146 -0.0764  0.0877  0.4218
  705MPD2    C510425   3.404   0.782  17.122 -1.0733 -0.5094  0.2255
  705MPD2     H10426   3.240   0.600  16.842  0.4002  0.3588 -0.7707
  705MPD2    H110427   3.243   0.726  17.243 -0.1054  1.5249  0.1904
  705MPD2    H210428   3.561   0.831  16.986 -0.5534  1.1578 -1.5825
  705MPD2    H310429   3.465   0.818  17.203 -1.6314 -1.5418  1.1114
  705MPD2     N10430   3.093   0.606  17.067  1.2778 -0.8655  0.6618
  705MPD2    H510431   3.045   0.608  17.157 -1.2093 -0.3593 -0.6670
  705MPD2    N110432   3.487   0.659  16.782  0.4100  0.0037  0.5806
  705MPD2    H710433   3.441   0.601  16.712 -0.2950  0.2327  0.8603
  706TMC3    C110434   3.666   0.468  16.455 -0.1678  0.7610 -0.6745
  706TMC3    C210435   3.721   0.568  16.367  1.1762 -0.0677 -0.0192
  706TMC3    C310436   3.750   0.692  16.420 -0.0641 -0.8666  0.7727
  706TMC3    C410437   3.620   0.507  16.576  0.5027  0.2186  0.6149
  706TMC3    C510438   3.657   0.632  16.625 -0.1769  0.4909 -0.6292
  706TMC3    C610439   3.725   0.726  16.553 -0.0836  0.1885  0.0159
  706TMC3     C10440   3.692   0.327  16.422  0.4281  0.6883 -0.8741
  706TMC3     O10441   3.666   0.248  16.510 -0.2098  0.0598  0.1958
  706TMC3     H10442   3.727   0.551  16.260  0.7925 -0.5554  0.0383
  706TMC3    H110443   3.581   0.435  16.647  0.0570  0.3462  0.4992
  706TMC3    H210444   3.739   0.831  16.578  2.3342 -0.0719 -0.2229
  706TMC3    C710445   3.618   0.680  16.757 -0.1496 -0.0571  0.3559
  706TMC3    C810446   3.829   0.780  16.339  0.1517  0.3533  1.0126
  706TMC3    O110447   3.696   0.756  16.809 -0.2184  0.3001 -0.1856
  706TMC3    O210448   3.802   0.796  16.219 -0.0151  0.6651  0.0410
  707TMC3    C110449   0.227   4.330   0.983 -0.0731  0.4444  0.3569
  707TMC3    C210450   0.224   4.297   1.120 -0.1843 -0.1887 -0.3325
  707TMC3    C310451   0.101   4.274   1.176  0.0747  0.3494 -0.5658
  707TMC3    C410452   0.117   4.338   0.905  0.1153 -0.3330 -0.6767
  707TMC3    C510453   4.722   4.326   0.971 -0.1059 -0.5119  0.3293
  707TMC3    C610454   4.708   4.282   1.102 -0.2825  0.3138  0.0241
  707TMC3     C10455   0.360   4.326   0.930  0.0975 -1.0155 -0.1615
  707TMC3     O10456   0.454   4.307   1.009 -0.4643 -0.3299 -0.1866
  707TMC3     H10457   0.313   4.307   1.180 -1.0248 -1.3264  1.1163
  707TMC3    H110458   0.119   4.359   0.799 -1.7502  0.1451 -0.6210
  707TMC3    H210459   4.616   4.252   1.150 -0.1128 -0.7902 -0.3442
  707TMC3    C710460   4.605   4.338   0.884 -0.1676 -0.0763  0.1450
  707TMC3    C810461   0.085   4.192   1.297  1.0213 -0.2087 -0.2676
  707TMC3    O110462   4.625   4.324   0.766 -0.5873 -0.6526 -0.3978
  707TMC3    O210463   4.706   4.197   1.371 -0.0513 -0.0723 -0.4080
  708MPD2     C10464   2.992   3.701  13.500  0.2708  0.0416 -0.1292
  708MPD2    C110465   2.861   3.641  13.490 -1.1760  0.3585  0.3669
  708MPD2    C210466   2.778   3.644  13.594  0.6298  0.2139 -1.1225
  708MPD2    C310467   2.815   3.713  13.709  0.6027  0.7553  0.3255
  708MPD2    C410468   2.930   3.786  13.714  0.7189 -0.1570 -0.3294
  708MPD2    C510469   3.023   3.776  13.611 -0.1293 -0.0989 -0.0038
  708MPD2     H10470   2.680   3.601  13.574  0.9495 -1.0018 -0.0648
  708MPD2    H110471   2.972   3.846  13.794  2.6803 -1.4925 -0.3426
  708MPD2    H210472   3.054   3.708  13.412 -1.7258  1.6541 -1.4316
  708MPD2    H310473   3.117   3.831  13.614  0.1141 -0.5338  0.3912
  708MPD2     N10474   2.719   3.724  13.812 -0.4539 -0.7714  0.4383
  708MPD2    H510475   2.751   3.792  13.881  2.8199 -2.8488  0.9716
  708MPD2    N110476   2.823   3.573  13.371 -0.0636  0.2132  0.0657
  708MPD2    H710477   2.728   3.537  13.373  0.5980 -1.4942  2.1723
  709TMC3    C110478   2.796   3.514  13.151  0.2714 -0.2329 -0.0213
  709TMC3    C210479   2.777   3.592  13.041  1.1095 -0.7693  0.4336
  709TMC3    C310480   2.649   3.622  13.002 -0.0902 -0.1440  0.0924
  709TMC3    C410481   2.685   3.469  13.216 -0.1369 -0.4292 -0.3286
  709TMC3    C510482   2.561   3.502  13.176  0.3733  0.2437 -0.7297
  709TMC3    C610483   2.540   3.580  13.067 -0.6148 -0.7706  0.0500
  709TMC3     C10484   2.888   3.567  13.251  0.2903 -0.0537  0.0287
  709TMC3     O10485   2.988   3.622  13.214 -0.2335  0.0010  0.3289
  709TMC3     H10486   2.856   3.652  12.998  1.3162 -0.6496  0.9836
  709TMC3    H110487   2.703   3.388  13.287 -1.9851  0.5050  1.2186
  709TMC3    H210488   2.439   3.616  13.055 -1.9783 -4.1566  1.1827
  709TMC3    C710489   2.477   3.527  13.294  0.6220  0.1868 -0.5486
  709TMC3    C810490   2.640   3.681  12.875  0.3333 -0.8092 -0.0248
  709TMC3    O110491   2.532   3.491  13.395 -0.1506  0.0266  0.1761
  709TMC3    O210492   2.725   3.673  12.785 -0.0705 -0.2183 -0.6642
  710TMC3    C110493   2.471   0.046   0.798 -0.0963 -0.5953  0.1198
  710TMC3    C210494   2.542   0.078   0.688  0.3449  0.0994 -0.5711
  710TMC3    C310495   2.643   4.714   0.653  0.3572 -0.1305 -0.1063
  710TMC3    C410496   2.492   4.660   0.879 -0.1867  0.4944 -0.0179
  710TMC3    C510497   2.596   4.573   0.839 -0.6302  0.4304  0.0184
  710TMC3    C610498   2.681   4.607   0.731 -0.1151 -0.5279 -0.1950
  710TMC3     C10499   2.357   0.136   0.840 -0.5665 -0.4202  0.7010
  710TMC3     O10500   2.304   0.193   0.748  0.0403 -0.2035  0.2484
  710TMC3     H10501   2.512   0.163   0.628  0.5252  2.3272  2.5254
  710TMC3    H110502   2.415   4.622   0.945  1.8780 -0.5191  1.8241
  710TMC3    H210503   2.765   4.542   0.709 -0.4716 -0.7981 -0.7427
  710TMC3    C710504   2.621   4.450   0.912 -0.5695 -0.1736  0.2492
  710TMC3    C810505   2.739   0.038   0.550 -0.2755 -0.3465  0.0852
  710TMC3    O110506   2.569   4.430   1.019  0.4763 -0.4334  0.1321
  710TMC3    O210507   2.680   0.093   0.459 -0.1865  1.2699 -0.4767
  711TMC3    C110508   2.810   1.448  15.287 -0.1727  0.9783 -0.2295
  711TMC3    C210509   2.880   1.515  15.385 -0.3060  0.4805 -0.3307
  711TMC3    C310510   3.019   1.516  15.373 -0.7578  0.0732 -0.9353
  711TMC3    C410511   2.873   1.378  15.186 -0.5211 -0.3162  0.1003
  711TMC3    C510512   3.014   1.378  15.190 -0.3319 -0.7558 -0.9918
  711TMC3    C610513   3.085   1.451  15.275 -0.0141 -0.0762 -0.7261
  711TMC3     C10514   2.667   1.421  15.291 -0.6621  0.0891 -0.2036
  711TMC3     O10515   2.607   1.376  15.194  0.0639 -0.0522  0.1576
  711TMC3     H10516   2.834   1.580  15.459 -2.4926 -1.9771  0.4840
  711TMC3    H110517   2.817   1.328  15.108  0.2472 -0.1082 -0.5750
  711TMC3    H210518   3.192   1.463  15.268  0.2124 -0.9661  1.1800
  711TMC3    C710519   3.064   1.242  15.204 -0.9126 -0.9645 -0.1704
  711TMC3    C810520   3.082   1.522  15.505  0.4973 -0.0012 -0.1443
  711TMC3    O110521   3.153   1.224  15.289  0.3906 -0.2268 -0.4940
  711TMC3    O210522   3.014   1.566  15.596 -0.3219  0.9208 -0.0153
  712MPD2     C10523   4.448   2.195  13.674  0.7866 -0.4860 -0.0171
  712MPD2    C110524   4.350   2.265  13.746 -0.5049 -0.0557 -0.7481
  712MPD2    C210525   4.393   2.357  13.840  0.2551  0.0263  0.1048
  712MPD2    C310526   4.529   2.374  13.872 -0.1460  0.5966 -1.0141
  712MPD2    C410527   4.621   2.299  13.799 -0.0401  0.1369 -0.3206
  712MPD2    C510528   4.577   2.214  13.699  0.5217  0.1848  0.0535
  712MPD2     H10529   4.317   2.423  13.882  1.9802 -0.0035  3.2612
  712MPD2    H110530   0.006   2.299  13.817 -0.2708 -0.9603  1.0208
  712MPD2    H210531   4.426   2.122  13.597  2.2997 -0.4214 -0.5093
  712MPD2    H310532   4.656   2.179  13.633  1.3348  0.0835  1.0652
  712MPD2     N10533   4.585   2.475  13.948  0.1582 -0.9192 -0.2791
  712MPD2    H510534   4.684   2.493  13.932  0.5568 -0.8809  2.1302
  712MPD2    N110535   4.212   2.243  13.728  0.1079 -0.4595  0.0095
  712MPD2    H710536   4.149   2.294  13.789 -1.0988 -1.2806 -0.5608
  713TMC3    C110537   4.555   2.699  14.030  0.0364  0.2579  0.4380
  713TMC3    C210538   4.592   2.742  13.905  0.0472 -0.0326  0.0353
  713TMC3    C310539   4.532   2.865  13.870  0.1589  0.4923  0.0297
  713TMC3    C410540   4.472   2.775  14.113 -0.0528  0.9420  0.2740
  713TMC3    C510541   4.430   2.894  14.067 -0.1855 -0.7320 -0.0449
  713TMC3    C610542   4.460   2.949  13.946  0.2951  0.4865 -0.2142
  713TMC3     C10543   4.518   2.554  14.038  0.6826  0.6602 -0.2938
  713TMC3     O10544   4.415   2.527  14.098 -0.3855 -1.2386  0.0975
  713TMC3     H10545   4.670   2.696  13.845 -0.4400  0.8293 -1.2472
  713TMC3    H110546   4.445   2.731  14.208  1.4831 -2.3116 -0.7934
  713TMC3    H210547   4.431   3.049  13.915 -0.7992  0.2679  0.1149
  713TMC3    C710548   4.328   2.955  14.143  0.3715  0.1917 -0.7795
  713TMC3    C810549   4.556   2.918  13.740  0.9447  0.0265 -0.3952
  713TMC3    O110550   4.327   2.924  14.262 -0.3908 -0.2391 -0.3493
  713TMC3    O210551   4.515   3.033  13.715  0.0263 -0.2451  0.1203
  714MPD2     C10552   1.356   1.122   2.102  0.1571 -0.0798 -0.0009
  714MPD2    C110553   1.408   1.089   1.981  0.1307  0.4896  0.1848
  714MPD2    C210554   1.343   1.143   1.865 -0.0119 -0.7191  0.0387
  714MPD2    C310555   1.224   1.215   1.877 -0.6902  0.5305  0.5630
  714MPD2    C410556   1.168   1.240   2.000  0.2180 -0.4919  0.8474
  714MPD2    C510557   1.242   1.199   2.110 -0.9121  0.2167  0.2714
  714MPD2     H10558   1.388   1.124   1.768  1.5890  2.9399  0.0514
  714MPD2    H110559   1.071   1.288   1.994 -0.7897 -2.9922 -2.5973
  714MPD2    H210560   1.402   1.083   2.193  0.9162  1.2433  0.1675
  714MPD2    H310561   1.216   1.226   2.212 -1.7464  2.2460 -0.4746
  714MPD2     N10562   1.163   1.286   1.770 -0.0976  0.1918  0.2768
  714MPD2    H510563   1.080   1.343   1.785 -1.8585 -2.1942 -0.2732
  714MPD2    N110564   1.528   1.018   1.972  0.3181 -0.7603  0.1053
  714MPD2    H710565   1.587   1.010   2.054 -0.3314  1.6019  0.8166
  715TMC3    C110566   1.710   0.900   1.884 -0.6353  0.2944  0.2586
  715TMC3    C210567   1.745   0.796   1.809  0.1559 -0.3267 -0.1386
  715TMC3    C310568   1.874   0.750   1.818  0.6619  0.6078 -1.0504
  715TMC3    C410569   1.796   0.963   1.967  0.1281 -0.1420  0.3857
  715TMC3    C510570   1.929   0.922   1.958  0.1525  0.1529  0.8678
  715TMC3    C610571   1.967   0.819   1.888 -0.5444 -0.1789  0.1267
  715TMC3     C10572   1.583   0.968   1.857  0.3501  0.2936 -0.0652
  715TMC3     O10573   1.527   0.936   1.751  0.2271 -0.2014  0.5200
  715TMC3     H10574   1.669   0.737   1.760 -1.7039  0.4701  1.8144
  715TMC3    H110575   1.778   1.044   2.037  0.4634  0.3742 -0.1371
  715TMC3    H210576   2.074   0.799   1.892 -0.4389  0.2080 -1.0475
  715TMC3    C710577   2.027   0.975   2.055 -0.1640  0.9477 -0.1179
  715TMC3    C810578   1.909   0.627   1.752  0.0963  0.2737 -0.1105
  715TMC3    O110579   2.143   0.943   2.032 -0.0675 -0.0662 -0.7684
  715TMC3    O210580   1.833   0.596   1.662  0.3425  0.0058 -0.1332
  716MPD2     C10581   2.736   3.363  10.321 -0.7926  0.0880 -0.6362
  716MPD2    C110582   2.645   3.308  10.228  0.3834  0.2300  0.2662
  716MPD2    C210583   2.631   3.171  10.223  0.3186  0.2314  0.2824
  716MPD2    C310584   2.696   3.089  10.316 -0.5602  0.1462  0.0429
  716MPD2    C410585   2.759   3.144  10.427 -0.2747 -0.1059  0.2691
  716MPD2    C510586   2.776   3.285  10.431 -0.0995 -0.2786  0.5923
  716MPD2     H10587   2.573   3.129  10.141 -0.6488  2.5410 -0.2310
  716MPD2    H110588   2.808   3.084  10.503  3.0830  2.1078 -0.1833
  716MPD2    H210589   2.762   3.468  10.325 -1.2303  0.1847 -0.3214
  716MPD2    H310590   2.841   3.320  10.511 -0.8050  1.7282  0.2847
  716MPD2     N10591   2.669   2.951  10.301  0.2990  0.6587  0.2179
  716MPD2    H510592   2.623   2.922  10.216  2.3310 -0.1045 -0.5940
  716MPD2    N110593   2.581   3.394  10.133  0.1472 -0.9049 -0.1355
  716MPD2    H710594   2.598   3.494  10.140  0.5516 -1.0126  0.3928
  717TMC3    C110595   2.663   2.721  10.343  0.0266  0.7569 -0.2100
  717TMC3    C210596   2.636   2.711  10.211  0.2415  0.0998 -0.1322
  717TMC3    C310597   2.522   2.643  10.186  0.6571 -0.0721  0.1307
  717TMC3    C410598   2.586   2.658  10.442 -0.2948  0.2359 -0.5191
  717TMC3    C510599   2.473   2.589  10.403  0.5482  0.4076 -0.1971
  717TMC3    C610600   2.438   2.585  10.271  0.4241 -0.2519  0.6223
  717TMC3     C10601   2.702   2.850  10.392  0.5632 -0.4510 -0.0740
  717TMC3     O10602   2.742   2.857  10.508  0.1103 -0.5570  0.0929
  717TMC3     H10603   2.709   2.752  10.143 -0.6707  1.0054 -0.5792
  717TMC3    H110604   2.627   2.659  10.543 -0.3418  1.2016 -0.5105
  717TMC3    H210605   2.348   2.540  10.231  1.3733  0.7795 -2.7025
  717TMC3    C710606   2.391   2.519  10.497  0.1607 -0.2023  0.1127
  717TMC3    C810607   2.504   2.609  10.045  0.2949  0.1250  0.0188
  717TMC3    O110608   2.280   2.482  10.464 -0.2449  0.3165 -0.0866
  717TMC3    O210609   2.404   2.546  10.014  0.1402  0.2822  0.2468
  718MPD2     C10610   1.142   3.040  13.008  0.1458  0.4805 -0.2823
  718MPD2    C110611   1.034   3.125  13.006 -0.5010 -0.2694 -0.4834
  718MPD2    C210612   0.920   3.087  12.935 -0.1859 -0.2667 -0.1583
  718MPD2    C310613   0.910   2.968  12.870  0.7361  0.4981 -0.7989
  718MPD2    C410614   1.010   2.876  12.885  0.2780  0.3857 -0.5315
  718MPD2    C510615   1.125   2.919  12.940 -0.6672 -1.0676 -0.0935
  718MPD2     H10616   0.843   3.162  12.919 -1.5289 -2.1122 -2.4020
  718MPD2    H110617   1.015   2.783  12.828  0.0086 -1.4494  2.4367
  718MPD2    H210618   1.239   3.072  13.046 -0.4122  0.5899  1.0348
  718MPD2    H310619   1.211   2.853  12.943  0.4169  0.2149 -2.3465
  718MPD2     N10620   0.797   2.959  12.785  0.3690  0.5473 -0.0218
  718MPD2    H510621   0.746   3.045  12.765  0.0053  0.1179 -0.9264
  718MPD2    N110622   1.052   3.262  13.049 -0.8384 -0.3841 -0.0288
  718MPD2    H710623   1.145   3.281  13.085 -0.6094 -0.9200 -0.3375
  719TMC3    C110624   1.019   3.496  13.039 -0.0632  0.2256  0.2002
  719TMC3    C210625   0.919   3.587  13.023 -0.2440 -0.3831 -0.5255
  719TMC3    C310626   0.944   3.697  12.944  0.5803  0.2924  0.7719
  719TMC3    C410627   1.135   3.513  12.977  0.6343 -0.8420 -0.3641
  719TMC3    C510628   1.163   3.634  12.916  0.0458  0.4711  0.3358
  719TMC3    C610629   1.070   3.724  12.889  0.2534 -0.3807 -0.4142
  719TMC3     C10630   0.966   3.369  13.019  0.3363  0.5989  0.6714
  719TMC3     O10631   0.855   3.373  12.970  0.1625  0.3462 -0.2890
  719TMC3     H10632   0.825   3.570  13.074  0.5144  0.0692  1.0030
  719TMC3    H110633   1.209   3.435  12.997  1.2079 -0.7892 -2.2530
  719TMC3    H210634   1.084   3.805  12.818 -2.6735  0.7784  0.3138
  719TMC3    C710635   1.292   3.653  12.854 -0.4165 -0.2294 -0.7398
  719TMC3    C810636   0.846   3.714  12.844 -0.3856 -0.0842  1.3873
  719TMC3    O110637   1.352   3.557  12.820 -0.6308  0.7627 -0.5715
  719TMC3    O210638   0.845   3.807  12.764  0.4006  0.1110 -0.0755
  720MPD2     C10639   4.328   4.002  14.234  0.2345  0.1197 -0.0384
  720MPD2    C110640   4.406   4.102  14.180 -0.1009 -1.1553  0.0067
  720MPD2    C210641   4.534   4.113  14.231  0.2635 -0.6393 -0.2739
  720MPD2    C310642   4.581   4.041  14.346 -0.3733  0.4288  0.1869
  720MPD2    C410643   4.496   3.937  14.396 -0.9323  0.6489 -0.1584
  720MPD2    C510644   4.376   3.912  14.334  0.7940  0.3647 -0.0626
  720MPD2     H10645   4.593   4.196  14.194  0.0891 -0.8636 -1.0553
  720MPD2    H110646   4.523   3.868  14.475 -1.2754  0.4496 -0.2156
  720MPD2    H210647   4.242   3.963  14.182  1.5606 -1.7090 -0.8575
  720MPD2    H310648   4.322   3.821  14.358 -0.7273  1.5526  0.9583
  720MPD2     N10649   4.711   4.070  14.406 -0.2632  0.0108  0.3586
  720MPD2    H510650   0.046   4.145  14.365  0.8222  0.2302  2.2864
  720MPD2    N110651   4.364   4.196  14.084 -0.2500 -0.1120  0.1164
  720MPD2    H710652   4.437   4.252  14.041  1.9766 -1.7506  1.8395
  721TMC3    C110653   0.164   4.055  14.554 -0.1378  0.2683  0.0003
  721TMC3    C210654   0.185   4.067  14.689  0.3269 -0.4710 -0.3546
  721TMC3    C310655   0.317   4.077  14.733  0.1209  0.1510  0.1283
  721TMC3    C410656   0.261   4.045  14.466  0.3895 -0.7995 -0.9372
  721TMC3    C510657   0.387   4.051  14.508  0.2299 -0.5902 -0.2314
  721TMC3    C610658   0.420   4.072  14.643 -0.8074  0.8362  0.6723
  721TMC3     C10659   0.029   4.016  14.525  0.6263 -0.5867 -0.5836
  721TMC3     O10660   4.691   3.955  14.611 -0.0110 -0.0717 -0.2472
  721TMC3     H10661   0.104   4.065  14.760 -0.4285  0.2760 -1.1948
  721TMC3    H110662   0.240   4.030  14.360  0.6645 -1.0883 -0.9494
  721TMC3    H210663   0.525   4.069  14.674 -0.6614 -0.1508  0.0984
  721TMC3    C710664   0.492   4.022  14.422  0.5462  0.1112  0.4810
  721TMC3    C810665   0.348   4.122  14.865  0.5193 -1.2140  0.4587
  721TMC3    O110666   0.462   3.957  14.322 -0.4148 -0.4895 -0.5373
  721TMC3    O210667   0.442   4.202  14.869 -0.8555 -0.2620  0.1188
  722MPD2     C10668   3.193   2.866  13.598  0.1090 -0.0224 -0.3598
  722MPD2    C110669   3.241   2.969  13.524 -0.6463 -0.1323  0.0558
  722MPD2    C210670   3.185   2.986  13.399 -0.1556 -0.6768  0.7861
  722MPD2    C310671   3.078   2.907  13.355  0.4567  0.3578 -0.0241
  722MPD2    C410672   3.030   2.808  13.436 -0.2099 -0.0633  0.1646
  722MPD2    C510673   3.085   2.785  13.562  0.3502  0.5413  1.0483
  722MPD2     H10674   3.213   3.070  13.338  0.5650 -0.5273  1.3299
  722MPD2    H110675   2.937   2.757  13.413 -0.4445  0.4488 -0.0293
  722MPD2    H210676   3.221   2.860  13.702 -1.6739  0.2938  0.1418
  722MPD2    H310677   3.039   2.723  13.638 -1.1387 -0.3732 -0.5996
  722MPD2     N10678   3.030   2.939  13.220  0.0645  0.2305 -0.2374
  722MPD2    H510679   3.057   3.032  13.189  0.5191  0.5924  1.2364
  722MPD2    N110680   3.339   3.054  13.572 -0.2291 -0.3184 -0.8969
  722MPD2    H710681   3.379   3.116  13.502  1.8976  0.4360  1.0061
  723TMC3    C110682   2.889   2.910  13.026 -0.1181 -0.1558  0.2194
  723TMC3    C210683   2.782   2.842  12.973 -0.1499  0.0740 -0.9970
  723TMC3    C310684   2.700   2.907  12.878 -0.1409  0.4962 -0.9276
  723TMC3    C410685   2.925   3.034  12.986  0.4749  0.0952  0.2068
  723TMC3    C510686   2.846   3.093  12.887 -0.0994 -0.2968  0.2390
  723TMC3    C610687   2.735   3.031  12.836  0.5093  0.7988 -0.6172
  723TMC3     C10688   2.951   2.854  13.146  0.9973  0.3228  0.4877
  723TMC3     O10689   2.922   2.736  13.178  0.5870  0.0217  0.3297
  723TMC3     H10690   2.751   2.745  13.010 -0.4053  0.1043 -1.1277
  723TMC3    H110691   3.009   3.090  13.026  0.6020 -0.2905  0.4767
  723TMC3    H210692   2.685   3.081  12.754  3.2216  1.9547 -1.5608
  723TMC3    C710693   2.904   3.202  12.807 -0.2851  0.4106  0.6449
  723TMC3    C810694   2.574   2.842  12.842 -0.5632 -0.0955 -0.0142
  723TMC3    O110695   2.876   3.211  12.687 -0.0194  0.8498 -0.2728
  723TMC3    O210696   2.475   2.913  12.834  0.2871  0.2725 -0.5657
  724TMC3    C110697   3.085   0.834   9.518 -0.1498 -0.4280 -0.3341
  724TMC3    C210698   3.171   0.806   9.620  0.4608  0.1738 -0.0687
  724TMC3    C310699   3.292   0.874   9.621 -0.2913  0.0923  0.0734
  724TMC3    C410700   3.125   0.910   9.414  0.2471 -0.4180 -0.2678
  724TMC3    C510701   3.246   0.972   9.415  0.3032  0.4184 -0.2746
  724TMC3    C610702   3.332   0.962   9.522 -0.5409 -0.6379  0.4844
  724TMC3     C10703   3.003   0.718   9.474 -0.1322  0.0242  0.2146
  724TMC3     O10704   3.052   0.605   9.475 -0.1106 -0.0061  0.7738
  724TMC3     H10705   3.139   0.735   9.695 -0.2415 -0.7339 -1.2134
  724TMC3    H110706   3.056   0.930   9.333 -0.8142  1.2303  1.0595
  724TMC3    H210707   3.429   1.009   9.530 -0.0694 -1.1537 -2.0357
  724TMC3    C710708   3.294   1.029   9.293 -0.2291 -0.2688  0.9194
  724TMC3    C810709   3.383   0.857   9.740  0.5422  0.6695 -0.0461
  724TMC3    O110710   3.211   1.052   9.207  0.0557 -0.0279 -0.4005
  724TMC3    O210711   3.360   0.753   9.804 -0.1063 -0.1519 -0.3386
  725TMC3    C110712   0.029   4.591  13.191  0.0769  0.2414  0.9064
  725TMC3    C210713   4.707   4.572  13.065 -0.2772  0.8929  0.1566
  725TMC3    C310714   4.660   4.445  13.033 -0.0959 -0.2575 -0.0995
  725TMC3    C410715   0.030   4.486  13.282  0.5066  0.2563  0.1718
  725TMC3    C510716   4.716   4.362  13.248 -0.2720 -0.5654 -0.2024
  725TMC3    C610717   4.673   4.337  13.121  0.3190  0.4156 -0.3933
  725TMC3     C10718   0.100   4.721  13.226  0.8077 -0.1337  0.5956
  725TMC3     O10719   0.092   0.095  13.145  0.2169  0.0126  0.7028
  725TMC3     H10720   4.697   4.660  13.002 -4.5551 -0.7491 -1.4674
  725TMC3    H110721   0.057   4.512  13.384 -2.1318  2.0742  0.4044
  725TMC3    H210722   4.636   4.240  13.090 -0.1064  0.2414  0.6666
  725TMC3    C710723   0.039   4.263  13.349  0.3765 -0.1088 -0.2691
  725TMC3    C810724   4.612   4.408  12.900 -0.2311  0.7649 -1.0269
  725TMC3    O110725   0.064   4.301  13.463  0.4391  0.3723 -0.5721
  725TMC3    O210726   4.562   4.294  12.883 -0.0354  0.7085 -0.3300
  726MPD2     C10727   3.290   1.089  10.380  0.5433 -0.7903  0.0671
  726MPD2    C110728   3.167   1.157  10.355  0.1015  0.2729  0.2423
  726MPD2    C210729   3.055   1.086  10.403 -0.3180 -0.0821  0.3730
  726MPD2    C310730   3.077   0.972  10.488  0.2791  0.2223  0.2909
  726MPD2    C410731   3.203   0.919  10.508 -0.3531 -0.1906  0.6442
  726MPD2    C510732   3.308   0.972  10.440 -0.7390  0.2813 -0.1792
  726MPD2     H10733   2.953   1.118  10.388 -0.7428 -1.7250 -0.2516
  726MPD2    H110734   3.214   0.824  10.559  2.9485  0.6452  1.5047
  726MPD2    H210735   3.383   1.124  10.338 -1.0395  1.5940 -1.4145
  726MPD2    H310736   3.404   0.922  10.434  0.0947  1.8787 -0.0068
  726MPD2     N10737   2.969   0.921  10.561 -0.4731 -0.1295  0.4043
  726MPD2    H510738   2.880   0.948  10.521  0.7254 -0.0345 -2.1893
  726MPD2    N110739   3.155   1.268  10.276 -0.1023  0.5171  0.3449
  726MPD2    H710740   3.061   1.289  10.244 -0.6662 -1.5652  0.6002
  727TMC3    C110741   3.212   1.468  10.178  0.4158 -0.9106 -1.0626
  727TMC3    C210742   3.278   1.583  10.195  0.3545  0.6942 -0.0472
  727TMC3    C310743   3.234   1.696  10.137  0.6200 -0.4711 -0.5084
  727TMC3    C410744   3.100   1.465  10.097  0.6815  0.0843  0.0650
  727TMC3    C510745   3.062   1.581  10.024 -0.3416  0.0213 -0.2026
  727TMC3    C610746   3.136   1.697  10.038 -0.1724  0.6328  0.4669
  727TMC3     C10747   3.256   1.348  10.245 -0.7764 -0.4902  0.0057
  727TMC3     O10748   3.368   1.351  10.296 -0.5303 -0.2879  0.1671
  727TMC3     H10749   3.357   1.582  10.270  1.2421  0.5713 -0.9936
  727TMC3    H110750   3.056   1.374  10.057  0.5258  0.7556 -1.2997
  727TMC3    H210751   3.112   1.788   9.984 -0.5649  0.4425  0.3254
  727TMC3    C710752   2.955   1.582   9.924  0.3358 -0.3980 -0.8112
  727TMC3    C810753   3.276   1.819  10.197 -0.5849 -0.2283  0.3023
  727TMC3    O110754   2.943   1.686   9.858  0.3818  0.1978 -0.2563
  727TMC3    O210755   3.364   1.812  10.281  0.0914 -0.4846 -0.1600
  728TMC3    C110756   2.156   4.613  15.712 -0.0536 -0.0882  0.5842
  728TMC3    C210757   2.282   4.661  15.748 -0.6602  0.1598 -0.2432
  728TMC3    C310758   2.341   0.031  15.666 -0.7320  0.3977 -0.2415
  728TMC3    C410759   2.084   4.653  15.606 -0.5616  0.3162 -0.7912
  728TMC3    C510760   2.151   0.019  15.530 -0.3842 -0.1220  1.2645
  728TMC3    C610761   2.272   0.077  15.559 -0.3355  0.2750  0.3025
  728TMC3     C10762   2.079   4.564  15.832 -0.3217  0.3348  0.5268
  728TMC3     O10763   2.107   4.617  15.939  0.3227 -0.8497  0.1380
  728TMC3     H10764   2.322   4.635  15.845 -3.4252 -1.1790  0.5440
  728TMC3    H110765   1.996   4.597  15.576 -1.4062 -0.3405  2.9876
  728TMC3    H210766   2.319   0.147  15.491 -1.8774  1.3424  0.3288
  728TMC3    C710767   2.084   0.047  15.404  0.8184 -0.4204  0.5376
  728TMC3    C810768   2.428   0.120  15.738 -0.2048  0.0747  0.4241
  728TMC3    O110769   2.012   4.684  15.355  0.3414 -0.7203 -0.2869
  728TMC3    O210770   2.496   0.072  15.829  0.0189  0.6672  0.1523
  729MPD2     C10771   4.101   1.126  17.251  0.6465  0.4945  0.2346
  729MPD2    C110772   4.215   1.184  17.202 -0.7588 -0.6014  0.5068
  729MPD2    C210773   4.290   1.252  17.291  0.1947  0.0211 -0.0104
  729MPD2    C310774   4.263   1.262  17.427  0.4276  0.3545 -0.0132
  729MPD2    C410775   4.149   1.199  17.474  0.5283 -0.0584 -0.6250
  729MPD2    C510776   4.073   1.132  17.383 -0.0098 -0.3095 -0.8645
  729MPD2     H10777   4.375   1.307  17.253 -0.3716  0.2979 -0.8863
  729MPD2    H110778   4.112   1.199  17.576  2.3300  1.6279  0.0142
  729MPD2    H210779   4.028   1.072  17.191  0.7042 -1.8819  2.3052
  729MPD2    H310780   3.976   1.101  17.421  0.3295 -2.7628 -2.0295
  729MPD2     N10781   4.333   1.344  17.522 -0.4231 -0.3018 -0.9404
  729MPD2    H510782   4.283   1.374  17.605  0.0356  0.0419 -0.7865
  729MPD2    N110783   4.236   1.178  17.064 -0.1360  0.0276 -0.0405
  729MPD2    H710784   4.161   1.144  17.006 -0.4851  0.1311  0.3513
  730TMC3    C110785   4.459   1.544  17.563 -0.1760 -0.2669  0.0086
  730TMC3    C210786   4.582   1.601  17.553 -0.4409 -0.5606 -0.1711
  730TMC3    C310787   4.597   1.732  17.587 -0.3056 -0.5135  0.0240
  730TMC3    C410788   4.347   1.604  17.619 -0.1415  0.0039  0.8095
  730TMC3    C510789   4.372   1.736  17.647  0.4009  0.3309 -0.0578
  730TMC3    C610790   4.490   1.800  17.626 -0.1853  0.0017  0.1999
  730TMC3     C10791   4.444   1.423  17.489  0.2448 -0.2182 -0.0457
  730TMC3     O10792   4.536   1.405  17.411 -0.4303 -0.2808  0.1433
  730TMC3     H10793   4.667   1.553  17.507  0.8295  1.0873  0.4296
  730TMC3    H110794   4.247   1.562  17.615  0.0457 -0.3531 -0.2919
  730TMC3    H210795   4.504   1.907  17.638 -1.1851  0.1169  0.2853
  730TMC3    C710796   4.251   1.823  17.642 -0.0035 -0.6398  0.7247
  730TMC3    C810797   4.664   1.797  17.480 -0.1060  0.0794 -0.0747
  730TMC3    O110798   4.148   1.772  17.600 -0.2394 -0.3119 -0.2893
  730TMC3    O210799   4.655   1.750  17.370  0.4503  0.2331 -0.0669
  731MPD2     C10800   4.301   3.641  13.016  0.7729  0.4380 -0.4017
  731MPD2    C110801   4.397   3.737  13.059 -0.4313  0.1531  0.0386
  731MPD2    C210802   4.414   3.751  13.190  0.4455 -0.6106  0.4036
  731MPD2    C310803   4.337   3.685  13.282  0.0481  0.5150  0.1023
  731MPD2    C410804   4.238   3.601  13.242  0.3184  0.0192 -0.3578
  731MPD2    C510805   4.224   3.571  13.108 -0.1190 -0.5329  0.0963
  731MPD2     H10806   4.484   3.822  13.231 -1.0967  1.3854 -0.4023
  731MPD2    H110807   4.179   3.537  13.307  0.1034  1.7879  1.1576
  731MPD2    H210808   4.289   3.627  12.909 -1.7305  0.4574 -0.1297
  731MPD2    H310809   4.152   3.502  13.067 -0.0957  0.5756 -1.7906
  731MPD2     N10810   4.360   3.713  13.423  0.0347  0.1238 -0.1539
  731MPD2    H510811   4.443   3.770  13.439 -0.4568  0.7884  0.0188
  731MPD2    N110812   4.464   3.816  12.956  0.5631 -1.0552  0.5624
  731MPD2    H710813   4.445   3.798  12.858 -0.5266  0.8897  0.4126
  732TMC3    C110814   4.623   3.957  12.866 -0.6368  0.2140 -0.1921
  732TMC3    C210815   4.587   3.906  12.732 -0.1702 -0.5180  0.1181
  732TMC3    C310816   4.648   3.968  12.626 -0.5804 -0.7333  0.3327
  732TMC3    C410817   0.007   4.042  12.885  0.6968  0.1159 -0.6417
  732TMC3    C510818   0.071   4.084  12.769  0.2399 -0.4238 -0.0024
  732TMC3    C610819   0.032   4.050  12.641 -0.0840  1.2088 -0.2498
  732TMC3     C10820   4.561   3.904  12.983  0.2461 -0.6941  0.6216
  732TMC3     O10821   4.589   3.963  13.090 -0.6400 -0.2572 -0.8986
  732TMC3     H10822   4.499   3.848  12.708 -0.1005 -0.0480 -1.2776
  732TMC3    H110823   0.039   4.069  12.985 -0.7210 -0.4710 -0.0263
  732TMC3    H210824   0.087   4.091  12.557  0.5506  2.9865  1.0117
  732TMC3    C710825   0.183   4.178  12.777  0.3906  0.1062 -0.1104
  732TMC3    C810826   4.612   3.932  12.492 -0.0974 -0.0152  0.0294
  732TMC3    O110827   0.222   4.243  12.684  0.1441 -0.1418  0.9558
  732TMC3    O210828   4.702   3.957  12.410 -0.3492 -0.0031  0.2134
  733TMC3    C110829   0.397   2.812  12.655  0.1838  0.0643  0.1286
  733TMC3    C210830   0.524   2.771  12.682  0.6723  0.4131  0.1011
  733TMC3    C310831   0.623   2.857  12.654  0.6350 -0.5267 -0.3936
  733TMC3    C410832   0.372   2.934  12.605 -0.3812  0.4863  0.8894
  733TMC3    C510833   0.476   3.027  12.593  0.0268  0.5904 -0.0543
  733TMC3    C610834   0.604   2.987  12.613  0.5510 -0.2682  0.2035
  733TMC3     C10835   0.302   2.778  12.758 -0.2484 -0.1844  0.0235
  733TMC3     O10836   0.245   2.868  12.821 -0.3759  0.0053 -0.6746
  733TMC3     H10837   0.545   2.670  12.717  0.4934 -0.2265 -1.6121
  733TMC3    H110838   0.272   2.977  12.609  0.5931  2.7319  1.4317
  733TMC3    H210839   0.682   3.060  12.596  0.1008  0.3149  0.6123
  733TMC3    C710840   0.444   3.168  12.583 -0.2005 -0.5720 -0.2128
  733TMC3    C810841   0.744   2.843  12.737 -0.4328 -0.8818 -0.4735
  733TMC3    O110842   0.381   3.202  12.482 -0.0015  0.5188  0.2282
  733TMC3    O210843   0.780   2.729  12.763 -0.0516 -0.8847  0.7506
  734MPD2     C10844   2.964   4.662  12.599  0.3013 -0.4230 -0.1412
  734MPD2    C110845   2.826   4.644  12.599  0.0314  0.1307  0.1967
  734MPD2    C210846   2.740   0.021  12.563  0.4734 -0.4740  0.5925
  734MPD2    C310847   2.788   0.146  12.524 -0.3872  0.8257  0.2735
  734MPD2    C410848   2.923   0.167  12.524 -0.6038 -0.1678  0.0485
  734MPD2    C510849   3.008   0.065  12.564  0.0426 -0.5215 -0.4826
  734MPD2     H10850   2.632   0.013  12.558  0.3577  0.9389  0.6854
  734MPD2    H110851   2.968   0.261  12.497 -0.2226  0.3821  2.6200
  734MPD2    H210852   3.035   4.581  12.611  0.7950  0.0710  0.2955
  734MPD2    H310853   3.115   0.078  12.571  0.1256 -0.0113 -2.8837
  734MPD2     N10854   2.691   0.236  12.471  0.6707 -0.0769  0.8182
  734MPD2    H510855   2.591   0.221  12.485  0.6682 -0.7679  0.0899
  734MPD2    N110856   2.788   4.512  12.626  0.1589 -0.0417  0.5598
  734MPD2    H710857   2.858   4.439  12.635 -1.9071 -2.2652 -1.1530
  735TMC3    C110858   2.642   4.334  12.674  0.0896  0.5227  0.1203
  735TMC3    C210859   2.507   4.315  12.641  0.4191  0.6861  0.5441
  735TMC3    C310860   2.467   4.210  12.558 -0.6000  0.3959  0.7155
  735TMC3    C410861   2.739   4.244  12.635  0.3040  0.0757  0.3948
  735TMC3    C510862   2.692   4.136  12.559 -0.0724  0.3794 -0.2608
  735TMC3    C610863   2.560   4.114  12.519  0.2260  0.1875  0.6928
  735TMC3     C10864   2.662   4.473  12.643 -0.1991 -0.2068  0.0271
  735TMC3     O10865   2.557   4.539  12.646  0.1703  0.2330  0.0695
  735TMC3     H10866   2.432   4.362  12.704 -2.1453 -4.3890  1.2484
  735TMC3    H110867   2.830   4.233  12.693  0.7351  0.4042 -0.2172
  735TMC3    H210868   2.530   4.036  12.451  3.0842  0.9987 -1.4525
  735TMC3    C710869   2.786   4.038  12.509  0.3182 -0.3591 -0.3072
  735TMC3    C810870   2.372   4.251  12.447  0.0104 -0.4895 -0.1580
  735TMC3    O110871   2.730   3.940  12.464 -0.1886  0.2781  0.1343
  735TMC3    O210872   2.338   4.170  12.364 -0.1881  0.0234 -0.8000
  736MPD2     C10873   3.021   3.893  12.418  0.6460  1.1589  0.4278
  736MPD2    C110874   3.026   4.027  12.442 -0.1561  0.1957 -0.3088
  736MPD2    C210875   3.129   4.102  12.388 -0.0916  0.8217  0.0256
  736MPD2    C310876   3.234   4.045  12.311  0.6295 -1.0126  0.1233
  736MPD2    C410877   3.233   3.911  12.291  0.7670  0.4851 -0.6341
  736MPD2    C510878   3.135   3.838  12.354  0.2319  0.4051 -0.0258
  736MPD2     H10879   3.125   4.210  12.398 -0.1087  0.9077 -0.9196
  736MPD2    H110880   3.312   3.852  12.246 -0.2632 -0.3267 -1.3635
  736MPD2    H210881   2.943   3.834  12.463  3.5500 -0.9610  2.6907
  736MPD2    H310882   3.140   3.732  12.332  0.3543  0.6394 -1.1150
  736MPD2     N10883   3.332   4.116  12.245  0.4065  0.7779 -0.8318
  736MPD2    H510884   3.398   4.062  12.191  0.5659 -1.8099  1.9111
  736MPD2    N110885   2.910   4.094  12.480 -0.0232 -0.1868 -0.0017
  736MPD2    H710886   2.925   4.190  12.509  0.6902  0.0853 -1.2798
  737TMC3    C110887   3.463   4.286  12.151  0.5669  0.0226  0.1949
  737TMC3    C210888   3.445   4.399  12.070 -0.2408  0.2393 -0.3203
  737TMC3    C310889   3.479   4.400  11.938 -0.6150 -0.2873  0.4704
  737TMC3    C410890   3.522   4.179  12.093  0.2976 -0.6350 -1.0976
  737TMC3    C510891   3.557   4.188  11.957  0.6836  0.2364  0.5526
  737TMC3    C610892   3.537   4.294  11.873 -0.6136  0.0992  0.3716
  737TMC3     C10893   3.355   4.256  12.241  0.2999 -0.9012  0.0740
  737TMC3     O10894   3.296   4.353  12.286 -0.2202 -0.1346  0.1530
  737TMC3     H10895   3.396   4.484  12.116 -0.0909 -0.1454  0.5422
  737TMC3    H110896   3.553   4.090  12.148  1.1453  0.1753 -0.2651
  737TMC3    H210897   3.562   4.309  11.769 -0.2594  1.1948  0.6151
  737TMC3    C710898   3.568   4.056  11.893  0.6242  0.0388  0.6753
  737TMC3    C810899   3.490   4.535  11.885 -0.2972 -0.5508 -0.1137
  737TMC3    O110900   3.514   3.960  11.949 -0.1805 -0.5645 -0.3469
  737TMC3    O210901   3.486   4.628  11.966  0.0839  0.1562  0.4537
  738MPD2     C10902   3.101   3.127  15.073 -0.0988  0.1278  0.3745
  738MPD2    C110903   3.030   3.196  15.166 -0.3105  0.0597 -0.0761
  738MPD2    C210904   3.093   3.309  15.220 -0.3922 -0.1575 -0.7653
  738MPD2    C310905   3.220   3.350  15.179  0.1546  0.9552 -0.4835
  738MPD2    C410906   3.286   3.276  15.087 -0.2504 -0.3479  0.1255
  738MPD2    C510907   3.229   3.162  15.039 -0.5882  0.3977 -0.0905
  738MPD2     H10908   3.040   3.367  15.295  1.2856  1.0764 -0.5345
  738MPD2    H110909   3.383   3.315  15.056  1.4297 -2.7259  2.4061
  738MPD2    H210910   3.064   3.040  15.020  0.6624  1.3094 -2.1330
  738MPD2    H310911   3.275   3.095  14.968  1.7751  2.5436 -0.5692
  738MPD2     N10912   3.288   3.463  15.240  0.2900 -0.0813  1.1773
  738MPD2    H510913   3.383   3.485  15.212 -0.4084  2.4359  0.7720
  738MPD2    N110914   2.907   3.151  15.219 -0.2741 -0.0049  0.3911
  738MPD2    H710915   2.863   3.220  15.279  1.4936  1.4998 -0.0354
  739TMC3    C110916   3.334   3.664  15.357 -0.3115 -0.3398 -0.1048
  739TMC3    C210917   3.431   3.648  15.262  0.6889 -0.4317 -0.2415
  739TMC3    C310918   3.553   3.595  15.297 -0.2872  0.1726 -0.4061
  739TMC3    C410919   3.369   3.655  15.488 -0.1932 -0.6225  0.2328
  739TMC3    C510920   3.484   3.587  15.520 -0.0264 -0.1648  0.9177
  739TMC3    C610921   3.586   3.571  15.429  0.0102 -0.0233  0.2334
  739TMC3     C10922   3.236   3.554  15.337  0.2514 -0.0033 -0.0905
  739TMC3     O10923   3.135   3.551  15.408  0.2011  0.3505  0.5826
  739TMC3     H10924   3.408   3.682  15.162  1.2503 -0.0750 -0.2448
  739TMC3    H110925   3.288   3.657  15.561 -1.2086 -0.3901 -0.8916
  739TMC3    H210926   3.673   3.514  15.459  1.2250  1.6481 -0.0989
  739TMC3    C710927   3.476   3.509  15.639 -0.3452  0.0308  0.1319
  739TMC3    C810928   3.637   3.542  15.191 -0.0796  0.0979 -0.3002
  739TMC3    O110929   3.397   3.552  15.723  0.1467 -0.1281  0.1717
  739TMC3    O210930   3.582   3.542  15.082 -0.2248 -0.1195  0.0055
  740TMC3    C110931   4.373   4.460  14.542 -0.9969  0.2762 -0.0639
  740TMC3    C210932   4.407   4.420  14.668  0.3259  1.0422  0.5578
  740TMC3    C310933   4.541   4.384  14.685 -0.2303  0.2939 -0.4299
  740TMC3    C410934   4.461   4.475  14.438 -0.8189  0.5917 -0.2479
  740TMC3    C510935   4.589   4.447  14.465 -0.7649 -0.0374  0.2707
  740TMC3    C610936   4.632   4.389  14.583  0.7453  0.1653 -0.3359
  740TMC3     C10937   4.231   4.474  14.502  0.2709 -0.3461  1.0939
  740TMC3     O10938   4.201   4.442  14.390  0.0692 -0.4902 -0.0258
  740TMC3     H10939   4.336   4.395  14.746 -0.3078  0.4041 -0.2179
  740TMC3    H110940   4.433   4.502  14.336 -1.6523  1.1603  0.1321
  740TMC3    H210941   0.016   4.373  14.599  0.4299 -1.2966  0.3690
  740TMC3    C710942   4.685   4.438  14.351 -0.0480  0.5237  0.0115
  740TMC3    C810943   4.584   4.353  14.818  0.3226 -0.0164  0.7386
  740TMC3    O110944   0.050   4.349  14.370 -0.0358 -0.4421 -0.2683
  740TMC3    O210945   4.702   4.320  14.821 -0.1011  0.4160  0.0350
  741TMC3    C110946   4.006   3.767  14.816 -0.0124  0.2307 -0.4542
  741TMC3    C210947   3.896   3.753  14.738  0.0032  0.7019  0.1175
  741TMC3    C310948   3.775   3.725  14.798 -0.0595  0.2338 -0.3621
  741TMC3    C410949   4.002   3.783  14.953 -0.1462 -0.1397  0.5768
  741TMC3    C510950   3.879   3.784  15.009  1.2014  0.5658  0.5022
  741TMC3    C610951   3.765   3.754  14.934  0.1340 -0.2009  0.0486
  741TMC3     C10952   4.130   3.712  14.757 -0.4070  0.2896  0.3278
  741TMC3     O10953   4.123   3.690  14.636  0.0467  0.0735  0.0073
  741TMC3     H10954   3.895   3.722  14.634 -1.8826 -2.2688  1.0204
  741TMC3    H110955   4.094   3.796  15.009 -0.5944  3.2593  0.5687
  741TMC3    H210956   3.669   3.751  14.985 -1.0061  0.4653 -2.0762
  741TMC3    C710957   3.876   3.834  15.142  0.2193  0.4080 -0.0555
  741TMC3    C810958   3.649   3.698  14.723 -0.0478 -0.8093  0.0744
  741TMC3    O110959   3.982   3.871  15.197  0.3093 -0.2115  0.1560
  741TMC3    O210960   3.637   3.742  14.608 -0.3663  0.3999 -0.0113
  742TMC3    C110961   3.152   2.202  15.436  0.3311 -1.1101 -0.5117
  742TMC3    C210962   3.069   2.217  15.328  0.1738  0.0426 -0.2712
  742TMC3    C310963   3.122   2.177  15.205 -0.0890  0.1308  0.6248
  742TMC3    C410964   3.283   2.179  15.420  0.3527  0.1592 -0.2278
  742TMC3    C510965   3.339   2.165  15.299  0.4313 -0.3865  0.5654
  742TMC3    C610966   3.258   2.161  15.188  0.0706  0.7061 -0.0823
  742TMC3     C10967   3.116   2.240  15.569 -0.3393  0.9348 -0.3387
  742TMC3     O10968   3.192   2.211  15.662 -0.0631 -0.1478 -0.1168
  742TMC3     H10969   2.965   2.221  15.356  0.5854 -1.7427  1.5803
  742TMC3    H110970   3.345   2.165  15.507  0.0223  1.6109  0.2333
  742TMC3    H210971   3.296   2.147  15.088  1.5383  1.4222  0.3859
  742TMC3    C710972   3.481   2.151  15.274  0.2363 -0.4567 -0.5508
  742TMC3    C810973   3.041   2.153  15.085 -0.1687  0.3612 -0.1241
  742TMC3    O110974   3.522   2.107  15.170  0.0219  0.3323  0.1237
  742TMC3    O210975   3.097   2.090  14.995 -0.2671  0.0354  0.4447
  743MPD2     C10976   0.832   3.648   1.978 -0.3609  0.0112  0.1804
  743MPD2    C110977   0.886   3.565   1.878  0.0387 -1.1682  0.0015
  743MPD2    C210978   1.002   3.495   1.910 -0.4980 -0.0709  0.2346
  743MPD2    C310979   1.062   3.509   2.028 -0.2930 -0.0637  1.1015
  743MPD2    C410980   1.024   3.608   2.118  0.0436 -0.5221  0.1584
  743MPD2    C510981   0.908   3.679   2.090  0.2441 -0.3327 -0.1799
  743MPD2     H10982   1.038   3.417   1.844 -0.5751  0.8056 -0.8479
  743MPD2    H110983   1.047   3.608   2.224  2.3880  3.2935 -0.3297
  743MPD2    H210984   0.733   3.692   1.969 -0.5201  0.2531  2.9914
  743MPD2    H310985   0.872   3.750   2.163 -1.6084 -1.3601 -0.1081
  743MPD2     N10986   1.177   3.431   2.051  0.5990  0.4673 -0.0590
  743MPD2    H510987   1.199   3.353   1.991  0.6042  0.9912 -0.7351
  743MPD2    N110988   0.808   3.543   1.765 -0.0453 -0.0787  0.0101
  743MPD2    H710989   0.726   3.603   1.762  0.8207  1.0943 -0.3984
  744TMC3    C110990   0.753   3.481   1.550  0.6093  0.5498  0.1535
  744TMC3    C210991   0.697   3.608   1.526 -0.5414  0.5665  0.2143
  744TMC3    C310992   0.655   3.637   1.401  0.0761  0.1498  0.0621
  744TMC3    C410993   0.759   3.387   1.450  0.0833 -0.2761  0.9751
  744TMC3    C510994   0.716   3.421   1.328  0.4736 -0.2454  0.5534
  744TMC3    C610995   0.656   3.543   1.304  0.5215 -0.5812 -0.4017
  744TMC3     C10996   0.834   3.455   1.668 -0.4508 -1.2089 -0.4824
  744TMC3     O10997   0.920   3.362   1.659 -0.4535 -0.1518  0.1749
  744TMC3     H10998   0.694   3.685   1.603  0.7331  1.2307 -0.3924
  744TMC3    H110999   0.816   3.297   1.473 -1.9122 -1.3542  1.6772
  744TMC3    H211000   0.623   3.566   1.204  0.9373  0.0536 -0.3944
  744TMC3    C711001   0.755   3.343   1.213  0.1836 -0.5132  0.2460
  744TMC3    C811002   0.543   3.730   1.379  0.6581  0.3129 -0.0340
  744TMC3    O111003   0.773   3.398   1.108  0.0061  0.0885 -0.2681
  744TMC3    O211004   0.491   3.735   1.272  1.0043 -0.3039  0.0104
  745TMC3    C111005   4.013   2.155  13.659 -0.1120  0.5146  0.4486
  745TMC3    C211006   3.956   2.214  13.772  0.3157 -0.6492 -0.5986
  745TMC3    C311007   3.819   2.197  13.787 -0.5881 -0.2721  0.0003
  745TMC3    C411008   3.937   2.081  13.569  0.3222  1.0451  0.1342
  745TMC3    C511009   3.799   2.095  13.575  0.4315  0.3801 -0.0939
  745TMC3    C611010   3.740   2.139  13.688  0.3923  0.2396 -0.7078
  745TMC3     C11011   4.152   2.171  13.631 -0.2057 -0.5145  0.3858
  745TMC3     O11012   4.198   2.120  13.530 -0.1466 -0.1508  0.0391
  745TMC3     H11013   4.013   2.257  13.853 -1.3068  1.3438 -0.5191
  745TMC3    H111014   3.992   2.055  13.479  0.5823 -2.2905  1.2657
  745TMC3    H211015   3.631   2.138  13.689  0.3909  1.6780  0.0717
  745TMC3    C711016   3.741   2.164  13.466  0.6944 -0.0570  0.2234
  745TMC3    C811017   3.748   2.240  13.911 -0.6939  0.2161 -0.6438
  745TMC3    O111018   3.619   2.182  13.472  0.1171  0.6693  0.4306
  745TMC3    O211019   3.629   2.259  13.897 -0.5827  0.3919 -0.1772
  746TMC3    C111020   1.628   3.819  11.320  0.1484  0.6344 -0.4832
  746TMC3    C211021   1.719   3.786  11.228  0.1736  0.2321  0.0670
  746TMC3    C311022   1.726   3.655  11.187 -0.0281  0.4780 -0.4320
  746TMC3    C411023   1.554   3.725  11.387 -0.1379 -0.0412  0.5800
  746TMC3    C511024   1.568   3.591  11.350 -0.3780  0.5824 -0.3418
  746TMC3    C611025   1.651   3.558  11.250  0.0859  0.7063  0.2031
  746TMC3     C11026   1.625   3.952  11.381  0.3452  0.0030  0.1937
  746TMC3     O11027   1.578   3.963  11.494  0.7562  0.1993  0.0946
  746TMC3     H11028   1.793   3.858  11.195 -0.8179  1.1197 -0.2062
  746TMC3    H111029   1.494   3.755  11.471 -0.1461  1.8884 -0.1093
  746TMC3    H211030   1.637   3.460  11.206  1.4548  1.4040 -1.7601
  746TMC3    C711031   1.454   3.502  11.371  0.2328 -0.3883 -0.1588
  746TMC3    C811032   1.804   3.626  11.073 -0.0649  0.0585  0.3578
  746TMC3    O111033   1.417   3.434  11.278  0.4313 -0.2347  0.4746
  746TMC3    O211034   1.826   3.509  11.058 -0.4122  0.8698 -0.0958
  747TMC3    C111035   4.323   3.794  11.188  0.4889 -0.3454 -0.0413
  747TMC3    C211036   4.225   3.748  11.272  0.9436 -0.5432 -0.5975
  747TMC3    C311037   4.160   3.836  11.351  0.6447 -0.5956  0.4257
  747TMC3    C411038   4.357   3.930  11.181  0.3614 -0.2769  0.7495
  747TMC3    C511039   4.288   4.016  11.269 -0.4181 -0.8882 -0.4757
  747TMC3    C611040   4.188   3.970  11.352 -0.3620 -0.5328  0.1131
  747TMC3     C11041   4.398   3.703  11.101 -0.3329  0.3489  0.0252
  747TMC3     O11042   4.489   3.749  11.044 -0.0663  0.4316 -0.0555
  747TMC3     H11043   4.231   3.643  11.297 -1.3750 -0.6098 -0.3771
  747TMC3    H111044   4.432   3.967  11.113  0.5723 -1.4995  0.3051
  747TMC3    H211045   4.126   4.033  11.415  0.7968  0.6889  0.0302
  747TMC3    C711046   4.320   4.151  11.289 -0.7589 -0.9311 -0.3230
  747TMC3    C811047   4.061   3.773  11.436 -0.0517  0.5624  0.0532
  747TMC3    O111048   4.282   4.204  11.394 -0.4203  0.5244 -0.2394
  747TMC3    O211049   4.054   3.648  11.436  0.2464  0.1222  0.0714
  748MPD2     C11050   4.422   4.699   0.931 -0.8204  0.0326  0.3228
  748MPD2    C111051   4.441   4.700   1.066 -0.3320  0.3514  0.1520
  748MPD2    C211052   4.565   4.700   1.121 -0.3306  0.4128  0.2241
  748MPD2    C311053   4.674   0.005   1.031 -0.0540 -0.4613 -0.2497
  748MPD2    C411054   4.652   0.022   0.893 -0.4363  0.1501 -0.6918
  748MPD2    C511055   4.525   0.011   0.849  0.1841  0.2338  0.1055
  748MPD2     H11056   4.594   4.699   1.225 -0.2697  0.9744  0.2144
  748MPD2    H111057   0.004   0.030   0.814  0.4415 -0.6563  0.0478
  748MPD2    H211058   4.325   4.670   0.891 -1.1357 -1.9786  2.5262
  748MPD2    H311059   4.501   0.018   0.743 -1.5396  1.1228  0.5572
  748MPD2     N11060   0.082   0.003   1.086 -0.4601  0.9949  0.1696
  748MPD2    H511061   0.095   4.706   1.184 -0.8498 -0.8858 -0.1415
  748MPD2    N111062   4.325   4.674   1.143 -0.2327 -0.3302  0.3383
  748MPD2    H711063   4.234   4.670   1.098 -0.5244 -0.6708  0.9475
  749TMC3    C111064   0.306   0.032   1.103 -0.4592  0.2639 -1.2583
  749TMC3    C211065   0.319   4.644   1.184 -0.2559  0.0663  0.4495
  749TMC3    C311066   0.436   4.622   1.255  0.4301  0.3861 -0.5334
  749TMC3    C411067   0.414   0.118   1.077  0.5597  0.0081 -0.2448
  749TMC3    C511068   0.534   0.083   1.140  0.3892 -1.1754  0.0140
  749TMC3    C611069   0.544   4.704   1.240 -0.2837  0.1455 -0.1606
  749TMC3     C11070   0.192   0.055   1.021 -0.5334 -0.5387  0.2091
  749TMC3     O11071   0.199   0.146   0.934  0.1812 -0.1854 -0.3335
  749TMC3     H11072   0.247   4.563   1.182 -2.1222  1.7740 -1.1266
  749TMC3    H111073   0.406   0.207   1.016 -0.4654 -0.6145 -1.0104
  749TMC3    H211074   0.626   4.704   1.310 -0.9256  1.9849  0.5993
  749TMC3    C711075   0.645   0.171   1.129  0.5978  0.2866  0.5559
  749TMC3    C811076   0.448   4.496   1.320  0.6774 -0.0909  0.0406
  749TMC3    O111077   0.627   0.289   1.091  0.3190 -0.3140 -0.2554
  749TMC3    O211078   0.340   4.447   1.353  0.5898 -0.0556 -0.0747
  750MPD2     C11079   1.993   1.054  11.322 -0.7432  0.3726 -0.2068
  750MPD2    C111080   1.876   1.023  11.263  0.0086 -0.0338  0.0869
  750MPD2    C211081   1.856   0.887  11.226 -0.0817  0.2502 -0.0559
  750MPD2    C311082   1.950   0.785  11.254 -0.0679 -0.0678 -0.0076
  750MPD2    C411083   2.072   0.831  11.291  0.3526  0.4806 -0.3638
  750MPD2    C511084   2.095   0.958  11.330 -0.0936  0.2090  1.0813
  750MPD2     H11085   1.761   0.860  11.180 -0.6318  1.0431  0.6376
  750MPD2    H111086   2.146   0.754  11.306 -1.1466  0.0396  4.6455
  750MPD2    H211087   2.015   1.159  11.338  0.1961 -0.0339  1.1739
  750MPD2    H311088   2.199   0.984  11.348  0.1207 -0.2550  0.4991
  750MPD2     N11089   1.932   0.646  11.240 -0.1113  0.2757 -0.4460
  750MPD2    H511090   2.006   0.585  11.272  0.0403  0.2743 -0.7984
  750MPD2    N111091   1.783   1.130  11.234 -0.7941 -0.2482 -0.1765
  750MPD2    H711092   1.806   1.222  11.269  0.4346  0.0755 -1.8224
  751TMC3    C111093   1.818   0.445  11.221 -0.6643 -0.3430  0.0076
  751TMC3    C211094   1.714   0.376  11.279 -0.3881 -0.0170  0.4461
  751TMC3    C311095   1.715   0.239  11.271 -0.9063 -0.7389  0.0712
  751TMC3    C411096   1.930   0.380  11.172  0.9348 -0.2346  0.2093
  751TMC3    C511097   1.934   0.247  11.185  0.7392  0.3187 -0.2856
  751TMC3    C611098   1.819   0.180  11.218  0.3730  0.0209  0.1641
  751TMC3     C11099   1.819   0.587  11.200 -0.7152 -0.8277  0.4868
  751TMC3     O11100   1.713   0.644  11.202  0.9224  0.0047 -0.1453
  751TMC3     H11101   1.623   0.429  11.308 -0.2052 -0.2650  1.4641
  751TMC3    H111102   2.011   0.442  11.134 -0.1179  1.7139  1.1282
  751TMC3    H211103   1.806   0.074  11.195  1.8731 -0.1744  0.2004
  751TMC3    C711104   2.036   0.163  11.120 -0.2553  0.3585  0.3883
  751TMC3    C811105   1.590   0.169  11.274  0.0405 -0.5031  0.0011
  751TMC3    O111106   2.127   0.226  11.064  0.5924 -0.4618  0.1987
  751TMC3    O211107   1.573   0.095  11.177  0.2808 -0.5601  0.0269
  752TMC3    C111108   0.253   1.793  17.186 -0.6152 -0.2762 -0.0116
  752TMC3    C211109   0.231   1.677  17.255 -0.1524  0.0285 -1.0209
  752TMC3    C311110   0.254   1.676  17.390  0.8049  1.0485  0.4561
  752TMC3    C411111   0.316   1.899  17.241  0.8126  0.8427  0.2007
  752TMC3    C511112   0.357   1.890  17.371  0.1005 -0.8508 -0.2436
  752TMC3    C611113   0.328   1.782  17.447  0.1924 -0.2949  0.3228
  752TMC3     C11114   0.207   1.809  17.047 -0.3148 -0.4143  0.2047
  752TMC3     O11115   0.239   1.912  16.989 -0.2036  0.5504 -0.3632
  752TMC3     H11116   0.192   1.592  17.201 -1.8501  0.2063 -0.0485
  752TMC3    H111117   0.325   1.989  17.183 -0.3618  0.5924 -0.3632
  752TMC3    H211118   0.362   1.775  17.550  2.3365 -2.3265 -0.5147
  752TMC3    C711119   0.461   1.976  17.419 -0.7922 -0.3616  0.0261
  752TMC3    C811120   0.228   1.555  17.468 -0.2796 -0.5668 -0.5339
  752TMC3    O111121   0.499   1.963  17.537  0.2813 -0.0667  0.1823
  752TMC3    O211122   0.200   1.460  17.392 -0.3626 -0.2086  0.1811
  753TMC3    C111123   2.242   2.172  13.303  0.5461 -0.2145 -0.9559
  753TMC3    C211124   2.290   2.161  13.428 -1.0433  0.4007  0.2637
  753TMC3    C311125   2.275   2.038  13.482 -0.4330  0.4857  0.3943
  753TMC3    C411126   2.185   2.076  13.229 -0.7473  0.1642  0.7185
  753TMC3    C511127   2.150   1.968  13.298  0.1570  0.7050 -0.3950
  753TMC3    C611128   2.206   1.937  13.417 -0.7736  0.3187 -0.0541
  753TMC3     C11129   2.224   2.309  13.255  0.1016 -0.4125 -0.7134
  753TMC3     O11130   2.125   2.339  13.190  0.1394  0.2054  0.1040
  753TMC3     H11131   2.320   2.253  13.478 -0.3339 -0.7485  1.9440
  753TMC3    H111132   2.134   2.087  13.134 -1.0027 -2.4634  0.5742
  753TMC3    H211133   2.200   1.835  13.451 -0.0248 -0.4214 -2.1256
  753TMC3    C711134   2.053   1.880  13.245 -0.9858 -0.3611 -0.1164
  753TMC3    C811135   2.319   2.004  13.614 -0.0203 -0.5752  0.2440
  753TMC3    O111136   2.051   1.855  13.123 -0.6048 -0.0386  0.1664
  753TMC3    O211137   2.281   1.898  13.656 -0.1826  0.4355 -0.6334
  754MPD2     C11138   1.005   0.834  12.875  0.2083  0.9018 -0.5321
  754MPD2    C111139   0.946   0.709  12.885  0.2749  0.3608  0.4239
  754MPD2    C211140   0.810   0.704  12.885 -0.6299  0.7983  0.6236
  754MPD2    C311141   0.735   0.826  12.883 -0.0324 -0.0328 -0.2113
  754MPD2    C411142   0.794   0.954  12.873  0.1686 -0.8252 -0.2473
  754MPD2    C511143   0.929   0.953  12.864  0.4772 -0.8497  0.3774
  754MPD2     H11144   0.758   0.609  12.889  0.1917  0.3865  1.3748
  754MPD2    H111145   0.731   1.042  12.865 -0.9865 -1.5834  0.5347
  754MPD2    H211146   1.113   0.842  12.875  0.1897  1.2196  2.4217
  754MPD2    H311147   0.980   1.047  12.843 -1.9493 -0.0890 -2.1994
  754MPD2     N11148   0.593   0.827  12.899  0.1773 -0.0048  0.1358
  754MPD2    H511149   0.544   0.915  12.882 -0.0121  0.2104  1.7541
  754MPD2    N111150   1.024   0.602  12.933 -0.0969  0.7187  0.2286
  754MPD2    H711151   1.125   0.614  12.933  0.0549 -0.5516  2.6888
  755MPD2     C11152   0.683   1.124  13.705  0.7070 -0.0969  0.8256
  755MPD2    C111153   0.581   1.186  13.643  0.2633 -0.0491  0.3381
  755MPD2    C211154   0.527   1.114  13.534 -0.1055  0.4395  0.3784
  755MPD2    C311155   0.556   0.980  13.506 -1.2539 -0.6261  0.0179
  755MPD2    C411156   0.637   0.911  13.597 -0.2731 -0.5152  0.2644
  755MPD2    C511157   0.698   0.989  13.694 -0.1897 -0.6964  0.3807
  755MPD2     H11158   0.447   1.165  13.480 -0.3271 -0.1220  0.1777
  755MPD2    H111159   0.662   0.806  13.585 -0.7965 -0.6504  0.3728
  755MPD2    H211160   0.743   1.169  13.783  2.1163  1.1199 -0.9418
  755MPD2    H311161   0.759   0.938  13.768  0.9055 -0.1700 -0.1541
  755MPD2     N11162   0.487   0.913  13.406  0.0352  0.3635  0.1125
  755MPD2    H511163   0.486   0.812  13.416 -0.9094  0.6166  2.4472
  755MPD2    N111164   0.536   1.310  13.675 -0.0910  0.0817 -0.3893
  755MPD2    H711165   0.465   1.349  13.614  2.1322  3.8193 -0.5363
  756MPD2     C11166   1.326   1.030   9.525 -0.9133 -0.5360  0.2278
  756MPD2    C111167   1.342   0.969   9.646 -0.8115 -0.1211  0.1077
  756MPD2    C211168   1.290   0.840   9.675 -0.6033  0.0594  0.0821
  756MPD2    C311169   1.231   0.767   9.577 -0.7449 -0.1032  0.3242
  756MPD2    C411170   1.227   0.827   9.451  0.3335 -0.6374 -0.7305
  756MPD2    C511171   1.270   0.955   9.427  0.6074 -0.0073 -0.2070
  756MPD2     H11172   1.293   0.812   9.780 -3.7680 -0.4181  0.0527
  756MPD2    H111173   1.192   0.776   9.362  2.5820 -0.6914 -1.5832
  756MPD2    H211174   1.357   1.128   9.490 -0.2424 -1.1908 -1.0096
  756MPD2    H311175   1.270   0.992   9.325  2.0338 -0.7121 -0.4673
  756MPD2     N11176   1.203   0.631   9.592 -0.2236  0.0508  0.0018
  756MPD2    H511177   1.241   0.581   9.671  1.1237  0.8783 -0.1171
  756MPD2    N111178   1.397   1.039   9.750  0.2109  0.7419 -0.1748
  756MPD2    H711179   1.411   0.993   9.839  0.6541 -1.9864 -1.6537
  757MPD2     C11180   1.110   4.571  10.200  0.8049 -0.5031 -0.9353
  757MPD2    C111181   1.135   4.521  10.079  0.0362  0.8720 -0.1706
  757MPD2    C211182   1.164   4.598   9.965 -1.2966  0.3692  0.4226
  757MPD2    C311183   1.154   0.015   9.987  0.2547  0.1340 -0.3077
  757MPD2    C411184   1.133   0.065  10.113  0.0483  0.1197  0.2909
  757MPD2    C511185   1.113   4.708  10.219 -0.4603 -0.6889  0.0192
  757MPD2     H11186   1.183   4.554   9.868 -0.9609 -1.2815  1.2363
  757MPD2    H111187   1.128   0.171  10.132  1.0581 -0.3734  3.2509
  757MPD2    H211188   1.083   4.513  10.288  1.0745  1.1255  0.2382
  757MPD2    H311189   1.089   0.033  10.313 -0.2748 -1.4344  0.4397
  757MPD2     N11190   1.171   0.088   9.869 -0.4133 -0.2236 -0.2582
  757MPD2    H511191   1.181   0.039   9.780 -0.3099 -2.5080  1.0203
  757MPD2    N111192   1.137   4.382  10.073  0.2243 -0.2104 -0.4273
  757MPD2    H711193   1.117   4.333  10.160  1.5977  0.8999  0.5046
  758MPD2     C11194   1.079   0.179  16.227 -0.1823  0.0607 -0.3601
  758MPD2    C111195   1.175   0.262  16.289  0.0525 -0.1233  0.1154
  758MPD2    C211196   1.144   0.384  16.343 -0.1081  0.7569 -0.2971
  758MPD2    C311197   1.013   0.421  16.355  0.3837  0.4127  0.4355
  758MPD2    C411198   0.918   0.337  16.301  0.4735  0.3015  0.3652
  758MPD2    C511199   0.952   0.218  16.239  0.0518 -0.2494 -0.4263
  758MPD2     H11200   1.218   0.458  16.370 -0.5343  1.1700 -0.2411
  758MPD2    H111201   0.812   0.357  16.310  0.0068 -3.0126  2.1081
  758MPD2    H211202   1.095   0.078  16.191  0.7094 -0.0812  0.4367
  758MPD2    H311203   0.866   0.157  16.210  0.8904  0.5482 -4.5299
  758MPD2     N11204   0.973   0.531  16.435 -0.1449  0.1882 -0.0660
  758MPD2    H511205   0.873   0.542  16.449 -0.0423 -1.3630  1.8546
  758MPD2    N111206   1.306   0.226  16.269  0.7834  0.5442 -0.0022
  758MPD2    H711207   1.321   0.143  16.214 -0.7807 -0.4389  1.0466
  759MPD2     C11208   0.867   3.306  10.122  0.4456 -0.0229 -0.1669
  759MPD2    C111209   0.776   3.208  10.073 -0.4186 -0.0412  1.0354
  759MPD2    C211210   0.788   3.169   9.937  0.0834  0.0283 -0.1313
  759MPD2    C311211   0.890   3.219   9.865  0.1195  0.2297  0.4609
  759MPD2    C411212   0.961   3.329   9.909 -0.0055 -0.3855  0.6863
  759MPD2    C511213   0.958   3.363  10.039  0.1124  0.2692 -0.5861
  759MPD2     H11214   0.737   3.083   9.896 -0.6155 -0.0310  0.8662
  759MPD2    H111215   1.035   3.375   9.844  1.7080 -1.3187  1.9705
  759MPD2    H211216   0.878   3.328  10.228 -0.7451  1.2371 -0.3081
  759MPD2    H311217   1.030   3.433  10.080 -0.4316  0.1274  0.6089
  759MPD2     N11218   0.921   3.160   9.739  0.1753  0.3117 -0.2319
  759MPD2    H511219   0.873   3.074   9.712  0.0516 -0.1412  1.4144
  759MPD2    N111220   0.677   3.164  10.161  0.8473  0.3191  0.3717
  759MPD2    H711221   0.694   3.197  10.256  0.1461 -0.9613  0.9411
  760MPD2     C11222   4.350   0.923  12.449 -0.3236 -0.1732  0.1093
  760MPD2    C111223   4.439   0.915  12.339  0.1897  0.0636  0.2496
  760MPD2    C211224   4.471   0.794  12.286  0.3571  0.6448  0.8992
  760MPD2    C311225   4.406   0.682  12.335  0.6879 -0.5632 -0.1851
  760MPD2    C411226   4.321   0.689  12.444 -0.6016  0.2112  0.2565
  760MPD2    C511227   4.301   0.811  12.507 -0.1399 -0.4250  0.3087
  760MPD2     H11228   4.540   0.791  12.203  0.4297 -1.0784  1.0110
  760MPD2    H111229   4.273   0.599  12.483 -0.6199 -0.3522 -1.0757
  760MPD2    H211230   4.328   1.021  12.490 -0.2773  0.6678 -1.8471
  760MPD2    H311231   4.245   0.825  12.598 -0.2054 -1.1632  0.3796
  760MPD2     N11232   4.435   0.553  12.286  0.1776  0.1142  0.6981
  760MPD2    H511233   4.392   0.474  12.333 -0.4372  2.4559  3.9779
  760MPD2    N111234   4.497   1.028  12.277  0.2391  0.4106  0.2263
  760MPD2    H711235   4.538   1.024  12.185 -1.2006 -0.4156 -0.3813
  761MPD2     C11236   1.174   0.000  11.516 -0.0702  0.1528  0.3035
  761MPD2    C111237   1.243   4.675  11.408  0.1599  0.3044 -0.4208
  761MPD2    C211238   1.354   0.016  11.362  0.4542  0.4799  0.1443
  761MPD2    C311239   1.400   0.129  11.424 -0.6223 -0.6397 -0.3828
  761MPD2    C411240   1.332   0.174  11.540 -0.4368  0.0991 -0.4393
  761MPD2    C511241   1.216   0.117  11.573 -0.0534 -0.1077  0.4434
  761MPD2     H11242   1.403   4.708  11.270 -1.4197  0.9621 -1.0228
  761MPD2    H111243   1.372   0.247  11.610 -1.3292 -0.5405  0.7564
  761MPD2    H211244   1.097   4.667  11.568  0.1275 -0.7087 -0.3170
  761MPD2    H311245   1.174   0.146  11.669 -2.0729 -1.5608  0.0233
  761MPD2     N11246   1.511   0.204  11.379  0.1135  0.2359 -0.9445
  761MPD2    H511247   1.553   0.270  11.444  0.8517 -0.4659 -0.7046
  761MPD2    N111248   1.195   4.564  11.349 -0.3297 -0.6853 -0.2425
  761MPD2    H711249   1.135   4.499  11.398 -2.2799  0.4963 -1.0862
  762MPD2     C11250   1.568   4.599  10.939  0.1489  0.7731 -0.0012
  762MPD2    C111251   1.558   4.466  10.901  0.2196 -0.3457 -0.4740
  762MPD2    C211252   1.655   4.399  10.826 -0.0975 -0.4213  0.0466
  762MPD2    C311253   1.756   4.476  10.775 -0.0106  0.1335 -0.0108
  762MPD2    C411254   1.768   4.611  10.813 -0.2403 -0.0763  0.2634
  762MPD2    C511255   1.675   4.668  10.892 -0.4948 -0.5448  0.3516
  762MPD2     H11256   1.664   4.291  10.814  0.2903 -0.4312  0.3992
  762MPD2    H111257   1.843   4.676  10.771 -0.8538  1.5451  1.6681
  762MPD2    H211258   1.492   4.643  11.002  0.2845 -1.6327  1.8818
  762MPD2    H311259   1.694   0.048  10.926  0.6029 -0.1147 -1.5601
  762MPD2     N11260   1.856   4.410  10.699  0.1878 -0.1984 -0.1133
  762MPD2    H511261   1.834   4.312  10.685  0.1260 -0.4315  1.6242
  762MPD2    N111262   1.448   4.399  10.957  0.4536 -0.3441  0.9573
  762MPD2    H711263   1.375   4.455  11.001  1.2142  0.0857  1.6561
  763MPD2     C11264   2.861   0.082  16.052 -0.2543 -0.8259 -0.4364
  763MPD2    C111265   2.847   0.215  16.022 -0.0233  0.3501  0.0071
  763MPD2    C211266   2.834   0.308  16.126 -0.4166 -0.1878  0.2134
  763MPD2    C311267   2.841   0.267  16.259 -0.4204 -0.4156  0.1896
  763MPD2    C411268   2.858   0.131  16.280 -1.0269 -0.5786  0.3028
  763MPD2    C511269   2.856   0.039  16.181 -0.4127 -0.0690 -0.5383
  763MPD2     H11270   2.833   0.415  16.112  0.0229 -0.1019  0.8661
  763MPD2    H111271   2.869   0.092  16.381 -1.7751  0.3123  0.7250
  763MPD2    H211272   2.870   0.004  15.977 -0.6629  0.4803 -1.8317
  763MPD2    H311273   2.872   4.658  16.211 -3.7898 -1.2102 -2.7243
  763MPD2     N11274   2.833   0.342  16.379 -0.6040  0.0673  0.1499
  763MPD2    H511275   2.852   0.295  16.467 -1.5666  1.5866  1.1726
  763MPD2    N111276   2.829   0.266  15.890  0.6047 -0.1339 -0.3170
  763MPD2    H711277   2.789   0.358  15.878 -2.7220 -1.0963  3.1561
  764MPD2     C11278   1.423   1.931   0.129  0.4869  0.5979  0.1451
  764MPD2    C111279   1.294   1.975   0.120  0.5713  0.4904 -0.0141
  764MPD2    C211280   1.235   2.023   0.235  0.1242  0.1419  0.0050
  764MPD2    C311281   1.301   2.024   0.358 -0.2747 -0.3026 -0.3437
  764MPD2    C411282   1.428   1.965   0.363  0.3743  0.2307 -0.5029
  764MPD2    C511283   1.487   1.921   0.247  0.1314  0.3612  0.3432
  764MPD2     H11284   1.133   2.058   0.221  0.6994  1.8912  0.1417
  764MPD2    H111285   1.487   1.953   0.452  1.9402 -0.3596 -1.6293
  764MPD2    H211286   1.462   1.880   0.041 -1.1437 -2.5277  1.2480
  764MPD2    H311287   1.586   1.881   0.264 -1.3535 -2.5929  2.1155
  764MPD2     N11288   1.235   2.084   0.464  0.5255  0.2954 -0.3667
  764MPD2    H511289   1.146   2.125   0.436 -0.8656 -1.9521  0.7584
  764MPD2    N111290   1.216   1.985   0.000 -0.6301 -0.2682 -0.0145
  764MPD2    H711291   1.116   2.000   0.000 -0.4760  0.7340 -4.0667
  765MPD2     C11292   0.568   4.058  15.978 -0.3617 -0.1058 -0.0655
  765MPD2    C111293   0.650   4.163  15.933  0.6627 -0.1902 -0.7856
  765MPD2    C211294   0.789   4.154  15.922 -0.0225 -0.6974  0.5583
  765MPD2    C311295   0.839   4.032  15.956  0.0900  0.4941  0.2313
  765MPD2    C411296   0.763   3.927  16.005 -0.2019 -0.3568 -0.0295
  765MPD2    C511297   0.629   3.946  16.008  0.4655  0.0824  0.5944
  765MPD2     H11298   0.857   4.228  15.881 -1.6386  0.4890  0.0371
  765MPD2    H111299   0.797   3.828  16.031 -1.0613 -0.6090  0.1173
  765MPD2    H211300   0.459   4.055  15.979 -0.4233  2.2667 -0.0418
  765MPD2    H311301   0.579   3.855  16.038  2.0290 -0.9830  0.0178
  765MPD2     N11302   0.978   4.017  15.932  0.5138 -0.4858  0.2674
  765MPD2    H511303   1.023   4.097  15.889  0.7689 -0.7954 -0.0446
  765MPD2    N111304   0.581   4.281  15.900  0.1358  0.6910  0.3972
  765MPD2    H711305   0.480   4.268  15.894  0.1777  0.3664  0.3728
  766MPD2     C11306   0.226   4.509  15.301  0.0358 -0.4178 -0.9178
  766MPD2    C111307   0.348   4.562  15.339 -0.0672  0.4843 -0.1514
  766MPD2    C211308   0.445   4.607  15.245  0.0924  0.1478 -0.2631
  766MPD2    C311309   0.420   4.578  15.109  0.0865 -0.2346 -0.0017
  766MPD2    C411310   0.299   4.528  15.071 -0.2527 -0.0409 -1.0970
  766MPD2    C511311   0.203   4.499  15.167 -0.6791  0.3231  0.2556
  766MPD2     H11312   0.540   4.654  15.270 -0.3057  0.2967  1.0038
  766MPD2    H111313   0.278   4.518  14.965 -1.4520 -1.0025 -0.7665
  766MPD2    H211314   0.149   4.484  15.373  0.5846 -1.4492 -0.6919
  766MPD2    H311315   0.108   4.456  15.140 -1.0186  1.2214  0.0193
  766MPD2     N11316   0.506   4.614  15.002  0.6308  0.3995  0.3859
  766MPD2    H511317   0.474   4.598  14.907  0.7270  1.4204  0.1886
  766MPD2    N111318   0.374   4.577  15.480  0.4553  0.0604  0.1145
  766MPD2    H711319   0.460   4.628  15.500  0.7141 -1.2941  2.4459
  767MPD2     C11320   0.080   0.076  15.079 -0.0403  1.2366 -0.5683
  767MPD2    C111321   0.196   0.138  15.032 -0.2419  0.0034 -0.0656
  767MPD2    C211322   0.227   0.124  14.896 -0.3016  0.0451  0.3273
  767MPD2    C311323   0.155   0.048  14.806  0.3345 -0.2808 -0.5637
  767MPD2    C411324   0.039   4.710  14.859  0.6694  0.7101  0.2962
  767MPD2    C511325   0.008   0.006  14.990 -0.5245  0.0008  0.4920
  767MPD2     H11326   0.322   0.164  14.862 -1.9606  1.9557 -2.1043
  767MPD2    H111327   4.691   4.647  14.806  0.1955  0.8608  0.7438
  767MPD2    H211328   0.043   0.082  15.181 -0.8220  1.0199 -0.8453
  767MPD2    H311329   4.642   4.677  15.027 -0.8392  0.3258  0.1958
  767MPD2     N11330   0.204   0.047  14.668 -0.1316 -0.9945  0.1710
  767MPD2    H511331   0.300   0.075  14.653 -0.1896  0.0430  1.7598
  767MPD2    N111332   0.282   0.207  15.116  0.0074 -0.0920  0.1346
  767MPD2    H711333   0.270   0.192  15.216 -2.7786 -0.7709 -0.2917
  768MPD2     C11334   1.443   3.137  11.135  0.3715 -0.2034 -0.1218
  768MPD2    C111335   1.397   3.042  11.226 -0.9735 -0.2963 -0.4167
  768MPD2    C211336   1.483   3.024  11.329 -0.5918  0.6511 -0.0775
  768MPD2    C311337   1.604   3.084  11.344 -0.0017  0.0479 -0.5677
  768MPD2    C411338   1.648   3.175  11.253 -0.2657 -0.5405  0.4383
  768MPD2    C511339   1.568   3.197  11.148 -0.8021 -0.2930 -0.0257
  768MPD2     H11340   1.441   2.966  11.410  2.4396 -0.7234  0.5311
  768MPD2    H111341   1.743   3.227  11.263 -0.3422 -0.0091 -1.4803
  768MPD2    H211342   1.389   3.157  11.043 -0.4256 -0.5897  0.2654
  768MPD2    H311343   1.595   3.273  11.076 -1.6126 -0.4246 -0.4680
  768MPD2     N11344   1.681   3.064  11.466 -0.1947  0.5654  0.2442
  768MPD2    H511345   1.759   3.127  11.483  1.2023 -1.8560  2.6950
  768MPD2    N111346   1.265   2.986  11.231  0.3775 -0.7545 -0.1074
  768MPD2    H711347   1.248   2.921  11.308 -2.1765 -1.0421 -0.9057
  769MPD2     C11348   2.123   1.631  15.055 -0.1009 -0.1317 -0.3988
  769MPD2    C111349   2.034   1.579  15.149  0.3859  0.1968 -0.2548
  769MPD2    C211350   2.052   1.600  15.288  0.2606 -0.2093 -0.3311
  769MPD2    C311351   2.165   1.663  15.332  0.0326  0.0849  0.5350
  769MPD2    C411352   2.257   1.711  15.240  0.1455 -0.1510 -0.8283
  769MPD2    C511353   2.238   1.699  15.104  0.1312  0.2803 -0.2236
  769MPD2     H11354   1.985   1.563  15.365  2.2934 -0.8616  1.1314
  769MPD2    H111355   2.342   1.773  15.267 -0.1748  0.5635 -1.4679
  769MPD2    H211356   2.120   1.618  14.947  2.6050 -1.8993 -0.2621
  769MPD2    H311357   2.314   1.734  15.034  1.8459 -0.7231  1.1247
  769MPD2     N11358   2.174   1.681  15.470 -0.2586  0.1710 -0.0224
  769MPD2    H511359   2.089   1.673  15.526  0.1139  1.1221  0.6705
  769MPD2    N111360   1.932   1.494  15.101  0.3794 -0.3291 -0.0146
  769MPD2    H711361   1.940   1.479  15.001 -0.5410 -0.6186 -0.0412
  770MPD2     C11362   1.218   0.680  15.207 -1.1880  0.6543  0.6793
  770MPD2    C111363   1.353   0.666  15.232 -0.1577 -0.2608 -0.3756
  770MPD2    C211364   1.441   0.778  15.208 -0.5435 -0.3816 -0.2650
  770MPD2    C311365   1.395   0.893  15.152 -0.6303  0.3200  0.3237
  770MPD2    C411366   1.260   0.896  15.121 -0.0416  0.3238  0.2646
  770MPD2    C511367   1.171   0.800  15.155 -0.4954  0.3104  0.5957
  770MPD2     H11368   1.547   0.763  15.227 -0.5504  0.0452  0.1113
  770MPD2    H111369   1.212   0.981  15.074  1.7806  2.0035  1.4908
  770MPD2    H211370   1.151   0.596  15.218  1.0548 -1.2661 -0.2051
  770MPD2    H311371   1.073   0.793  15.110 -0.4200  1.5835  0.2334
  770MPD2     N11372   1.479   1.004  15.117  0.2733  0.0265  0.5561
  770MPD2    H511373   1.436   1.088  15.081  0.2534 -0.0524  0.3973
  770MPD2    N111374   1.396   0.540  15.273  0.0249  0.1676 -0.0048
  770MPD2    H711375   1.328   0.473  15.307  0.8935 -0.8053 -0.1828
  771MPD2     C11376   3.352   4.321  13.809 -0.3575  0.0665  0.4120
  771MPD2    C111377   3.215   4.338  13.793  0.0069 -0.2110  0.2892
  771MPD2    C211378   3.158   4.260  13.691 -0.5055 -0.1550  0.5871
  771MPD2    C311379   3.239   4.180  13.611  0.2648  0.3063 -0.7523
  771MPD2    C411380   3.372   4.166  13.626  0.1042  0.5609 -0.3642
  771MPD2    C511381   3.430   4.239  13.727 -0.0085  0.5087 -0.0699
  771MPD2     H11382   3.051   4.271  13.675 -0.4705 -1.3007 -0.4481
  771MPD2    H111383   3.436   4.106  13.562  0.4973  0.0321  0.5240
  771MPD2    H211384   3.404   4.373  13.889 -3.0563  4.1076 -0.4337
  771MPD2    H311385   3.537   4.229  13.738  0.3864  3.4307 -1.2616
  771MPD2     N11386   3.178   4.117  13.502 -0.0511 -0.4065  0.4720
  771MPD2    H511387   3.090   4.155  13.468 -0.9542 -0.6691  2.5127
  771MPD2    N111388   3.133   4.430  13.864 -0.2705  0.4660 -0.2972
  771MPD2    H711389   3.039   4.431  13.826 -1.2955  1.2562  2.2639
  772MPD2     C11390   2.798   0.214  14.510  0.3937  0.5576  0.1519
  772MPD2    C111391   2.720   0.191  14.400  0.3833 -0.3953 -0.0708
  772MPD2    C211392   2.582   0.235  14.394  0.1992 -0.9515 -0.6623
  772MPD2    C311393   2.524   0.285  14.509 -0.7090 -0.7996 -0.2314
  772MPD2    C411394   2.606   0.303  14.622 -0.5507 -0.0458 -0.5478
  772MPD2    C511395   2.741   0.275  14.619 -0.3667 -0.9821  0.2119
  772MPD2     H11396   2.522   0.209  14.307  0.3509 -0.2464 -0.9745
  772MPD2    H111397   2.562   0.343  14.713 -0.9379  0.7086 -1.0704
  772MPD2    H211398   2.904   0.195  14.519 -0.2890 -1.5309  3.4497
  772MPD2    H311399   2.795   0.294  14.710 -0.5147 -1.3171  0.3681
  772MPD2     N11400   2.388   0.310  14.520 -0.0452  0.3781  0.2816
  772MPD2    H511401   2.350   0.312  14.614  1.3802  2.4197  0.8099
  772MPD2    N111402   2.764   0.101  14.297  0.4051  0.3998 -0.3072
  772MPD2    H711403   2.706   0.095  14.214 -1.8155 -1.8278  1.3631
  773MPD2     C11404   1.787   0.675   0.622  0.0868 -0.4978  0.7703
  773MPD2    C111405   1.671   0.621   0.567  0.2390 -0.1166 -0.2884
  773MPD2    C211406   1.643   0.485   0.579  0.4599 -0.8369  0.4426
  773MPD2    C311407   1.730   0.400   0.642 -0.7564 -0.9290  0.1258
  773MPD2    C411408   1.847   0.455   0.700  0.5652 -0.1009 -0.4309
  773MPD2    C511409   1.874   0.591   0.679  0.2640 -0.3110 -1.0757
  773MPD2     H11410   1.559   0.443   0.525  1.0222 -0.5112 -0.7004
  773MPD2    H111411   1.918   0.381   0.736  0.7548 -0.1438 -0.8925
  773MPD2    H211412   1.825   0.774   0.600 -0.2567 -0.5991 -0.2667
  773MPD2    H311413   1.970   0.634   0.707 -0.2372  0.6454 -0.8250
  773MPD2     N11414   1.703   0.257   0.653  0.7206  0.5911  0.0011
  773MPD2    H511415   1.609   0.220   0.638  0.1216  1.9048  0.4978
  773MPD2    N111416   1.584   0.706   0.495  0.2799  0.3864 -0.9082
  773MPD2    H711417   1.507   0.657   0.449 -0.7876  1.1829  0.0357
  774MPD2     C11418   0.978   4.438  13.557  0.2807  0.2349 -0.3947
  774MPD2    C111419   0.996   4.547  13.647  0.1492 -0.7236  0.3521
  774MPD2    C211420   1.024   4.672  13.590  0.3021  0.5296  0.0500
  774MPD2    C311421   1.048   4.685  13.453 -0.2339 -0.0488 -0.0667
  774MPD2    C411422   1.030   4.574  13.371 -0.5869 -0.1404  0.2871
  774MPD2    C511423   1.004   4.455  13.429  0.0911  0.4041 -0.2805
  774MPD2     H11424   1.036   0.038  13.653  0.7149  0.9382 -0.6091
  774MPD2    H111425   1.037   4.584  13.264 -1.0692 -1.9504  0.0930
  774MPD2    H211426   0.968   4.336  13.591 -0.8401  0.0200 -1.3582
  774MPD2    H311427   0.979   4.370  13.366  1.3373 -0.0062 -0.2255
  774MPD2     N11428   1.080   0.096  13.403  0.3099 -0.0552 -0.5616
  774MPD2    H511429   1.073   0.172  13.470  2.9636  0.3110 -0.7116
  774MPD2    N111430   0.975   4.528  13.787 -1.1740  0.1113  0.2778
  774MPD2    H711431   0.933   4.440  13.815  0.2891 -0.9520 -0.8174
  775MPD2     C11432   2.322   1.458  16.105 -0.1828  0.4422 -0.1492
  775MPD2    C111433   2.264   1.572  16.159  0.3249  0.6520  0.3236
  775MPD2    C211434   2.329   1.695  16.158 -0.8814 -0.3096  1.1440
  775MPD2    C311435   2.455   1.702  16.100 -0.0607  0.2590 -0.8379
  775MPD2    C411436   2.507   1.588  16.040 -0.6827  0.3904  0.0697
  775MPD2    C511437   2.440   1.468  16.041 -0.1561 -0.0374  0.0795
  775MPD2     H11438   2.290   1.781  16.210  0.8867  0.8118  0.6250
  775MPD2    H111439   2.588   1.595  15.968  0.0123  2.3660  1.0306
  775MPD2    H211440   2.266   1.366  16.099  1.3005 -0.5347  1.0243
  775MPD2    H311441   2.476   1.385  15.982 -2.6103 -0.7110 -0.4609
  775MPD2     N11442   2.537   1.818  16.094 -0.0455  0.3481  0.0288
  775MPD2    H511443   2.631   1.789  16.071 -0.1519 -1.0290  1.3220
  775MPD2    N111444   2.140   1.558  16.234  0.1670 -0.1945  0.2592
  775MPD2    H711445   2.094   1.467  16.235  1.4271 -0.8075  1.5323
  776MPD2     C11446   1.637   1.653  11.642 -0.1461 -0.0374 -0.0299
  776MPD2    C111447   1.683   1.675  11.513  0.2598  0.4226  0.8062
  776MPD2    C211448   1.767   1.785  11.489  0.3268  1.4410 -0.6516
  776MPD2    C311449   1.801   1.875  11.591  0.3667  0.0969  0.6501
  776MPD2    C411450   1.770   1.848  11.716 -0.7236 -1.0556  0.8381
  776MPD2    C511451   1.697   1.735  11.738 -0.6307  0.0600  0.6949
  776MPD2     H11452   1.793   1.812  11.387 -1.1382  0.6988 -1.2122
  776MPD2    H111453   1.793   1.908  11.803 -1.8684 -2.0728  1.8458
  776MPD2    H211454   1.572   1.573  11.675  1.8294 -1.6295  0.0106
  776MPD2    H311455   1.671   1.723  11.843  2.6152  0.0052  1.4674
  776MPD2     N11456   1.879   1.994  11.572 -0.3561  0.1119 -0.6217
  776MPD2    H511457   1.889   2.050  11.657 -0.4800  1.0338 -1.2132
  776MPD2    N111458   1.657   1.583  11.408  0.5050 -0.5981 -1.2724
  776MPD2    H711459   1.703   1.595  11.318  0.3277  0.7264 -1.1759
  777MPD2     C11460   1.232   3.923   0.810  0.9588 -0.2258 -0.3347
  777MPD2    C111461   1.283   3.863   0.923  0.2860 -0.7218 -0.5822
  777MPD2    C211462   1.351   3.744   0.904  0.3971 -0.9646  0.5862
  777MPD2    C311463   1.362   3.686   0.778 -0.7917 -0.7932 -0.7658
  777MPD2    C411464   1.312   3.754   0.664  0.0639  1.0169 -0.2841
  777MPD2    C511465   1.246   3.870   0.683 -0.2577 -0.1438 -0.0585
  777MPD2     H11466   1.396   3.697   0.990  1.3758  0.6413  0.9462
  777MPD2    H111467   1.327   3.728   0.559  0.6302 -0.0608  0.0606
  777MPD2    H211468   1.181   4.018   0.815 -1.5690 -1.5157 -1.3598
  777MPD2    H311469   1.198   3.918   0.599 -0.1701  0.7984  0.4289
  777MPD2     N11470   1.423   3.556   0.762  0.1928 -0.1655  0.2717
  777MPD2    H511471   1.439   3.510   0.851  0.2119 -0.8840 -0.1038
  777MPD2    N111472   1.262   3.924   1.044  0.0651  0.2533 -0.1297
  777MPD2    H711473   1.186   3.991   1.049  1.9707  2.4482 -0.9476
  778MPD2     C11474   2.998   4.153  14.890  0.5710  0.0009 -0.0637
  778MPD2    C111475   3.010   4.048  14.800  0.5493  0.1037  0.1644
  778MPD2    C211476   3.113   4.046  14.709 -0.3610  0.9723 -0.2045
  778MPD2    C311477   3.210   4.138  14.721 -0.3260  0.6165 -0.7308
  778MPD2    C411478   3.203   4.246  14.807  0.3216 -0.4480  0.0343
  778MPD2    C511479   3.094   4.253  14.895 -0.4243  0.4714 -0.1450
  778MPD2     H11480   3.132   3.953  14.657  0.2697  1.4354 -0.8037
  778MPD2    H111481   3.277   4.325  14.817 -0.2986  0.0090  1.0464
  778MPD2    H211482   2.919   4.152  14.964  0.8659  0.9689  0.2646
  778MPD2    H311483   3.079   4.337  14.962  2.1959  2.2965 -1.8454
  778MPD2     N11484   3.330   4.113  14.648 -0.3940 -0.0732 -0.6287
  778MPD2    H511485   3.320   4.048  14.570  0.1543 -1.7120  0.6446
  778MPD2    N111486   2.926   3.933  14.794  0.1109 -0.0824 -0.3671
  778MPD2    H711487   2.956   3.862  14.728 -1.6493 -0.6149 -0.5822
  779MPD2     C11488   2.582   3.100  13.862 -0.0352  0.0753 -0.4168
  779MPD2    C111489   2.641   3.068  13.984 -0.9797 -0.0108  0.2533
  779MPD2    C211490   2.723   3.162  14.041  0.1167  0.3316  0.2208
  779MPD2    C311491   2.751   3.279  13.976 -0.3398  0.4940  0.4402
  779MPD2    C411492   2.700   3.301  13.851  0.0207 -0.0991 -0.1882
  779MPD2    C511493   2.609   3.213  13.801  0.0795  0.1207 -0.8340
  779MPD2     H11494   2.776   3.134  14.131  1.8613  1.8080 -0.3455
  779MPD2    H111495   2.707   3.391  13.791 -0.4134 -0.7238 -1.1775
  779MPD2    H211496   2.510   3.038  13.810 -0.8217  1.4626 -0.9828
  779MPD2    H311497   2.561   3.227  13.705  0.6044  1.6049 -0.8867
  779MPD2     N11498   2.839   3.377  14.019  0.2354 -0.2419 -0.3324
  779MPD2    H511499   2.871   3.446  13.952  1.0900  0.5198  0.8552
  779MPD2    N111500   2.603   2.943  14.043 -0.1670 -0.2200 -0.1600
  779MPD2    H711501   2.557   2.872  13.986 -1.7949  0.6832  0.0317
  780MPD2     C11502   2.456   2.535   1.090 -0.0370  0.1473 -0.5151
  780MPD2    C111503   2.323   2.526   1.116 -0.7511  0.4693 -0.0282
  780MPD2    C211504   2.233   2.601   1.045  0.1368  0.3947 -0.4728
  780MPD2    C311505   2.274   2.682   0.943 -0.9870 -0.0503  0.7815
  780MPD2    C411506   2.411   2.682   0.912  0.0651 -0.6682 -0.4900
  780MPD2    C511507   2.498   2.608   0.986  0.4204 -0.2400 -0.6006
  780MPD2     H11508   2.127   2.605   1.071  0.1370  0.0257 -0.4131
  780MPD2    H111509   2.444   2.751   0.835  0.6093  0.9774  1.2474
  780MPD2    H211510   2.529   2.481   1.150  1.5956  2.1888 -0.6539
  780MPD2    H311511   2.605   2.620   0.978  0.4428  0.1026  0.2307
  780MPD2     N11512   2.174   2.756   0.879 -0.6471 -0.1646 -0.6757
  780MPD2    H511513   2.076   2.743   0.903 -0.4638 -2.3315 -1.0752
  780MPD2    N111514   2.288   2.441   1.223 -0.2910  0.6943  0.5904
  780MPD2    H711515   2.361   2.416   1.289  0.1744 -0.4990 -0.3778
  781MPD2     C11516   4.207   4.380  12.171  0.1422 -0.0413  0.4248
  781MPD2    C111517   4.218   4.509  12.209  0.6643 -0.7571  0.1523
  781MPD2    C211518   4.286   4.589  12.117  0.3563 -0.1790  0.6072
  781MPD2    C311519   4.340   4.541  11.995  0.3580 -0.5281  0.2166
  781MPD2    C411520   4.332   4.402  11.967 -0.0540 -0.7615 -0.3930
  781MPD2    C511521   4.261   4.330  12.054 -0.4590  0.3725  0.1582
  781MPD2     H11522   4.292   4.690  12.156 -0.1998 -0.0272  0.2982
  781MPD2    H111523   4.365   4.358  11.873 -0.7310 -2.1777  0.0281
  781MPD2    H211524   4.154   4.308  12.232 -0.2945  0.0488  0.1517
  781MPD2    H311525   4.239   4.228  12.023 -0.6938  0.2006  0.8771
  781MPD2     N11526   4.401   4.621  11.895  0.1419 -0.1330  0.5261
  781MPD2    H511527   4.441   4.579  11.812 -0.6637  1.3612 -0.6090
  781MPD2    N111528   4.156   4.556  12.325  0.1585 -0.1254  0.4362
  781MPD2    H711529   4.192   4.640  12.370 -1.0659  0.4303  0.3848
  782MPD2     C11530   2.401   0.257  10.365  0.3773  0.3340 -0.2455
  782MPD2    C111531   2.517   0.239  10.432  0.1976 -0.1405 -0.4322
  782MPD2    C211532   2.582   0.350  10.475  0.1589 -0.1435  0.0365
  782MPD2    C311533   2.533   0.482  10.468 -0.0979  0.0311 -0.1054
  782MPD2    C411534   2.414   0.497  10.401 -0.7150 -0.6233 -0.3226
  782MPD2    C511535   2.350   0.386  10.352 -0.7038 -0.6649 -0.0295
  782MPD2     H11536   2.666   0.341  10.543  0.4664  0.5157 -0.2495
  782MPD2    H111537   2.365   0.591  10.381 -0.4218 -0.5079 -0.5072
  782MPD2    H211538   2.345   0.180  10.313  0.8831  0.5919 -1.1766
  782MPD2    H311539   2.265   0.400  10.286 -0.9012  0.1609  0.4091
  782MPD2     N11540   2.591   0.585  10.542 -0.1679 -0.2752 -0.6386
  782MPD2    H511541   2.680   0.575  10.591 -0.6026  0.0517  0.2261
  782MPD2    N111542   2.551   0.106  10.466 -1.0880  0.8608 -0.4402
  782MPD2    H711543   2.476   0.039  10.456  1.2496 -2.0994  2.1272
  783MPD2     C11544   2.055   4.512  11.121 -0.4977  0.5402  0.1781
  783MPD2    C111545   2.092   4.640  11.078  0.0967  0.4806  0.6564
  783MPD2    C211546   2.187   4.659  10.979 -0.0022 -0.6916 -0.2728
  783MPD2    C311547   2.254   4.549  10.932  0.3935 -0.0328  0.0581
  783MPD2    C411548   2.211   4.421  10.966 -0.8121 -0.5996 -0.2122
  783MPD2    C511549   2.118   4.406  11.062  0.6253  0.3098 -0.5214
  783MPD2     H11550   2.219   0.037  10.955 -1.6818  0.7511  3.5092
  783MPD2    H111551   2.243   4.329  10.918  0.5195 -0.6121  0.7106
  783MPD2    H211552   1.965   4.499  11.180 -0.9956  1.4701 -0.3670
  783MPD2    H311553   2.079   4.309  11.090  1.0551  0.1095 -0.6165
  783MPD2     N11554   2.359   4.562  10.833  0.1695  0.0267 -0.1390
  783MPD2    H511555   2.382   4.656  10.802 -0.8279  0.1683 -0.4500
  783MPD2    N111556   2.024   0.024  11.141  0.2205  0.2020 -0.5025
  783MPD2    H711557   1.954   0.003  11.212  3.1538  0.7331  2.5673
  784MPD2     C11558   4.428   0.748   0.400 -1.0401 -0.5681  0.0093
  784MPD2    C111559   4.373   0.832   0.497 -0.3672 -0.6853  0.7264
  784MPD2    C211560   4.251   0.899   0.471  0.3639  0.2087  0.6570
  784MPD2    C311561   4.188   0.878   0.352 -0.2668  0.2937  0.3068
  784MPD2    C411562   4.247   0.803   0.255 -0.1670 -0.0394  0.7325
  784MPD2    C511563   4.361   0.730   0.279  0.5452  0.3547  0.4197
  784MPD2     H11564   4.204   0.965   0.542 -1.8494 -0.2960 -0.3530
  784MPD2    H111565   4.195   0.766   0.168  0.6372  0.2078  0.1490
  784MPD2    H211566   4.519   0.689   0.404  0.0823  1.1740 -0.1633
  784MPD2    H311567   4.406   0.667   0.203 -1.1102 -1.5769  1.0685
  784MPD2     N11568   4.064   0.940   0.327 -0.3924 -0.4311  0.3984
  784MPD2    H511569   4.012   0.989   0.400 -2.4393  0.9035 -1.9557
  784MPD2    N111570   4.442   0.864   0.616  0.4182 -0.2982  0.5072
  784MPD2    H711571   4.392   0.936   0.668 -0.3117 -0.2664 -0.2377
  785MPD2     C11572   0.177   3.736  11.972 -0.2547 -0.4911  0.0821
  785MPD2    C111573   0.242   3.678  11.869 -0.0042  0.3701  0.0927
  785MPD2    C211574   0.176   3.576  11.799 -0.3259 -0.2111 -0.3967
  785MPD2    C311575   0.052   3.527  11.849 -0.5349  0.5236 -0.4581
  785MPD2    C411576   4.717   3.580  11.963  0.3302  0.4093  0.2781
  785MPD2    C511577   0.067   3.675  12.029 -0.2340 -0.0015  0.1194
  785MPD2     H11578   0.215   3.542  11.703  0.8271 -0.0379  0.0114
  785MPD2    H111579   4.623   3.556  12.011  0.9040 -0.4077  0.9748
  785MPD2    H211580   0.226   3.818  12.024 -0.6831 -0.3304  0.2347
  785MPD2    H311581   0.027   3.720  12.119 -2.8111  0.4799 -1.2755
  785MPD2     N11582   4.705   3.441  11.768 -0.0865  0.3190 -0.2319
  785MPD2    H511583   0.024   3.441  11.675  0.0997 -0.8807 -0.1492
  785MPD2    N111584   0.359   3.738  11.818 -0.2815  0.2757 -0.2173
  785MPD2    H711585   0.399   3.821  11.860 -1.5102  2.4292 -3.3314
  786MPD2     C11586   2.600   2.177  14.805 -1.2834  0.5951  0.1428
  786MPD2    C111587   2.711   2.089  14.797 -0.4019  0.2856  0.1096
  786MPD2    C211588   2.815   2.102  14.888  0.1904  0.6198  0.4009
  786MPD2    C311589   2.812   2.187  14.995  0.4164  0.2866 -0.4357
  786MPD2    C411590   2.695   2.261  15.009 -0.6173 -0.3993  0.5711
  786MPD2    C511591   2.595   2.250  14.915 -0.5681 -0.2533  0.1254
  786MPD2     H11592   2.904   2.043  14.867  0.1599  1.9302 -3.4198
  786MPD2    H111593   2.676   2.319  15.098 -1.8879 -0.3622  0.2704
  786MPD2    H211594   2.511   2.185  14.745  0.2941 -0.3529 -2.3296
  786MPD2    H311595   2.504   2.305  14.936  0.1000 -0.1636  2.8264
  786MPD2     N11596   2.915   2.216  15.088  0.5063 -0.7966 -0.5420
  786MPD2    H511597   2.890   2.272  15.169  1.1268  0.3933 -1.1743
  786MPD2    N111598   2.736   2.005  14.681  0.4339  0.0731 -0.1420
  786MPD2    H711599   2.818   1.946  14.690  0.1913 -0.2638 -0.1438
  787MPD2     C11600   3.296   2.076  14.651  0.2026 -0.5179 -0.1355
  787MPD2    C111601   3.238   1.954  14.617 -0.3616  0.8981  0.0148
  787MPD2    C211602   3.280   1.845  14.682 -0.1538  0.3053  0.6455
  787MPD2    C311603   3.374   1.846  14.782  0.7783  0.8907  0.2945
  787MPD2    C411604   3.430   1.965  14.821  0.5431 -0.8978 -0.1608
  787MPD2    C511605   3.385   2.072  14.757  0.6915 -0.4678  0.6494
  787MPD2     H11606   3.241   1.748  14.654 -0.1314  0.1454  1.1626
  787MPD2    H111607   3.503   1.980  14.900 -0.5888  0.4541  0.6305
  787MPD2    H211608   3.278   2.159  14.583 -1.5608 -2.4906 -2.0857
  787MPD2    H311609   3.441   2.164  14.765  0.9769 -0.5498 -0.3713
  787MPD2     N11610   3.426   1.720  14.830 -0.0837  0.4388  0.2020
  787MPD2    H511611   3.385   1.635  14.791 -0.7306  2.8956 -4.5141
  787MPD2    N111612   3.142   1.948  14.511  0.1440 -0.3113 -0.3298
  787MPD2    H711613   3.119   2.034  14.461  1.2815 -0.1860 -0.6378
  788MPD2     C11614   0.605   0.593   0.580 -0.3546  0.1259  0.3902
  788MPD2    C111615   0.567   0.474   0.520  0.0562 -0.7149 -0.5944
  788MPD2    C211616   0.564   0.465   0.382  0.5849 -0.0450  0.4346
  788MPD2    C311617   0.585   0.577   0.302  0.1621  0.0859  0.8199
  788MPD2    C411618   0.617   0.695   0.375  0.1296  0.2466  0.7994
  788MPD2    C511619   0.634   0.705   0.510  0.3736 -0.0237 -0.7871
  788MPD2     H11620   0.537   0.371   0.335  4.0385 -0.9211  0.1972
  788MPD2    H111621   0.632   0.793   0.333 -1.5769  0.7011  1.2390
  788MPD2    H211622   0.613   0.607   0.687 -1.2410 -0.7827  0.5721
  788MPD2    H311623   0.662   0.798   0.558  0.8540 -0.3843 -0.3731
  788MPD2     N11624   0.577   0.591   0.165  0.0678  0.3270  0.0586
  788MPD2    H511625   0.591   0.685   0.128  0.8792  0.5256  0.8561
  788MPD2    N111626   0.543   0.354   0.592  0.2367 -0.1725 -0.2765
  788MPD2    H711627   0.510   0.285   0.526  0.0194 -0.0706 -0.2756
  789MPD2     C11628   0.784   4.595  16.396 -0.1517 -0.5331 -0.1238
  789MPD2    C111629   0.732   4.545  16.516 -1.4029 -0.0766  0.1980
  789MPD2    C211630   0.606   4.595  16.543 -0.3400 -0.0733 -0.5180
  789MPD2    C311631   0.544   4.691  16.466 -0.4657  0.4079 -0.3980
  789MPD2    C411632   0.590   4.719  16.338 -0.2336  1.2062  0.0054
  789MPD2    C511633   0.716   4.678  16.305  0.5679  0.7209 -0.2865
  789MPD2     H11634   0.553   4.568  16.633 -2.0957 -1.5855 -2.0226
  789MPD2    H111635   0.537   0.068  16.275 -0.7270 -0.2858 -1.2614
  789MPD2    H211636   0.872   4.545  16.356  0.9205  0.3644  1.1269
  789MPD2    H311637   0.744   4.695  16.202  1.0474  0.8170 -0.1392
  789MPD2     N11638   0.419   0.020  16.485  0.3209 -0.2005 -0.6586
  789MPD2    H511639   0.387   0.097  16.426  3.6016  1.3487 -0.3831
  789MPD2    N111640   0.797   4.458  16.601  0.7221 -0.7405  0.0392
  789MPD2    H711641   0.743   4.413  16.675  0.0286 -2.1325 -1.3248
  790MPD2     C11642   1.936   2.137  13.735  0.3926  0.2403 -0.4197
  790MPD2    C111643   1.818   2.068  13.732  0.5128 -0.2861 -0.3329
  790MPD2    C211644   1.733   2.074  13.623 -0.3075  0.0995  0.0367
  790MPD2    C311645   1.782   2.114  13.499 -0.1365 -0.0439 -0.1602
  790MPD2    C411646   1.902   2.177  13.505 -0.2891  0.1086 -0.4970
  790MPD2    C511647   1.970   2.205  13.620 -0.2910 -0.9098 -0.1938
  790MPD2     H11648   1.633   2.030  13.618 -0.6767  1.0842 -1.3285
  790MPD2    H111649   1.934   2.227  13.414 -1.8864 -2.1555 -2.3165
  790MPD2    H211650   2.004   2.144  13.819  0.5663  0.1333 -0.5518
  790MPD2    H311651   2.060   2.266  13.621 -0.3776 -0.7916  0.3667
  790MPD2     N11652   1.708   2.077  13.380  0.2050  0.0259 -0.3698
  790MPD2    H511653   1.623   2.025  13.399  0.3862  0.0974  0.6585
  790MPD2    N111654   1.791   1.994  13.846  0.8091 -0.4625  0.2736
  790MPD2    H711655   1.868   1.987  13.912  1.7053 -3.7845 -1.1420
  791MPD2     C11656   1.078   1.918  13.258 -0.3286  0.4303  0.3788
  791MPD2    C111657   1.153   1.891  13.145 -0.3281  0.5661 -0.3950
  791MPD2    C211658   1.084   1.865  13.028 -0.4286 -0.4299  0.1396
  791MPD2    C311659   0.948   1.865  13.038 -0.3923 -0.6727 -0.1739
  791MPD2    C411660   0.871   1.885  13.148  0.8886 -0.1211  0.4724
  791MPD2    C511661   0.944   1.908  13.261  0.1272 -0.0120  0.2087
  791MPD2     H11662   1.142   1.859  12.937 -3.8333 -1.6833 -1.9514
  791MPD2    H111663   0.763   1.877  13.151  0.7503  1.8702  0.7387
  791MPD2    H211664   1.114   1.938  13.359  1.7793 -0.0350 -0.2909
  791MPD2    H311665   0.888   1.934  13.350  0.2163 -0.7550  0.4743
  791MPD2     N11666   0.888   1.832  12.912  0.4038  0.0799 -0.5644
  791MPD2    H511667   0.944   1.812  12.829 -0.1826  0.8515 -1.1426
  791MPD2    N111668   1.295   1.889  13.164  0.1688  0.2427 -0.1360
  791MPD2    H711669   1.336   1.923  13.250 -0.0085 -0.9250  0.4122
  792MPD2     C11670   2.413   1.389  11.439  0.4977 -0.0286  0.1821
  792MPD2    C111671   2.296   1.446  11.395  0.3776 -0.4926 -0.2026
  792MPD2    C211672   2.228   1.379  11.294  0.5111  0.0535  0.1110
  792MPD2    C311673   2.276   1.262  11.237 -0.5060 -0.9677 -0.2502
  792MPD2    C411674   2.395   1.210  11.282 -0.2397 -0.4118  0.0717
  792MPD2    C511675   2.466   1.273  11.382  0.2992  0.1465  0.0615
  792MPD2     H11676   2.138   1.428  11.256 -1.2702 -2.0844  1.5486
  792MPD2    H111677   2.434   1.118  11.242  0.7535 -0.6369  1.5585
  792MPD2    H211678   2.467   1.436  11.520 -1.1012  1.5449  0.3296
  792MPD2    H311679   2.563   1.240  11.418  1.1264  1.3660 -1.0424
  792MPD2     N11680   2.199   1.190  11.140  0.6909  0.2383  0.1769
  792MPD2    H511681   2.252   1.113  11.100 -0.6228 -0.9710  0.7681
  792MPD2    N111682   2.259   1.570  11.448 -0.3258 -0.0055 -0.4051
  792MPD2    H711683   2.339   1.609  11.497 -2.0052  2.0763  0.6910
  793MPD2     C11684   1.358   1.008  10.485  0.0332 -0.1604 -0.4396
  793MPD2    C111685   1.477   1.072  10.451 -0.4032  0.2362  0.2327
  793MPD2    C211686   1.575   1.085  10.545  0.2586 -0.1284  0.4740
  793MPD2    C311687   1.559   1.026  10.672 -0.5903 -0.2250  0.1730
  793MPD2    C411688   1.444   0.956  10.701  0.4447 -0.0203 -0.1533
  793MPD2    C511689   1.343   0.949  10.610 -1.0438  0.6818 -0.3890
  793MPD2     H11690   1.667   1.127  10.508 -0.9414  1.9822 -0.1264
  793MPD2    H111691   1.422   0.921  10.801 -3.8795  2.3810 -0.3068
  793MPD2    H211692   1.286   0.969  10.414 -2.2666  1.0311  1.2785
  793MPD2    H311693   1.262   0.878  10.625 -0.2251 -0.4478 -1.2904
  793MPD2     N11694   1.663   1.024  10.766 -0.5334  0.4554 -0.5680
  793MPD2    H511695   1.660   0.966  10.849  1.4376  0.0071 -0.8342
  793MPD2    N111696   1.507   1.124  10.326  0.4748 -0.8549 -0.0132
  793MPD2    H711697   1.593   1.174  10.306  0.2720 -0.3327  0.4249
  794MPD2     C11698   1.500   1.109  17.441 -0.2472  0.2413  0.4247
  794MPD2    C111699   1.392   1.059  17.513 -0.1357 -0.2202  0.4482
  794MPD2    C211700   1.272   1.022  17.456  0.4583 -0.4534  0.6894
  794MPD2    C311701   1.260   1.049  17.322 -0.1425  0.1066 -0.1410
  794MPD2    C411702   1.369   1.092  17.252  0.6550  0.4384 -0.1052
  794MPD2    C511703   1.490   1.118  17.309 -0.5924 -0.2827  0.4836
  794MPD2     H11704   1.195   0.976  17.516 -0.6055  0.7992  0.2884
  794MPD2    H111705   1.357   1.103  17.145  0.0702 -0.5386 -0.1431
  794MPD2    H211706   1.594   1.133  17.490  0.1255  1.4651 -0.8808
  794MPD2    H311707   1.576   1.141  17.248  0.8457 -1.6001  2.0288
  794MPD2     N11708   1.138   1.057  17.245  0.1343 -0.0515  0.2807
  794MPD2    H511709   1.153   1.058  17.145  1.2836 -0.4861  0.4527
  794MPD2    N111710   1.393   1.045  17.656 -0.1122 -0.2804  0.0041
  794MPD2    H711711   1.315   1.013   0.022  0.5982 -0.8702  0.6561
  795MPD2     C11712   3.888   3.214  14.194  0.2093  0.3656  0.1515
  795MPD2    C111713   3.899   3.169  14.060  0.6073 -0.1203 -0.0796
  795MPD2    C211714   4.019   3.109  14.016 -0.2140 -0.2386  0.5169
  795MPD2    C311715   4.115   3.071  14.107  0.1081  0.4316  0.3352
  795MPD2    C411716   4.090   3.099  14.240 -0.1743  0.3116 -1.0262
  795MPD2    C511717   3.989   3.178  14.279 -0.7375 -0.4572  0.2404
  795MPD2     H11718   4.029   3.092  13.909 -2.7456  1.3010  0.0529
  795MPD2    H111719   4.161   3.081  14.319 -2.4104  0.3235  1.0111
  795MPD2    H211720   3.802   3.260  14.240 -1.7139 -2.8301 -0.2447
  795MPD2    H311721   3.993   3.198  14.385 -0.0328  1.8356 -0.2274
  795MPD2     N11722   4.229   3.000  14.059 -0.1255 -0.5002 -0.3773
  795MPD2    H511723   4.237   2.989  13.958 -3.2944  1.0581 -0.7932
  795MPD2    N111724   3.790   3.183  13.968 -0.5303 -0.6143  0.2749
  795MPD2    H711725   3.807   3.158  13.871 -2.4883  0.8077 -0.4369
  796MPD2     C11726   3.140   0.362  16.200 -0.6379 -0.3454  0.5197
  796MPD2    C111727   3.201   0.410  16.314 -0.4864 -0.5787 -0.0068
  796MPD2    C211728   3.260   0.537  16.300  1.0930 -0.1548  0.4488
  796MPD2    C311729   3.274   0.602  16.177 -0.4670  0.0096 -0.2980
  796MPD2    C411730   3.202   0.550  16.071 -0.0129  0.5800 -0.4384
  796MPD2    C511731   3.138   0.425  16.081  0.5454  0.6657 -0.2134
  796MPD2     H11732   3.306   0.579  16.389 -0.1849 -0.3669  1.2303
  796MPD2    H111733   3.199   0.597  15.973 -0.8743 -0.5540 -0.9459
  796MPD2    H211734   3.096   0.263  16.206 -1.5396 -0.2306 -4.1852
  796MPD2    H311735   3.087   0.382  15.995  1.2371 -0.0601 -0.2559
  796MPD2     N11736   3.330   0.732  16.176 -0.1197 -0.2008 -0.6947
  796MPD2    H511737   3.373   0.762  16.263  2.2211  1.0428 -2.2751
  796MPD2    N111738   3.190   0.339  16.438  0.1234  1.2414  0.0995
  796MPD2    H711739   3.142   0.249  16.442  1.6117  0.3231 -2.5295
  797MPD2     C11740   4.376   4.340  17.310  0.0180  0.2242  0.1410
  797MPD2    C111741   4.325   4.226  17.363 -0.1030  0.2576  0.4922
  797MPD2    C211742   4.192   4.194  17.339 -0.3717 -0.7676  0.6544
  797MPD2    C311743   4.105   4.274  17.267 -0.2267  0.0102 -0.1866
  797MPD2    C411744   4.156   4.393  17.220 -0.4683  0.0004  0.1889
  797MPD2    C511745   4.294   4.420  17.233  0.0356 -0.4570  0.3104
  797MPD2     H11746   4.155   4.094  17.358 -1.7050 -0.4605 -0.2883
  797MPD2    H111747   4.099   4.455  17.152 -0.1643  0.6119  0.4828
  797MPD2    H211748   4.477   4.378  17.316 -0.3565  0.9820  1.6342
  797MPD2    H311749   4.337   4.502  17.176 -2.4341  0.4838 -0.1888
  797MPD2     N11750   3.962   4.258  17.262  0.5077  0.0987 -0.5402
  797MPD2    H511751   3.908   4.323  17.205 -0.5801 -0.7517 -0.4646
  797MPD2    N111752   4.403   4.141  17.443  0.2733  0.7389  0.5126
  797MPD2    H711753   4.366   4.048  17.459 -0.1822  0.8294 -0.0409
  798MPD2     C11754   3.828   3.809   0.095 -0.3509 -1.1285  0.3771
  798MPD2    C111755   3.876   3.875  17.675 -1.0255 -0.7505  0.0758
  798MPD2    C211756   4.008   3.876  17.649 -0.0889  0.4323  0.3619
  798MPD2    C311757   4.097   3.822   0.048 -0.1980  0.0481  0.2844
  798MPD2    C411758   4.053   3.753   0.155  0.3281  0.5655 -0.5093
  798MPD2    C511759   3.915   3.756   0.184  0.5207  1.4094  0.0367
  798MPD2     H11760   4.048   3.918  17.558  1.0521  0.0864  0.7068
  798MPD2    H111761   4.124   3.704   0.221 -0.5647  0.8843  0.6843
  798MPD2    H211762   3.722   3.812   0.121  0.0617 -3.0790  2.3593
  798MPD2    H311763   3.889   3.706   0.277 -0.4061 -0.3668 -1.1699
  798MPD2     N11764   4.236   3.836   0.012 -0.1065 -0.2320 -0.3332
  798MPD2    H511765   4.261   3.892  17.621 -0.0859  0.1325 -0.0750
  798MPD2    N111766   3.790   3.959  17.595 -0.4903  0.4562  0.1357
  798MPD2    H711767   3.838   3.981  17.509 -3.2095  0.2410 -1.4443
  799MPD2     C11768   3.239   1.383  14.919  0.1726 -0.4514  0.0685
  799MPD2    C111769   3.226   1.266  14.843  0.6108 -0.4178  0.3867
  799MPD2    C211770   3.167   1.274  14.722  0.2129  0.0227 -0.0430
  799MPD2    C311771   3.111   1.394  14.668  0.1279  0.7252  0.2410
  799MPD2    C411772   3.115   1.506  14.752 -0.1734 -0.3899 -0.0344
  799MPD2    C511773   3.174   1.495  14.876  1.0220  0.2347 -0.5311
  799MPD2     H11774   3.182   1.180  14.669  2.5533  0.0600  0.5563
  799MPD2    H111775   3.058   1.597  14.737  2.5577  1.1200 -1.3226
  799MPD2    H211776   3.300   1.380  15.008  0.0362  0.8175  0.1939
  799MPD2    H311777   3.180   1.586  14.934  0.0002 -0.4051  0.5724
  799MPD2     N11778   3.050   1.407  14.540  0.1164  0.1489 -0.5724
  799MPD2    H511779   3.034   1.503  14.512 -2.3016  0.1993  1.0048
  799MPD2    N111780   3.280   1.148  14.880  0.1186  0.1013 -0.0686
  799MPD2    H711781   3.273   1.073  14.812  0.6950 -1.5960  1.7518
  800MPD2     C11782   3.727   2.377  14.400 -0.5267  0.1468 -0.2839
  800MPD2    C111783   3.858   2.350  14.369  0.7935  0.2999 -0.0299
  800MPD2    C211784   3.887   2.310  14.241 -0.1043 -0.4501 -0.5768
  800MPD2    C311785   3.791   2.293  14.150  0.3310  0.0912  0.5047
  800MPD2    C411786   3.657   2.309  14.188  0.3525  0.4202  1.1871
  800MPD2    C511787   3.624   2.354  14.312  0.0279 -0.3274  0.0053
  800MPD2     H11788   3.989   2.284  14.215  0.1887  1.7825 -1.6502
  800MPD2    H111789   3.572   2.294  14.123 -0.3751 -0.8964  2.4365
  800MPD2    H211790   3.702   2.415  14.498  2.3014  1.6878 -0.1628
  800MPD2    H311791   3.521   2.346  14.344  0.3549 -0.6746  0.9577
  800MPD2     N11792   3.829   2.249  14.020 -0.1762  0.0244  0.6471
  800MPD2    H511793   3.928   2.229  14.010 -0.7963 -2.1801 -1.0482
  800MPD2    N111794   3.955   2.389  14.460 -0.1235 -0.4101 -0.6511
  800MPD2    H711795   3.917   2.408  14.552  1.0179 -1.6930  0.0895
  801MPD2     C11796   4.053   2.910  14.900  0.5804 -0.1645  0.2419
  801MPD2    C111797   3.990   2.788  14.905 -0.8645 -0.2518 -0.0998
  801MPD2    C211798   3.857   2.785  14.941  0.8678  0.5037 -0.6948
  801MPD2    C311799   3.794   2.898  14.985 -0.0881  0.1965 -0.8470
  801MPD2    C411800   3.866   3.014  14.992 -0.0850  0.2840 -0.1186
  801MPD2    C511801   3.993   3.021  14.948 -0.3866  0.4955  0.1958
  801MPD2     H11802   3.814   2.686  14.951 -1.8051  1.7938  0.6069
  801MPD2    H111803   3.827   3.107  15.032 -1.7128 -1.0003  1.3062
  801MPD2    H211804   4.155   2.919  14.864  0.4565  0.6168  0.0854
  801MPD2    H311805   4.043   3.116  14.960 -1.5807  1.1604 -0.0619
  801MPD2     N11806   3.662   2.897  15.038 -0.5513 -0.0342  0.1447
  801MPD2    H511807   3.629   2.991  15.055  0.7016  0.9410 -2.6862
  801MPD2    N111808   4.047   2.664  14.861 -0.1010  0.2557  0.0381
  801MPD2    H711809   3.991   2.580  14.853  0.1058 -0.0578  1.9163
  802MPD2     C11810   3.133   3.236   0.946 -0.0732 -0.3714  0.6589
  802MPD2    C111811   3.019   3.247   0.869  0.4688 -0.0468 -0.3019
  802MPD2    C211812   2.999   3.165   0.763  0.0560 -0.3569  0.5309
  802MPD2    C311813   3.086   3.061   0.737  0.5852 -0.6124  0.4948
  802MPD2    C411814   3.191   3.038   0.828 -0.5094 -0.0629  0.7402
  802MPD2    C511815   3.224   3.131   0.921 -0.1548  0.3661  0.0781
  802MPD2     H11816   2.910   3.177   0.702  1.9225 -1.5608 -2.4804
  802MPD2    H111817   3.264   2.959   0.810  1.1063  1.6375 -0.2425
  802MPD2    H211818   3.151   3.299   1.032 -0.6846 -1.1263  1.3339
  802MPD2    H311819   3.314   3.118   0.981  0.5203  2.2213 -0.5150
  802MPD2     N11820   3.060   2.982   0.630  1.4700  0.3423 -0.4535
  802MPD2    H511821   2.982   3.009   0.571  0.0750 -0.0583  1.1892
  802MPD2    N111822   2.920   3.351   0.888  0.0935 -0.6296 -0.0181
  802MPD2    H711823   2.839   3.351   0.826 -0.3448  0.6643  0.5521
  803MPD2     C11824   4.350   1.548  12.139  0.2509  0.3643  0.3874
  803MPD2    C111825   4.405   1.628  12.238  0.0011 -0.5468  0.8699
  803MPD2    C211826   4.378   1.597  12.370  0.3942 -0.5423  0.0638
  803MPD2    C311827   4.314   1.484  12.408 -0.0240  0.2789  0.0658
  803MPD2    C411828   4.258   1.401  12.307 -0.0495 -0.1943  0.0121
  803MPD2    C511829   4.280   1.431  12.173  0.1622  0.2870 -0.6160
  803MPD2     H11830   4.419   1.663  12.445  0.1649  0.6443 -0.8613
  803MPD2    H111831   4.206   1.309  12.331  0.1318  0.6447  3.6812
  803MPD2    H211832   4.368   1.555  12.032 -0.8377 -0.0706  0.1806
  803MPD2    H311833   4.239   1.366  12.097 -1.4060 -0.1897  0.6369
  803MPD2     N11834   4.309   1.443  12.543 -0.5116 -0.0363 -0.2328
  803MPD2    H511835   4.274   1.351  12.567  0.1134 -0.6944 -1.8081
  803MPD2    N111836   4.485   1.739  12.211  0.4824 -0.2530 -0.0197
  803MPD2    H711837   4.500   1.816  12.276 -0.4309 -1.1179  1.2246
  804MPD2     C11838   3.678   3.294  17.130 -0.2868 -0.1261 -1.0137
  804MPD2    C111839   3.704   3.176  17.194 -0.3900  0.0572  0.0783
  804MPD2    C211840   3.832   3.157  17.239 -0.0770  0.4280 -0.6811
  804MPD2    C311841   3.931   3.259  17.238  0.2349 -0.0152  0.3040
  804MPD2    C411842   3.896   3.380  17.185  0.0272  0.3734 -0.6811
  804MPD2    C511843   3.769   3.396  17.134 -0.4483  0.0557  0.6516
  804MPD2     H11844   3.860   3.062  17.284 -1.5035  1.0877  1.5832
  804MPD2    H111845   3.973   3.455  17.174 -0.1395  0.4414 -1.4118
  804MPD2    H211846   3.579   3.314  17.090 -0.5766 -1.2845 -0.8561
  804MPD2    H311847   3.742   3.486  17.079 -1.3365 -0.8401 -0.3832
  804MPD2     N11848   4.059   3.226  17.275  0.5222  0.2722  0.3338
  804MPD2    H511849   4.065   3.141  17.330 -0.8155  1.2283  1.9160
  804MPD2    N111850   3.613   3.064  17.187  0.0701  0.4848  0.3400
  804MPD2    H711851   3.636   2.982  17.242  1.0883  1.3897  1.2699
  805MPD2     C11852   3.213   1.421  15.748  0.1186  0.1634  0.4480
  805MPD2    C111853   3.274   1.430  15.627 -0.4434  1.0189  0.2618
  805MPD2    C211854   3.413   1.421  15.626 -0.7393 -0.3695 -0.5007
  805MPD2    C311855   3.488   1.397  15.736 -0.3757  0.4073  0.3708
  805MPD2    C411856   3.423   1.375  15.852  0.1318 -0.4415  0.0056
  805MPD2    C511857   3.288   1.387  15.867 -0.0249 -0.5167  0.3121
  805MPD2     H11858   3.463   1.451  15.535  0.6435  1.9445  1.0194
  805MPD2    H111859   3.484   1.356  15.940  1.3954  0.7702 -0.6024
  805MPD2    H211860   3.107   1.444  15.758  0.5273  1.5726  1.4178
  805MPD2    H311861   3.242   1.382  15.965 -2.9667  2.8805 -0.8888
  805MPD2     N11862   3.630   1.394  15.715 -0.0389  0.3727 -0.0351
  805MPD2    H511863   3.664   1.408  15.620  1.2805  1.5302  0.6018
  805MPD2    N111864   3.206   1.472  15.507  0.3067  0.5254 -0.0719
  805MPD2    H711865   3.259   1.458  15.421 -1.1514  0.2730 -0.9281
  806MPD2     C11866   3.287   0.377  17.672 -0.4965 -0.3989 -0.0023
  806MPD2    C111867   3.192   0.424   0.077  0.1056 -0.5439  0.5759
  806MPD2    C211868   3.088   0.502   0.046  0.4213  0.0890 -0.0985
  806MPD2    C311869   3.060   0.523  17.605 -0.6489 -0.4291 -0.1835
  806MPD2    C411870   3.133   0.454  17.512  0.3212  0.1657 -0.2706
  806MPD2    C511871   3.250   0.386  17.537 -0.6216 -0.2799  0.7303
  806MPD2     H11872   3.024   0.551   0.119  1.1744 -0.4106  0.8928
  806MPD2    H111873   3.096   0.445  17.411  0.1622  0.9231 -0.2849
  806MPD2    H211874   3.376   0.319   0.004 -1.8809 -3.0583 -1.5027
  806MPD2    H311875   3.313   0.340  17.462 -0.9855  0.3809  0.0255
  806MPD2     N11876   2.960   0.608  17.558  0.0124  0.0276  0.0042
  806MPD2    H511877   2.894   0.651  17.622 -0.7016  0.0801 -0.7691
  806MPD2    N111878   3.206   0.405   0.219  0.1626 -0.2072 -0.5367
  806MPD2    H711879   3.127   0.450   0.265  1.7534  1.8641  0.1347
  807MPD2     C11880   2.757   0.318   0.844  0.4299 -0.1580 -0.4370
  807MPD2    C111881   2.878   0.249   0.854  0.3155  0.2696 -0.5530
  807MPD2    C211882   2.893   0.153   0.957  0.2901  0.2808 -0.4673
  807MPD2    C311883   2.786   0.125   1.032  0.3193  0.2065  0.2582
  807MPD2    C411884   2.670   0.203   1.027  0.2136 -0.6034 -0.3909
  807MPD2    C511885   2.665   0.312   0.938  1.4325  0.1118 -0.8552
  807MPD2     H11886   2.987   0.103   0.977  0.7839  1.1498 -0.6210
  807MPD2    H111887   2.585   0.193   1.093  0.7751  1.4326  0.6627
  807MPD2    H211888   2.746   0.394   0.767 -0.7001  0.3382  0.2168
  807MPD2    H311889   2.575   0.374   0.939  1.0262 -0.4285 -2.8953
  807MPD2     N11890   2.814   0.029   1.139  0.1286 -0.6002  0.4346
  807MPD2    H511891   2.894   4.689   1.128 -0.8735 -1.8675  0.4102
  807MPD2    N111892   2.986   0.261   0.764 -0.6024 -0.2164  0.0370
  807MPD2    H711893   3.069   0.211   0.796  0.4172  0.2141 -1.9591
  808MPD2     C11894   4.283   1.819   9.480  0.5381  0.2488 -0.1978
  808MPD2    C111895   4.297   1.825   9.618  0.5867  0.4117 -0.1242
  808MPD2    C211896   4.388   1.909   9.679  0.0064  0.0674 -0.5225
  808MPD2    C311897   4.476   1.975   9.588  0.1022  0.1479 -0.1648
  808MPD2    C411898   4.456   1.976   9.454 -0.0552 -0.5764  0.2493
  808MPD2    C511899   4.356   1.899   9.401  0.0541  0.0738 -0.1431
  808MPD2     H11900   4.403   1.900   9.785  0.0139  1.8956 -0.3669
  808MPD2    H111901   4.533   2.018   9.390  2.2724 -1.4482  2.4477
  808MPD2    H211902   4.221   1.746   9.429  2.2731 -3.3696  2.7874
  808MPD2    H311903   4.357   1.885   9.294  0.5594 -0.8496 -0.0205
  808MPD2     N11904   4.586   2.057   9.631 -0.2512 -0.1569  1.1404
  808MPD2    H511905   4.645   2.102   9.563 -1.0031 -0.6362  0.1741
  808MPD2    N111906   4.222   1.736   9.701  0.0759  0.3263 -0.1164
  808MPD2    H711907   4.249   1.716   9.797 -0.7985  0.0373  0.0690
  809MPD2     C11908   0.569   2.207   9.194 -0.1129 -0.6700 -0.2617
  809MPD2    C111909   0.623   2.227   9.316 -0.0816 -0.3064 -0.6220
  809MPD2    C211910   0.530   2.231   9.423 -0.2537 -0.0951 -0.1513
  809MPD2    C311911   0.389   2.218   9.399  0.6833  0.5765  0.4613
  809MPD2    C411912   0.345   2.193   9.273 -0.3937  0.8529 -0.2958
  809MPD2    C511913   0.435   2.190   9.170  0.8956  0.0886 -0.4687
  809MPD2     H11914   0.564   2.227   9.525 -1.7538 -1.2079  0.3051
  809MPD2    H111915   0.240   2.181   9.247 -0.5093  0.4892  0.3208
  809MPD2    H211916   0.620   2.205   9.099  1.7716 -0.1055  0.7442
  809MPD2    H311917   0.401   2.178   9.068 -1.0724  3.4326 -0.2147
  809MPD2     N11918   0.293   2.237   9.498  0.6239 -0.2467 -0.2892
  809MPD2    H511919   0.196   2.240   9.467 -0.7897  1.8859  4.2830
  809MPD2    N111920   0.759   2.245   9.348  0.1928  0.2872 -0.2437
  809MPD2    H711921   0.786   2.239   9.446  0.4617  1.9136 -0.2166
  810MPD2     C11922   3.806   1.798  11.240 -0.1018  0.2162 -0.9306
  810MPD2    C111923   3.752   1.777  11.113 -0.2709  0.5747 -0.7251
  810MPD2    C211924   3.697   1.882  11.047 -0.3326  0.2938 -0.3304
  810MPD2    C311925   3.682   2.003  11.108  0.2942 -0.2343  0.7938
  810MPD2    C411926   3.722   2.025  11.234 -0.0197 -0.0811 -0.2288
  810MPD2    C511927   3.789   1.923  11.298 -0.2711  0.2892  0.4211
  810MPD2     H11928   3.655   1.863  10.949 -1.7694  2.3148 -0.1174
  810MPD2    H111929   3.714   2.122  11.281 -0.5605 -0.3766  0.2798
  810MPD2    H211930   3.847   1.713  11.294 -0.9998  2.0533  2.6356
  810MPD2    H311931   3.824   1.937  11.400  0.5707 -2.9611  0.5701
  810MPD2     N11932   3.611   2.109  11.044 -1.1943 -0.3678  0.3160
  810MPD2    H511933   3.610   2.200  11.088 -3.5048  0.0872 -0.7148
  810MPD2    N111934   3.745   1.647  11.054  0.2101 -0.5526  0.2659
  810MPD2    H711935   3.700   1.646  10.963  0.5392 -1.6556  0.1122
  811MPD2     C11936   3.672   1.169  10.380 -0.1003 -0.5301 -0.3375
  811MPD2    C111937   3.714   1.276  10.451 -0.4697  0.6219  0.2815
  811MPD2    C211938   3.709   1.398  10.388 -0.0050  0.4046  0.0902
  811MPD2    C311939   3.684   1.409  10.252 -0.5481 -0.1733  0.4921
  811MPD2    C411940   3.648   1.300  10.182 -0.0552 -0.8799 -0.3712
  811MPD2    C511941   3.645   1.179  10.245  0.3882  0.1205  0.1588
  811MPD2     H11942   3.735   1.485  10.449  2.9005  0.1623 -0.8011
  811MPD2    H111943   3.616   1.315  10.080 -1.2885 -2.4313 -0.2126
  811MPD2    H211944   3.668   1.070  10.426  0.3173 -1.4397 -2.2530
  811MPD2    H311945   3.611   1.088  10.196  1.9799  0.3225 -1.2955
  811MPD2     N11946   3.683   1.540  10.198 -0.0156 -1.1918  0.7828
  811MPD2    H511947   3.703   1.614  10.264 -1.2911 -0.8321  0.7655
  811MPD2    N111948   3.730   1.263  10.590  0.3358 -0.4989 -0.0495
  811MPD2    H711949   3.701   1.175  10.630 -0.9476  0.1521  0.4283
  812MPD2     C11950   2.749   1.689  12.251 -0.0097  0.1666  0.3316
  812MPD2    C111951   2.660   1.752  12.334 -0.1268  0.0972  0.4721
  812MPD2    C211952   2.573   1.657  12.397 -0.9196  0.8382  0.4997
  812MPD2    C311953   2.584   1.518  12.384 -0.5880 -0.2578  0.1372
  812MPD2    C411954   2.681   1.467  12.302 -0.7335 -0.8175 -0.4248
  812MPD2    C511955   2.767   1.554  12.235 -0.9767  0.9652 -0.6676
  812MPD2     H11956   2.492   1.691  12.461 -1.4622 -1.1904  0.8950
  812MPD2    H111957   2.690   1.361  12.280 -0.4754 -0.8487 -0.1688
  812MPD2    H211958   2.821   1.758  12.208  2.0731 -0.6539  2.4562
  812MPD2    H311959   2.857   1.532  12.180  1.3391 -0.9237  3.8421
  812MPD2     N11960   2.484   1.438  12.451 -0.2168  0.3430  0.0949
  812MPD2    H511961   2.416   1.489  12.507  2.2455 -0.1992  3.6042
  812MPD2    N111962   2.659   1.889  12.353 -0.6672 -0.0403  0.6449
  812MPD2    H711963   2.718   1.947  12.294 -1.2088 -0.2442 -0.0992
  813MPD2     C11964   1.776   3.650  12.961  0.2674  0.7621  1.1936
  813MPD2    C111965   1.776   3.772  13.033  0.0939 -0.2505  0.0837
  813MPD2    C211966   1.740   3.767  13.172  0.0055  0.0508  0.4216
  813MPD2    C311967   1.696   3.646  13.228  0.3718 -0.1989 -1.0987
  813MPD2    C411968   1.690   3.529  13.149 -0.3313  0.2005 -0.6256
  813MPD2    C511969   1.720   3.546  13.019 -0.5503 -0.6360  0.5420
  813MPD2     H11970   1.728   3.858  13.229  0.5410  1.3234 -1.4915
  813MPD2    H111971   1.650   3.432  13.178  0.5039  0.0377 -0.0199
  813MPD2    H211972   1.808   3.644  12.857  0.0732 -0.7747  1.2190
  813MPD2    H311973   1.692   3.459  12.962 -0.5378  0.9589 -1.8690
  813MPD2     N11974   1.659   3.650  13.361 -0.0556  0.2139 -0.0078
  813MPD2    H511975   1.673   3.738  13.411 -0.2355 -0.1025  0.6044
  813MPD2    N111976   1.826   3.887  12.966 -0.6734 -0.2004  0.4570
  813MPD2    H711977   1.851   3.863  12.871 -0.4822 -2.5940  1.0997
  814MPD2     C11978   1.969   0.383  12.346 -0.5465  0.0202  0.1517
  814MPD2    C111979   2.024   0.382  12.220  0.0722  0.4204 -0.5508
  814MPD2    C211980   2.087   0.488  12.166 -0.2692  0.3283 -0.5737
  814MPD2    C311981   2.084   0.613  12.229 -0.1387 -0.5073  0.1989
  814MPD2    C411982   2.012   0.622  12.342  0.3078  0.0305  0.2159
  814MPD2    C511983   1.954   0.510  12.395  0.0510  0.2333  0.4259
  814MPD2     H11984   2.132   0.487  12.067  1.3379 -0.9284  0.1774
  814MPD2    H111985   2.004   0.718  12.392  1.5561 -0.3448  1.1426
  814MPD2    H211986   1.924   0.304  12.405 -2.0567  2.4706  2.2789
  814MPD2    H311987   1.903   0.522  12.490 -0.5858  1.8865 -0.1440
  814MPD2     N11988   2.163   0.722  12.192 -0.7748 -0.3511 -0.6022
  814MPD2    H511989   2.145   0.813  12.234 -1.1874 -1.2598  1.1531
  814MPD2    N111990   2.020   0.264  12.139  0.9252 -0.3573  0.1179
  814MPD2    H711991   2.046   0.275  12.042 -0.1258  0.6886 -0.0457
  815MPD2     C11992   2.593   3.568  11.954 -0.8949 -0.2438 -0.0530
  815MPD2    C111993   2.559   3.438  11.986 -0.7684  0.4681  0.7401
  815MPD2    C211994   2.464   3.425  12.090  0.1451  0.0148 -0.3772
  815MPD2    C311995   2.403   3.536  12.146 -0.0777 -0.1350 -0.2580
  815MPD2    C411996   2.452   3.666  12.116  0.4496 -0.2835 -0.0954
  815MPD2    C511997   2.544   3.680  12.016  0.5303  0.9418  0.4987
  815MPD2     H11998   2.449   3.327  12.133 -2.6501  0.6682  0.1560
  815MPD2    H111999   2.419   3.760  12.157 -1.4343 -1.3149  0.7467
  815MPD2    H212000   2.671   3.592  11.882  1.7324  0.7871  3.1355
  815MPD2    H312001   2.569   3.782  11.989 -1.9493  1.7300  1.1638
  815MPD2     N12002   2.290   3.523  12.225 -0.0797 -0.1332  0.1359
  815MPD2    H512003   2.259   3.429  12.249  0.3997  0.0569  1.5048
  815MPD2    N112004   2.635   3.339  11.930  0.4927  0.1695 -0.0108
  815MPD2    H712005   2.692   3.372  11.853  1.3015  1.6522  1.2177
  816MPD2     C12006   1.735   2.196  17.411  0.2658 -0.4250  0.7066
  816MPD2    C112007   1.827   2.294  17.397  0.3924  0.5480  0.6175
  816MPD2    C212008   1.949   2.267  17.333  0.1842 -0.9550  0.5154
  816MPD2    C312009   1.978   2.143  17.296  0.2274  0.2404 -0.5236
  816MPD2    C412010   1.892   2.038  17.326 -0.3025  0.3760  0.0221
  816MPD2    C512011   1.768   2.070  17.374 -0.8882  0.0249  0.0640
  816MPD2     H12012   2.019   2.349  17.325  0.5341 -1.0638  2.2806
  816MPD2    H112013   1.918   1.936  17.297 -0.3561  0.2424  0.4387
  816MPD2    H212014   1.636   2.213  17.453 -0.8720  0.5518 -2.3224
  816MPD2    H312015   1.689   1.999  17.397  0.1774 -1.5046 -0.9610
  816MPD2     N12016   2.101   2.132  17.224  1.0989 -0.1979  0.1755
  816MPD2    H512017   2.147   2.219  17.199 -1.6949  1.1906 -0.0293
  816MPD2    N112018   1.789   2.423  17.425 -0.1659  0.5894 -0.2068
  816MPD2    H712019   1.691   2.433  17.450  0.0328 -1.0028  1.1962
  817MPD2     C12020   3.089   3.811  10.020  0.5297  0.5705  0.4056
  817MPD2    C112021   2.954   3.778   9.997  0.2370 -0.3570 -0.0285
  817MPD2    C212022   2.852   3.864  10.003  0.2158  0.3921 -0.3404
  817MPD2    C312023   2.880   3.998  10.033  0.4697 -0.4772 -0.2180
  817MPD2    C412024   3.010   4.034  10.055 -0.4097 -0.2837  0.0155
  817MPD2    C512025   3.106   3.941  10.045 -0.1913  0.6802 -0.3816
  817MPD2     H12026   2.752   3.827   9.986 -0.0139  0.1006  1.5745
  817MPD2    H112027   3.032   4.133  10.094 -3.4058  1.4102 -2.5640
  817MPD2    H212028   3.168   3.739  10.006  1.0242  1.2407 -0.2453
  817MPD2    H312029   3.209   3.971  10.063  0.4217 -0.9132 -1.2156
  817MPD2     N12030   2.780   4.091  10.055  0.0528  0.2118 -0.2291
  817MPD2    H512031   2.801   4.190  10.064 -0.5246  0.3364 -0.2527
  817MPD2    N112032   2.927   3.651   9.949 -0.1406  0.2951  0.4241
  817MPD2    H712033   2.837   3.643   9.903  0.5406  3.4425 -1.4411
  818MPD2     C12034   1.594   3.767  10.567  0.3013 -0.4067 -0.5179
  818MPD2    C112035   1.481   3.689  10.574  0.5513 -0.5051 -0.6526
  818MPD2    C212036   1.494   3.565  10.518 -0.3719 -0.6207  0.8840
  818MPD2    C312037   1.614   3.529  10.462 -0.8286  0.3927  0.2803
  818MPD2    C412038   1.726   3.610  10.444  0.1704  1.0257 -0.2671
  818MPD2    C512039   1.711   3.737  10.495  0.4046 -0.4150  0.2328
  818MPD2     H12040   1.412   3.494  10.519 -0.1635 -0.9029 -3.0400
  818MPD2    H112041   1.821   3.578  10.403 -1.0353 -0.8839 -1.5299
  818MPD2    H212042   1.595   3.862  10.618 -1.6990  0.0986 -1.4290
  818MPD2    H312043   1.791   3.810  10.486 -0.1127  0.2061  0.6642
  818MPD2     N12044   1.623   3.397  10.414 -0.3496  0.2933 -0.0803
  818MPD2    H512045   1.539   3.341  10.427  0.7643 -0.8085  2.3488
  818MPD2    N112046   1.377   3.725  10.664  0.2611 -0.2384 -0.1679
  818MPD2    H712047   1.311   3.650  10.680 -2.2418  2.5371  2.5897
  819MPD2     C12048   3.669   0.994  15.862  0.1649 -0.2542  0.0417
  819MPD2    C112049   3.656   0.863  15.815  0.2751  0.3433 -0.2313
  819MPD2    C212050   3.771   0.788  15.788 -0.4786 -0.6619  0.5903
  819MPD2    C312051   3.897   0.845  15.804  0.5028 -0.5666 -0.8576
  819MPD2    C412052   3.903   0.972  15.872 -0.4445 -0.6863  0.9364
  819MPD2    C512053   3.789   1.043  15.895  0.2666 -0.2797 -1.4124
  819MPD2     H12054   3.756   0.689  15.744  0.0762 -0.2908 -0.4447
  819MPD2    H112055   4.000   1.014  15.895  0.0619 -0.3006 -1.8045
  819MPD2    H212056   3.582   1.059  15.865 -1.8271 -2.8757 -1.4584
  819MPD2    H312057   3.798   1.146  15.926 -0.3504 -0.1261 -1.7498
  819MPD2     N12058   4.017   0.766  15.786 -0.1083 -0.0439  0.9584
  819MPD2    H512059   4.009   0.665  15.780  0.5199  0.0272 -0.9772
  819MPD2    N112060   3.527   0.813  15.789 -0.0264 -0.4498 -0.1950
  819MPD2    H712061   3.455   0.882  15.767 -0.9763 -1.0023  1.2076
  820MPD2     C12062   2.999   0.937  15.009  0.1701  0.0125  0.3486
  820MPD2    C112063   3.032   1.007  15.123 -0.4170  0.0942 -0.2821
  820MPD2    C212064   3.080   0.942  15.233  0.2734  0.5664  0.6104
  820MPD2    C312065   3.089   0.804  15.240 -0.3637  0.8007 -0.9438
  820MPD2    C412066   3.049   0.731  15.130  0.5992 -0.5235 -0.2442
  820MPD2    C512067   3.010   0.800  15.014  0.1262  0.4890 -0.4256
  820MPD2     H12068   3.097   1.004  15.321  0.6272  1.3920 -0.0367
  820MPD2    H112069   3.024   0.626  15.131  2.4046 -0.9242  1.8413
  820MPD2    H212070   2.978   0.987  14.915 -1.0732 -0.4282  0.3914
  820MPD2    H312071   2.978   0.746  14.925  1.1971 -0.9076  0.0365
  820MPD2     N12072   3.123   0.741  15.363 -0.1824 -0.7539  0.0066
  820MPD2    H512073   3.122   0.639  15.367 -0.3539 -0.6877  1.8143
  820MPD2    N112074   3.010   1.148  15.124  0.6385 -0.1572 -0.1560
  820MPD2    H712075   2.964   1.174  15.037 -0.7359  0.0486  0.6322
  821MPD2     C12076   3.677   2.295  13.210 -0.2180 -0.0949 -0.1762
  821MPD2    C112077   3.806   2.275  13.267  0.8242  0.1523 -0.0544
  821MPD2    C212078   3.912   2.332  13.207  0.0702 -0.3102  0.9344
  821MPD2    C312079   3.889   2.433  13.121  0.5531  0.0599  0.6804
  821MPD2    C412080   3.765   2.452  13.062  0.2778 -0.4976 -0.3261
  821MPD2    C512081   3.658   2.385  13.108  0.2079  0.2365  0.0522
  821MPD2     H12082   4.008   2.301  13.248  0.6901 -1.2218 -1.2388
  821MPD2    H112083   3.749   2.529  12.987 -0.3961  0.1507  0.4780
  821MPD2    H212084   3.595   2.235  13.247  0.3736  0.7211  2.4650
  821MPD2    H312085   3.562   2.403  13.062  0.8788 -1.2360 -1.9122
  821MPD2     N12086   3.993   2.507  13.061 -0.3145 -0.0725 -0.6018
  821MPD2    H512087   3.965   2.585  13.003 -4.3901 -0.5232  0.7621
  821MPD2    N112088   3.839   2.206  13.380 -0.5238  0.3418  0.0274
  821MPD2    H712089   3.938   2.195  13.398 -0.6438 -0.5055  0.1960
  822MPD2     C12090   4.287   2.261  15.720  1.0738 -0.0730  0.5754
  822MPD2    C112091   4.311   2.233  15.854 -0.9420  0.1692 -0.1255
  822MPD2    C212092   4.277   2.326  15.952 -0.5301 -0.4023 -0.0153
  822MPD2    C312093   4.238   2.453  15.918  0.2749 -0.5873 -0.5936
  822MPD2    C412094   4.220   2.478  15.785 -0.2581 -0.5916  0.0873
  822MPD2    C512095   4.234   2.384  15.688 -0.4957 -0.2733 -0.9330
  822MPD2     H12096   4.298   2.292  16.053 -0.9653 -1.2136 -0.1987
  822MPD2    H112097   4.184   2.573  15.746 -2.8921 -1.7945 -0.4445
  822MPD2    H212098   4.297   2.191  15.638 -2.7176 -1.4308  1.2747
  822MPD2    H312099   4.215   2.407  15.584  0.5384 -3.0916 -1.7690
  822MPD2     N12100   4.217   2.546  16.021 -0.2692  0.3530 -0.2937
  822MPD2    H512101   4.241   2.514  16.115  0.5022  0.8917 -0.3033
  822MPD2    N112102   4.347   2.099  15.894  0.2884  0.5114  0.0700
  822MPD2    H712103   4.363   2.076  15.992  1.1030 -3.1615 -0.9147
  823MPD2     C12104   3.760   2.863  16.680  0.2249  0.3927  0.1585
  823MPD2    C112105   3.833   2.767  16.615  0.3117  0.3550  0.1697
  823MPD2    C212106   3.858   2.648  16.679  0.4111 -0.4561  0.8699
  823MPD2    C312107   3.823   2.629  16.805  0.1210 -0.2007  0.1800
  823MPD2    C412108   3.745   2.717  16.868  0.8706  0.6216  0.0831
  823MPD2    C512109   3.707   2.830  16.803  0.0147 -0.2437 -0.0154
  823MPD2     H12110   3.915   2.572  16.626  0.5245  1.0827 -1.2486
  823MPD2    H112111   3.719   2.701  16.972 -0.1213  0.4190 -0.1952
  823MPD2    H212112   3.747   2.962  16.636  0.0663  0.0701 -0.5135
  823MPD2    H312113   3.645   2.901  16.856 -0.2591  1.0067 -2.0317
  823MPD2     N12114   3.866   2.517  16.879  0.5671  0.2049 -0.0606
  823MPD2    H512115   3.822   2.506  16.970  1.0790 -0.9170  0.0472
  823MPD2    N112116   3.882   2.797  16.480 -0.0062 -0.3261  0.1418
  823MPD2    H712117   3.894   2.896  16.464 -1.5339 -0.1009  0.3036
  824MPD2     C12118   4.592   1.261  15.740 -0.2093  0.5357 -0.2436
  824MPD2    C112119   4.697   1.352  15.738 -0.5294 -0.4143 -0.5535
  824MPD2    C212120   0.106   1.303  15.725  0.3389 -0.1644  0.8816
  824MPD2    C312121   0.128   1.166  15.707  0.2866 -0.7421  0.4166
  824MPD2    C412122   0.029   1.079  15.701 -0.2459  0.1874  0.4617
  824MPD2    C512123   4.619   1.128  15.716 -0.1714 -0.1597 -0.0074
  824MPD2     H12124   0.182   1.377  15.749  1.3442 -0.8620 -0.1752
  824MPD2    H112125   0.039   0.971  15.695 -1.6538  0.0886 -0.2219
  824MPD2    H212126   4.487   1.277  15.764  0.1341 -0.8704  2.2191
  824MPD2    H312127   4.544   1.051  15.710 -1.6604  1.4155 -1.8588
  824MPD2     N12128   0.262   1.123  15.685  0.1070  0.8768 -0.0304
  824MPD2    H512129   0.329   1.196  15.664  1.2783 -0.5666 -1.3083
  824MPD2    N112130   4.676   1.492  15.765  0.3316 -0.1732 -0.0324
  824MPD2    H712131   0.038   1.541  15.793 -1.5469  3.2646 -0.3561
  825MPD2     C12132   1.058   1.247  15.447 -0.6195  0.1057  0.0592
  825MPD2    C112133   0.924   1.267  15.429  0.3886  0.4418  0.6867
  825MPD2    C212134   0.880   1.393  15.376 -0.0128 -0.4694 -0.1849
  825MPD2    C312135   0.972   1.491  15.347  0.0182 -0.3698 -0.3336
  825MPD2    C412136   1.105   1.459  15.345 -0.0413 -0.6605  0.5813
  825MPD2    C512137   1.148   1.337  15.391  0.1347 -0.2038  0.3665
  825MPD2     H12138   0.776   1.404  15.347  1.0657  1.5537 -3.2849
  825MPD2    H112139   1.181   1.529  15.311 -0.8595 -0.4721 -0.8586
  825MPD2    H212140   1.092   1.154  15.492 -0.7210  1.2351  2.4404
  825MPD2    H312141   1.253   1.309  15.388  0.0923 -0.2914 -0.2812
  825MPD2     N12142   0.931   1.619  15.315 -0.4783  0.9169 -0.1041
  825MPD2    H512143   1.000   1.675  15.267 -1.0423  0.3860 -1.5252
  825MPD2    N112144   0.835   1.172  15.478 -0.3833  0.5651  0.0993
  825MPD2    H712145   0.882   1.087  15.509  1.1462  1.8080  1.1788
  826MPD2     C12146   0.884   1.766  13.658  1.2509  0.2517 -0.2442
  826MPD2    C112147   0.846   1.716  13.538 -0.1825  0.1366  0.6400
  826MPD2    C212148   0.711   1.731  13.497 -0.1382 -0.5799  0.2744
  826MPD2    C312149   0.616   1.796  13.577 -0.7547  0.9672  1.2816
  826MPD2    C412150   0.659   1.842  13.698  0.4637  0.4818 -0.0722
  826MPD2    C512151   0.788   1.824  13.733 -0.4932  0.0962  0.2076
  826MPD2     H12152   0.682   1.681  13.406  1.1728  0.8085 -0.9119
  826MPD2    H112153   0.596   1.890  13.773  0.5829  0.9736 -0.2869
  826MPD2    H212154   0.980   1.752  13.707  0.4352 -2.2300  0.6502
  826MPD2    H312155   0.816   1.853  13.834 -2.0441  0.8017  0.4347
  826MPD2     N12156   0.477   1.796  13.556 -0.1194  0.5165 -0.7638
  826MPD2    H512157   0.426   1.836  13.634 -1.7672  1.3729 -2.2554
  826MPD2    N112158   0.929   1.639  13.457 -0.0059 -0.3975  0.1044
  826MPD2    H712159   0.897   1.605  13.367 -1.6865  1.2833  0.0712
  827MPD2     C12160   2.179   2.292  10.183 -0.0206 -0.2863 -0.0481
  827MPD2    C112161   2.079   2.250  10.262  0.2433  0.0730 -0.2974
  827MPD2    C212162   1.976   2.193  10.199 -0.2470  0.2589 -0.0758
  827MPD2    C312163   1.968   2.170  10.064  0.7038  0.2603 -0.1247
  827MPD2    C412164   2.071   2.218   9.981  0.2168  0.1003 -0.0301
  827MPD2    C512165   2.180   2.271  10.050  0.3135  0.1550  0.7441
  827MPD2     H12166   1.885   2.159  10.247 -0.4798 -0.3345 -0.9396
  827MPD2    H112167   2.066   2.219   9.872 -1.7782 -3.0284  0.0605
  827MPD2    H212168   2.265   2.340  10.229  0.4399 -1.5763  0.4225
  827MPD2    H312169   2.266   2.308   9.995 -1.4112  0.8627 -1.4674
  827MPD2     N12170   1.854   2.108  10.011  0.2815  0.8511 -0.6792
  827MPD2    H512171   1.789   2.067  10.077  0.6020  2.0297  0.3709
  827MPD2    N112172   2.084   2.271  10.403  0.0200 -0.2195 -0.1860
  827MPD2    H712173   2.158   2.335  10.432  0.7229  0.2561 -3.0408
  828MPD2     C12174   4.231   2.717  12.716  0.2300 -0.7144  0.6584
  828MPD2    C112175   4.189   2.659  12.601  0.2057  1.0255 -0.0478
  828MPD2    C212176   4.278   2.634  12.494 -0.1730  0.4281  0.1601
  828MPD2    C312177   4.409   2.682  12.505 -0.0745 -0.5996 -0.8860
  828MPD2    C412178   4.447   2.745  12.618 -1.0255 -0.4048 -0.5260
  828MPD2    C512179   4.363   2.750  12.729  0.4358 -0.3506 -0.5938
  828MPD2     H12180   4.244   2.568  12.415  0.8093  0.4295 -0.2747
  828MPD2    H112181   4.544   2.788  12.640 -1.9542  1.3380  0.2545
  828MPD2    H212182   4.169   2.726  12.804 -0.5784  1.9805 -0.1925
  828MPD2    H312183   4.401   2.788  12.823 -2.5996 -0.6829  0.7647
  828MPD2     N12184   4.502   2.650  12.408 -0.0139  0.1253  0.0052
  828MPD2    H512185   4.593   2.695  12.410  0.0510  0.0204 -0.5814
  828MPD2    N112186   4.058   2.629  12.580 -0.0825 -0.2172  0.2366
  828MPD2    H712187   4.027   2.617  12.484  1.7631  0.6423 -0.4683
  829MPD2     C12188   3.723   2.959  11.865  0.4727  0.2343  0.9099
  829MPD2    C112189   3.645   3.014  11.971  0.6377 -0.1240 -0.2537
  829MPD2    C212190   3.634   2.939  12.087 -0.0200 -1.1718  0.0402
  829MPD2    C312191   3.705   2.826  12.115 -0.1530 -0.4995 -0.1565
  829MPD2    C412192   3.775   2.772  12.010 -0.1716  0.7720  0.1712
  829MPD2    C512193   3.786   2.838  11.890  0.5591  0.3845 -0.3517
  829MPD2     H12194   3.576   2.982  12.168 -0.7337  0.3101 -1.2610
  829MPD2    H112195   3.836   2.684  12.025 -0.9675  0.4108  1.3542
  829MPD2    H212196   3.732   3.001  11.765 -1.7193 -1.9644 -0.2310
  829MPD2    H312197   3.851   2.793  11.817  0.9012  0.3150 -0.0065
  829MPD2     N12198   3.717   2.764  12.243  0.3336 -0.0204 -0.3167
  829MPD2    H512199   3.774   2.681  12.255 -0.9724 -0.8937 -0.1405
  829MPD2    N112200   3.563   3.121  11.936  0.0253  0.1007 -0.6175
  829MPD2    H712201   3.564   3.148  11.838  3.4177 -0.2041 -0.6723
  830MPD2     C12202   0.109   0.522  15.494  0.3304 -0.5057  0.4864
  830MPD2    C112203   0.038   0.641  15.503  0.3933  0.2014 -0.1509
  830MPD2    C212204   0.064   0.747  15.417  0.1782 -0.9770  0.1604
  830MPD2    C312205   0.170   0.734  15.330 -0.1408  0.1354 -0.3074
  830MPD2    C412206   0.227   0.610  15.315  0.3987 -0.0109 -0.4538
  830MPD2    C512207   0.186   0.501  15.386  0.5340 -0.6706  0.1831
  830MPD2     H12208   0.004   0.838  15.410  0.7231 -0.4398  2.2778
  830MPD2    H112209   0.308   0.592  15.245  0.8865  1.5759 -0.2976
  830MPD2    H212210   0.082   0.448  15.569  0.4407 -0.5244  0.5081
  830MPD2    H312211   0.243   0.410  15.377 -1.7901 -2.1143  0.1950
  830MPD2     N12212   0.212   0.844  15.248 -0.2981 -0.1945  0.0056
  830MPD2    H512213   0.164   0.929  15.276  1.7987  1.1521 -0.4817
  830MPD2    N112214   4.658   0.643  15.600  1.4483 -0.0236 -0.4915
  830MPD2    H712215   4.634   0.552  15.638 -0.5454  0.1720 -1.2307
  831MPD2     C12216   4.442   2.564  16.362  0.5078 -0.2041 -0.1129
  831MPD2    C112217   4.422   2.441  16.300  0.1788 -0.2082 -0.2664
  831MPD2    C212218   4.315   2.359  16.326  0.1023  0.1005 -0.0863
  831MPD2    C312219   4.216   2.410  16.414  0.5814  0.0873  0.0231
  831MPD2    C412220   4.235   2.533  16.480 -0.2213 -0.3582 -0.1915
  831MPD2    C512221   4.348   2.609  16.451 -0.2676 -0.3897 -0.5662
  831MPD2     H12222   4.291   2.259  16.290  1.0595 -0.5958  1.2200
  831MPD2    H112223   4.165   2.581  16.547 -0.8449 -0.4523 -0.7788
  831MPD2    H212224   4.532   2.623  16.351  0.3402  0.0765  0.0227
  831MPD2    H312225   4.377   2.704  16.494  1.1773 -0.4558 -1.3890
  831MPD2     N12226   4.093   2.340  16.448  0.2198  0.6037 -0.5622
  831MPD2    H512227   4.032   2.378  16.520  0.7984  0.2243  0.1253
  831MPD2    N112228   4.523   2.400  16.213  0.4935  0.1183  0.1771
  831MPD2    H712229   4.592   2.470  16.188 -0.9437  1.4371 -0.0491
  832MPD2     C12230   2.863   3.235  17.445 -0.2236 -0.2248  0.8127
  832MPD2    C112231   2.860   3.358  17.393  0.3089  0.1280 -0.5679
  832MPD2    C212232   2.795   3.382  17.279 -0.0384  0.5054 -0.3295
  832MPD2    C312233   2.746   3.278  17.201  0.1163 -0.9263  0.4685
  832MPD2    C412234   2.748   3.149  17.257  0.4209 -0.1419  0.5362
  832MPD2    C512235   2.810   3.134  17.377 -0.4829  0.7739 -0.1688
  832MPD2     H12236   2.802   3.474  17.222  3.3871  0.1605 -0.4968
  832MPD2    H112237   2.699   3.065  17.209  1.1553  0.3921 -1.1685
  832MPD2    H212238   2.893   3.216  17.548 -0.5843  1.5726  1.2504
  832MPD2    H312239   2.819   3.036  17.422 -2.3333  1.8532  2.5819
  832MPD2     N12240   2.675   3.297  17.081  0.1852  0.1250  0.1899
  832MPD2    H512241   2.659   3.213  17.026  0.1953  0.1328  0.1750
  832MPD2    N112242   2.923   3.457  17.464 -0.9561 -0.1621  0.0702
  832MPD2    H712243   2.934   3.444  17.564 -2.8964 -0.6547  0.2192
  833MPD2     C12244   0.617   0.980  12.522 -0.1381 -0.1412 -0.0126
  833MPD2    C112245   0.555   0.859  12.533  0.7330 -0.2180 -0.1483
  833MPD2    C212246   0.619   0.739  12.540  0.5566 -0.1017  0.4515
  833MPD2    C312247   0.756   0.742  12.547  0.6051  0.3462 -0.1936
  833MPD2    C412248   0.823   0.865  12.552 -0.1050  0.1286  0.8312
  833MPD2    C512249   0.753   0.980  12.535  0.0301 -0.5122  0.4408
  833MPD2     H12250   0.564   0.645  12.537  0.7318 -0.1803 -0.1781
  833MPD2    H112251   0.929   0.870  12.575 -0.0117 -1.6831  0.8027
  833MPD2    H212252   0.565   1.075  12.517  1.4603  0.6476 -1.6470
  833MPD2    H312253   0.805   1.075  12.526  0.9165 -1.1915 -1.5691
  833MPD2     N12254   0.814   0.613  12.567 -0.3393 -0.0293 -0.9080
  833MPD2    H512255   0.743   0.541  12.580  0.9346 -0.8552  1.5008
  833MPD2    N112256   0.412   0.866  12.516 -0.1279 -0.4560  0.0394
  833MPD2    H712257   0.377   0.961  12.530  5.2017  1.1508  2.5565
  834MPD2     C12258   0.890   0.165  11.764  0.1393  0.4665  0.1296
  834MPD2    C112259   0.873   0.051  11.845  0.1216  0.5417  0.0877
  834MPD2    C212260   0.893   0.066  11.984  0.4324  1.2816  0.7436
  834MPD2    C312261   0.935   0.187  12.035  0.5693 -0.6779 -0.4726
  834MPD2    C412262   0.944   0.295  11.951  0.5598  0.0875  0.2113
  834MPD2    C512263   0.922   0.287  11.818 -0.0390  0.0451  0.0993
  834MPD2     H12264   0.899   4.696  12.041 -0.5458  0.4352 -0.5261
  834MPD2    H112265   0.973   0.396  11.980 -1.2182  1.2462 -2.0475
  834MPD2    H212266   0.862   0.164  11.660 -1.1008  3.6113  0.4326
  834MPD2    H312267   0.933   0.380  11.765 -0.1434  0.8225  1.4369
  834MPD2     N12268   0.940   0.197  12.174 -0.4834  0.0010 -0.0972
  834MPD2    H512269   0.902   0.118  12.227  1.6479  0.1646  1.6474
  834MPD2    N112270   0.826   4.657  11.782 -0.4789 -0.6458 -0.0188
  834MPD2    H712271   0.811   4.660  11.681 -1.8699  1.5580  0.2633
  835MPD2     C12272   0.938   2.634  11.400  0.2655 -0.0466 -0.3343
  835MPD2    C112273   0.814   2.697  11.406 -0.8163 -0.1553 -0.3760
  835MPD2    C212274   0.770   2.749  11.530  0.7518 -0.2824 -0.1234
  835MPD2    C312275   0.840   2.728  11.647 -0.0890 -0.3554 -0.5866
  835MPD2    C412276   0.957   2.660  11.638 -0.1338  0.1763  0.0431
  835MPD2    C512277   1.005   2.613  11.519 -0.3008 -0.1759 -0.4070
  835MPD2     H12278   0.667   2.783  11.531  1.9635  3.4351 -3.2810
  835MPD2    H112279   1.022   2.637  11.721 -0.1516 -0.8647 -0.2290
  835MPD2    H212280   0.990   2.611  11.307  0.0167 -0.4497 -0.3747
  835MPD2    H312281   1.100   2.562  11.525 -0.8227 -0.8921  1.6604
  835MPD2     N12282   0.804   2.774  11.777  0.2186  0.0524 -0.1015
  835MPD2    H512283   0.862   2.754  11.857 -2.7561 -1.3556  1.6883
  835MPD2    N112284   0.729   2.714  11.299  0.2135 -0.8179  0.1005
  835MPD2    H712285   0.645   2.770  11.310 -0.3879 -1.8918  0.9025
  836MPD2     C12286   0.164   2.706  11.881 -0.1985  0.5572 -0.4221
  836MPD2    C112287   0.186   2.780  11.992  0.1756  0.1587  0.0317
  836MPD2    C212288   0.082   2.819  12.076 -0.1093 -0.3659 -0.0516
  836MPD2    C312289   4.674   2.776  12.044  0.0083 -0.2621 -0.1595
  836MPD2    C412290   4.661   2.687  11.944 -0.5180  0.4303 -0.1245
  836MPD2    C512291   0.043   2.652  11.862  0.5952 -0.0293  0.7378
  836MPD2     H12292   0.102   2.889  12.156 -1.6762 -0.4229  0.3818
  836MPD2    H112293   4.568   2.637  11.923 -0.9996  1.4403 -0.4108
  836MPD2    H212294   0.239   2.683  11.806 -0.9415 -1.1272 -0.6602
  836MPD2    H312295   0.026   2.585  11.779  0.6315 -0.4529  1.0737
  836MPD2     N12296   4.551   2.818  12.096  0.4259 -0.3006  0.1019
  836MPD2    H512297   4.473   2.775  12.047  0.3296  0.4273 -0.3968
  836MPD2    N112298   0.321   2.835  12.009  0.2314 -0.2446 -0.2826
  836MPD2    H712299   0.390   2.809  11.939 -0.9359 -1.3279 -1.0392
  837MPD2     C12300   3.690   2.302  10.367  0.0157 -0.2223  0.3242
  837MPD2    C112301   3.658   2.282  10.233  0.1208 -0.6152  0.5429
  837MPD2    C212302   3.597   2.388  10.161 -0.3851 -1.2948  0.0501
  837MPD2    C312303   3.575   2.507  10.219 -0.0355 -0.1409 -1.2227
  837MPD2    C412304   3.629   2.534  10.347 -0.0481  0.1064 -0.0061
  837MPD2    C512305   3.674   2.431  10.419  0.0311 -1.3722 -0.1310
  837MPD2     H12306   3.560   2.361  10.063  1.1438 -0.2225 -0.8187
  837MPD2    H112307   3.600   2.625  10.398 -2.1594 -2.2230  3.0369
  837MPD2    H212308   3.729   2.220  10.426 -1.1445  0.0597  1.4805
  837MPD2    H312309   3.699   2.445  10.523 -1.7189 -1.0593  0.2430
  837MPD2     N12310   3.508   2.605  10.140  0.0319 -0.2325  0.1442
  837MPD2    H512311   3.488   2.574  10.046  1.0807  1.1123 -0.5200
  837MPD2    N112312   3.678   2.166  10.154 -0.3198 -0.5354 -0.1144
  837MPD2    H712313   3.667   2.169  10.053 -1.6221 -0.5648  0.0246
  838MPD2     C12314   1.933   1.372  11.821  0.8996  0.4202 -0.8308
  838MPD2    C112315   1.912   1.248  11.873 -0.0971  0.2275 -0.3883
  838MPD2    C212316   1.809   1.232  11.965  0.4251 -0.2262  0.2630
  838MPD2    C312317   1.721   1.326  11.996 -0.1706  0.1140 -0.8404
  838MPD2    C412318   1.753   1.454  11.960 -0.5474 -0.2629 -0.3364
  838MPD2    C512319   1.859   1.478  11.877  0.2505 -0.2708  0.6327
  838MPD2     H12320   1.781   1.130  11.991  0.7721 -0.8585 -1.7978
  838MPD2    H112321   1.691   1.536  11.994 -2.1191 -1.3675 -0.5155
  838MPD2    H212322   1.992   1.403  11.735 -0.8251  1.0987 -1.7713
  838MPD2    H312323   1.887   1.577  11.842  0.9613 -0.6490  0.1210
  838MPD2     N12324   1.604   1.287  12.072  0.0247  0.0055 -0.9012
  838MPD2    H512325   1.597   1.187  12.085  1.0318 -0.0004 -0.4524
  838MPD2    N112326   1.972   1.126  11.832 -0.0742 -0.1019  0.4815
  838MPD2    H712327   1.959   1.047  11.894 -1.9631 -0.2768 -0.1383
  839MPD2     C12328   1.642   0.432  12.052 -0.7242  0.0563 -0.2549
  839MPD2    C112329   1.687   0.384  11.933 -0.6495 -0.6550  0.2053
  839MPD2    C212330   1.789   0.461  11.874  0.2081  0.0372 -0.1557
  839MPD2    C312331   1.835   0.583  11.934  0.0848  0.4221 -1.2178
  839MPD2    C412332   1.787   0.621  12.060 -0.2101  1.0296  0.1306
  839MPD2    C512333   1.693   0.544  12.114 -0.6853 -1.2785 -0.8861
  839MPD2     H12334   1.824   0.431  11.775 -1.5007  1.4958 -1.2061
  839MPD2    H112335   1.815   0.713  12.111  0.1673  0.4459  0.9820
  839MPD2    H212336   1.584   0.378  12.125 -0.2716 -1.2396 -0.8527
  839MPD2    H312337   1.649   0.567  12.211  0.4147 -1.9951 -0.2186
  839MPD2     N12338   1.934   0.670  11.875  0.6831  0.0075 -0.5709
  839MPD2    H512339   1.956   0.757  11.921  0.8983  0.5226 -1.6471
  839MPD2    N112340   1.633   0.271  11.870  0.4734 -0.5858 -0.2649
  839MPD2    H712341   1.667   0.258  11.775 -0.2960 -1.6683 -0.3954
  840MPD2     C12342   2.207   2.801  10.547  0.4261  0.1755 -0.3404
  840MPD2    C112343   2.175   2.749  10.667 -0.4118  0.1054  0.1384
  840MPD2    C212344   2.219   2.807  10.785 -0.4240  0.0749 -0.2927
  840MPD2    C312345   2.310   2.912  10.781 -0.7843  0.5897  1.0926
  840MPD2    C412346   2.348   2.961  10.654  0.7834 -0.4814 -0.6407
  840MPD2    C512347   2.299   2.900  10.542 -0.0945  0.1189 -0.2520
  840MPD2     H12348   2.198   2.764  10.882 -2.1803 -0.7074 -1.0259
  840MPD2    H112349   2.417   3.043  10.644  1.7297 -1.3247 -0.9676
  840MPD2    H212350   2.184   2.761  10.449 -0.4706 -1.6197  0.5928
  840MPD2    H312351   2.337   2.943  10.450  1.7476  1.3862  1.1093
  840MPD2     N12352   2.379   2.983  10.888  0.2783  0.7051  0.1470
  840MPD2    H512353   2.429   3.068  10.863 -0.4147  0.4261 -2.2187
  840MPD2    N112354   2.076   2.648  10.671  0.0770  1.2366 -0.1213
  840MPD2    H712355   2.040   2.615  10.582 -0.9546  4.1156 -0.7733
  841MPD2     C12356   1.594   2.855  14.607 -0.4092  0.0873 -0.5411
  841MPD2    C112357   1.620   2.825  14.474 -0.3806 -0.1536 -0.0446
  841MPD2    C212358   1.651   2.932  14.391 -0.0984 -0.1933  0.5933
  841MPD2    C312359   1.661   3.061  14.432 -0.4077  0.5551  0.4000
  841MPD2    C412360   1.646   3.082  14.570 -0.2556 -0.6344  0.2363
  841MPD2    C512361   1.602   2.982  14.655 -0.8217 -0.3645 -0.4158
  841MPD2     H12362   1.638   2.914  14.285 -0.9782  1.1877  0.4683
  841MPD2    H112363   1.643   3.179  14.619  0.8407 -1.0401  1.1168
  841MPD2    H212364   1.557   2.779  14.674 -0.4894  1.1231  0.5953
  841MPD2    H312365   1.577   3.002  14.759 -1.5254  0.3616 -0.7240
  841MPD2     N12366   1.686   3.164  14.341  0.1135  0.1557 -0.0895
  841MPD2    H512367   1.669   3.134  14.245  1.8163 -2.2589  0.3542
  841MPD2    N112368   1.606   2.695  14.427  0.1959  0.1113 -0.1446
  841MPD2    H712369   1.611   2.681  14.326  2.3847 -1.6908  0.2163
  842MPD2     C12370   2.205   3.788  16.997  0.2219  0.3434  0.3284
  842MPD2    C112371   2.081   3.750  16.952 -0.3787 -0.6178  0.5160
  842MPD2    C212372   2.013   3.649  17.009 -0.9949  0.0542  0.0199
  842MPD2    C312373   2.062   3.590  17.125  0.8043  0.2712  0.1078
  842MPD2    C412374   2.188   3.624  17.174  0.2032  0.1060  0.0382
  842MPD2    C512375   2.256   3.717  17.102  0.5199 -0.0915 -0.2614
  842MPD2     H12376   1.909   3.640  16.981 -0.6314 -1.4121 -0.9121
  842MPD2    H112377   2.229   3.580  17.264  0.9897 -0.7022 -0.7147
  842MPD2    H212378   2.274   3.860  16.955 -0.4238 -0.3016 -1.8290
  842MPD2    H312379   2.360   3.735  17.126  0.2415  1.9509 -0.6415
  842MPD2     N12380   1.990   3.494  17.198  0.5442  0.0961  0.2409
  842MPD2    H512381   2.033   3.460  17.283 -1.8185 -0.4629  1.2256
  842MPD2    N112382   2.034   3.809  16.834 -0.3001 -0.1564  0.2550
  842MPD2    H712383   2.090   3.871  16.776 -0.6927  0.4786  0.5453
  843MPD2     C12384   4.099   4.168   0.082  0.3819  0.1823  0.4825
  843MPD2    C112385   4.175   4.156   0.197  0.0059  0.0027 -0.1596
  843MPD2    C212386   4.291   4.232   0.209 -0.3433 -0.3495  0.6962
  843MPD2    C312387   4.337   4.306   0.105 -0.7655  0.1405  0.6592
  843MPD2    C412388   4.258   4.315  17.679  0.0680  0.5218  0.5026
  843MPD2    C512389   4.134   4.252  17.671 -0.2093 -0.5292 -0.3241
  843MPD2     H12390   4.351   4.219   0.298  0.4936  2.7732  0.5973
  843MPD2    H112391   4.292   4.371  17.592  0.2330 -0.6607 -0.1900
  843MPD2    H212392   4.004   4.117   0.071  1.5808 -2.1621  1.0499
  843MPD2    H312393   4.066   4.257  17.586 -4.0809 -1.3381  2.7531
  843MPD2     N12394   4.461   4.373   0.103  0.3302 -1.0442  0.2340
  843MPD2    H512395   4.483   4.417   0.014 -0.5770  1.9068  1.4967
  843MPD2    N112396   4.116   4.079   0.299 -0.1703 -0.1365  0.4976
  843MPD2    H712397   4.024   4.036   0.290 -1.5895  3.1381 -0.8162
  844MPD2     C12398   2.752   2.650  16.551 -0.0118 -0.3943 -0.2027
  844MPD2    C112399   2.714   2.777  16.544  0.0319  0.4908  0.0621
  844MPD2    C212400   2.782   2.881  16.612 -0.9126 -0.4597 -0.5879
  844MPD2    C312401   2.875   2.851  16.713 -0.2872  0.6121 -0.4181
  844MPD2    C412402   2.901   2.716  16.728 -0.0912 -0.5503  0.0340
  844MPD2    C512403   2.849   2.621  16.640  0.4314  0.0848 -1.0219
  844MPD2     H12404   2.767   2.985  16.587 -1.2865 -0.2707  0.4167
  844MPD2    H112405   2.977   2.674  16.793  0.5398 -1.1193 -1.0560
  844MPD2    H212406   2.703   2.574  16.491 -0.3332  0.1563 -0.6418
  844MPD2    H312407   2.885   2.520  16.652  0.8321  0.3567  0.1169
  844MPD2     N12408   2.919   2.958  16.795  0.1452 -0.2712 -0.5248
  844MPD2    H512409   2.889   3.050  16.763 -1.5900 -1.1813 -1.4644
  844MPD2    N112410   2.611   2.805  16.454  0.5951  0.3442  0.1268
  844MPD2    H712411   2.577   2.731  16.393  1.3870  0.7911 -0.8626
  845MPD2     C12412   2.845   3.906  16.898 -0.1656 -0.7355  0.5552
  845MPD2    C112413   2.873   3.886  17.033 -0.2416  0.3505 -0.7949
  845MPD2    C212414   2.926   3.763  17.067 -0.5797  0.1707 -0.4026
  845MPD2    C312415   2.953   3.665  16.969 -0.2812 -0.4707  0.4780
  845MPD2    C412416   2.935   3.697  16.836  0.0740  0.1012  0.3181
  845MPD2    C512417   2.877   3.817  16.800  0.6995 -0.3438 -0.2962
  845MPD2     H12418   2.968   3.743  17.165  2.1602 -0.5362 -1.7047
  845MPD2    H112419   2.953   3.626  16.756  1.7816  1.3390 -0.4033
  845MPD2    H212420   2.784   3.988  16.861  1.6305  0.1843 -0.3847
  845MPD2    H312421   2.858   3.850  16.698 -0.8001 -1.2833 -0.3242
  845MPD2     N12422   3.015   3.542  17.014 -0.3630  0.5504  0.0325
  845MPD2    H512423   3.047   3.538  17.110  0.8012  1.2063 -0.3390
  845MPD2    N112424   2.840   3.982  17.129 -0.3519 -0.3772 -0.2172
  845MPD2    H712425   2.792   4.065  17.096  1.7067  1.2896  1.0352
  846MPD2     C12426   0.079   4.551  13.858 -0.4025 -0.3726  0.5761
  846MPD2    C112427   4.715   4.647  13.901 -0.0385  0.7823  0.2003
  846MPD2    C212428   4.683   4.649  14.038  0.0951 -0.8655 -0.2391
  846MPD2    C312429   4.720   4.551  14.128  0.0782 -0.8231  0.1876
  846MPD2    C412430   0.085   4.453  14.079  0.5624 -0.1918  0.9853
  846MPD2    C512431   0.137   4.465  13.952  0.1161  0.4181  0.0230
  846MPD2     H12432   4.603   4.715  14.069 -0.1830 -0.9648 -0.7320
  846MPD2    H112433   0.122   4.367  14.134 -0.2895 -2.2764 -1.6639
  846MPD2    H212434   0.118   4.554  13.757  1.3659  0.0669  1.2858
  846MPD2    H312435   0.204   4.391  13.909  0.8998  0.1458  1.7278
  846MPD2     N12436   4.673   4.546  14.260 -0.1793  0.4373 -0.4682
  846MPD2    H512437   4.618   4.627  14.287 -0.3240  0.0212  0.4859
  846MPD2    N112438   4.669   0.032  13.820 -0.4169  0.4065 -0.1109
  846MPD2    H712439   4.617   0.109  13.860  0.2999  1.1037 -0.5020
  847MPD2     C12440   4.326   0.576  14.378 -0.5080  0.0836 -0.3361
  847MPD2    C112441   4.430   0.662  14.352  0.4168  0.1226 -0.5978
  847MPD2    C212442   4.560   0.615  14.368 -0.1617 -0.7003  0.6696
  847MPD2    C312443   4.585   0.499  14.438 -0.3192 -0.3667 -0.0254
  847MPD2    C412444   4.482   0.414  14.466  0.0398  0.1395  0.1062
  847MPD2    C512445   4.354   0.451  14.435 -0.5722 -0.5759 -0.2266
  847MPD2     H12446   4.641   0.685  14.351 -2.1775  1.5259  0.2830
  847MPD2    H112447   4.497   0.317  14.511 -1.9747 -0.7326 -1.0779
  847MPD2    H212448   4.221   0.597  14.360 -0.2131  1.7183 -0.0666
  847MPD2    H312449   4.274   0.377  14.433  0.0364 -1.1970 -1.7501
  847MPD2     N12450   4.717   0.486  14.490 -0.1520  0.1796 -0.2062
  847MPD2    H512451   0.053   0.569  14.487  1.1785 -0.7642 -0.0721
  847MPD2    N112452   4.411   0.805  14.331 -0.4394  0.2431  0.4677
  847MPD2    H712453   4.495   0.862  14.335 -0.2009  0.1124 -2.4846
  848MPD2     C12454   2.285   3.761  16.463  0.3375  0.4312 -0.3177
  848MPD2    C112455   2.388   3.770  16.561 -0.0660 -0.3097 -0.2629
  848MPD2    C212456   2.481   3.872  16.562  0.2537 -0.2309 -0.3520
  848MPD2    C312457   2.476   3.963  16.461  0.2676 -1.0237  0.3962
  848MPD2    C412458   2.380   3.949  16.364 -0.1889  0.8705  0.1962
  848MPD2    C512459   2.291   3.849  16.363  0.4439  0.4477  0.0569
  848MPD2     H12460   2.550   3.874  16.646  0.7180  1.6201 -0.7915
  848MPD2    H112461   2.391   4.009  16.274  1.6339  0.8032  0.3640
  848MPD2    H212462   2.206   3.686  16.465  0.9067 -0.1577  0.1523
  848MPD2    H312463   2.228   3.838  16.275  0.6550 -1.1792  0.1114
  848MPD2     N12464   2.561   4.073  16.446 -0.4016 -0.3275 -0.0301
  848MPD2    H512465   2.543   4.128  16.362 -0.4524  2.2897  1.6740
  848MPD2    N112466   2.393   3.682  16.668  0.4214 -0.1547 -0.5127
  848MPD2    H712467   2.464   3.686  16.740 -1.1667  0.2611  1.0369
  849MPD2     C12468   2.115   3.587  13.340 -0.1196 -0.3937  0.2105
  849MPD2    C112469   2.252   3.586  13.375  0.1578  0.7828  0.4340
  849MPD2    C212470   2.286   3.613  13.505  0.6675 -0.1438  0.0484
  849MPD2    C312471   2.199   3.650  13.604  0.0984  0.0786 -0.1646
  849MPD2    C412472   2.066   3.659  13.572  0.2131 -0.1673 -0.2459
  849MPD2    C512473   2.031   3.622  13.439  0.2551 -0.0679  0.1872
  849MPD2     H12474   2.388   3.595  13.536  0.3455  0.5217  1.4954
  849MPD2    H112475   1.986   3.692  13.636 -0.3066 -0.7354 -0.6003
  849MPD2    H212476   2.077   3.579  13.239  0.4282 -0.9006  0.0475
  849MPD2    H312477   1.926   3.615  13.412  0.6322 -0.1458 -1.2577
  849MPD2     N12478   2.247   3.664  13.737  0.2970 -0.0075  0.4371
  849MPD2    H512479   2.343   3.632  13.750 -0.5280 -1.7587  2.3054
  849MPD2    N112480   2.343   3.552  13.275 -0.6751 -0.5402 -0.0900
  849MPD2    H712481   2.312   3.549  13.178 -1.1780 -3.2602  0.1557
  850MPD2     C12482   4.316   1.683  14.587 -0.3089 -0.1170  0.1830
  850MPD2    C112483   4.307   1.750  14.710  0.8823  0.5069  0.2758
  850MPD2    C212484   4.425   1.783  14.776 -0.1696  0.3552 -0.4542
  850MPD2    C312485   4.542   1.748  14.720 -0.3644 -0.1129  0.3644
  850MPD2    C412486   4.557   1.690  14.597 -0.4832 -0.4196 -0.1067
  850MPD2    C512487   4.438   1.659  14.532  0.5893 -0.2144 -0.2914
  850MPD2     H12488   4.424   1.835  14.871  1.1607 -2.6404  1.2166
  850MPD2    H112489   4.650   1.668  14.546  0.0141 -0.0269  0.6464
  850MPD2    H212490   4.230   1.653  14.528  0.4061 -1.3712 -0.2118
  850MPD2    H312491   4.437   1.622  14.430 -2.1303  0.2819 -0.4424
  850MPD2     N12492   4.668   1.768  14.794  0.4228  0.0340 -0.1806
  850MPD2    H512493   0.029   1.736  14.747 -0.4228  0.4169 -1.9445
  850MPD2    N112494   4.173   1.772  14.749  0.0068  0.3674  0.1906
  850MPD2    H712495   4.106   1.774  14.673  1.1336 -0.7464 -0.8287
  851MPD2     C12496   4.675   1.649  15.446 -0.0101  0.4319 -0.6080
  851MPD2    C112497   4.612   1.598  15.334  0.1887  0.4360 -0.0039
  851MPD2    C212498   4.664   1.489  15.269  0.1884  0.4675 -0.6128
  851MPD2    C312499   0.069   1.444  15.298  0.8031  0.3352 -0.2858
  851MPD2    C412500   0.129   1.490  15.416  0.6555 -0.8992 -0.1559
  851MPD2    C512501   0.067   1.591  15.487  0.3187  0.2793 -0.1503
  851MPD2     H12502   4.618   1.450  15.179  0.4593 -2.0955  0.3598
  851MPD2    H112503   0.224   1.459  15.457  0.8071  1.2735  1.1830
  851MPD2    H212504   4.642   1.730  15.510  0.9012  0.4145 -0.1249
  851MPD2    H312505   0.126   1.635  15.568 -1.3853  1.5171  0.4222
  851MPD2     N12506   0.123   1.353  15.207  0.4032 -1.0580 -0.0331
  851MPD2    H512507   0.069   1.329  15.125 -1.8428  1.0423  0.8193
  851MPD2    N112508   4.500   1.668  15.282  0.5088  0.5531 -0.3641
  851MPD2    H712509   4.467   1.745  15.337 -0.4125  0.4049 -0.7072
  852MPD2     C12510   0.012   3.075  11.131 -0.5961 -0.3405 -0.6670
  852MPD2    C112511   0.033   3.212  11.148 -0.0809  0.0688  0.4205
  852MPD2    C212512   0.109   3.278  11.057 -0.7550 -0.5408 -0.3967
  852MPD2    C312513   0.165   3.207  10.947 -0.3033  0.3495  0.2240
  852MPD2    C412514   0.142   3.072  10.935  0.0408  0.4276 -0.0191
  852MPD2    C512515   0.061   3.005  11.027 -0.8357 -0.0289 -0.1458
  852MPD2     H12516   0.126   3.384  11.070 -1.4572 -0.2338 -2.0005
  852MPD2    H112517   0.184   3.001  10.864  1.0202  1.2853 -0.2889
  852MPD2    H212518   4.669   3.015  11.193  1.9581 -2.2422  0.1785
  852MPD2    H312519   0.043   2.899  11.012 -0.2008  0.1974 -2.4888
  852MPD2     N12520   0.235   3.280  10.850  0.3428  0.1072  0.3739
  852MPD2    H512521   0.242   3.378  10.877  1.1580  0.3466 -0.6826
  852MPD2    N112522   4.695   3.286  11.258 -0.1639 -0.5814  0.1789
  852MPD2    H712523   4.702   3.388  11.261 -0.5649 -0.5380 -0.4696
  853MPD2     C12524   1.821   4.535  12.628 -0.0553 -0.4925  0.0838
  853MPD2    C112525   1.704   4.471  12.662 -0.1576  0.4571 -0.0808
  853MPD2    C212526   1.671   4.360  12.581  0.2462 -0.5237  0.1092
  853MPD2    C312527   1.749   4.319  12.472  0.6079 -0.1758 -0.4895
  853MPD2    C412528   1.870   4.377  12.451  0.0370  0.5162  0.2869
  853MPD2    C512529   1.905   4.480  12.534 -0.0017  0.3176 -0.8187
  853MPD2     H12530   1.581   4.304  12.605  0.3851 -0.7605  0.0867
  853MPD2    H112531   1.934   4.347  12.368  0.7181 -1.2354  1.4275
  853MPD2    H212532   1.866   4.609  12.694  0.4398  0.4432 -1.3154
  853MPD2    H312533   2.002   4.524  12.515  1.0176 -2.3753 -1.7954
  853MPD2     N12534   1.723   4.218  12.380  0.3446 -0.3619  0.8740
  853MPD2    H512535   1.792   4.203  12.307 -0.2162 -2.0416  0.6903
  853MPD2    N112536   1.638   4.506  12.786 -0.9489 -0.1048 -0.2092
  853MPD2    H712537   1.663   4.600  12.816 -0.2664 -0.0062 -1.0764
  854MPD2     C12538   3.633   4.444  13.480  0.4133  0.1299 -0.6661
  854MPD2    C112539   3.582   4.360  13.380  0.2598  0.0514  0.3370
  854MPD2    C212540   3.646   4.239  13.363 -0.8601  0.5574 -0.4647
  854MPD2    C312541   3.760   4.203  13.449  0.5820  0.6315  0.3181
  854MPD2    C412542   3.805   4.300  13.541  0.4123 -0.4768 -0.6521
  854MPD2    C512543   3.740   4.421  13.557  0.4298  0.5479  0.2871
  854MPD2     H12544   3.610   4.169  13.288 -3.9161  1.3609  0.2584
  854MPD2    H112545   3.883   4.272  13.611 -0.1112 -2.5381 -0.8696
  854MPD2    H212546   3.590   4.542  13.499 -1.4233 -0.5939 -1.0453
  854MPD2    H312547   3.768   4.489  13.637  2.1821  0.3247 -0.1460
  854MPD2     N12548   3.828   4.080  13.447  0.6292 -0.0042  0.0011
  854MPD2    H512549   3.891   4.060  13.523  0.7922 -0.4015 -0.2357
  854MPD2    N112550   3.465   4.394  13.315 -0.4465  0.5523 -0.4364
  854MPD2    H712551   3.416   4.477  13.347 -1.1038 -0.5528  1.3774
  855MPD2     C12552   3.905   3.787  14.172 -0.1374  0.5243 -0.5562
  855MPD2    C112553   3.861   3.666  14.120 -0.1554 -0.2372  0.4441
  855MPD2    C212554   3.862   3.654  13.983 -0.6805  0.0938  0.1091
  855MPD2    C312555   3.922   3.748  13.905  0.1189 -0.0977 -0.7523
  855MPD2    C412556   3.961   3.868  13.952  0.2056 -0.2847 -0.3277
  855MPD2    C512557   3.957   3.887  14.091 -0.3597  0.3367  0.3420
  855MPD2     H12558   3.831   3.557  13.945 -0.3046 -0.3026  0.8110
  855MPD2    H112559   3.995   3.948  13.887 -1.3172 -0.4845 -1.3535
  855MPD2    H212560   3.893   3.815  14.276 -1.2877 -2.9290  0.2421
  855MPD2    H312561   3.963   3.983  14.141 -0.6345  0.6045 -0.1418
  855MPD2     N12562   3.923   3.738  13.765  0.0446 -0.7194  0.3799
  855MPD2    H512563   3.951   3.819  13.710 -0.5048  2.2618  4.4211
  855MPD2    N112564   3.808   3.568  14.203 -0.1127 -0.3190  0.3003
  855MPD2    H712565   3.749   3.497  14.161  0.5518 -0.4549 -0.4144
  856MPD2     C12566   0.788   0.317  14.142 -0.7131  0.3849 -0.2679
  856MPD2    C112567   0.855   0.436  14.170 -0.0624 -0.0318 -0.5298
  856MPD2    C212568   0.809   0.563  14.132 -0.7071 -0.1221 -0.8630
  856MPD2    C312569   0.690   0.571  14.073  1.2407  1.0153  0.1607
  856MPD2    C412570   0.622   0.453  14.045 -0.4782  0.0878  0.6970
  856MPD2    C512571   0.671   0.328  14.071  0.1271  0.1119  0.0816
  856MPD2     H12572   0.866   0.654  14.149 -1.6233  0.4761 -0.9891
  856MPD2    H112573   0.535   0.462  13.981 -0.0861  0.8017  0.2613
  856MPD2    H212574   0.821   0.218  14.170 -2.2868  0.2721  1.2058
  856MPD2    H312575   0.609   0.249  14.030 -0.6026  1.1665 -0.8799
  856MPD2     N12576   0.626   0.699  14.051  0.0312  0.3784 -0.2050
  856MPD2    H512577   0.532   0.679  14.018  0.1936  0.9165 -0.9936
  856MPD2    N112578   0.976   0.436  14.244  0.3002 -0.0907 -0.0209
  856MPD2    H712579   1.021   0.526  14.259 -0.9446  0.7780 -1.5181
  857MPD2     C12580   2.305   2.405  12.898 -0.1615 -0.3592  0.0053
  857MPD2    C112581   2.439   2.379  12.895  0.2446 -0.0855 -0.6875
  857MPD2    C212582   2.523   2.483  12.877 -0.1119  0.4251 -0.8620
  857MPD2    C312583   2.484   2.612  12.862  0.1192  0.0872 -0.4777
  857MPD2    C412584   2.349   2.636  12.870  0.4088 -0.0632 -0.4309
  857MPD2    C512585   2.263   2.534  12.891 -0.3403  0.0683  0.2349
  857MPD2     H12586   2.630   2.467  12.881 -0.4020 -1.3238 -0.0789
  857MPD2    H112587   2.305   2.733  12.852  0.4881 -0.2868 -1.8703
  857MPD2    H212588   2.230   2.329  12.914 -0.8171  0.5332  1.1810
  857MPD2    H312589   2.159   2.564  12.899  0.0275  1.5312 -0.3406
  857MPD2     N12590   2.587   2.707  12.849 -0.5460  0.0749  0.5024
  857MPD2    H512591   2.683   2.675  12.860  0.1242  2.1469  0.6046
  857MPD2    N112592   2.479   2.244  12.905 -0.8295 -0.3797  0.0224
  857MPD2    H712593   2.402   2.181  12.924  0.3656 -0.8859  3.0478
  858MPD2     C12594   2.371   1.025  16.713 -0.5393 -0.2584  0.9184
  858MPD2    C112595   2.509   1.013  16.739  0.2675  0.5462  0.1173
  858MPD2    C212596   2.571   1.105  16.814 -0.2143 -0.2633  0.8009
  858MPD2    C312597   2.504   1.206  16.879  0.2013  0.0021 -0.1887
  858MPD2    C412598   2.375   1.219  16.849  0.7449  0.1750  0.1565
  858MPD2    C512599   2.305   1.131  16.767  0.8492 -0.3063  0.0883
  858MPD2     H12600   2.677   1.093  16.828  0.2135  2.3975 -0.1814
  858MPD2    H112601   2.317   1.300  16.889 -1.0187  0.0229 -2.0803
  858MPD2    H212602   2.323   0.944  16.658  1.7078 -1.9167  1.3959
  858MPD2    H312603   2.197   1.136  16.755  0.3922 -1.7960  3.2490
  858MPD2     N12604   2.561   1.296  16.973 -0.3642  0.0433 -0.2666
  858MPD2    H512605   2.499   1.354  17.028 -1.4807 -0.3146 -1.1500
  858MPD2    N112606   2.603   0.913  16.701 -0.5486 -0.1111  0.5794
  858MPD2    H712607   2.702   0.931  16.712 -0.5402  0.4555 -0.4058
  859MPD2     C12608   1.771   3.279  14.940 -0.2398 -0.8790 -0.0572
  859MPD2    C112609   1.842   3.296  14.825  0.0890 -0.3445  0.3826
  859MPD2    C212610   1.892   3.179  14.762 -1.1137  0.4590 -0.5705
  859MPD2    C312611   1.877   3.054  14.811 -0.1597  0.0964 -1.2295
  859MPD2    C412612   1.801   3.042  14.925 -0.2230  0.6027 -0.1863
  859MPD2    C512613   1.751   3.151  14.992  0.1802 -0.1826  0.3512
  859MPD2     H12614   1.943   3.194  14.668 -1.1063 -0.3326 -0.6921
  859MPD2    H112615   1.778   2.947  14.972  1.0746  0.4669  0.1516
  859MPD2    H212616   1.735   3.364  14.997  2.8971  0.2486  0.2662
  859MPD2    H312617   1.700   3.127  15.085 -0.4976  0.3487  0.1183
  859MPD2     N12618   1.923   2.933  14.749 -0.3843 -0.0434  0.2871
  859MPD2    H512619   1.900   2.844  14.791 -2.6445 -0.8411 -2.5810
  859MPD2    N112620   1.867   3.427  14.765  0.4683 -0.2588  0.1912
  859MPD2    H712621   1.822   3.501  14.817  1.5927  0.8015 -0.3508
  860MPD2     C12622   4.517   3.819  12.239 -0.2660  0.2445  0.7454
  860MPD2    C112623   4.435   3.858  12.338 -0.0160  1.2453 -0.0100
  860MPD2    C212624   4.298   3.835  12.327 -0.9446  0.2093 -0.2539
  860MPD2    C312625   4.245   3.780  12.219  0.3411  0.2735  0.5762
  860MPD2    C412626   4.323   3.762  12.108 -0.1301 -0.1976 -0.0123
  860MPD2    C512627   4.459   3.782  12.124  0.2916  0.7047 -0.2314
  860MPD2     H12628   4.233   3.860  12.410 -0.0347  0.4048  0.4085
  860MPD2    H112629   4.285   3.729  12.012 -0.5151  0.8086 -0.2049
  860MPD2    H212630   4.625   3.819  12.244 -0.1291 -0.4664 -1.9886
  860MPD2    H312631   4.523   3.754  12.041  0.5426 -0.8431  0.4735
  860MPD2     N12632   4.112   3.742  12.221  0.0548  0.8477  0.0738
  860MPD2    H512633   4.063   3.751  12.310  0.5589 -1.2479  0.5670
  860MPD2    N112634   4.484   3.896  12.468 -0.3425 -0.4609 -0.2334
  860MPD2    H712635   4.420   3.893  12.547 -0.5397 -0.2866 -0.3852
  861MPD2     C12636   2.649   1.734  11.449  0.0872  0.0194 -0.0375
  861MPD2    C112637   2.730   1.837  11.471  0.6473  1.1264  0.0263
  861MPD2    C212638   2.758   1.926  11.360  1.1962 -0.2519  0.0536
  861MPD2    C312639   2.687   1.918  11.243 -0.4291 -0.7080 -0.7765
  861MPD2    C412640   2.597   1.815  11.224 -0.2220  0.5917 -0.2225
  861MPD2    C512641   2.583   1.723  11.329  0.1377 -0.2206  0.2146
  861MPD2     H12642   2.842   1.994  11.369  1.4280 -0.6118  0.6260
  861MPD2    H112643   2.543   1.805  11.131  1.1174 -0.8164 -0.8470
  861MPD2    H212644   2.634   1.656  11.522  2.9918  0.5425  1.1038
  861MPD2    H312645   2.532   1.630  11.310  3.1433 -1.6431 -0.7707
  861MPD2     N12646   2.702   2.010  11.142  0.2432 -0.2310 -0.4969
  861MPD2    H512647   2.645   1.997  11.059 -0.4178  0.1079 -0.0972
  861MPD2    N112648   2.785   1.854  11.601 -0.6783  0.6240  0.4140
  861MPD2    H712649   2.752   1.789  11.672  2.0188 -0.1333  0.9545
  862MPD2     C12650   2.573   2.253  10.449 -1.2343 -0.5150 -0.1348
  862MPD2    C112651   2.608   2.155  10.537  0.1868  0.5727  0.0426
  862MPD2    C212652   2.596   2.027  10.503  0.0627 -0.1264 -1.2094
  862MPD2    C312653   2.550   1.987  10.377  0.0500  0.0370 -0.0093
  862MPD2    C412654   2.536   2.092  10.279 -0.1850  0.0575 -0.0246
  862MPD2    C512655   2.535   2.220  10.324  0.8122  0.6033  0.1259
  862MPD2     H12656   2.618   1.953  10.580  0.9534  2.0109  0.5959
  862MPD2    H112657   2.499   2.078  10.178 -2.6169 -0.6756  0.9554
  862MPD2    H212658   2.589   2.360  10.461  0.1453 -0.7284 -0.0866
  862MPD2    H312659   2.509   2.297  10.252  0.4139 -0.2595 -0.6400
  862MPD2     N12660   2.548   1.851  10.346  0.2020 -0.1231 -0.5011
  862MPD2    H512661   2.564   1.781  10.418 -1.4554 -0.8111 -0.7846
  862MPD2    N112662   2.662   2.185  10.666  0.0218 -0.0309 -0.2267
  862MPD2    H712663   2.676   2.114  10.737 -1.1558  0.2462  0.2847
  863MPD2     C12664   0.874   0.758  17.308  0.2476 -0.0471 -0.0448
  863MPD2    C112665   0.947   0.693  17.210 -0.4418 -0.2724 -0.8284
  863MPD2    C212666   1.036   0.589  17.254  0.0999  0.1461 -0.8269
  863MPD2    C312667   1.043   0.557  17.392 -0.5808  0.3629  0.0551
  863MPD2    C412668   0.949   0.609  17.480 -0.1987  0.1588  0.4282
  863MPD2    C512669   0.859   0.701  17.429 -0.2235  0.3155  0.2601
  863MPD2     H12670   1.083   0.525  17.181 -1.5054 -1.9825 -0.0113
  863MPD2    H112671   0.938   0.572  17.581 -0.4487  2.2441  1.1602
  863MPD2    H212672   0.811   0.842  17.279 -0.0719 -0.4990 -0.6556
  863MPD2    H312673   0.795   0.752  17.500  1.3293 -1.1315  2.6986
  863MPD2     N12674   1.129   0.459  17.445 -0.9951  0.7705  0.1362
  863MPD2    H512675   1.108   0.420  17.536  0.8290  0.0538  0.2566
  863MPD2    N112676   0.925   0.726  17.070  0.5236 -0.3091  0.2103
  863MPD2    H712677   0.850   0.792  17.051 -1.0873 -2.1796  0.1376
  864MPD2     C12678   1.673   1.435  17.658  1.0306 -0.3236  0.1650
  864MPD2    C112679   1.751   1.383  17.555  0.2091 -0.2784 -0.4616
  864MPD2    C212680   1.765   1.458  17.439 -0.4233  0.0851 -0.2918
  864MPD2    C312681   1.713   1.587  17.427 -0.7156 -0.5765 -0.0702
  864MPD2    C412682   1.641   1.642  17.534 -0.0416  0.7273  0.4305
  864MPD2    C512683   1.629   1.560  17.646 -0.3310 -0.4129  0.0870
  864MPD2     H12684   1.803   1.411  17.349 -1.1855  3.1045 -2.1854
  864MPD2    H112685   1.600   1.742  17.536 -0.2269  0.6625 -0.2039
  864MPD2    H212686   1.666   1.374   0.056 -1.9248 -0.2720 -0.0443
  864MPD2    H312687   1.585   1.600   0.046 -1.6919 -0.0870 -0.7060
  864MPD2     N12688   1.719   1.660  17.312 -0.8250 -0.2305  0.2222
  864MPD2    H512689   1.664   1.745  17.317 -0.0317  0.4662 -3.0222
  864MPD2    N112690   1.804   1.253  17.579  0.0795  0.3513  0.0301
  864MPD2    H712691   1.753   1.194  17.644  2.4874 -0.7596  0.9046
  865MPD2     C12692   1.657   2.123  16.562 -0.1697  0.0422 -0.4153
  865MPD2    C112693   1.668   2.007  16.632  0.2234 -0.0193  0.0851
  865MPD2    C212694   1.626   2.002  16.762  0.2504  0.1216  0.2744
  865MPD2    C312695   1.593   2.120  16.835 -0.1816 -0.2788  1.1463
  865MPD2    C412696   1.583   2.230  16.767 -0.5241 -0.0592  0.2369
  865MPD2    C512697   1.614   2.229  16.637 -0.3487 -0.3838  0.2524
  865MPD2     H12698   1.613   1.906  16.810 -3.8146  0.3131 -0.4482
  865MPD2    H112699   1.547   2.323  16.812  0.2103  0.9119 -1.1779
  865MPD2    H212700   1.688   2.137  16.460  0.7611  2.2781  0.1810
  865MPD2    H312701   1.611   2.318  16.575 -1.6504 -0.4934  0.1701
  865MPD2     N12702   1.573   2.135  16.972  0.6753  0.5286  0.6104
  865MPD2    H512703   1.505   2.206  16.998 -0.0924  0.3996 -1.0372
  865MPD2    N112704   1.718   1.889  16.570  0.0921 -0.0404 -0.2311
  865MPD2    H712705   1.734   1.887  16.470  0.0946 -0.3267 -0.2257
  866MPD2     C12706   3.578   3.146  11.349  0.6537  0.2435 -0.7275
  866MPD2    C112707   3.602   3.015  11.366 -0.1164  0.0760 -0.0892
  866MPD2    C212708   3.502   2.923  11.348  0.0447  0.1202  0.4895
  866MPD2    C312709   3.374   2.956  11.311  0.2495  0.3257 -0.5273
  866MPD2    C412710   3.353   3.093  11.280 -0.3466 -0.3861  0.8702
  866MPD2    C512711   3.456   3.182  11.291 -0.1809 -0.0306  0.1960
  866MPD2     H12712   3.513   2.816  11.362  0.3971  0.1761  0.6184
  866MPD2    H112713   3.254   3.122  11.246  0.1448 -1.3154 -1.3261
  866MPD2    H212714   3.660   3.216  11.336  0.7840  0.5636  1.9707
  866MPD2    H312715   3.439   3.277  11.242 -0.0432 -1.0031 -1.7719
  866MPD2     N12716   3.279   2.852  11.283 -0.1897  0.7058  0.4787
  866MPD2    H512717   3.325   2.763  11.265  0.7194  1.7862 -2.6277
  866MPD2    N112718   3.734   2.982  11.412  0.3154 -0.3187  0.0565
  866MPD2    H712719   3.786   3.065  11.438 -2.1322  0.8109  1.2763
  867MPD2     C12720   0.545   1.640  17.036  0.1689 -0.6467 -0.5888
  867MPD2    C112721   0.623   1.593  17.136  0.1995  0.3892 -0.3167
  867MPD2    C212722   0.702   1.677  17.217 -1.3020 -0.4059  0.4443
  867MPD2    C312723   0.712   1.808  17.184  1.0567  0.2606  0.4581
  867MPD2    C412724   0.651   1.851  17.070 -0.1184 -0.4636 -0.6342
  867MPD2    C512725   0.558   1.773  17.004  0.5642 -0.4563  0.3661
  867MPD2     H12726   0.753   1.633  17.301  0.0437 -0.0240 -0.1790
  867MPD2    H112727   0.669   1.949  17.029 -1.0752 -0.3835 -0.8609
  867MPD2    H212728   0.472   1.582  16.982 -1.3162 -0.3470  1.1084
  867MPD2    H312729   0.505   1.811  16.916  1.3386 -2.0501 -0.7834
  867MPD2     N12730   0.796   1.910  17.237 -0.0283  0.6570 -0.6237
  867MPD2    H512731   0.786   2.004  17.201 -4.5073  0.4121 -0.0738
  867MPD2    N112732   0.622   1.456  17.148  0.2867  0.6260 -0.2173
  867MPD2    H712733   0.559   1.401  17.091 -0.7413  1.3200  0.2680
  868MPD2     C12734   2.494   0.898  12.816  0.2359  0.2728  0.1188
  868MPD2    C112735   2.489   0.842  12.944 -0.1496 -0.3867 -0.1510
  868MPD2    C212736   2.383   0.874  13.032 -0.0036  0.1630 -0.7011
  868MPD2    C312737   2.281   0.960  12.993 -0.4012  0.4724 -0.0344
  868MPD2    C412738   2.293   1.022  12.869  0.1176 -0.1648 -0.7598
  868MPD2    C512739   2.394   0.987  12.784  0.2604 -0.2023 -0.1082
  868MPD2     H12740   2.394   0.857  13.139 -0.3921 -0.6675 -0.7941
  868MPD2    H112741   2.228   1.102  12.836 -2.3788 -1.4516  1.0028
  868MPD2    H212742   2.567   0.860  12.746 -1.7480 -1.0743 -1.2027
  868MPD2    H312743   2.396   1.036  12.688  0.7500 -0.1182 -0.0556
  868MPD2     N12744   2.180   1.003  13.084  0.5184  1.0564  0.4251
  868MPD2    H512745   2.133   1.092  13.071  0.9739  1.3204  0.5910
  868MPD2    N112746   2.604   0.764  12.979  0.8806  0.4556  0.4375
  868MPD2    H712747   2.679   0.754  12.912  0.0561 -0.1136 -0.4032
  869MPD2     C12748   4.314   3.452   2.065 -0.0691  0.4057 -0.3292
  869MPD2    C112749   4.363   3.486   1.942 -0.3443  0.8367  0.8800
  869MPD2    C212750   4.309   3.603   1.881 -0.4980  0.0727 -0.3433
  869MPD2    C312751   4.218   3.683   1.951  0.0553 -0.0419 -0.3491
  869MPD2    C412752   4.163   3.638   2.069  0.2615  0.2853  0.0987
  869MPD2    C512753   4.218   3.524   2.125  0.6249 -0.1310 -0.2045
  869MPD2     H12754   4.332   3.622   1.777 -0.7321  1.0013 -0.2248
  869MPD2    H112755   4.086   3.688   2.126  0.8896  1.8044 -0.3799
  869MPD2    H212756   4.329   3.355   2.113 -0.7055 -0.4046 -1.7689
  869MPD2    H312757   4.169   3.487   2.214  0.0851  1.2339  0.0675
  869MPD2     N12758   4.166   3.802   1.891 -0.1679  1.0547  0.6038
  869MPD2    H512759   4.079   3.832   1.934 -1.0532 -1.1432  0.3378
  869MPD2    N112760   4.447   3.395   1.886  0.3795 -0.0907  0.1451
  869MPD2    H712761   4.484   3.315   1.937  1.1250 -0.3663 -0.8269
  870MPD2     C12762   3.338   2.339   2.004 -0.2992  0.5961  0.7933
  870MPD2    C112763   3.433   2.310   1.910  0.2663 -0.6941 -0.0687
  870MPD2    C212764   3.435   2.372   1.787 -0.3425 -0.2631  0.3963
  870MPD2    C312765   3.331   2.454   1.752 -0.0619  0.2158 -0.4874
  870MPD2    C412766   3.249   2.497   1.857  0.1620 -0.5039 -0.5746
  870MPD2    C512767   3.254   2.443   1.981 -0.4462  0.1062  0.4303
  870MPD2     H12768   3.495   2.332   1.706  0.9155 -0.4256  1.4001
  870MPD2    H112769   3.174   2.576   1.852 -0.3130 -0.9590 -0.7075
  870MPD2    H212770   3.338   2.286   2.098 -0.3536 -1.7490 -0.5074
  870MPD2    H312771   3.204   2.486   2.067 -1.3607  1.6512 -0.8797
  870MPD2     N12772   3.324   2.505   1.617 -0.3736  0.1997  0.0904
  870MPD2    H512773   3.403   2.485   1.556 -0.4142 -1.0498  0.4343
  870MPD2    N112774   3.521   2.209   1.927 -0.2227 -0.2815 -0.3378
  870MPD2    H712775   3.596   2.196   1.860  1.2958 -0.2073  1.3615
  871MPD2     C12776   3.801   1.794  16.628  1.0284  0.2230 -0.0600
  871MPD2    C112777   3.885   1.787  16.735  0.2108 -0.4326 -0.0871
  871MPD2    C212778   3.967   1.679  16.767  0.1160  0.0666  0.1374
  871MPD2    C312779   3.983   1.586  16.666 -0.3099  0.0459  0.0906
  871MPD2    C412780   3.909   1.597  16.549  0.9718 -0.7886  0.2413
  871MPD2    C512781   3.824   1.703  16.527 -0.3688  0.5200 -0.1083
  871MPD2     H12782   4.027   1.682  16.857  0.1054 -0.4522  0.1662
  871MPD2    H112783   3.929   1.531  16.466 -0.2301 -0.4010 -0.3479
  871MPD2    H212784   3.743   1.883  16.605  2.8376  1.1176 -1.1349
  871MPD2    H312785   3.773   1.711  16.432 -0.2674  1.4418 -0.0809
  871MPD2     N12786   4.074   1.480  16.691 -0.0211 -0.5771  0.6656
  871MPD2    H512787   4.125   1.488  16.778 -0.1834  0.6823  0.6466
  871MPD2    N112788   3.883   1.909  16.806  0.9788 -0.7152  0.0683
  871MPD2    H712789   3.829   1.990  16.778  0.8934 -0.5791  0.6318
  872MPD2     C12790   0.950   4.007  14.218  0.3539  0.1507  0.3510
  872MPD2    C112791   0.928   4.135  14.260 -0.7058  0.3617  0.1560
  872MPD2    C212792   0.820   4.155  14.351  0.6684  0.3358 -1.0228
  872MPD2    C312793   0.730   4.051  14.379  0.0536  0.4102 -0.2653
  872MPD2    C412794   0.752   3.927  14.329  0.6933  0.1039  0.0323
  872MPD2    C512795   0.864   3.904  14.254  0.3276 -0.4026  0.2398
  872MPD2     H12796   0.804   4.257  14.385  1.9034 -0.1907  1.1368
  872MPD2    H112797   0.687   3.842  14.349  2.0131 -1.0877 -0.7228
  872MPD2    H212798   1.047   3.974  14.183 -1.0919 -2.3759 -1.2409
  872MPD2    H312799   0.889   3.801  14.230 -0.1596 -0.6819  0.9178
  872MPD2     N12800   0.616   4.073  14.460 -0.1774  0.3182 -1.0668
  872MPD2    H512801   0.616   4.146  14.530  1.1844 -1.6581  1.0049
  872MPD2    N112802   1.015   4.241  14.235 -0.2734 -0.9103  0.1431
  872MPD2    H712803   0.983   4.323  14.287  0.1255 -1.3313  1.0491
  873MPD2     C12804   1.701   4.108   0.970  0.1577  0.2871 -0.3143
  873MPD2    C112805   1.750   4.069   1.093  0.3517 -0.7744 -0.4712
  873MPD2    C212806   1.798   3.939   1.103  0.0398  0.1281  0.3048
  873MPD2    C312807   1.750   3.842   1.008  0.9796  0.9108  0.1795
  873MPD2    C412808   1.677   3.881   0.898  0.1389  0.4763 -0.4794
  873MPD2    C512809   1.666   4.018   0.870 -0.5230 -0.3408 -0.0866
  873MPD2     H12810   1.858   3.904   1.186  0.7932 -0.7944 -0.6224
  873MPD2    H112811   1.647   3.811   0.822 -1.7541  2.9312 -2.0191
  873MPD2    H212812   1.679   4.213   0.949 -1.9883 -0.5224 -2.1161
  873MPD2    H312813   1.619   4.053   0.779 -0.3030  1.2463  0.4095
  873MPD2     N12814   1.773   3.702   1.016 -0.1097  0.6605 -0.4016
  873MPD2    H512815   1.744   3.642   0.939  1.1724 -1.3320  0.6666
  873MPD2    N112816   1.781   4.170   1.187  0.4420  0.3948 -0.2886
  873MPD2    H712817   1.755   4.264   1.160 -0.0432  0.4044  0.2201
  874MPD2     C12818   2.018   4.466  16.354  0.7940 -0.1793 -0.3060
  874MPD2    C112819   2.075   4.340  16.361 -0.2389  0.2407  0.7076
  874MPD2    C212820   2.208   4.317  16.327  0.1658 -0.8116 -0.4925
  874MPD2    C312821   2.280   4.435  16.325 -0.5862 -0.0040 -0.6379
  874MPD2    C412822   2.229   4.561  16.333  0.6052 -0.1467  0.6788
  874MPD2    C512823   2.092   4.577  16.331  0.1924 -0.0666 -0.3889
  874MPD2     H12824   2.254   4.220  16.311  3.3619  0.6799 -0.3702
  874MPD2    H112825   2.297   4.645  16.326  0.1020 -0.1016 -4.1498
  874MPD2    H212826   1.911   4.477  16.368  0.6562  0.4947 -1.8538
  874MPD2    H312827   2.045   4.674  16.337 -0.4180 -0.3844 -0.0366
  874MPD2     N12828   2.422   4.448  16.295 -0.6523  0.7076 -0.5752
  874MPD2    H512829   2.464   4.531  16.335  0.4771  0.4196 -1.1570
  874MPD2    N112830   1.990   4.237  16.395  0.5825 -0.0842  0.3731
  874MPD2    H712831   1.889   4.247  16.385  0.9679 -0.6063 -3.8169
  875MPD2     C12832   2.308   2.540  14.741  0.3176  0.7241 -1.1033
  875MPD2    C112833   2.401   2.641  14.706  1.2283 -0.4543 -0.2971
  875MPD2    C212834   2.437   2.735  14.802 -0.8214  0.2200  0.4143
  875MPD2    C312835   2.394   2.721  14.933 -0.0605 -0.0786  1.1317
  875MPD2    C412836   2.310   2.619  14.965  0.1487 -0.1224  0.9823
  875MPD2    C512837   2.265   2.533  14.866  0.0524 -0.0460  0.1615
  875MPD2     H12838   2.508   2.814  14.780  1.8783 -1.8410  1.6693
  875MPD2    H112839   2.281   2.598  15.067 -1.2872 -0.5536  0.4884
  875MPD2    H212840   2.258   2.476  14.669  1.4460  0.2456 -1.4564
  875MPD2    H312841   2.184   2.466  14.893 -0.9001  0.6878 -0.9297
  875MPD2     N12842   2.439   2.812  15.027 -0.6286 -0.1341  0.5503
  875MPD2    H512843   2.500   2.886  14.993 -0.3722 -0.4012  0.4250
  875MPD2    N112844   2.445   2.667  14.576  0.1958 -0.4686  0.0247
  875MPD2    H712845   2.496   2.752  14.553 -1.0169 -0.0241 -1.0105
  876MPD2     C12846   2.362   4.289  15.774 -0.2903  0.2740  0.3298
  876MPD2    C112847   2.365   4.174  15.697 -0.3898  0.1398  0.7821
  876MPD2    C212848   2.285   4.066  15.728  0.2597 -0.1192 -0.1592
  876MPD2    C312849   2.224   4.060  15.852  0.6150  0.3975 -0.1812
  876MPD2    C412850   2.227   4.174  15.933  0.8073 -0.4459 -0.4632
  876MPD2    C512851   2.309   4.285  15.901 -0.6878  0.8734 -0.3854
  876MPD2     H12852   2.265   3.980  15.666  0.7415  0.2661 -0.8463
  876MPD2    H112853   2.178   4.171  16.030 -0.8102  1.4986 -1.2360
  876MPD2    H212854   2.424   4.374  15.748  0.6831 -1.0434 -1.6829
  876MPD2    H312855   2.313   4.375  15.962  3.1084  1.1039 -1.0108
  876MPD2     N12856   2.160   3.934  15.882 -0.1713 -0.2557 -0.0157
  876MPD2    H512857   2.162   3.865  15.807  0.0474  1.8563 -1.9529
  876MPD2    N112858   2.438   4.177  15.578  0.0024  0.0134 -0.0502
  876MPD2    H712859   2.481   4.268  15.567  1.4787 -1.0319 -2.7380
  877MPD2     C12860   2.425   4.651  15.184  0.2253 -0.5967  0.6651
  877MPD2    C112861   2.498   4.572  15.099  0.2902  0.3400 -1.0001
  877MPD2    C212862   2.485   4.582  14.965  0.6785  0.2957  0.3876
  877MPD2    C312863   2.375   4.657  14.919 -0.0930  0.5473 -0.2795
  877MPD2    C412864   2.282   4.717  15.007 -0.6383  0.1534  0.3715
  877MPD2    C512865   2.312   0.003  15.140 -0.5030  0.1631  0.3207
  877MPD2     H12866   2.561   4.536  14.903  0.7820  0.1453  0.6273
  877MPD2    H112867   2.188   0.043  14.982 -0.0041 -0.9062 -4.0587
  877MPD2    H212868   2.437   4.650  15.292 -0.7756 -2.7609  0.7531
  877MPD2    H312869   2.247   0.063  15.202 -2.0895  0.6398 -1.8155
  877MPD2     N12870   2.344   4.678  14.788  0.1563  0.4233 -0.1508
  877MPD2    H512871   2.251   4.711  14.764 -0.0015 -0.9207 -1.4118
  877MPD2    N112872   2.599   4.485  15.144  0.0745 -0.2730 -0.0755
  877MPD2    H712873   2.656   4.446  15.070 -0.1770 -0.5077 -0.1481
  878MPD2     C12874   2.314   3.898  12.550 -0.0097  0.3906 -0.5401
  878MPD2    C112875   2.305   3.957  12.670  0.2166  0.6364 -0.7315
  878MPD2    C212876   2.369   3.910  12.786  1.1534 -1.0637 -0.0451
  878MPD2    C312877   2.465   3.811  12.764 -0.9763 -0.5143  0.2358
  878MPD2    C412878   2.489   3.763  12.635  0.0451  0.2103 -0.4592
  878MPD2    C512879   2.408   3.797  12.532 -0.4161  0.7515 -0.3176
  878MPD2     H12880   2.342   3.939  12.886 -0.0700 -0.0260 -0.6847
  878MPD2    H112881   2.563   3.688  12.610 -0.4219  0.0928 -1.4736
  878MPD2    H212882   2.258   3.915  12.459 -0.0859 -1.2390 -0.7926
  878MPD2    H312883   2.422   3.736  12.444 -0.3838 -0.7806  0.7665
  878MPD2     N12884   2.531   3.763  12.877 -0.0222 -0.1274  0.1505
  878MPD2    H512885   2.500   3.795  12.968  3.3930 -1.1211  1.6463
  878MPD2    N112886   2.206   4.056  12.686  0.0030 -0.0451 -0.1196
  878MPD2    H712887   2.150   4.068  12.601  1.3087  1.3211 -0.7766
  879MPD2     C12888   2.476   4.534  17.647  0.7370  0.1705 -0.0040
  879MPD2    C112889   2.399   4.421  17.640 -0.2674 -0.5135 -0.7295
  879MPD2    C212890   2.300   4.405  17.541  0.1632  0.5496 -0.6529
  879MPD2    C312891   2.274   4.502  17.449  0.1700 -0.0883  0.4917
  879MPD2    C412892   2.355   4.612  17.451 -1.1156 -0.8982  0.1118
  879MPD2    C512893   2.462   4.626  17.546  0.4070  0.0243 -0.9152
  879MPD2     H12894   2.247   4.310  17.538 -0.0118  0.6426 -0.4311
  879MPD2    H112895   2.343   4.685  17.372  3.9837 -1.8699 -1.5234
  879MPD2    H212896   2.561   4.544   0.023  0.6402  0.0601  0.1366
  879MPD2    H312897   2.527   4.713  17.542  1.5738 -0.7572  1.1662
  879MPD2     N12898   2.167   4.500  17.347  0.2378  0.0031 -0.4431
  879MPD2    H512899   2.165   4.585  17.292  1.1981  0.3807  0.0898
  879MPD2    N112900   2.425   4.322   0.041  0.1171  0.0253 -0.0424
  879MPD2    H712901   2.507   4.345   0.096 -0.9767  1.5631  0.9216
  880MPD2     C12902   3.540   1.804  17.625 -0.6773 -0.2341 -0.0829
  880MPD2    C112903   3.576   1.798   0.068 -0.1537 -0.0616  0.1771
  880MPD2    C212904   3.629   1.681   0.125  1.3510 -0.3090  0.3935
  880MPD2    C312905   3.655   1.573   0.045 -0.0898  0.4139 -0.3524
  880MPD2    C412906   3.614   1.570  17.605  0.1682  0.3404 -0.5156
  880MPD2    C512907   3.565   1.686  17.556 -0.3733 -0.0466 -0.5345
  880MPD2     H12908   3.675   1.687   0.223  0.1535  1.3541  0.8549
  880MPD2    H112909   3.635   1.486  17.540 -1.9460 -0.3174 -0.3285
  880MPD2    H212910   3.525   1.894  17.567  2.6789  0.7497  0.5763
  880MPD2    H312911   3.541   1.687  17.450  0.0688 -2.4494 -0.6640
  880MPD2     N12912   3.702   1.456   0.109 -0.5035  0.3934  0.0141
  880MPD2    H512913   3.730   1.463   0.206  0.6543 -0.7506 -0.2319
  880MPD2    N112914   3.560   1.917   0.141  0.1116 -0.0881 -0.7766
  880MPD2    H712915   3.531   1.995   0.083 -1.0315  0.3140  0.3336
  881MPD2     C12916   3.418   2.885   0.036 -0.4048  1.2491 -0.2691
  881MPD2    C112917   3.398   2.779  17.645  0.6117 -1.2273 -0.1956
  881MPD2    C212918   3.408   2.651   0.016  0.3517 -0.3691 -0.3601
  881MPD2    C312919   3.414   2.630   0.148  0.4680 -0.2083 -0.1520
  881MPD2    C412920   3.411   2.743   0.226 -0.4119 -0.2492  0.4205
  881MPD2    C512921   3.420   2.869   0.172  0.0734 -0.4918 -0.2318
  881MPD2     H12922   3.411   2.557  17.651 -1.8269 -0.5013 -0.2627
  881MPD2    H112923   3.419   2.741   0.334 -0.8096 -1.7279  0.4109
  881MPD2    H212924   3.424   2.990   0.009  0.1774  0.6588 -2.4679
  881MPD2    H312925   3.436   2.957   0.232 -1.8431 -1.0306  1.0661
  881MPD2     N12926   3.433   2.503   0.218 -0.0504 -0.0568 -0.7032
  881MPD2    H512927   3.439   2.511   0.319 -0.0249 -1.1656 -0.6166
  881MPD2    N112928   3.399   2.806  17.509 -0.1200  1.2377  0.4895
  881MPD2    H712929   3.391   2.901  17.476  0.6138  1.3499  0.6378
  882MPD2     C12930   2.083   4.268  14.118 -0.5638  0.8214 -0.5637
  882MPD2    C112931   2.048   4.336  14.230  0.5754  0.0432 -0.1483
  882MPD2    C212932   1.932   4.300  14.301 -0.1577 -0.5124  1.3123
  882MPD2    C312933   1.861   4.196  14.252  0.1439 -0.2289 -0.1471
  882MPD2    C412934   1.897   4.126  14.138 -0.3618  0.2969 -0.3703
  882MPD2    C512935   2.006   4.166  14.066 -0.1409 -0.1731 -0.0259
  882MPD2     H12936   1.906   4.353  14.391  0.3563 -1.2303  1.8824
  882MPD2    H112937   1.841   4.038  14.105 -1.2373 -0.3977  3.0255
  882MPD2    H212938   2.165   4.293  14.052 -0.7549 -1.3883 -1.6415
  882MPD2    H312939   2.031   4.116  13.974 -1.8780 -1.1278  0.0127
  882MPD2     N12940   1.740   4.151  14.319  0.1625  0.5166 -0.2150
  882MPD2    H512941   1.668   4.108  14.262 -0.4026  1.1722  0.0160
  882MPD2    N112942   2.130   4.443  14.273 -0.4800 -0.4858  0.0143
  882MPD2    H712943   2.220   4.454  14.227 -1.0884  0.2725 -0.9990
  883MPD2     C12944   3.980   4.060  16.710 -0.8290 -0.3364 -0.3558
  883MPD2    C112945   4.077   4.119  16.626 -0.6508  0.5386 -0.0465
  883MPD2    C212946   4.200   4.147  16.678 -0.6097 -0.2558 -0.3051
  883MPD2    C312947   4.230   4.140  16.809  0.5604  0.5669 -0.3573
  883MPD2    C412948   4.139   4.081  16.887 -0.3794  0.4930  0.0968
  883MPD2    C512949   4.023   4.027  16.837 -0.0398  0.7499 -0.0949
  883MPD2     H12950   4.266   4.198  16.609 -0.1086  0.7003  0.8981
  883MPD2    H112951   4.155   4.067  16.994 -2.5690 -1.7551  0.1085
  883MPD2    H212952   3.883   4.028  16.674 -1.6376 -2.5545  3.7282
  883MPD2    H312953   3.965   3.960  16.898  0.5950 -1.1306 -1.5592
  883MPD2     N12954   4.352   4.189  16.861  0.7661 -0.5284  0.1326
  883MPD2    H512955   4.414   4.237  16.797  0.7228 -0.9948 -0.2662
  883MPD2    N112956   4.056   4.147  16.489  0.3131 -0.3521  0.4889
  883MPD2    H712957   4.137   4.180  16.437  0.5771  1.9181  2.3267
  884MPD2     C12958   1.086   4.672  15.484 -0.2413  0.4351 -0.1759
  884MPD2    C112959   1.099   0.083  15.449  0.3571 -0.2997 -0.0661
  884MPD2    C212960   0.988   0.165  15.442 -0.4650  0.4129 -1.4193
  884MPD2    C312961   0.857   0.113  15.461 -0.1999 -0.2842  0.0218
  884MPD2    C412962   0.853   4.701  15.508  0.2155  0.5054 -0.1589
  884MPD2    C512963   0.967   4.625  15.519  0.0335 -0.2711  0.3255
  884MPD2     H12964   0.997   0.267  15.408 -0.5498  0.7688 -0.3844
  884MPD2    H112965   0.757   4.654  15.526 -0.6013  2.3054  0.2117
  884MPD2    H212966   1.170   4.604  15.495  0.9255  2.0033  0.5848
  884MPD2    H312967   0.954   4.522  15.550  2.5308 -0.3616  1.0864
  884MPD2     N12968   0.748   0.195  15.448  0.3273 -0.1150 -0.2177
  884MPD2    H512969   0.768   0.287  15.410 -0.1740  0.0171 -0.1580
  884MPD2    N112970   1.223   0.130  15.400  0.0536  0.3342 -0.1547
  884MPD2    H712971   1.223   0.227  15.370  0.1397  0.0501 -1.0771
  885MPD2     C12972   3.796   0.726   0.074  0.3888 -0.3880 -0.0769
  885MPD2    C112973   3.897   0.645   0.032 -0.5943  1.1626 -0.3952
  885MPD2    C212974   3.926   0.637  17.587 -0.2650  0.0543 -0.7013
  885MPD2    C312975   3.866   0.721  17.496 -0.1080  0.0104  0.7901
  885MPD2    C412976   3.769   0.805  17.542 -1.0681 -0.2312  0.7520
  885MPD2    C512977   3.733   0.815  17.677  0.1159 -0.1291  0.4334
  885MPD2     H12978   4.002   0.569  17.549  0.2304  0.7578 -0.9684
  885MPD2    H112979   3.714   0.869  17.474 -1.5490  0.7011  1.9970
  885MPD2    H212980   3.781   0.731   0.182 -0.9066 -0.8166 -0.2444
  885MPD2    H312981   3.659   0.889   0.017  0.2436  0.8689 -1.7366
  885MPD2     N12982   3.907   0.709  17.362 -0.1443  0.9309 -0.1570
  885MPD2    H512983   3.966   0.630  17.337 -1.0874  0.0233  0.5076
  885MPD2    N112984   3.961   0.572   0.129 -0.1603  0.7786 -0.2266
  885MPD2    H712985   3.922   0.578   0.222 -0.4659  3.1294 -0.5246
  886MPD2     C12986   0.687   3.353  15.032 -0.4887 -0.5342  0.0613
  886MPD2    C112987   0.815   3.388  15.077  0.1934  0.4111 -0.4162
  886MPD2    C212988   0.860   3.510  15.032  0.2869 -0.5135  0.2196
  886MPD2    C312989   0.781   3.592  14.959  0.9377 -0.1650  0.2329
  886MPD2    C412990   0.652   3.558  14.921 -1.0616  0.1068  0.9821
  886MPD2    C512991   0.608   3.435  14.954  0.3128 -0.1573  0.2907
  886MPD2     H12992   0.960   3.544  15.058 -0.1589  0.0819  1.1804
  886MPD2    H112993   0.581   3.617  14.863 -0.0261 -0.6005 -0.9973
  886MPD2    H212994   0.641   3.261  15.065 -1.0280 -0.6355 -0.9507
  886MPD2    H312995   0.506   3.408  14.929 -0.4721  2.2388  0.8575
  886MPD2     N12996   0.842   3.712  14.915  0.0896  0.4662  0.0858
  886MPD2    H512997   0.943   3.722  14.927  0.7459 -2.7239 -2.7510
  886MPD2    N112998   0.898   3.297  15.150 -0.0347 -0.4833 -0.0447
  886MPD2    H712999   0.990   3.327  15.182 -1.1624  2.7471  0.0717
  887MPD2     C13000   1.512   3.280  15.571 -0.0331 -0.4747 -0.6397
  887MPD2    C113001   1.388   3.331  15.528  0.0044 -0.6380  0.4873
  887MPD2    C213002   1.357   3.459  15.563  0.4141 -0.0353  0.5250
  887MPD2    C313003   1.438   3.538  15.644 -0.3381  0.2207 -0.5858
  887MPD2    C413004   1.555   3.483  15.689  0.0054 -0.5549 -0.0599
  887MPD2    C513005   1.596   3.357  15.646 -0.7415  0.1527  0.1134
  887MPD2     H13006   1.261   3.498  15.530 -0.8742 -3.1375  0.6129
  887MPD2    H113007   1.629   3.535  15.748  2.5129 -0.3572 -3.3799
  887MPD2    H213008   1.558   3.191  15.529 -2.4816 -2.2957  0.4815
  887MPD2    H313009   1.692   3.318  15.678 -0.5468 -0.3895 -1.1307
  887MPD2     N13010   1.393   3.661  15.694  0.5174 -0.1690  0.4865
  887MPD2    H513011   1.301   3.700  15.676  0.9461  0.9255  0.7074
  887MPD2    N113012   1.302   3.256  15.439 -0.2814  0.0200  0.3766
  887MPD2    H713013   1.218   3.301  15.404 -0.4667 -0.3129  0.3988
  888MPD2     C13014   3.147   3.689  14.976  0.2281 -0.2589  0.8324
  888MPD2    C113015   3.098   3.761  15.080 -0.5481 -0.1570  0.3547
  888MPD2    C213016   3.162   3.877  15.125  0.3857 -0.3193 -0.2967
  888MPD2    C313017   3.272   3.927  15.051  0.3589 -0.2767 -0.1153
  888MPD2    C413018   3.311   3.862  14.933 -0.2033  0.0563 -0.2283
  888MPD2    C513019   3.244   3.749  14.897 -0.4379  0.5325  0.2030
  888MPD2     H13020   3.123   3.928  15.212  0.2896  0.8438 -1.0247
  888MPD2    H113021   3.390   3.903  14.871 -1.0227  0.0067 -1.3048
  888MPD2    H213022   3.097   3.608  14.924  0.1299 -0.7744  1.7311
  888MPD2    H313023   3.273   3.706  14.802  1.5382 -0.1898  1.1318
  888MPD2     N13024   3.337   4.042  15.102  0.1883  0.2941  0.5712
  888MPD2    H513025   3.286   4.098  15.169  1.9790  0.4574  1.8029
  888MPD2    N113026   2.988   3.704  15.153  0.0938 -0.6591 -0.4207
  888MPD2    H713027   2.960   3.757  15.236  2.0088 -0.2619 -0.0367
  889MPD2     C13028   3.064   3.429  12.707 -0.0896  0.3722 -0.6265
  889MPD2    C113029   3.054   3.399  12.839 -0.3473  0.5937  0.3116
  889MPD2    C213030   3.085   3.494  12.933  0.1336 -0.4158 -0.3507
  889MPD2    C313031   3.128   3.615  12.898 -0.8488 -0.3242 -0.4748
  889MPD2    C413032   3.165   3.640  12.760  0.3169 -0.5739 -0.8901
  889MPD2    C513033   3.124   3.546  12.663 -0.3276  0.0561  0.5784
  889MPD2     H13034   3.042   3.476  13.031  3.2955  1.3900  1.3816
  889MPD2    H113035   3.211   3.733  12.730 -1.1488 -0.2130 -2.0247
  889MPD2    H213036   3.037   3.355  12.633 -0.6989  0.1394 -0.1673
  889MPD2    H313037   3.133   3.562  12.556 -2.1804  2.0325  0.7196
  889MPD2     N13038   3.140   3.714  13.000 -0.4837 -0.0167 -0.5167
  889MPD2    H513039   3.114   3.684  13.093 -0.9153 -1.2549 -1.0387
  889MPD2    N113040   2.980   3.285  12.883  0.6777 -0.2149  0.1770
  889MPD2    H713041   2.985   3.271  12.984 -0.6800  0.9521  0.3960
  890MPD2     C13042   1.863   0.357  15.068  0.3574  0.2411  0.0896
  890MPD2    C113043   1.927   0.434  15.159 -0.0399 -0.2534  0.7479
  890MPD2    C213044   2.000   0.367  15.265 -0.1231 -0.1833  0.1873
  890MPD2    C313045   2.018   0.234  15.261 -0.8289  0.5390  0.1700
  890MPD2    C413046   1.955   0.160  15.163  0.3373  0.0467  0.7436
  890MPD2    C513047   1.879   0.226  15.078 -0.8963 -0.8327  0.3601
  890MPD2     H13048   2.035   0.418  15.353  1.3710 -3.3970  1.4712
  890MPD2    H113049   1.958   0.052  15.155 -0.3822 -0.0537  1.9727
  890MPD2    H213050   1.801   0.398  14.989  1.1154  2.2925  0.5645
  890MPD2    H313051   1.818   0.163  15.013 -0.8664  0.5566 -1.0104
  890MPD2     N13052   2.093   0.183  15.368  0.0768  0.4178 -0.0570
  890MPD2    H513053   2.152   0.236  15.432 -0.7083  0.1800  0.8552
  890MPD2    N113054   1.914   0.574  15.151 -0.6948  0.0739 -0.1500
  890MPD2    H713055   1.855   0.609  15.077 -0.8610  0.6165  0.2432
  891MPD2     C13056   4.511   3.970  16.698 -0.1701  0.1082  0.6908
  891MPD2    C113057   4.511   3.880  16.804  0.8115 -0.7128  0.1252
  891MPD2    C213058   4.625   3.886  16.886  0.0920  1.1585 -0.3461
  891MPD2    C313059   0.017   3.959  16.850 -0.3240 -0.2092  0.0988
  891MPD2    C413060   0.009   4.048  16.741  0.4215  0.0779  0.0334
  891MPD2    C513061   4.617   4.051  16.664  0.0657 -0.2813 -0.0284
  891MPD2     H13062   4.639   3.806  16.958 -1.2426  0.7481 -0.5467
  891MPD2    H113063   0.098   4.101  16.707  1.1959 -0.5419  1.0770
  891MPD2    H213064   4.427   3.979  16.630 -0.1545 -1.5543  0.4625
  891MPD2    H313065   4.626   4.125  16.585  3.4288  0.1569  0.7580
  891MPD2     N13066   0.145   3.920  16.912 -0.0584  0.4437 -0.2628
  891MPD2    H513067   0.134   3.840  16.974  1.2975  1.4427  1.2946
  891MPD2    N113068   4.405   3.788  16.813  0.3016  0.2093 -0.1063
  891MPD2    H713069   4.334   3.777  16.742 -0.8850  0.5952  1.0135
  892MPD2     C13070   1.288   4.668  15.008 -0.0141  0.5716  0.1543
  892MPD2    C113071   1.208   4.668  14.897  1.0442  0.0074 -0.2824
  892MPD2    C213072   1.231   4.570  14.805 -0.3975 -0.0145 -0.2435
  892MPD2    C313073   1.347   4.495  14.810 -0.5732 -0.0121  0.3908
  892MPD2    C413074   1.429   4.510  14.918  0.0009 -0.0456  0.4443
  892MPD2    C513075   1.395   4.587  15.024  0.7182 -0.3764 -0.5987
  892MPD2     H13076   1.171   4.569  14.715  0.8197 -1.1245 -1.0493
  892MPD2    H113077   1.522   4.456  14.924  0.1963  0.2454  0.0346
  892MPD2    H213078   1.267   0.002  15.099  0.9516  1.2381 -0.0332
  892MPD2    H313079   1.460   4.592  15.110 -0.2528 -0.9359  0.1622
  892MPD2     N13080   1.382   4.394  14.720 -0.7470  0.2237 -0.1526
  892MPD2    H513081   1.474   4.351  14.730 -0.9304 -0.8697 -3.0278
  892MPD2    N113082   1.094   0.033  14.890  0.8415  0.2126  0.3935
  892MPD2    H713083   1.055   0.067  14.977  1.0351  0.1371  0.5089
  893MPD2     C13084   3.481   2.218   2.373 -0.8575 -0.2626 -0.0287
  893MPD2    C113085   3.604   2.195   2.320 -0.2998  0.3716  0.4370
  893MPD2    C213086   3.663   2.066   2.323 -0.5774  0.0655 -0.6919
  893MPD2    C313087   3.608   1.968   2.397 -0.2227 -0.1803  0.3617
  893MPD2    C413088   3.483   1.989   2.454  0.1272  0.5327 -0.0893
  893MPD2    C513089   3.423   2.112   2.440  0.1045  0.1204 -0.2096
  893MPD2     H13090   3.761   2.051   2.280 -0.1144  0.6865  0.1520
  893MPD2    H113091   3.428   1.917   2.513 -1.1015  2.0053  0.5826
  893MPD2    H213092   3.432   2.314   2.379  1.5100  0.9477 -0.1285
  893MPD2    H313093   3.323   2.120   2.482  1.6832  0.1842  3.5556
  893MPD2     N13094   3.663   1.835   2.401  0.0169  0.2069 -0.7241
  893MPD2    H513095   3.590   1.767   2.421 -1.3247  1.2341 -2.0340
  893MPD2    N113096   3.655   2.303   2.247 -0.2969 -0.5575  0.1980
  893MPD2    H713097   3.605   2.390   2.258 -0.6223 -0.5773 -1.1354
  894MPD2     C13098   0.779   0.890   1.045  0.0362 -0.4270 -0.2266
  894MPD2    C113099   0.837   0.865   1.168 -0.3685 -0.6429  0.1740
  894MPD2    C213100   0.906   0.966   1.224 -0.3848  0.2475 -0.3868
  894MPD2    C313101   0.920   1.088   1.168  0.1628  0.2739  0.1743
  894MPD2    C413102   0.864   1.116   1.041  0.5906 -0.2186  0.2355
  894MPD2    C513103   0.796   1.012   0.984 -0.5639  0.3232 -0.1809
  894MPD2     H13104   0.946   0.953   1.324 -2.3069  0.5309  0.4109
  894MPD2    H113105   0.869   1.213   0.993  0.7255  0.3274  1.3570
  894MPD2    H213106   0.718   0.817   0.993 -0.0084  1.2746 -2.5367
  894MPD2    H313107   0.755   1.032   0.886 -0.8983  2.2298  0.3397
  894MPD2     N13108   0.988   1.190   1.245 -0.3709 -0.4593 -0.2912
  894MPD2    H513109   1.005   1.170   1.343 -0.6688 -1.1123 -0.3687
  894MPD2    N113110   0.807   0.739   1.240  0.2722 -0.6151  0.2929
  894MPD2    H713111   0.741   0.681   1.189 -1.5527  0.2533  1.6808
  895MPD2     C13112   0.529   3.347  13.907  0.0304 -0.3162  0.1908
  895MPD2    C113113   0.406   3.412  13.917  0.2479  0.0804  0.7320
  895MPD2    C213114   0.339   3.440  13.800  0.3803 -0.5619  0.5652
  895MPD2    C313115   0.387   3.406  13.675 -0.0132  0.0702  0.4984
  895MPD2    C413116   0.507   3.338  13.668 -0.0093  0.4279  0.3335
  895MPD2    C513117   0.575   3.310  13.786  0.2813 -0.4858 -0.5675
  895MPD2     H13118   0.242   3.488  13.811 -0.3125 -1.3877 -2.1429
  895MPD2    H113119   0.555   3.320  13.572 -2.4392 -2.0478 -0.4111
  895MPD2    H213120   0.599   3.323  13.986  1.7061 -1.0965 -1.5359
  895MPD2    H313121   0.672   3.263  13.795  0.4134  0.1412  1.2422
  895MPD2     N13122   0.313   3.450  13.561  0.0864 -0.3265  0.5651
  895MPD2    H513123   0.215   3.471  13.582  0.7240  1.6736  1.5744
  895MPD2    N113124   0.350   3.449  14.040  0.5918 -0.3419 -0.7527
  895MPD2    H713125   0.271   3.513  14.037  0.3860 -0.6424 -1.9398
  896MPD2     C13126   2.480   1.546   2.045  0.1957 -0.5100  0.7156
  896MPD2    C113127   2.481   1.442   1.952  0.0647  0.4432 -0.5808
  896MPD2    C213128   2.360   1.384   1.915 -0.0767 -0.6671 -0.3674
  896MPD2    C313129   2.239   1.421   1.969  0.3730  0.0082  0.1859
  896MPD2    C413130   2.235   1.539   2.048 -0.3944 -0.0234  0.3418
  896MPD2    C513131   2.358   1.594   2.086  0.9194 -0.0552  0.2465
  896MPD2     H13132   2.360   1.317   1.830 -0.3987  1.8999 -2.4067
  896MPD2    H113133   2.149   1.590   2.090  0.8515  1.9397  0.5223
  896MPD2    H213134   2.571   1.594   2.079 -0.3997  1.0961  0.0518
  896MPD2    H313135   2.354   1.684   2.147 -2.2774 -0.0945  0.1252
  896MPD2     N13136   2.120   1.369   1.911  0.1211  0.5992 -0.2244
  896MPD2    H513137   2.127   1.302   1.835 -4.0093 -0.0417 -0.0443
  896MPD2    N113138   2.604   1.407   1.894 -0.1760 -0.1553  0.1001
  896MPD2    H713139   2.681   1.471   1.906 -0.3981  0.3424 -1.0843
  897MPD2     C13140   3.630   3.082  10.313  0.4869  0.1931 -0.2596
  897MPD2    C113141   3.679   3.085  10.441 -0.1049 -0.4491 -0.0225
  897MPD2    C213142   3.605   3.153  10.538 -0.0745 -0.8523 -0.2497
  897MPD2    C313143   3.498   3.229  10.503  0.1551 -0.2031 -0.2760
  897MPD2    C413144   3.446   3.228  10.374 -0.4228 -0.7487  0.7896
  897MPD2    C513145   3.519   3.157  10.278  0.3016 -0.0775 -0.5798
  897MPD2     H13146   3.648   3.178  10.634  1.1427  1.8328 -1.4716
  897MPD2    H113147   3.353   3.270  10.340 -0.9796 -2.4172  0.2372
  897MPD2    H213148   3.683   3.021  10.240 -1.2126  0.7385 -1.9302
  897MPD2    H313149   3.472   3.165  10.181  1.2012  0.2613 -0.9836
  897MPD2     N13150   3.439   3.308  10.602 -0.2393  1.0353 -1.1671
  897MPD2    H513151   3.475   3.288  10.695  0.1043 -1.6123 -1.8559
  897MPD2    N113152   3.801   3.015  10.479  0.8205  0.1201  0.3978
  897MPD2    H713153   3.833   2.944  10.414 -0.1561  0.8079 -0.8339
  898MPD2     C13154   0.989   3.561  17.182 -0.0542 -0.4586 -0.1937
  898MPD2    C113155   0.992   3.589  17.320  0.1828  0.9576  0.1805
  898MPD2    C213156   0.962   3.716  17.369 -1.2298 -0.1274  0.1489
  898MPD2    C313157   0.923   3.814  17.273  0.4978 -0.6435 -0.5695
  898MPD2    C413158   0.927   3.786  17.131 -0.0261  0.6087 -0.3117
  898MPD2    C513159   0.964   3.660  17.090  0.5270 -0.2794  0.5679
  898MPD2     H13160   0.952   3.740  17.474 -0.1903 -0.9481  0.4363
  898MPD2    H113161   0.887   3.862  17.064 -1.0379 -0.3099 -0.7405
  898MPD2    H213162   1.025   3.464  17.150 -1.5035 -1.3007  0.7424
  898MPD2    H313163   0.984   3.656  16.984 -0.0131  2.9844  0.3210
  898MPD2     N13164   0.889   3.946  17.308 -0.4611 -0.1256 -0.2338
  898MPD2    H513165   0.877   4.008  17.228  0.1033  1.5362  0.9497
  898MPD2    N113166   1.021   3.487  17.414  0.0511  0.6211 -0.1682
  898MPD2    H713167   0.996   3.515  17.508 -0.0942  0.4078 -0.1424
  899MPD2     C13168   1.467   4.496   0.161  0.8122  0.0063  0.8536
  899MPD2    C113169   1.388   4.616   0.144  0.0090 -0.2105  0.0160
  899MPD2    C213170   1.304   4.651   0.247 -0.5277  0.3723  0.6024
  899MPD2    C313171   1.310   4.583   0.367  0.9219 -0.0939 -0.2485
  899MPD2    C413172   1.380   4.468   0.383  0.0365  0.0549 -0.7151
  899MPD2    C513173   1.457   4.425   0.280 -0.2861 -0.7710  0.5172
  899MPD2     H13174   1.241   0.017   0.237 -2.3656 -1.1245 -1.0129
  899MPD2    H113175   1.378   4.402   0.470 -1.7766  3.1347  1.5637
  899MPD2    H213176   1.537   4.459   0.087 -0.1319 -2.0763  0.9967
  899MPD2    H313177   1.517   4.335   0.285 -0.8427 -1.2254 -0.7754
  899MPD2     N13178   1.233   4.611   0.478  0.7017 -0.0479 -0.1702
  899MPD2    H513179   1.257   4.566   0.565  2.2451  1.4245  0.1461
  899MPD2    N113180   1.407   4.692   0.026 -0.4640  0.0459 -0.0430
  899MPD2    H713181   1.490   4.660  17.667 -0.5090 -0.5065  0.2370
  900MPD2     C13182   1.385   1.997  12.751 -0.2635  0.1248  0.0019
  900MPD2    C113183   1.353   1.895  12.660 -0.4210  1.0827 -0.1587
  900MPD2    C213184   1.227   1.886  12.610  0.1276  0.5044 -0.1357
  900MPD2    C313185   1.134   1.978  12.645  0.5098 -0.8212  0.5676
  900MPD2    C413186   1.166   2.066  12.743 -0.1433  0.1238 -0.2044
  900MPD2    C513187   1.288   2.076  12.805 -0.1289  0.1151 -0.8555
  900MPD2     H13188   1.196   1.812  12.538 -1.6275  1.0512  0.0650
  900MPD2    H113189   1.099   2.148  12.766 -3.8101 -3.1466  0.7011
  900MPD2    H213190   1.489   2.012  12.780  0.2144 -2.9217 -0.0964
  900MPD2    H313191   1.312   2.169  12.856  1.0068 -1.5466  1.6228
  900MPD2     N13192   1.016   1.976  12.569 -0.3389 -0.1806  0.5055
  900MPD2    H513193   1.000   1.902  12.501  1.3890 -1.5807  1.6249
  900MPD2    N113194   1.457   1.806  12.622 -0.1980 -0.4989  0.2386
  900MPD2    H713195   1.552   1.814  12.657 -0.4936  0.5379  0.7883
  901MPD2     C13196   1.711   1.051  13.221  0.0735  0.2455  0.0412
  901MPD2    C113197   1.770   1.013  13.096 -0.0496 -0.2164 -0.3499
  901MPD2    C213198   1.763   1.104  12.986 -0.2992 -0.0462 -0.4467
  901MPD2    C313199   1.695   1.225  13.002  0.3692 -0.2051  0.9084
  901MPD2    C413200   1.652   1.265  13.132  0.7968  0.4778 -0.7703
  901MPD2    C513201   1.664   1.179  13.239  0.0485  0.3402 -0.1797
  901MPD2     H13202   1.803   1.076  12.889 -0.2471 -0.4251 -0.3138
  901MPD2    H113203   1.585   1.349  13.147  0.5436  0.0063  0.7743
  901MPD2    H213204   1.718   0.976  13.299 -2.0005 -1.6497 -1.6065
  901MPD2    H313205   1.614   1.203  13.333  0.0150 -3.4932  0.7680
  901MPD2     N13206   1.686   1.314  12.891 -0.3896  0.3443 -0.2127
  901MPD2    H513207   1.703   1.280  12.797 -1.9920  0.5203 -0.5792
  901MPD2    N113208   1.815   0.876  13.091  0.5129 -0.5316  0.6225
  901MPD2    H713209   1.794   0.816  13.170 -0.6637 -1.1999 -0.1829
  902MPD2     C13210   0.124   3.929  13.309  0.1246  0.0115 -0.1204
  902MPD2    C113211   0.148   4.052  13.349  0.5747  0.4433 -0.0574
  902MPD2    C213212   0.251   4.083  13.435 -0.1065  0.0691  0.5164
  902MPD2    C313213   0.337   3.988  13.481  0.1965 -1.6265 -0.1298
  902MPD2    C413214   0.327   3.866  13.420 -0.5796 -0.0018  0.6373
  902MPD2    C513215   0.221   3.837  13.340 -0.2633 -0.2696 -0.4769
  902MPD2     H13216   0.253   4.186  13.469 -0.1416  0.4609 -0.6584
  902MPD2    H113217   0.398   3.788  13.444 -0.6453 -0.4573 -0.6501
  902MPD2    H213218   0.061   3.894  13.228 -0.9734  0.1252  0.6819
  902MPD2    H313219   0.227   3.738  13.296  0.4165  0.4976 -2.0973
  902MPD2     N13220   0.458   4.029  13.548  0.4718  0.1753  0.3894
  902MPD2    H513221   0.531   3.960  13.559  0.4557  0.2854  1.1372
  902MPD2    N113222   0.055   4.143  13.300 -0.2106  0.2001 -0.1980
  902MPD2    H713223   0.000   4.105  13.224  0.9810 -0.6756 -0.6213
  903MPD2     C13224   0.393   4.517  13.103  0.6716 -0.1196  0.4396
  903MPD2    C113225   0.428   4.387  13.142 -0.5434  0.1199 -0.3435
  903MPD2    C213226   0.370   4.283  13.079  0.2537  0.2412  0.6804
  903MPD2    C313227   0.298   4.304  12.964 -0.5982 -0.1895 -0.4279
  903MPD2    C413228   0.260   4.430  12.919  0.2447  0.0112 -0.4958
  903MPD2    C513229   0.308   4.537  12.992  0.0640 -0.4664  0.2577
  903MPD2     H13230   0.388   4.182  13.114  0.9441  0.3459  0.6252
  903MPD2    H113231   0.189   4.446  12.838  0.0010  0.4531 -0.1938
  903MPD2    H213232   0.433   4.602  13.157  0.4594 -0.7579  1.6042
  903MPD2    H313233   0.277   4.638  12.969  2.2306  0.3123  0.7178
  903MPD2     N13234   0.233   4.193  12.908  0.0720 -0.4292  0.2983
  903MPD2    H513235   0.220   4.111  12.966  1.4131 -0.9341 -0.1170
  903MPD2    N113236   0.534   4.367  13.233  0.2132 -0.3791 -0.0512
  903MPD2    H713237   0.563   4.448  13.286  1.8059 -0.7151 -0.3848
  904MPD2     C13238   0.785   2.834  13.849  0.1045  0.2064 -0.5319
  904MPD2    C113239   0.725   2.853  13.968  0.0563 -0.3241  0.4449
  904MPD2    C213240   0.811   2.876  14.082  0.1665  0.5366 -0.1817
  904MPD2    C313241   0.951   2.854  14.067  0.1111  0.8497  0.2879
  904MPD2    C413242   1.000   2.825  13.938 -0.3235  0.3152 -0.5075
  904MPD2    C513243   0.918   2.822  13.836 -0.0711  0.4525  1.4503
  904MPD2     H13244   0.775   2.897  14.182  1.4604  0.4717  0.2934
  904MPD2    H113245   1.106   2.805  13.925 -0.5960 -2.0497  0.8792
  904MPD2    H213246   0.730   2.822  13.756 -0.4120 -0.3115 -0.1604
  904MPD2    H313247   0.954   2.795  13.737 -1.0594  0.9071  0.9648
  904MPD2     N13248   1.039   2.875  14.174  0.5602  0.9442  0.2075
  904MPD2    H513249   1.003   2.875  14.269 -1.0872  1.7893 -0.4235
  904MPD2    N113250   0.586   2.873  13.977  0.9986  0.1451  0.0246
  904MPD2    H713251   0.554   2.911  14.065  0.0336  0.0780 -0.2993
  905MPD2     C13252   4.721   3.427  13.978  0.8051  0.6948  0.3661
  905MPD2    C113253   0.001   3.325  13.885  0.7356 -0.5353  0.3656
  905MPD2    C213254   4.687   3.355  13.755  0.0894  0.5504  0.1353
  905MPD2    C313255   4.661   3.486  13.721  0.0710  0.2391 -0.0255
  905MPD2    C413256   4.659   3.584  13.816  0.8118 -0.2859 -0.8019
  905MPD2    C513257   4.674   3.554  13.945  0.2341 -0.3844  0.2059
  905MPD2     H13258   4.686   3.282  13.675  2.7577  0.5085  0.1212
  905MPD2    H113259   4.632   3.685  13.789  0.2962  0.1216  1.2444
  905MPD2    H213260   0.007   3.404  14.084  1.6477  1.4168  0.4614
  905MPD2    H313261   4.657   3.633  14.017  0.2034 -0.6539  0.4996
  905MPD2     N13262   4.643   3.526  13.592 -0.2482  0.0841  0.1254
  905MPD2    H513263   4.663   3.623  13.570 -1.3200  0.3862  0.5140
  905MPD2    N113264   0.046   3.198  13.916  0.0230 -0.4154  0.0647
  905MPD2    H713265   0.060   3.184  14.016  1.4469  0.3153 -0.0338
  906MPD2     C13266   2.320   3.064  11.766 -0.4005  0.0052 -0.1267
  906MPD2    C113267   2.275   2.998  11.648 -0.7142 -0.2889  0.8792
  906MPD2    C213268   2.176   2.902  11.656  0.0008 -0.3749  1.3579
  906MPD2    C313269   2.125   2.859  11.782  0.8754  0.1770  0.1170
  906MPD2    C413270   2.178   2.917  11.895 -0.1959 -0.1001  0.1400
  906MPD2    C513271   2.277   3.021  11.887  0.4584  0.2686  0.0122
  906MPD2     H13272   2.133   2.865  11.563 -0.7154  2.7498  0.4416
  906MPD2    H113273   2.152   2.881  11.994  0.8836 -0.4108  0.3116
  906MPD2    H213274   2.406   3.131  11.772  1.1771 -1.9495 -0.8613
  906MPD2    H313275   2.301   3.079  11.976  1.4554 -0.2627  0.0907
  906MPD2     N13276   2.035   2.755  11.797  0.2728 -0.0174  0.1340
  906MPD2    H513277   2.020   2.713  11.888  3.8664  1.0623  1.2207
  906MPD2    N113278   2.330   3.013  11.518 -0.0024  0.4244  0.3344
  906MPD2    H713279   2.300   2.946  11.448 -1.3647 -0.4388  1.7662
  907MPD2     C13280   0.545   2.148  15.762  0.0141 -0.7119 -0.0026
  907MPD2    C113281   0.659   2.098  15.710 -0.3840 -0.3674  0.8174
  907MPD2    C213282   0.772   2.094  15.794  0.3145  0.3940 -0.5033
  907MPD2    C313283   0.764   2.123  15.930 -0.2469 -0.5824 -0.5293
  907MPD2    C413284   0.648   2.157  15.987  0.0440 -0.4286  0.3555
  907MPD2    C513285   0.537   2.173  15.898  0.0774 -0.5536 -0.0863
  907MPD2     H13286   0.866   2.064  15.749 -0.2492  0.7814 -1.9222
  907MPD2    H113287   0.636   2.155  16.095 -1.3465 -0.5237  0.1929
  907MPD2    H213288   0.458   2.152  15.697 -2.0460 -1.5690  2.7203
  907MPD2    H313289   0.443   2.204  15.941  0.3470  0.0528  0.0701
  907MPD2     N13290   0.878   2.113  16.010 -0.4640  0.2145 -0.7216
  907MPD2    H513291   0.958   2.077  15.959  0.5257  0.9485  0.3083
  907MPD2    N113292   0.680   2.054  15.578  0.4161  0.6035  0.1667
  907MPD2    H713293   0.767   2.005  15.560 -1.2299 -0.8459 -3.9868
  908MPD2     C13294   4.098   2.202  10.372  0.2268 -0.2874  1.2307
  908MPD2    C113295   4.063   2.303  10.280  0.5055  0.0861  0.3861
  908MPD2    C213296   4.069   2.435  10.316 -0.1110 -0.1208 -0.4779
  908MPD2    C313297   4.118   2.466  10.446 -0.1280 -0.4350 -0.1155
  908MPD2    C413298   4.149   2.369  10.532 -0.3118  0.1919  0.6457
  908MPD2    C513299   4.134   2.238  10.500  1.4143 -1.0800 -0.0129
  908MPD2     H13300   4.038   2.518  10.253 -1.1165  0.2812  0.5502
  908MPD2    H113301   4.176   2.390  10.634  0.9079 -0.7390  0.5153
  908MPD2    H213302   4.093   2.098  10.340 -1.7415 -0.0569  0.8353
  908MPD2    H313303   4.158   2.163  10.576  0.7650  1.7667  2.9940
  908MPD2     N13304   4.124   2.602  10.481 -0.4703  0.3227 -0.2531
  908MPD2    H513305   4.097   2.672  10.412 -1.2080 -0.2454 -0.5417
  908MPD2    N113306   4.025   2.253  10.153 -0.4320  0.4970 -0.5185
  908MPD2    H713307   4.008   2.155  10.132 -1.8985  0.8205 -0.9056
  909MPD2     C13308   4.298   1.032  11.864  0.6001 -0.3980  0.1501
  909MPD2    C113309   4.215   1.117  11.791  0.0179 -0.5269 -0.6276
  909MPD2    C213310   4.109   1.177  11.863  0.7381 -0.4566  0.0037
  909MPD2    C313311   4.087   1.153  11.999  0.1020 -0.4204  0.7494
  909MPD2    C413312   4.168   1.063  12.070 -0.0012  0.3436 -0.5792
  909MPD2    C513313   4.279   1.011  11.997 -0.3504  0.2618  0.3103
  909MPD2     H13314   4.039   1.239  11.807  1.1077 -0.2053 -0.1830
  909MPD2    H113315   4.146   1.018  12.166  0.9231 -1.0600 -1.0255
  909MPD2    H213316   4.387   0.991  11.819  0.9471 -1.8844  2.2066
  909MPD2    H313317   4.344   0.939  12.045 -0.6642  0.1161  0.5128
  909MPD2     N13318   3.976   1.201  12.066  0.0475 -0.5713 -0.0179
  909MPD2    H513319   3.904   1.245  12.010  0.5116 -0.4161 -0.4832
  909MPD2    N113320   4.219   1.151  11.652  0.7559  0.0376 -0.1156
  909MPD2    H713321   4.152   1.220  11.619  0.1572 -0.3966  0.2062
  910MPD2     C13322   0.337   2.510  15.825 -0.1442  0.2226 -0.1070
  910MPD2    C113323   0.463   2.497  15.887  0.2043  1.0261 -0.1032
  910MPD2    C213324   0.576   2.488  15.807 -0.1915 -0.5927 -0.6134
  910MPD2    C313325   0.570   2.493  15.668  0.1668 -0.2726 -0.3952
  910MPD2    C413326   0.446   2.509  15.613  0.7207  0.0846  0.4273
  910MPD2    C513327   0.327   2.522  15.689 -0.0466 -0.1660 -0.1891
  910MPD2     H13328   0.671   2.486  15.858 -0.2663 -0.1591 -0.4559
  910MPD2    H113329   0.441   2.521  15.505  1.1076 -3.9913 -0.0465
  910MPD2    H213330   0.254   2.524  15.892  0.5899  0.2720  0.7920
  910MPD2    H313331   0.234   2.534  15.634  1.8088  3.0141 -2.6711
  910MPD2     N13332   0.687   2.484  15.592 -0.5336  0.6171 -0.2858
  910MPD2    H513333   0.679   2.483  15.491 -1.8890 -0.6968 -0.1574
  910MPD2    N113334   0.474   2.489  16.029 -0.5155  0.0409  0.4806
  910MPD2    H713335   0.563   2.468  16.072  0.4447  2.4241 -0.3826
  911MPD2     C13336   2.810   3.604  16.436  0.6992  0.2648 -0.3217
  911MPD2    C113337   2.886   3.701  16.378  0.9440  0.7094 -0.4124
  911MPD2    C213338   2.827   3.792  16.285 -1.1293  0.3717 -0.4055
  911MPD2    C313339   2.691   3.771  16.263  0.1146 -1.0056 -0.0802
  911MPD2    C413340   2.615   3.675  16.317  0.1098 -0.0830  0.1278
  911MPD2    C513341   2.676   3.593  16.407  0.1044 -0.1337  0.4811
  911MPD2     H13342   2.879   3.870  16.231  0.8394 -0.2293  0.6191
  911MPD2    H113343   2.507   3.678  16.302  0.1536  1.4993  0.1307
  911MPD2    H213344   2.850   3.531  16.506  0.9320  0.1333 -0.5868
  911MPD2    H313345   2.623   3.510  16.454 -1.0179  0.6208  0.5278
  911MPD2     N13346   2.615   3.842  16.160  0.5445 -0.3318 -0.0216
  911MPD2    H513347   2.521   3.805  16.152  0.3582  0.3705 -1.1288
  911MPD2    N113348   3.027   3.706  16.406  0.2101  0.2082  0.9445
  911MPD2    H713349   3.070   3.628  16.455  1.1872  0.1923  0.0620
  912MPD2     C13350   2.324   3.395  15.691  0.8659  0.5872  0.3244
  912MPD2    C113351   2.362   3.453  15.813 -0.5983  0.1436 -0.7031
  912MPD2    C213352   2.372   3.374  15.931  0.0325 -0.5336  0.3801
  912MPD2    C313353   2.326   3.249  15.926  0.2082  0.1328  0.1024
  912MPD2    C413354   2.298   3.189  15.804 -0.9344 -0.5116  0.3436
  912MPD2    C513355   2.296   3.260  15.686  0.0874 -0.1960  1.0252
  912MPD2     H13356   2.403   3.423  16.022 -0.6433  0.2374  0.1962
  912MPD2    H113357   2.269   3.084  15.796  0.8877 -0.9119 -0.8479
  912MPD2    H213358   2.322   3.455  15.601  1.3645 -0.3999 -0.3427
  912MPD2    H313359   2.268   3.210  15.594 -1.1009  0.8109  0.8296
  912MPD2     N13360   2.332   3.183  16.052 -0.3323  0.3082  0.0215
  912MPD2    H513361   2.374   3.229  16.132 -0.8754 -0.4975  0.7638
  912MPD2    N113362   2.398   3.593  15.810 -0.1672  0.6539  0.2453
  912MPD2    H713363   2.411   3.633  15.718 -2.7684 -1.5723 -1.1053
  913MPD2     C13364   3.739   4.586  10.737 -0.7038  0.3379 -0.3118
  913MPD2    C113365   3.753   4.699  10.820 -0.2640 -0.4349 -0.6227
  913MPD2    C213366   3.726   0.104  10.775  0.2249  1.2760  0.0833
  913MPD2    C313367   3.702   0.120  10.635  0.2210 -0.1365 -0.0017
  913MPD2    C413368   3.689   0.010  10.547  0.2894  0.9317  0.8572
  913MPD2    C513369   3.718   4.603  10.595 -0.5676 -0.2393 -0.2228
  913MPD2     H13370   3.727   0.184  10.848 -1.3059  1.1902  0.2000
  913MPD2    H113371   3.653   0.020  10.445  0.3921 -0.6092  0.6649
  913MPD2    H213372   3.747   4.485  10.776 -0.3419  0.8177  0.8434
  913MPD2    H313373   3.716   4.516  10.530 -1.4308  0.3669 -1.0031
  913MPD2     N13374   3.670   0.241  10.581 -0.4695 -0.0106 -0.5003
  913MPD2    H513375   3.635   0.245  10.486  0.6304 -0.5923 -0.9418
  913MPD2    N113376   3.774   4.673  10.954  0.7129  0.5104  0.1709
  913MPD2    H713377   3.801   4.577  10.972 -2.1263 -0.1265  1.0378
  914MPD2     C13378   1.331   0.594  12.316 -0.5881  0.1012  0.1372
  914MPD2    C113379   1.386   0.711  12.369  0.4485  0.8221 -0.3392
  914MPD2    C213380   1.481   0.705  12.472 -0.6346  0.2008  0.3554
  914MPD2    C313381   1.528   0.589  12.526  0.6747  0.1192  0.1977
  914MPD2    C413382   1.488   0.471  12.460  0.1513 -0.6435  0.1740
  914MPD2    C513383   1.386   0.472  12.360  0.2103 -0.2189  0.2542
  914MPD2     H13384   1.510   0.796  12.524 -1.1051  0.3417  0.3757
  914MPD2    H113385   1.533   0.375  12.484  0.6131 -0.2552  0.8935
  914MPD2    H213386   1.261   0.589  12.233 -0.0038  0.0823 -0.3579
  914MPD2    H313387   1.356   0.381  12.310 -2.4928  0.9171 -0.1881
  914MPD2     N13388   1.599   0.591  12.651  0.0097 -0.2388  0.2091
  914MPD2    H513389   1.614   0.681  12.695  1.8672 -0.3091 -0.2560
  914MPD2    N113390   1.346   0.835  12.313  0.3321 -0.1528 -0.2740
  914MPD2    H713391   1.259   0.832  12.261 -0.6265 -1.6691  1.3951
  915MPD2     C13392   3.913   4.682  16.158 -0.5312 -0.2490  0.2078
  915MPD2    C113393   3.894   0.066  16.076  0.1685 -0.0012 -0.0741
  915MPD2    C213394   3.838   0.182  16.124 -0.0553  0.2148 -0.5190
  915MPD2    C313395   3.802   0.188  16.258 -0.1412  0.5187  0.1116
  915MPD2    C413396   3.830   0.078  16.347 -0.2136  0.6895  0.5858
  915MPD2    C513397   3.875   4.679  16.293 -0.3648  0.3065  0.3851
  915MPD2     H13398   3.815   0.265  16.058 -1.0043  0.7755  0.5317
  915MPD2    H113399   3.816   0.078  16.454 -1.5617  0.5387  0.4148
  915MPD2    H213400   3.958   4.592  16.117 -0.7010 -0.6756  0.9392
  915MPD2    H313401   3.896   4.590  16.351  0.9524  0.6512  0.4375
  915MPD2     N13402   3.744   0.305  16.300 -0.4358 -0.3124 -0.4116
  915MPD2    H513403   3.738   0.383  16.235  0.9917  0.4701  0.3905
  915MPD2    N113404   3.926   0.049  15.943  0.1970 -0.1224 -0.7625
  915MPD2    H713405   3.964   4.678  15.928  1.1155  0.1221 -0.0002
  916MPD2     C13406   1.887   3.518  15.518  0.1858 -0.8319 -0.5252
  916MPD2    C113407   1.939   3.450  15.628 -0.7859  0.6745  0.3772
  916MPD2    C213408   1.984   3.320  15.606 -0.2424  0.2433  0.0248
  916MPD2    C313409   1.982   3.262  15.483  0.5472 -0.9194  0.1540
  916MPD2    C413410   1.934   3.335  15.377 -0.8855 -0.2140  0.0725
  916MPD2    C513411   1.881   3.456  15.394  0.1838  0.0049 -0.3721
  916MPD2     H13412   2.033   3.269  15.688 -0.8029 -0.2675  0.0458
  916MPD2    H113413   1.929   3.296  15.276 -1.9947 -0.4431  0.2083
  916MPD2    H213414   1.849   3.619  15.523  1.3901 -0.4697  1.1872
  916MPD2    H313415   1.833   3.512  15.314  0.8306  1.5671  0.3413
  916MPD2     N13416   2.026   3.130  15.473 -0.3885  0.3339 -0.2640
  916MPD2    H513417   2.050   3.082  15.560  2.2237 -0.6618 -1.5435
  916MPD2    N113418   1.946   3.515  15.748 -0.9053  0.7103  0.1040
  916MPD2    H713419   1.924   3.613  15.742 -4.5482 -0.2634 -2.2074
  917MPD2     C13420   2.907   0.489  11.119  0.2792 -0.3872 -0.0600
  917MPD2    C113421   2.919   0.596  11.210 -0.5138  0.5545 -0.0461
  917MPD2    C213422   2.998   0.700  11.179  0.7794 -0.1822  0.4181
  917MPD2    C313423   3.080   0.705  11.071 -0.5615  0.4185  0.2207
  917MPD2    C413424   3.079   0.598  10.984 -0.2608 -0.7772  0.5763
  917MPD2    C513425   2.994   0.492  11.010 -0.1024 -0.8169  0.6079
  917MPD2     H13426   2.993   0.788  11.242 -2.1228 -0.8916  1.1882
  917MPD2    H113427   3.134   0.605  10.890 -1.1961 -1.6718 -0.0345
  917MPD2    H213428   2.849   0.405  11.155  0.1643  0.8598  2.7524
  917MPD2    H313429   2.989   0.404  10.946 -3.6579 -0.8734  0.9204
  917MPD2     N13430   3.152   0.825  11.043  0.0371  0.8023 -0.5751
  917MPD2    H513431   3.179   0.842  10.947 -0.8755  2.4214 -0.5399
  917MPD2    N113432   2.842   0.587  11.336  0.5320  0.1067  0.2880
  917MPD2    H713433   2.763   0.523  11.335  1.6584 -1.2855 -0.2097
  918MPD2     C13434   2.965   1.175  12.148  0.5666  0.5186 -0.4757
  918MPD2    C113435   3.020   1.050  12.140  0.5844  0.4378  0.3982
  918MPD2    C213436   2.969   0.951  12.061 -0.7260  0.2539  1.5749
  918MPD2    C313437   2.861   0.968  11.978 -0.0303 -0.2302  0.0645
  918MPD2    C413438   2.808   1.093  11.975 -0.3675 -0.3694  0.3746
  918MPD2    C513439   2.856   1.192  12.058 -0.1891 -0.4667  0.0153
  918MPD2     H13440   3.025   0.858  12.052  0.0589  0.5441  3.4892
  918MPD2    H113441   2.730   1.101  11.900  0.6040 -0.2853 -0.6366
  918MPD2    H213442   3.011   1.258  12.199 -0.6913  0.7890  0.2336
  918MPD2    H313443   2.815   1.293  12.060 -1.1759 -0.8432 -1.2713
  918MPD2     N13444   2.810   0.856  11.910 -0.7115  0.1817  0.5025
  918MPD2    H513445   2.872   0.776  11.919 -0.3871  0.3282 -0.3705
  918MPD2    N113446   3.141   1.011  12.211 -0.0510  0.3771 -0.2150
  918MPD2    H713447   3.180   0.919  12.195  0.0762  0.4755 -0.4548
  919MPD2     C13448   3.497   0.052  11.712  0.6290 -0.1866  0.4048
  919MPD2    C113449   3.471   4.648  11.660 -0.3380  0.3071  0.2496
  919MPD2    C213450   3.445   4.635  11.524  0.6292  0.2867 -0.0248
  919MPD2    C313451   3.456   0.018  11.436 -0.3922  0.4186  0.5458
  919MPD2    C413452   3.483   0.142  11.488  0.0295 -0.1053  0.4572
  919MPD2    C513453   3.489   0.159  11.621 -0.0639  0.0935  0.1073
  919MPD2     H13454   3.414   4.536  11.490 -2.1972  1.6986 -1.5899
  919MPD2    H113455   3.502   0.231  11.429  1.0984 -1.4350 -1.1998
  919MPD2    H213456   3.521   0.072  11.815  4.2526  0.7792 -0.6251
  919MPD2    H313457   3.519   0.256  11.660 -2.4210  0.4835  0.9152
  919MPD2     N13458   3.453   0.012  11.295  1.0204 -0.0149  0.0449
  919MPD2    H513459   3.477   0.099  11.250  0.0130  0.3793  0.2711
  919MPD2    N113460   3.475   4.531  11.747  0.0313  0.1574 -0.0471
  919MPD2    H713461   3.470   4.444  11.695  0.5796  0.7179 -1.0513
  920MPD2     C13462   3.099   0.508  10.545  0.1234  0.4289 -0.0736
  920MPD2    C113463   3.077   0.377  10.503 -1.0737  0.3745 -0.5628
  920MPD2    C213464   3.143   0.275  10.567 -0.5436  0.0291 -0.0378
  920MPD2    C313465   3.230   0.293  10.671 -0.3865 -0.0579 -0.3081
  920MPD2    C413466   3.258   0.427  10.706 -0.6845  0.7208  0.0114
  920MPD2    C513467   3.194   0.529  10.642 -0.0613 -0.4407 -0.8060
  920MPD2     H13468   3.104   0.177  10.543  1.1477 -0.3910 -1.0838
  920MPD2    H113469   3.329   0.457  10.783 -0.9087  0.7853  0.1925
  920MPD2    H213470   3.073   0.590  10.479 -1.7622  0.2752  0.4723
  920MPD2    H313471   3.221   0.630  10.670  0.9609 -0.6475 -1.0478
  920MPD2     N13472   3.292   0.179  10.730  0.3505  0.2446  0.8283
  920MPD2    H513473   3.255   0.093  10.692 -0.1328  1.0510 -0.5240
  920MPD2    N113474   2.988   0.346  10.394  0.0471  0.4170  0.1866
  920MPD2    H713475   3.002   0.257  10.346  1.5867 -1.1628  3.5592
  921MPD2     C13476   3.674   3.915  17.055  0.3326  0.2902 -0.1151
  921MPD2    C113477   3.726   3.813  16.973  0.1080  0.8034  0.7648
  921MPD2    C213478   3.643   3.768  16.869  0.2554  0.5806 -0.3945
  921MPD2    C313479   3.524   3.827  16.831 -0.6960 -0.1760 -0.1070
  921MPD2    C413480   3.486   3.934  16.900  0.9833  0.5574  0.1196
  921MPD2    C513481   3.554   3.969  17.013 -0.1671 -0.5780  0.0132
  921MPD2     H13482   3.678   3.688  16.805 -0.9800 -0.3542  0.1177
  921MPD2    H113483   3.385   3.972  16.891  0.6791 -0.0432  0.9891
  921MPD2    H213484   3.740   3.947  17.135  1.6735 -1.8581 -0.3530
  921MPD2    H313485   3.507   4.048  17.071 -0.1775 -0.5291 -0.0615
  921MPD2     N13486   3.444   3.782  16.727 -0.4493  0.8452 -0.7127
  921MPD2    H513487   3.365   3.838  16.696 -0.8671  0.4144 -0.4344
  921MPD2    N113488   3.854   3.757  16.998 -0.3384 -0.2009 -0.9328
  921MPD2    H713489   3.897   3.784  17.086  0.8403 -0.0424 -1.5661
  922MPD2     C13490   0.157   2.241  17.329 -0.5852 -0.2490 -0.1581
  922MPD2    C113491   0.176   2.222  17.464 -0.5709 -0.1182 -0.1570
  922MPD2    C213492   0.122   2.115  17.534  0.0350 -0.2011 -0.0198
  922MPD2    C313493   0.057   2.023  17.460 -0.1332 -0.3032 -0.7399
  922MPD2    C413494   0.030   2.037  17.328  0.1080  0.0357 -0.5625
  922MPD2    C513495   0.080   2.148  17.268 -0.3412  0.2121 -0.7451
  922MPD2     H13496   0.131   2.097  17.640 -1.1477 -1.1525 -0.0792
  922MPD2    H113497   4.693   1.972  17.265 -1.4404 -0.8595  1.8551
  922MPD2    H213498   0.195   2.323  17.269  0.4139  0.9008  2.0252
  922MPD2    H313499   0.057   2.165  17.164  0.4061  1.0363 -0.7717
  922MPD2     N13500   4.721   1.913  17.532  0.3938 -0.1214 -0.7909
  922MPD2    H513501   0.012   1.912  17.633  0.4123  0.4239 -0.7881
  922MPD2    N113502   0.247   2.319  17.550  0.3788 -0.2192 -0.5140
  922MPD2    H713503   0.254   2.280  17.644  1.4559  3.0647  0.7551
  923MPD2     C13504   2.630   2.603   9.553  0.3835 -0.3808  0.7030
  923MPD2    C113505   2.507   2.611   9.608 -0.1492  0.0509  0.0310
  923MPD2    C213506   2.496   2.608   9.745  0.3501 -0.1176  0.7154
  923MPD2    C313507   2.609   2.598   9.825 -0.1748 -0.5784 -1.0342
  923MPD2    C413508   2.730   2.584   9.764 -0.3104 -0.0081 -0.2908
  923MPD2    C513509   2.740   2.585   9.631  0.1386  0.4153  0.1539
  923MPD2     H13510   2.399   2.626   9.791  0.6587  2.3424  0.4002
  923MPD2    H113511   2.819   2.567   9.823  1.3249  1.6035 -2.3174
  923MPD2    H213512   2.648   2.602   9.446  0.2336 -0.5127  0.6808
  923MPD2    H313513   2.837   2.569   9.586  0.6813 -0.4325  1.6280
  923MPD2     N13514   2.613   2.607   9.965 -0.3372 -0.6899  0.1011
  923MPD2    H513515   2.707   2.609  10.003 -0.4919  0.0737  0.4343
  923MPD2    N113516   2.397   2.619   9.519 -0.0003 -0.2577 -0.1193
  923MPD2    H713517   2.424   2.588   9.426  1.1167  1.6731 -0.4341
  924MPD2     C13518   1.195   1.372  16.339 -0.3031 -0.9103 -0.0686
  924MPD2    C113519   1.174   1.470  16.435  0.4837 -0.6627  0.3823
  924MPD2    C213520   1.175   1.600  16.388  0.4123  0.2000 -0.0872
  924MPD2    C313521   1.189   1.635  16.256  0.6905  0.1274  0.2471
  924MPD2    C413522   1.188   1.530  16.161 -0.2654  0.0494 -0.0209
  924MPD2    C513523   1.196   1.399  16.201  0.1821 -0.1614  0.4366
  924MPD2     H13524   1.142   1.678  16.456 -0.0838  0.6671 -0.8642
  924MPD2    H113525   1.192   1.547  16.054  0.5479 -0.3056 -0.0479
  924MPD2    H213526   1.202   1.268  16.368  0.6709 -0.3101  1.7791
  924MPD2    H313527   1.213   1.317  16.131 -3.7249 -0.1126 -0.5311
  924MPD2     N13528   1.198   1.763  16.208 -0.1151  0.1850  1.0378
  924MPD2    H513529   1.221   1.781  16.111  1.2453 -1.5733  1.0572
  924MPD2    N113530   1.170   1.429  16.568  0.1730 -0.4345  0.3673
  924MPD2    H713531   1.179   1.333  16.597  0.8156 -0.0610  1.4151
  925MPD2     C13532   0.363   4.196  15.148 -0.5667  0.2806  0.6122
  925MPD2    C113533   0.288   4.092  15.102  0.6736 -0.3277 -0.1776
  925MPD2    C213534   0.241   3.991  15.188 -0.6788 -0.5057 -0.3249
  925MPD2    C313535   0.267   4.007  15.327 -0.1531 -0.7244  0.7982
  925MPD2    C413536   0.334   4.119  15.369 -0.2390 -0.1057  0.4558
  925MPD2    C513537   0.382   4.213  15.279 -0.2790  0.2922 -0.1246
  925MPD2     H13538   0.189   3.909  15.140 -0.3783 -0.7742 -0.1937
  925MPD2    H113539   0.359   4.132  15.474  0.7644  1.3774  0.0238
  925MPD2    H213540   0.407   4.273  15.085 -1.2993  0.0025 -0.2430
  925MPD2    H313541   0.431   4.301  15.319  3.7136 -1.9742 -0.0338
  925MPD2     N13542   0.204   3.928  15.424  0.3610  0.3736  0.3131
  925MPD2    H513543   0.218   3.947  15.523  0.5854  2.0671 -0.0443
  925MPD2    N113544   0.270   4.064  14.963  0.4203 -0.1896  1.0505
  925MPD2    H713545   0.214   3.984  14.934  2.1712 -0.5531 -1.3751
  926MPD2     C13546   3.187   2.203  13.868 -0.1708 -0.5889  0.0268
  926MPD2    C113547   3.195   2.341  13.869  0.2768 -0.1189 -0.2336
  926MPD2    C213548   3.274   2.394  13.773 -0.2323  0.6119 -0.4840
  926MPD2    C313549   3.351   2.312  13.692  0.4598 -0.1151 -1.2265
  926MPD2    C413550   3.343   2.179  13.690  0.1344  0.0524 -0.0807
  926MPD2    C513551   3.256   2.123  13.781  0.2018  0.5419  0.2205
  926MPD2     H13552   3.264   2.500  13.755 -0.1151  1.0096  1.7946
  926MPD2    H113553   3.403   2.118  13.623 -0.7958 -1.0182  0.0367
  926MPD2    H213554   3.116   2.148  13.929 -1.0222  0.3378 -0.1273
  926MPD2    H313555   3.240   2.016  13.793 -3.2223  0.8753 -1.3130
  926MPD2     N13556   3.448   2.368  13.600 -0.0674  0.1468  0.3272
  926MPD2    H513557   3.498   2.306  13.536  0.7331  1.1071  0.0250
  926MPD2    N113558   3.112   2.433  13.940 -0.0432 -0.0217 -0.2623
  926MPD2    H713559   3.146   2.528  13.942  2.7015 -1.0289  0.0473
  927MPD2     C13560   3.098   4.690   0.522  0.3701  0.4171 -0.9129
  927MPD2    C113561   2.976   0.020   0.479 -0.2513 -0.1063 -0.4022
  927MPD2    C213562   2.965   0.069   0.351  0.1225  0.2199  0.1421
  927MPD2    C313563   3.070   0.061   0.262  0.5247  0.2697 -0.0657
  927MPD2    C413564   3.192   0.019   0.309 -0.3905 -0.4419 -0.1923
  927MPD2    C513565   3.198   4.687   0.433  0.8887 -0.0745  0.3882
  927MPD2     H13566   2.866   0.101   0.321  0.9869  2.1205 -0.6503
  927MPD2    H113567   3.280   0.001   0.249 -1.2559 -0.0334 -1.5733
  927MPD2    H213568   3.115   4.646   0.619  1.1262  1.5540 -0.5389
  927MPD2    H313569   3.293   4.636   0.448  2.2139  2.0192 -0.7784
  927MPD2     N13570   3.047   0.087   0.125  0.1404 -0.0233  0.7199
  927MPD2    H513571   2.954   0.119   0.098 -0.1199 -1.2727  0.1338
  927MPD2    N113572   2.871   0.005   0.574  0.2827 -0.4409  0.0507
  927MPD2    H713573   2.894   4.696   0.668 -1.1951 -1.5772  0.0435
  928MPD2     C13574   0.837   2.981   1.222  0.1582  1.3049 -0.3999
  928MPD2    C113575   0.835   3.108   1.172  0.2194  0.2536  0.1586
  928MPD2    C213576   0.916   3.144   1.061  0.9551  0.2543  0.0548
  928MPD2    C313577   0.995   3.042   1.006 -0.4235  0.2435  0.3510
  928MPD2    C413578   1.003   2.917   1.060  0.1353 -0.5020 -0.2977
  928MPD2    C513579   0.909   2.884   1.159 -1.1819 -1.1198 -0.0331
  928MPD2     H13580   0.911   3.243   1.017 -2.6133 -0.1373 -0.4100
  928MPD2    H113581   1.078   2.845   1.029  3.6953  2.4049  1.4553
  928MPD2    H213582   0.774   2.965   1.309  2.7624 -1.0778  1.0428
  928MPD2    H313583   0.904   2.784   1.200  0.4849 -0.9975  0.4534
  928MPD2     N13584   1.094   3.066   0.904 -0.7853  0.2516  0.4469
  928MPD2    H513585   1.158   2.992   0.877  0.1720  1.5714 -0.8817
  928MPD2    N113586   0.766   3.209   1.249 -0.3976  1.0567 -0.3075
  928MPD2    H713587   0.728   3.184   1.340 -1.3873  2.5531 -0.3080
  929MPD2     C13588   1.667   2.592   9.725 -0.0651  0.7393 -0.3584
  929MPD2    C113589   1.780   2.628   9.796 -0.7399  0.0493 -0.3651
  929MPD2    C213590   1.775   2.740   9.880  0.5566  0.2724 -0.4661
  929MPD2    C313591   1.657   2.804   9.905  0.1837 -0.8028 -0.3365
  929MPD2    C413592   1.543   2.750   9.850  0.6543 -0.3351  0.1897
  929MPD2    C513593   1.546   2.647   9.762 -0.4810 -0.2257 -1.1799
  929MPD2     H13594   1.854   2.752   9.953  1.8526  0.0388 -1.8451
  929MPD2    H113595   1.447   2.795   9.876 -0.0373  0.3686 -3.6607
  929MPD2    H213596   1.662   2.508   9.657  3.1349  1.0334 -0.9377
  929MPD2    H313597   1.452   2.616   9.718 -0.0891 -1.0435 -1.4495
  929MPD2     N13598   1.643   2.894  10.008  0.0367 -0.0226 -0.3991
  929MPD2    H513599   1.548   2.925  10.027  0.5153  0.0189  2.0068
  929MPD2    N113600   1.892   2.555   9.761 -0.2920  0.3977  0.6231
  929MPD2    H713601   1.868   2.485   9.692  0.7295  0.6624  0.0071
  930MPD2     C13602   3.166   0.674  14.550  0.3126 -0.1493  0.3152
  930MPD2    C113603   3.139   0.737  14.431 -0.4975  0.5477  0.4954
  930MPD2    C213604   3.065   0.671  14.333 -0.0169  0.2343 -0.1468
  930MPD2    C313605   3.031   0.537  14.345  0.1019 -0.3056 -0.5244
  930MPD2    C413606   3.063   0.475  14.467  0.0227 -0.0462 -0.7740
  930MPD2    C513607   3.138   0.542  14.567 -0.2906 -0.3338  0.4465
  930MPD2     H13608   3.053   0.735  14.246 -0.9242  0.9603  0.5137
  930MPD2    H113609   3.034   0.373  14.488  0.8997 -0.3670 -1.1230
  930MPD2    H213610   3.221   0.723  14.630  0.4781  1.2864 -0.6798
  930MPD2    H313611   3.163   0.494  14.660  1.2519 -0.5231 -0.0615
  930MPD2     N13612   2.973   0.457  14.244  0.3233  0.1760 -0.7943
  930MPD2    H513613   2.969   0.360  14.270  1.0659  0.7712  1.5582
  930MPD2    N113614   3.187   0.869  14.405 -0.3912  0.4693 -0.1529
  930MPD2    H713615   3.177   0.896  14.308  2.3860 -2.2323 -1.2121
  931MPD2     C13616   2.767   4.146   0.793 -0.2246 -0.2449 -0.5435
  931MPD2    C113617   2.734   4.241   0.887 -0.7490 -0.4164  1.0232
  931MPD2    C213618   2.763   4.212   1.019 -0.5839 -0.2860  0.7303
  931MPD2    C313619   2.809   4.086   1.055  0.4345 -0.3733 -0.2310
  931MPD2    C413620   2.849   3.996   0.956 -0.1654 -0.6077 -0.3448
  931MPD2    C513621   2.824   4.025   0.825  0.0038  0.0984 -0.2520
  931MPD2     H13622   2.760   4.292   1.092 -1.3126 -0.1206  0.5222
  931MPD2    H113623   2.897   3.902   0.981  0.9467  0.5510  1.9323
  931MPD2    H213624   2.746   4.173   0.690 -3.7376 -1.4355 -0.1438
  931MPD2    H313625   2.846   3.956   0.744  3.6309  0.5074  0.3808
  931MPD2     N13626   2.840   4.072   1.195 -0.9327  0.1109 -0.2018
  931MPD2    H513627   2.801   4.145   1.254  0.0544  1.4935 -1.2323
  931MPD2    N113628   2.691   4.363   0.836 -0.0031  0.2989  0.1698
  931MPD2    H713629   2.706   4.380   0.737  1.0321 -0.1370  0.2585
  932MPD2     C13630   0.142   4.213  11.949 -0.0868  0.1589  0.3097
  932MPD2    C113631   0.274   4.179  11.981  0.4434  0.0556 -0.3769
  932MPD2    C213632   0.306   4.102  12.094 -0.0419  0.1653 -0.0777
  932MPD2    C313633   0.199   4.059  12.171  0.2553 -0.4813  0.3620
  932MPD2    C413634   0.064   4.091  12.145  0.3987  0.4655  0.3649
  932MPD2    C513635   0.038   4.165  12.031  0.2561  0.1946  0.8048
  932MPD2     H13636   0.411   4.089  12.119 -0.5267 -1.5088  1.1533
  932MPD2    H113637   4.696   4.056  12.194 -0.4509 -1.5029 -2.6020
  932MPD2    H213638   0.116   4.275  11.864  0.9140  2.1160  1.4256
  932MPD2    H313639   4.657   4.176  12.000  0.2447 -1.3625  0.2560
  932MPD2     N13640   0.215   3.998  12.297 -0.6291 -0.3855 -0.2352
  932MPD2    H513641   0.133   3.964  12.345 -1.0198 -0.0369 -0.6598
  932MPD2    N113642   0.382   4.223  11.898 -0.5469  0.6315  0.1045
  932MPD2    H713643   0.480   4.217  11.925 -0.0657 -0.5032 -1.8982
  933MPD2     C13644   0.323   3.901   1.630  0.0091 -0.2120 -0.1099
  933MPD2    C113645   0.372   3.863   1.504  0.3562  0.0602 -0.1081
  933MPD2    C213646   0.323   3.933   1.395 -0.1576  0.0208 -0.4058
  933MPD2    C313647   0.225   4.028   1.415 -0.7329  0.3173  0.8228
  933MPD2    C413648   0.176   4.063   1.536 -0.3694  0.2073  0.2448
  933MPD2    C513649   0.233   4.000   1.645  0.4082  0.0630 -0.1194
  933MPD2     H13650   0.346   3.915   1.291 -3.0705 -0.5534 -0.9471
  933MPD2    H113651   0.113   4.150   1.556 -0.2336  0.3618  0.0029
  933MPD2    H213652   0.363   3.856   1.721  0.1751  2.1822  0.9974
  933MPD2    H313653   0.196   4.024   1.744 -1.8788 -1.1522 -0.6701
  933MPD2     N13654   0.192   4.109   1.305  0.1338 -0.2982 -0.2180
  933MPD2    H513655   0.241   4.092   1.218  0.7814  1.6867 -0.2419
  933MPD2    N113656   0.481   3.769   1.495  0.3297 -0.2308 -0.1094
  933MPD2    H713657   0.513   3.737   1.586  0.3070 -1.3980 -0.5153
  934MPD2     C13658   2.185   1.235   2.480 -0.6453  0.4870 -0.1528
  934MPD2    C113659   2.246   1.192   2.368 -0.2990  0.1059 -0.5444
  934MPD2    C213660   2.183   1.131   2.264 -0.1930 -0.5522 -0.5126
  934MPD2    C313661   2.052   1.101   2.273  0.6480 -0.3724 -1.1210
  934MPD2    C413662   1.987   1.134   2.390  0.3345  0.4277  0.0161
  934MPD2    C513663   2.052   1.204   2.495  0.2202  0.7855 -0.6001
  934MPD2     H13664   2.246   1.109   2.178 -0.7447 -1.7655 -0.6054
  934MPD2    H113665   1.883   1.108   2.402  0.4599  0.3519  0.8907
  934MPD2    H213666   2.248   1.287   2.551 -0.9823  0.6086  0.0570
  934MPD2    H313667   1.992   1.237   2.579 -0.9916  0.0280 -1.1685
  934MPD2     N13668   1.973   1.029   2.169  0.2041  0.1466  0.5220
  934MPD2    H513669   1.872   1.027   2.182  0.2248 -1.7659  0.4054
  934MPD2    N113670   2.378   1.227   2.335  0.5357 -0.3062 -0.1643
  934MPD2    H713671   2.426   1.188   2.254 -0.7392  1.1785 -1.6380
  935MPD2     C13672   2.178   0.187   1.706  0.2680 -0.6230  0.2673
  935MPD2    C113673   2.074   0.237   1.628  0.4303 -0.7195  0.1667
  935MPD2    C213674   2.021   0.359   1.662 -0.2110 -0.6160 -0.2737
  935MPD2    C313675   2.070   0.435   1.769 -1.1736  0.3170  0.0382
  935MPD2    C413676   2.172   0.387   1.838  0.0776  0.8557 -0.4476
  935MPD2    C513677   2.226   0.265   1.804 -0.3704  0.9812 -0.8477
  935MPD2     H13678   1.952   0.402   1.590 -0.8197 -0.4943  0.3870
  935MPD2    H113679   2.212   0.435   1.927 -3.1971  1.0720  0.8787
  935MPD2    H213680   2.225   0.090   1.694  0.8367 -0.2454 -0.6017
  935MPD2    H313681   2.311   0.234   1.863 -2.3204 -4.2198 -0.8312
  935MPD2     N13682   2.011   0.557   1.813  0.5185  0.4231  0.1467
  935MPD2    H513683   2.058   0.604   1.889  0.4333  2.4011 -1.0144
  935MPD2    N113684   2.052   0.184   1.492 -0.0811 -0.2809 -0.0858
  935MPD2    H713685   1.989   0.232   1.429 -0.2494  2.1805  1.9733
  936MPD2     C13686   0.509   3.464  12.542  0.0194  0.1360 -0.6208
  936MPD2    C113687   0.548   3.384  12.643  0.1962 -0.4453 -0.1464
  936MPD2    C213688   0.633   3.437  12.737  0.5277 -0.7542  0.6524
  936MPD2    C313689   0.676   3.568  12.732  0.6000  0.4078  0.3416
  936MPD2    C413690   0.637   3.645  12.629 -0.3191  0.2310 -0.1743
  936MPD2    C513691   0.555   3.590  12.535  0.4493  0.1562 -0.7078
  936MPD2     H13692   0.671   3.369  12.813  0.0191  0.5105  2.0290
  936MPD2    H113693   0.663   3.750  12.624  0.1306  0.2041  1.6738
  936MPD2    H213694   0.446   3.428  12.461  0.6479  0.8677 -1.4377
  936MPD2    H313695   0.524   3.649  12.449 -2.8458  1.3201  1.2942
  936MPD2     N13696   0.769   3.596  12.836 -1.0179  0.5057 -0.8917
  936MPD2    H513697   0.785   3.522  12.904 -0.2750  1.1443 -0.3887
  936MPD2    N113698   0.518   3.247  12.667 -0.1572 -1.1112 -0.4382
  936MPD2    H713699   0.544   3.209  12.758  0.4857  1.8070  0.6028
  937MPD2     C13700   3.700   3.807  11.799  0.3357  0.4060 -1.0337
  937MPD2    C113701   3.707   3.932  11.732 -0.3311  0.1849 -0.7247
  937MPD2    C213702   3.808   3.939  11.644  1.1888 -0.0783 -0.2425
  937MPD2    C313703   3.882   3.830  11.598  0.2291 -0.1131  0.2207
  937MPD2    C413704   3.860   3.711  11.653 -0.2620  0.0307  0.4379
  937MPD2    C513705   3.766   3.701  11.749  0.1739  0.6595  0.2365
  937MPD2     H13706   3.828   4.039  11.607  0.9641 -0.3285 -1.0229
  937MPD2    H113707   3.917   3.622  11.628  0.6352  1.2361 -1.8206
  937MPD2    H213708   3.627   3.777  11.874  2.1430 -0.2662  0.4582
  937MPD2    H313709   3.742   3.605  11.793  1.9666  0.4766  0.8200
  937MPD2     N13710   3.983   3.855  11.502 -0.2010 -0.1891 -0.4032
  937MPD2    H513711   3.988   3.949  11.464  0.0667  0.0293  0.1751
  937MPD2    N113712   3.659   4.052  11.789 -0.3561 -0.0991 -0.4978
  937MPD2    H713713   3.702   4.137  11.755 -0.1614 -0.1600 -0.4061
  938MPD2     C13714   1.117   0.307   1.231 -0.7613  0.2937 -0.3391
  938MPD2    C113715   1.024   0.373   1.156 -0.5895 -0.3900 -0.5317
  938MPD2    C213716   0.910   0.305   1.124  0.6764 -0.3676  0.4003
  938MPD2    C313717   0.885   0.175   1.177  0.1971 -0.0149  0.9304
  938MPD2    C413718   0.980   0.123   1.257 -0.8934  0.4767 -0.1152
  938MPD2    C513719   1.095   0.180   1.272  0.2855  0.6977  0.3579
  938MPD2     H13720   0.846   0.360   1.056  0.1871  1.2658  2.1903
  938MPD2    H113721   0.970   0.024   1.300 -1.9520 -0.0256 -1.5305
  938MPD2    H213722   1.215   0.345   1.259  0.0746 -0.9200 -1.6316
  938MPD2    H313723   1.180   0.126   1.313  0.5208 -0.2026 -1.3134
  938MPD2     N13724   0.767   0.109   1.154 -0.3952 -0.1250  0.1661
  938MPD2    H513725   0.758   0.012   1.182  0.2125 -0.5838 -1.2288
  938MPD2    N113726   1.051   0.503   1.089  0.0527  0.3115  0.5194
  938MPD2    H713727   0.980   0.541   1.028 -0.5097 -1.9841 -0.2683
  939MPD2     C13728   3.232   1.100   1.278  0.2585  0.5996 -0.2047
  939MPD2    C113729   3.117   1.175   1.257  0.4408  0.2871 -0.1042
  939MPD2    C213730   3.067   1.178   1.125  0.1418  0.4972  0.3968
  939MPD2    C313731   3.133   1.108   1.027  0.9780  0.3816 -0.1377
  939MPD2    C413732   3.238   1.025   1.055 -0.9296  0.6274  0.0695
  939MPD2    C513733   3.297   1.024   1.182 -0.1073 -0.0123 -1.1328
  939MPD2     H13734   2.983   1.241   1.097 -0.5170 -0.1988  0.8063
  939MPD2    H113735   3.294   0.983   0.973 -2.0957 -1.3298  0.2718
  939MPD2    H213736   3.268   1.100   1.380  0.8933  2.1737 -0.4414
  939MPD2    H313737   3.385   0.962   1.197  0.6626  1.2127 -0.5288
  939MPD2     N13738   3.090   1.131   0.895 -0.0449 -0.0714  0.4499
  939MPD2    H513739   3.004   1.186   0.887 -0.0767  0.0159  1.3720
  939MPD2    N113740   3.066   1.252   1.364  0.0665 -0.2499 -0.6679
  939MPD2    H713741   3.124   1.273   1.444 -2.2492  2.2986  0.3434
  940MPD2     C13742   1.003   2.751  13.364 -0.4028  0.0939  0.3761
  940MPD2    C113743   1.027   2.665  13.470  0.1967 -0.5363 -0.4468
  940MPD2    C213744   1.151   2.601  13.473  0.6147  0.3827 -0.1362
  940MPD2    C313745   1.248   2.628  13.378  0.2271  0.0660  0.1655
  940MPD2    C413746   1.222   2.719  13.281  1.2215  0.4513  0.4612
  940MPD2    C513747   1.099   2.785  13.275 -0.6536 -0.7052  0.5130
  940MPD2     H13748   1.160   2.521  13.545 -1.9704 -0.0175 -0.2646
  940MPD2    H113749   1.285   2.741  13.196 -0.8761 -0.5469 -1.3262
  940MPD2    H213750   0.908   2.803  13.359 -1.1581 -1.2540  0.7717
  940MPD2    H313751   1.068   2.846  13.191  2.9454  0.2903 -0.0872
  940MPD2     N13752   1.380   2.570  13.362 -0.4593 -0.3003  0.3345
  940MPD2    H513753   1.430   2.596  13.277 -0.1686  0.1040  0.6281
  940MPD2    N113754   0.926   2.611  13.551  0.3086  0.9606 -0.0688
  940MPD2    H713755   0.968   2.549  13.620 -2.0194 -0.9008 -0.3170
  941MPD2     C13756   0.742   0.494   9.600  0.7922 -0.6869  0.1612
  941MPD2    C113757   0.801   0.494   9.724 -0.1264 -0.9745 -0.2104
  941MPD2    C213758   0.798   0.377   9.809  0.2930  0.1201  0.1945
  941MPD2    C313759   0.743   0.262   9.760 -0.2411  0.6046 -0.4368
  941MPD2    C413760   0.670   0.273   9.642 -0.9953  0.9128 -0.4613
  941MPD2    C513761   0.668   0.383   9.559  0.4642 -0.0946 -0.4919
  941MPD2     H13762   0.845   0.378   9.906 -0.4336  0.7155  0.5396
  941MPD2    H113763   0.608   0.189   9.612 -1.8469  0.5940  2.2194
  941MPD2    H213764   0.741   0.577   9.529 -0.5736 -1.5746 -0.8504
  941MPD2    H313765   0.607   0.382   9.469  0.1877  3.9874 -0.3291
  941MPD2     N13766   0.740   0.143   9.830  0.5330  0.3080  0.0299
  941MPD2    H513767   0.696   0.063   9.784  0.4705  1.1029 -1.2958
  941MPD2    N113768   0.869   0.609   9.774  0.2441  0.5306  0.8240
  941MPD2    H713769   0.897   0.594   9.870  1.4841 -1.1356  0.2075
  942MPD2     C13770   1.035   2.565   9.605  0.4662  0.0577  0.0079
  942MPD2    C113771   0.984   2.613   9.486 -0.2214  0.8738 -0.2543
  942MPD2    C213772   1.074   2.636   9.378 -0.7554 -1.3023  0.2027
  942MPD2    C313773   1.208   2.620   9.398 -0.6093  0.3865 -0.6038
  942MPD2    C413774   1.256   2.585   9.522 -0.0733 -0.2087 -0.8697
  942MPD2    C513775   1.165   2.550   9.621  0.1330  0.1518 -0.1063
  942MPD2     H13776   1.031   2.678   9.287 -0.8517 -0.7018  0.5263
  942MPD2    H113777   1.360   2.571   9.547  0.4100  3.4469 -0.8357
  942MPD2    H213778   0.965   2.538   9.684 -0.5084  0.2934 -0.7732
  942MPD2    H313779   1.194   2.531   9.724  0.8003  1.3833 -0.0692
  942MPD2     N13780   1.304   2.635   9.297  0.5539  0.8400 -0.0884
  942MPD2    H513781   1.402   2.628   9.324 -0.0531 -1.8901  1.3823
  942MPD2    N113782   0.847   2.648   9.460 -0.1766 -0.0154  0.0191
  942MPD2    H713783   0.812   2.684   9.372 -0.6157 -0.3301  0.0625
  943MPD2     C13784   4.512   1.516   9.652 -0.5302 -0.1957 -0.2492
  943MPD2    C113785   4.432   1.408   9.670  0.1646  0.0414 -0.6828
  943MPD2    C213786   4.379   1.331   9.561  0.6154  0.1726  0.3667
  943MPD2    C313787   4.417   1.358   9.433 -0.0656 -0.2388 -1.0477
  943MPD2    C413788   4.510   1.461   9.414 -0.5079 -0.3752  0.2056
  943MPD2    C513789   4.546   1.538   9.517  0.1052 -0.1562  0.5196
  943MPD2     H13790   4.295   1.268   9.587  1.6730 -1.1759  0.4992
  943MPD2    H113791   4.535   1.504   9.317 -0.0039  1.3364  1.0989
  943MPD2    H213792   4.543   1.589   9.725  2.4824 -0.6790 -1.0495
  943MPD2    H313793   4.605   1.627   9.499 -0.1732 -0.1827 -0.5358
  943MPD2     N13794   4.358   1.289   9.323 -0.4455  0.3971  0.1646
  943MPD2    H513795   4.394   1.316   9.232  0.3151  0.8654  0.6118
  943MPD2    N113796   4.396   1.385   9.808  0.1453 -0.3054  0.4961
  943MPD2    H713797   4.427   1.459   9.870  2.5987 -1.3530  0.5316
  944MPD2     C13798   4.123   4.638  11.431  0.2869 -0.1693  0.0059
  944MPD2    C113799   4.145   0.027  11.351 -0.2849 -0.4658  0.1269
  944MPD2    C213800   4.189   0.143  11.409 -0.3036 -0.3075 -0.2810
  944MPD2    C313801   4.196   0.148  11.551 -0.3280  0.2595  1.0962
  944MPD2    C413802   4.163   0.036  11.629  1.0729 -0.2728 -0.1772
  944MPD2    C513803   4.132   4.645  11.565  0.0801  0.3256  0.2274
  944MPD2     H13804   4.205   0.235  11.354 -1.6928  1.0671  1.5887
  944MPD2    H113805   4.182   0.024  11.735  0.4547  0.8982  0.0637
  944MPD2    H213806   4.098   4.541  11.390  0.0067 -1.0387  2.2247
  944MPD2    H313807   4.100   4.555  11.616 -0.1150  0.2865  0.0328
  944MPD2     N13808   4.216   0.266  11.621  0.3438 -0.3148 -0.5588
  944MPD2    H513809   4.249   0.346  11.568 -1.7987  0.4924 -0.6947
  944MPD2    N113810   4.139   0.017  11.210  0.6126 -0.1011  0.2970
  944MPD2    H713811   4.146   4.646  11.170 -1.7026 -0.1453  0.0137
    1TCq1    O113812   1.145   0.737  14.251 -0.0758 -0.0227 -0.0521
    1TCq1    C113813   1.198   0.808  14.352  0.2522 -0.0497  0.3883
    1TCq1    O213814   1.213   0.763  14.465 -0.5453  0.0544  0.7630
    1TCq1    C213815   1.296   0.896  14.282  0.4566  0.8144 -0.1514
    1TCq1    C313816   1.245   0.982  14.191  0.0436  0.2769 -0.8060
    1TCq1    C413817   1.323   1.051  14.104 -0.5168 -0.0087  0.4632
    1TCq1    C513818   1.460   1.045  14.118 -0.2452  0.5307  0.4456
    1TCq1    C613819   1.509   0.970  14.223  0.1328  0.2386  0.0617
    1TCq1    C713820   1.428   0.881  14.301  0.3263  0.4010 -0.8380
    1TCq1    C813821   1.632   1.018  14.287  0.7134  0.4784 -0.1918
    1TCq1    O413822   1.673   0.948  14.378  0.0347  0.2552 -0.5704
    1TCq1    C913823   1.265   1.155  14.023  0.4446  0.6521  0.0262
    1TCq1    O513824   1.138   1.156  14.020  0.0187  0.0020  0.3179
    1TCq1    O613825   1.345   1.225  13.956  0.2262  0.3195  0.5464
    1TCq1    H113826   1.143   0.784  14.166 -0.7750 -0.1633 -0.1134
    1TCq1    H213827   1.140   1.010  14.193  0.3580  1.3858  1.2563
    1TCq1    H313828   1.526   1.102  14.054  1.7826 -0.9951  1.1656
    1TCq1    H413829   1.471   0.839  14.391  0.5857 -0.7383 -1.5004
    2MPD2     C13830   1.883   1.402  14.489  0.6350 -0.0702 -0.0340
    2MPD2    C113831   1.780   1.457  14.422 -0.3704 -0.6956 -0.0354
    2MPD2    C213832   1.706   1.373  14.339  0.5593 -0.3806 -0.6375
    2MPD2    C313833   1.735   1.235  14.335 -0.8150  0.3729 -0.4617
    2MPD2    C413834   1.836   1.188  14.406 -0.3321  0.1180 -0.4788
    2MPD2    C513835   1.915   1.272  14.481 -0.1098 -0.2391 -0.1134
    2MPD2     H13836   1.636   1.414  14.267 -0.0932 -0.2308  0.0854
    2MPD2    H113837   1.875   1.087  14.401 -0.0797  0.0438  2.8952
    2MPD2    H213838   1.936   1.459  14.565 -0.4844  0.5923  0.2534
    2MPD2    H313839   1.997   1.226  14.535 -0.6052 -0.2441  0.6354
    2MPD2     N13840   1.646   1.150  14.266  0.4426  0.2491  0.0951
    2MPD2    H513841   1.590   1.190  14.191 -1.6815 -1.9148  0.5223
    2MPD2    N113842   1.759   1.597  14.450 -0.0734 -0.0894  0.1185
    2MPD2    H713843   1.813   1.646  14.521  0.9949 -0.2636 -0.5849
    3TMC2    C113844   1.682   1.814  14.422 -0.1237  0.1480 -0.3592
    3TMC2    C213845   1.767   1.849  14.522 -0.4591 -0.2895  0.0157
    3TMC2    C313846   1.805   1.982  14.521 -0.4181  0.7848 -0.2766
    3TMC2    C413847   1.633   1.900  14.327 -0.1720  0.3749 -0.1345
    3TMC2    C513848   1.681   2.032  14.337  0.0924 -0.0935  0.4849
    3TMC2    C613849   1.756   2.076  14.434  0.0183 -1.1199  0.1972
    3TMC2     C13850   1.663   1.673  14.392 -0.1276  0.2377 -0.2885
    3TMC2     O13851   1.588   1.638  14.299  0.5167 -0.0524 -0.1609
    3TMC2     H13852   1.799   1.789  14.606 -3.7022 -1.7576  0.1738
    3TMC2    H113853   1.575   1.855  14.247  0.0960  1.5276 -0.9764
    3TMC2    H213854   1.777   2.182  14.446 -2.1942 -0.7678  0.8517
    3TMC2    C713855   1.642   2.116  14.227 -0.3010  0.3923 -0.3586
    3TMC2    C813856   1.894   2.021  14.622  0.1365  0.4292  0.1625
    3TMC2    O113857   1.537   2.087  14.178  0.2611 -0.4641 -0.1842
    3TMC2    O213858   2.013   1.991  14.611 -0.0812 -0.3654 -0.2805
    3TMC2    O513859   1.837   2.126  14.680  0.2581 -0.4197  0.0191
    3TMC2    H513860   1.741   2.111  14.696  0.1429 -0.0567 -0.3183
    4MPD2     C13861   1.867   3.233  13.457  0.1346  0.6335  0.0619
    4MPD2    C113862   1.796   3.119  13.468  0.1200  0.3734  0.3388
    4MPD2    C213863   1.861   3.000  13.502 -0.3719  0.5990 -0.2018
    4MPD2    C313864   1.998   2.997  13.532 -0.1570  0.8954  0.0639
    4MPD2    C413865   2.065   3.115  13.511 -0.0237 -0.2203 -0.3168
    4MPD2    C513866   1.998   3.225  13.473 -0.2848  0.4497 -0.7668
    4MPD2     H13867   1.803   2.910  13.519 -0.5458  0.7758  0.1270
    4MPD2    H113868   2.173   3.127  13.511 -0.0141 -0.3355 -0.8805
    4MPD2    H213869   1.828   3.331  13.430  0.1710  0.4236 -0.7502
    4MPD2    H313870   2.056   3.314  13.449 -1.2613  1.1639 -0.4748
    4MPD2     N13871   2.056   2.872  13.565  0.8991  0.7831  0.0033
    4MPD2    H513872   1.997   2.789  13.570  0.4199  1.1667  0.6716
    4MPD2    N113873   1.655   3.133  13.451  0.9300 -0.4766 -0.4158
    4MPD2    H713874   1.615   3.225  13.461 -0.3302 -0.9591 -0.9102
    5TCq2    C113875   2.190   2.848  13.576  0.3608 -0.8067  0.0462
    5TCq2    O213876   2.288   2.922  13.590 -0.4846 -0.0816 -1.3848
    5TCq2    C213877   2.212   2.713  13.625  0.8085 -0.0969 -0.0501
    5TCq2    C313878   2.334   2.652  13.599 -0.0764 -0.0351 -0.3590
    5TCq2    C413879   2.362   2.530  13.649  0.2775  0.2661  0.7946
    5TCq2    C513880   2.271   2.474  13.730  0.1477  0.8468 -0.0082
    5TCq2    C613881   2.158   2.535  13.767 -0.3350  0.1682  0.8634
    5TCq2    C713882   2.120   2.653  13.718  0.1505  0.2038 -0.4029
    5TCq2    C813883   2.074   2.459  13.858  0.6926 -0.3051 -0.4844
    5TCq2    O413884   2.121   2.371  13.930  0.0194  0.1407 -0.6493
    5TCq2    C913885   2.485   2.470  13.614 -0.4587 -0.4902  0.0309
    5TCq2    O513886   2.587   2.537  13.601  0.0545 -0.0526 -0.1452
    5TCq2    O613887   2.483   2.346  13.596  0.2976  0.4172  0.2806
    5TCq2    H213888   2.405   2.699  13.531  2.1851 -0.7506  1.5144
    5TCq2    H313889   2.289   2.370  13.754 -2.4630 -0.0131 -1.7921
    5TCq2    H413890   2.026   2.703  13.737  1.1681  2.4929 -1.3481
    6MPD1     C13891   0.441   4.392  14.091 -0.1760 -0.1945  0.1283
    6MPD1    C113892   0.500   4.423  13.968 -0.3475  0.3205 -0.3819
    6MPD1    C213893   0.598   4.343  13.912 -0.4203 -0.4347  0.3936
    6MPD1    C313894   0.628   4.228  13.981  0.2254 -0.5810  0.1363
    6MPD1    C413895   0.568   4.195  14.100 -0.1070 -0.2371 -0.3360
    6MPD1    C513896   0.473   4.277  14.152 -0.6442 -0.7150 -0.1404
    6MPD1     H13897   0.646   4.381  13.823 -0.8558  0.1243  0.3940
    6MPD1    H113898   0.610   4.107  14.148 -0.5980 -0.8448 -1.0213
    6MPD1    H213899   0.356   4.447  14.128  1.1399  1.0163  1.3443
    6MPD1    H313900   0.412   4.255  14.239  1.0079 -2.1460  0.6582
    6MPD1     N13901   0.715   4.127  13.929  0.5764  0.0831  0.4588
    6MPD1    H513902   0.711   4.039  13.978 -0.6351 -1.0931 -1.7416
    6MPD1    N113903   0.457   4.544  13.903  0.8919 -0.1927 -0.1754
    6MPD1    H613904   0.360   4.562  13.929  1.0955 -0.1745  0.5902
    6MPD1    H713905   0.470   4.549  13.802 -2.1293 -0.7604 -0.5805
    7MPD2     C13906   0.975   3.397  13.938 -0.7299 -0.6358 -0.6637
    7MPD2    C113907   0.976   3.452  13.817  0.7529  0.6446 -0.0726
    7MPD2    C213908   1.007   3.378  13.705 -0.0168 -0.1470  1.2584
    7MPD2    C313909   1.040   3.242  13.722  0.1275 -0.3511  0.7905
    7MPD2    C413910   1.015   3.176  13.845 -0.0518 -0.3173 -0.1991
    7MPD2    C513911   0.984   3.255  13.949  0.1358 -0.0672  0.2269
    7MPD2     H13912   1.023   3.429  13.611 -0.3922 -1.0595  0.6918
    7MPD2    H113913   1.014   3.070  13.866  0.8482  0.0182  1.5117
    7MPD2    H213914   0.951   3.451  14.029  0.2702  1.6282 -1.7445
    7MPD2    H313915   0.975   3.205  14.044  1.1440  0.6252  0.6923
    7MPD2     N13916   1.086   3.176  13.605 -0.2545 -0.1266  0.3603
    7MPD2    H513917   1.093   3.233  13.521  0.9183  0.0913  0.6139
    7MPD2    N113918   0.967   3.590  13.800 -0.2763 -0.1753 -0.4332
    7MPD2    H713919   0.969   3.616  13.702 -0.3715  2.6665  0.3091
    8TMC3    C113920   1.202   3.026  13.474 -0.5618 -0.3022 -0.1581
    8TMC3    C213921   1.331   2.992  13.491 -0.0724 -0.6200 -0.7930
    8TMC3    C313922   1.426   3.075  13.437  0.6509 -0.6313  0.1320
    8TMC3    C413923   1.166   3.118  13.378  0.1315  0.1073 -0.4652
    8TMC3    C513924   1.266   3.199  13.322 -0.4549  0.5713  0.5085
    8TMC3    C613925   1.398   3.183  13.348 -0.5070 -0.6264 -0.4640
    8TMC3     C13926   1.147   3.054  13.601 -0.5138  0.0302 -0.0936
    8TMC3     O13927   1.183   2.990  13.700 -0.2146 -0.2635 -0.2360
    8TMC3     H13928   1.353   2.906  13.553  2.3179 -0.0199 -0.8148
    8TMC3    H113929   1.061   3.143  13.365 -0.2219  0.5701  3.4767
    8TMC3    H213930   1.477   3.242  13.303 -0.4575  1.3923  2.2127
    8TMC3    C713931   1.224   3.344  13.317  0.2945 -0.7493  0.5705
    8TMC3    C813932   1.566   3.032  13.447  0.1290 -0.5912  0.0018
    8TMC3    O113933   1.116   3.356  13.377 -0.4754 -0.3628 -0.2931
    8TMC3    O213934   1.588   2.914  13.426  0.3454 -0.2742  0.2272
    9TMC3    C113935   0.913   4.046  13.818 -0.5577 -0.2390 -0.5788
    9TMC3    C213936   0.991   4.058  13.702 -0.3280 -0.8094  0.5400
    9TMC3    C313937   1.059   3.950  13.660  0.0216  0.9351 -0.1319
    9TMC3    C413938   0.906   3.929  13.891 -0.6998  0.3429 -0.5150
    9TMC3    C513939   0.971   3.819  13.836  0.0631 -0.4916 -0.5168
    9TMC3    C613940   1.056   3.828  13.721 -0.6532 -0.7443  0.0444
    9TMC3     C13941   0.824   4.162  13.847 -1.4991 -0.3457  0.0526
    9TMC3     O13942   0.847   4.269  13.789 -0.4220  0.1562 -0.0724
    9TMC3     H13943   1.007   4.154  13.654  1.7323 -2.2466 -1.6014
    9TMC3    H113944   0.856   3.909  13.985 -1.0339  1.6544 -0.4148
    9TMC3    H213945   1.121   3.746  13.694  0.6226  0.4680 -0.6038
    9TMC3    C713946   0.948   3.690  13.896  1.0513 -0.2366 -0.3566
    9TMC3    C813947   1.121   3.959  13.526 -0.2160 -0.4583  1.1858
    9TMC3    O113948   0.912   3.686  14.014  0.5872 -1.1297  0.5673
    9TMC3    O213949   1.149   4.063  13.468  0.1333  0.7587 -0.1783
   10MPD2     C13950   1.364   3.656  13.177  0.0030 -0.5756 -0.1449
   10MPD2    C113951   1.279   3.580  13.256  0.1270 -0.3123 -0.2262
   10MPD2    C213952   1.203   3.643  13.349  0.0028  0.2911 -0.2563
   10MPD2    C313953   1.197   3.779  13.363  0.3613  0.4403  0.1142
   10MPD2    C413954   1.284   3.851  13.287 -0.4220 -0.3559  0.0759
   10MPD2    C513955   1.357   3.795  13.193  0.4119 -0.5786  0.2121
   10MPD2     H13956   1.141   3.591  13.422  1.8398  1.4929  2.1887
   10MPD2    H113957   1.300   3.958  13.302  1.1614 -0.4576 -0.9239
   10MPD2    H213958   1.426   3.604  13.105 -2.0446 -1.2016 -1.4684
   10MPD2    H313959   1.417   3.856  13.126  0.6821 -0.2463  0.7629
   10MPD2     N13960   1.122   3.833  13.472 -0.1050 -0.2283 -0.0135
   10MPD2    H513961   1.069   3.766  13.527 -1.1749  0.7813  0.1884
   10MPD2    N113962   1.299   3.439  13.251 -0.3053  0.0508 -0.1611
   10MPD2    H713963   1.367   3.400  13.187 -1.2613  2.7458 -2.8755
   11MPD2     C13964   1.600   2.328  14.031  0.9105 -0.0818  0.3564
   11MPD2    C113965   1.726   2.292  14.071 -0.2373 -1.3717  0.3272
   11MPD2    C213966   1.837   2.339  14.005 -0.0644  0.4196  0.2061
   11MPD2    C313967   1.831   2.424  13.898  0.5442  0.6983  0.0940
   11MPD2    C413968   1.699   2.453  13.848  0.1261 -0.6566 -0.8154
   11MPD2    C513969   1.593   2.409  13.919  0.1265 -0.1171 -0.0209
   11MPD2     H13970   1.931   2.317  14.055  0.0935 -0.0982 -0.3182
   11MPD2    H113971   1.688   2.516  13.761 -0.7497  1.1847  0.6395
   11MPD2    H213972   1.513   2.306  14.090  1.8328 -0.1579  1.6762
   11MPD2    H313973   1.493   2.447  13.902  0.6564  1.8383  1.1981
   11MPD2     N13974   1.943   2.483  13.833 -0.2578 -0.8981  0.0880
   11MPD2    H513975   1.920   2.552  13.762 -0.8327 -0.9839  0.1953
   11MPD2    N113976   1.739   2.209  14.186 -0.3745 -0.1611 -0.0274
   11MPD2    H713977   1.831   2.204  14.229 -1.3588 -0.9923  2.0205
    1MPD1     C13978   4.106   2.752   0.368 -0.0091  0.1758 -0.3880
    1MPD1    C113979   4.111   2.753   0.229  0.6132  0.1683 -0.5541
    1MPD1    C213980   4.124   2.875   0.164 -0.8815  0.0081  0.0900
    1MPD1    C313981   4.134   2.994   0.245 -0.7058 -0.7336  0.1352
    1MPD1    C413982   4.135   2.992   0.382  1.0939  0.4352  0.1990
    1MPD1    C513983   4.123   2.868   0.439 -0.7808 -0.2696 -0.4118
    1MPD1     H13984   4.143   2.875   0.057 -0.6271 -0.4774  0.1361
    1MPD1    H113985   4.140   3.081   0.443 -0.0134  1.6261 -1.4289
    1MPD1    H213986   4.093   2.657   0.418 -2.7846 -0.5425 -2.4923
    1MPD1    H313987   4.111   2.863   0.547  0.7994 -1.8339 -0.3198
    1MPD1     N13988   4.156   3.121   0.196  0.0369 -0.2628 -0.2540
    1MPD1    H513989   4.185   3.198   0.256  1.8365 -0.6385 -0.6457
    1MPD1    N113990   4.133   2.628   0.173  0.2800 -0.5352 -0.2562
    1MPD1    H613991   4.102   2.624   0.076 -0.8569  4.1687 -0.0889
    1MPD1    H713992   4.087   2.557   0.231  1.4422 -0.9308  0.1809
    2MPD1     C13993   0.121   3.741  17.471  0.2022  0.2640 -0.3006
    2MPD1    C113994   0.007   3.767  17.386  0.3393 -0.0883 -0.0477
    2MPD1    C213995   4.613   3.697  17.414 -0.0709 -0.3942 -0.0803
    2MPD1    C313996   4.599   3.610  17.518  0.5176 -0.0695 -0.2228
    2MPD1    C413997   4.705   3.604  17.607 -0.5902  0.2317  1.0301
    2MPD1    C513998   0.103   3.655  17.575 -0.7244  0.2669 -0.3743
    2MPD1     H13999   4.533   3.713  17.343 -2.0678 -0.1882  2.2136
    2MPD1    H114000   4.711   3.546   0.008  1.1796 -2.1727 -0.6209
    2MPD1    H214001   0.220   3.775  17.442  0.2616  1.4107  1.2538
    2MPD1    H314002   0.183   3.644  17.647  0.8603  2.3479 -1.7969
    2MPD1     N14003   4.472   3.553  17.551  0.2063  0.0095  0.2192
    2MPD1    H514004   4.406   3.576  17.477  2.0159 -0.7990 -1.6769
    2MPD1    N114005   0.021   3.823  17.257 -0.1098  0.3109  0.1271
    2MPD1    H614006   4.655   3.853  17.217  0.3520  3.0431  1.1180
    2MPD1    H714007   0.073   3.910  17.257  0.8871 -0.2776  1.0042
    3TMC3    C114008   4.298   3.456  17.674 -0.0826  0.3265  0.5202
    3TMC3    C214009   4.198   3.524  17.603  0.3623 -0.2012  1.1462
    3TMC3    C314010   4.078   3.459  17.580  0.5698 -0.8289  0.5970
    3TMC3    C414011   4.257   3.343   0.056  0.6491 -0.5709  0.2864
    3TMC3    C514012   4.134   3.282   0.028  0.1573 -0.2392 -0.0179
    3TMC3    C614013   4.042   3.340  17.639 -0.8353 -0.3334 -0.3090
    3TMC3     C14014   4.438   3.482  17.666  0.4256 -0.3907  0.0886
    3TMC3     O14015   4.511   3.438   0.065  0.1339  0.1564 -0.0101
    3TMC3     H14016   4.228   3.619  17.559 -0.5816  0.3254  1.6332
    3TMC3    H114017   4.323   3.294   0.126 -0.2850 -0.0482  1.5513
    3TMC3    H214018   3.949   3.291  17.612 -0.7454 -0.9647  0.5419
    3TMC3    C714019   4.118   3.147   0.068 -0.7995  0.3264 -0.1658
    3TMC3    C814020   3.980   3.534  17.503 -0.9441  0.0904 -0.1493
    3TMC3    O114021   4.051   3.083  17.681 -0.3365  0.1886  0.3314
    3TMC3    O214022   4.017   3.619  17.421  0.0676 -0.5833  0.0482
    4MPD1     C14023   3.518   3.748  17.479  0.1240 -0.8276 -0.1457
    4MPD1    C114024   3.539   3.686  17.602 -0.5045  0.3146 -0.2155
    4MPD1    C214025   3.652   3.610  17.626 -0.0762 -0.4278 -0.2603
    4MPD1    C314026   3.748   3.606  17.532  0.2668  0.1822 -0.2076
    4MPD1    C414027   3.725   3.654  17.404 -0.1261 -0.7687  0.0506
    4MPD1    C514028   3.610   3.731  17.383  0.2021  0.9198  0.7374
    4MPD1     H14029   3.671   3.564   0.032 -0.0284  0.7688  0.3119
    4MPD1    H114030   3.784   3.634  17.316  1.1611 -0.0767  0.7531
    4MPD1    H214031   3.425   3.803  17.464  0.6652  0.1689  0.1099
    4MPD1    H314032   3.587   3.752  17.279  0.2186 -0.5360  0.4408
    4MPD1     N14033   3.862   3.527  17.566 -0.7104  0.0291  0.5900
    4MPD1    H514034   3.866   3.479  17.656 -0.0049 -0.2205  0.4283
    4MPD1    N114035   3.436   3.684   0.008  0.1594 -0.7290 -0.3139
    4MPD1    H614036   3.374   3.765   0.007 -0.7240 -1.4016 -0.0521
    4MPD1    H714037   3.480   3.673   0.099  2.3619 -0.5447 -1.3647
    1TCq1    O114038   1.088   3.100  12.366  0.4726  0.3404 -0.1356
    1TCq1    C114039   1.162   3.052  12.261 -0.0339  0.2622  0.1283
    1TCq1    O214040   1.117   3.001  12.161  0.0704  0.7850  0.1345
    1TCq1    C214041   1.285   3.016  12.320 -0.1275 -0.7296  1.4490
    1TCq1    C314042   1.354   3.102  12.404  0.6674 -0.6714  0.0234
    1TCq1    C414043   1.472   3.070  12.459 -0.2805  0.4729 -0.2160
    1TCq1    C514044   1.529   2.958  12.412 -0.0441 -0.0957  0.1010
    1TCq1    C614045   1.457   2.869  12.343 -0.3599 -0.3672  0.9358
    1TCq1    C714046   1.332   2.892  12.299  0.3757 -0.4500 -0.5365
    1TCq1    C814047   1.511   2.735  12.335  0.1074 -0.3948  0.3235
    1TCq1    O414048   1.590   2.696  12.424  0.0304  0.1459 -0.3220
    1TCq1    C914049   1.551   3.168  12.522  0.3384  0.1853  0.1835
    1TCq1    O514050   1.640   3.115  12.595 -0.8659  0.7439 -0.1346
    1TCq1    O614051   1.503   3.284  12.538 -0.4670  0.0517 -0.3789
    1TCq1    H114052   1.142   3.111  12.447  0.0306 -1.7753  0.4603
    1TCq1    H214053   1.332   3.208  12.401  0.5565 -0.7212 -0.8726
    1TCq1    H314054   1.630   2.933  12.442  1.2059  4.6331 -0.0941
    1TCq1    H414055   1.268   2.833  12.233 -1.6310  1.8452 -0.6357
    2MPD1     C14056   1.570   2.277  12.101 -0.2760  0.2414  0.7429
    2MPD1    C114057   1.495   2.357  12.010  0.1122 -0.0923 -0.4796
    2MPD1    C214058   1.472   2.487  12.056  0.1135 -0.3320  0.2180
    2MPD1    C314059   1.510   2.539  12.181  0.1150 -0.1915 -0.3519
    2MPD1    C414060   1.583   2.457  12.262  0.1659  0.9880 -0.1356
    2MPD1    C514061   1.613   2.334  12.219  0.7807 -0.1610 -0.6176
    2MPD1     H14062   1.423   2.558  11.992 -0.0828 -0.7171 -0.0565
    2MPD1    H114063   1.627   2.482  12.357 -2.0862  2.6786  0.4749
    2MPD1    H214064   1.599   2.174  12.081  3.0527  0.9429  2.0426
    2MPD1    H314065   1.679   2.270  12.276  1.4100  0.3164 -0.8096
    2MPD1     N14066   1.462   2.668  12.216  0.2130 -0.3241  0.1680
    2MPD1    H514067   1.409   2.718  12.147 -0.2114  2.7933  2.7522
    2MPD1    N114068   1.432   2.294  11.905  0.3322  0.0837 -0.7499
    2MPD1    H614069   1.420   2.340  11.814 -0.1174  0.8376 -0.3042
    2MPD1    H714070   1.481   2.211  11.870  0.6069 -0.3160  0.5810
    1TCq1    O114071   0.133   2.381   1.674 -0.6691  0.1717  0.2907
    1TCq1    C114072   0.065   2.264   1.677 -0.3929  0.1438 -0.0856
    1TCq1    O214073   0.071   2.189   1.780  0.3199  0.0417  0.0723
    1TCq1    C214074   4.674   2.267   1.590 -0.3340  0.6858  0.4540
    1TCq1    C314075   4.698   2.308   1.463 -0.8913 -0.2440  0.3219
    1TCq1    C414076   4.599   2.284   1.369  0.2765 -0.0272 -0.0444
    1TCq1    C514077   4.471   2.275   1.410 -0.1004  0.1146 -0.0766
    1TCq1    C614078   4.449   2.226   1.536 -0.5200  0.7612 -0.3023
    1TCq1    C714079   4.554   2.212   1.630  0.2785 -0.0220  0.3948
    1TCq1    C814080   4.344   2.130   1.560 -0.1951 -0.4669 -0.4811
    1TCq1    O414081   4.364   2.045   1.649  0.0871 -0.1093  0.9409
    1TCq1    C914082   4.614   2.342   1.235 -0.0821  0.0761  0.2707
    1TCq1    O514083   4.716   2.416   1.220  0.4320 -0.2042  0.1907
    1TCq1    O614084   4.552   2.287   1.142  1.3241  0.4729  0.4665
    1TCq1    H114085   0.093   2.456   1.626  1.2643  0.8931 -0.1917
    1TCq1    H214086   0.078   2.338   1.440 -0.8754  0.4491  1.3010
    1TCq1    H314087   4.398   2.277   1.329 -0.3395 -0.2418  0.1327
    1TCq1    H414088   4.547   2.167   1.728 -0.8562  0.3564  0.4800
    2MPD1     C14089   3.870   1.947   1.516  0.0235  0.1272 -0.0088
    2MPD1    C114090   3.871   2.057   1.433 -0.4463  0.2241  0.2133
    2MPD1    C214091   3.994   2.129   1.420 -0.8410 -0.0847 -0.0827
    2MPD1    C314092   4.114   2.077   1.474  0.1276 -0.2547  0.1609
    2MPD1    C414093   4.111   1.951   1.532 -0.3209  0.3508  0.6197
    2MPD1    C514094   3.989   1.896   1.559 -0.1461  0.0551  0.2654
    2MPD1     H14095   3.989   2.231   1.384 -1.0744 -0.4879 -1.2236
    2MPD1    H114096   4.206   1.902   1.546  0.3428  0.9503 -1.9474
    2MPD1    H214097   3.786   1.895   1.562 -0.3126  1.5567  0.9881
    2MPD1    H314098   4.006   1.814   1.628 -0.9089  1.0347  1.6356
    2MPD1     N14099   4.232   2.156   1.487  0.0137 -0.0141 -0.8647
    2MPD1    H514100   4.237   2.247   1.443  2.1031  0.9739  1.3979
    2MPD1    N114101   3.751   2.118   1.397 -0.7977 -0.0141  0.2478
    2MPD1    H614102   3.761   2.188   1.324 -1.2044 -0.5974 -0.3723
    2MPD1    H714103   3.677   2.054   1.369 -1.7627  0.3806  1.8584
    1MPD1     C14104   2.786   3.368  12.400  0.1255 -0.0903 -0.0508
    1MPD1    C114105   2.768   3.474  12.486 -0.1270 -0.5032  0.2174
    1MPD1    C214106   2.772   3.605  12.435  0.3063 -1.0718 -0.3646
    1MPD1    C314107   2.804   3.628  12.304  0.1013  0.7328 -0.3047
    1MPD1    C414108   2.828   3.518  12.221  0.0495  0.3281  0.3404
    1MPD1    C514109   2.810   3.396  12.267 -0.2424 -0.3762  0.1609
    1MPD1     H14110   2.763   3.691  12.500 -0.4090 -0.9679 -0.6060
    1MPD1    H114111   2.821   3.528  12.113 -2.0313  1.8648  0.6167
    1MPD1    H214112   2.776   3.264  12.429 -0.6630 -0.1237 -0.4598
    1MPD1    H314113   2.824   3.323  12.188 -3.0951  1.8452 -2.3934
    1MPD1     N14114   2.792   3.761  12.250 -0.3130 -0.4020  0.6462
    1MPD1    H514115   2.763   3.832  12.317 -0.8722 -0.9376  0.9674
    1MPD1    N114116   2.720   3.453  12.614  0.3207  0.3432  0.5996
    1MPD1    H614117   2.754   3.367  12.657  0.7194  0.6408  0.8815
    1MPD1    H714118   2.729   3.532  12.678 -2.4071 -0.3263  1.8140
    2MPD1     C14119   1.612   3.582  11.797 -0.4887 -0.1735 -0.5073
    2MPD1    C114120   1.614   3.457  11.740  0.0692  0.2133 -0.1959
    2MPD1    C214121   1.714   3.430  11.650 -0.5028  0.6728 -0.3813
    2MPD1    C314122   1.802   3.529  11.611  0.3696  0.1487  0.2649
    2MPD1    C414123   1.785   3.658  11.659 -0.1358 -0.0838  0.0420
    2MPD1    C514124   1.690   3.684  11.754 -0.0870  0.1155 -0.7324
    2MPD1     H14125   1.718   3.327  11.617 -0.2494  0.1398  1.3417
    2MPD1    H114126   1.853   3.737  11.629  0.4603  0.8226  3.8044
    2MPD1    H214127   1.549   3.607  11.881  1.7077  0.4607  0.9313
    2MPD1    H314128   1.689   3.778  11.807 -0.3810  0.1778 -0.8456
    2MPD1     N14129   1.906   3.506  11.520 -0.1117 -1.0422 -0.4341
    2MPD1    H514130   1.958   3.590  11.498 -0.5426 -0.6428  0.0971
    2MPD1    N114131   1.540   3.351  11.793 -0.7253 -0.4655  0.3325
    2MPD1    H614132   1.452   3.378  11.837 -1.1947 -2.1556  0.4319
    2MPD1    H714133   1.530   3.263  11.743  0.4376 -0.9259  0.9089
    3MPD1     C14134   1.781   2.847  10.815 -0.3998 -0.4498  0.1533
    3MPD1    C114135   1.762   2.856  10.948 -0.2281 -0.0241  0.0466
    3MPD1    C214136   1.834   2.948  11.027  0.0624 -0.6301 -0.4380
    3MPD1    C314137   1.910   3.045  10.959 -0.0211 -0.3546 -0.3103
    3MPD1    C414138   1.932   3.033  10.824  0.6530  1.3856  0.5977
    3MPD1    C514139   1.857   2.945  10.748 -0.0844  0.1698 -0.0435
    3MPD1     H14140   1.811   2.959  11.132  0.1296 -2.5897 -0.2313
    3MPD1    H114141   2.002   3.106  10.785 -1.2250  1.2263 -3.0486
    3MPD1    H214142   1.741   2.765  10.755  1.0549 -0.7201 -0.4703
    3MPD1    H314143   1.875   2.939  10.641  0.3442  1.7007 -0.0582
    3MPD1     N14144   1.983   3.135  11.043  0.4301 -0.3122  0.0053
    3MPD1    H514145   1.993   3.118  11.142  0.0469  2.7510  0.5735
    3MPD1    N114146   1.713   2.737  11.011  0.1961  0.0459  0.0117
    3MPD1    H614147   1.650   2.686  10.950 -0.9678 -0.7130  1.8525
    3MPD1    H714148   1.668   2.772  11.095  0.0780 -1.9687  0.7813
    4MPD2     C14149   2.250   4.186  11.928  0.1671 -0.4099  0.0537
    4MPD2    C114150   2.378   4.231  11.899 -0.1928 -0.2607 -0.1182
    4MPD2    C214151   2.395   4.313  11.782 -0.1306  0.1636 -0.1155
    4MPD2    C314152   2.286   4.345  11.699 -1.2741 -0.1441 -0.3847
    4MPD2    C414153   2.162   4.302  11.734  0.2429  0.0239 -0.2104
    4MPD2    C514154   2.146   4.233  11.852 -0.4524 -0.5685  0.3171
    4MPD2     H14155   2.490   4.365  11.782  0.6238 -1.1970  1.2514
    4MPD2    H114156   2.070   4.322  11.681  1.4907 -2.1596 -3.1784
    4MPD2    H214157   2.221   4.127  12.014 -1.7087  0.1770 -0.1675
    4MPD2    H314158   2.046   4.205  11.884 -1.5263  0.4813 -2.0874
    4MPD2     N14159   2.307   4.405  11.576  0.4746  0.0758 -0.3242
    4MPD2    H514160   2.222   4.411  11.521  1.2578 -1.7596 -1.7258
    4MPD2    N114161   2.487   4.203  11.987 -0.5774  0.1294  0.6899
    4MPD2    H714162   2.572   4.258  11.975 -1.8101  1.6459 -1.0014
    5TMC3    C114163   2.633   4.102  12.132 -0.2616 -0.3874 -0.2763
    5TMC3    C214164   2.673   3.977  12.170 -0.0122 -0.6658  0.4487
    5TMC3    C314165   2.801   3.950  12.128 -0.1719  0.1153 -0.1629
    5TMC3    C414166   2.716   4.195  12.068 -0.0088  0.2437  0.1562
    5TMC3    C514167   2.834   4.159  12.020 -0.7427  0.0331  0.2305
    5TMC3    C614168   2.880   4.034  12.051  0.0897 -0.0660  0.0103
    5TMC3     C14169   2.494   4.109  12.089 -0.2757  0.5018  0.3509
    5TMC3     O14170   2.427   4.013  12.101  0.0837  0.5954  0.2102
    5TMC3     H14171   2.599   3.913  12.217 -0.0683 -0.3942  0.7245
    5TMC3    H114172   2.691   4.301  12.068 -1.1402 -0.0262  1.5260
    5TMC3    H214173   2.981   4.004  12.028  0.2635  0.8039 -0.3614
    5TMC3    C714174   2.837   4.188  11.877  0.4418  0.1287 -0.5997
    5TMC3    C814175   2.849   3.817  12.136 -0.2945 -0.0088 -0.2361
    5TMC3    O114176   2.748   4.264  11.836 -0.4053 -0.3322  0.4239
    5TMC3    O214177   2.931   3.785  12.057  0.2785 -0.1673  0.0674
    6TMC3    C114178   2.039   3.407  11.351  0.3805 -0.4886 -0.4123
    6TMC3    C214179   2.033   3.315  11.253  1.0010 -0.0354 -0.8238
    6TMC3    C314180   2.091   3.335  11.126 -0.0413  0.6007  1.2519
    6TMC3    C414181   2.085   3.529  11.330  0.0595 -0.0269  0.0743
    6TMC3    C514182   2.120   3.556  11.201 -0.3398 -0.3203  0.1117
    6TMC3    C614183   2.135   3.459  11.097 -0.3945  0.0106  0.3629
    6TMC3     C14184   1.934   3.392  11.449 -0.5923 -0.2684  0.0764
    6TMC3     O14185   1.871   3.286  11.451 -0.0488  0.3893  0.0738
    6TMC3     H14186   1.977   3.224  11.270  1.3999 -0.4977 -2.0140
    6TMC3    H114187   2.108   3.602  11.407  2.4453 -0.9962  0.2810
    6TMC3    H214188   2.166   3.483  10.996  0.1822 -3.0903 -0.1845
    6TMC3    C714189   2.171   3.691  11.172  0.0937 -0.5580 -0.0091
    6TMC3    C814190   2.059   3.250  11.011 -0.0060  0.2092 -0.3074
    6TMC3    O114191   2.168   3.775  11.264 -0.5235  0.6855 -0.8161
    6TMC3    O214192   2.102   3.280  10.896  0.0914  0.6480 -0.2198
    7MPD2     C14193   2.923   4.056  11.393  0.2712  0.1552  0.2549
    7MPD2    C114194   2.854   4.161  11.443 -0.1780  0.0852  0.5219
    7MPD2    C214195   2.865   4.183  11.581 -0.0539  0.1907 -0.1975
    7MPD2    C314196   2.926   4.092  11.664 -0.4085  0.4706 -0.2566
    7MPD2    C414197   2.996   3.982  11.607 -0.6490  0.0515 -0.4536
    7MPD2    C514198   2.991   3.963  11.475  0.4571 -0.2020  0.5208
    7MPD2     H14199   2.818   4.267  11.630 -0.7412 -0.3537  0.0748
    7MPD2    H114200   3.043   3.899  11.659  1.6849  1.2416 -0.6475
    7MPD2    H214201   2.915   4.030  11.288  2.0343 -3.2402  0.9314
    7MPD2    H314202   3.036   3.875  11.430  0.8824 -0.4315  1.3923
    7MPD2     N14203   2.917   4.103  11.804  0.0628 -0.3222  0.0873
    7MPD2    H514204   2.975   4.038  11.856 -0.4623 -2.4046 -1.9510
    7MPD2    N114205   2.775   4.234  11.352  0.4412  0.3816  0.4259
    7MPD2    H714206   2.747   4.197  11.262 -0.2856 -0.6034  1.0492
    8TMC3    C114207   2.634   4.407  11.303  0.2475 -0.2146  0.5584
    8TMC3    C214208   2.560   4.314  11.229  0.7169 -0.3922 -0.3911
    8TMC3    C314209   2.424   4.315  11.245 -0.1751  0.0036 -0.6809
    8TMC3    C414210   2.563   4.504  11.373  0.6023  0.4210 -0.0901
    8TMC3    C514211   2.431   4.489  11.400  0.0043  0.1570  0.2230
    8TMC3    C614212   2.361   4.387  11.338 -0.4859  0.1767  0.4643
    8TMC3     C14213   2.745   4.363  11.383 -0.6091 -0.4392 -0.0082
    8TMC3     O14214   2.793   4.440  11.464 -0.6843 -0.4737  0.1569
    8TMC3     H14215   2.616   4.245  11.167  1.4494 -0.3350  0.2035
    8TMC3    H114216   2.629   4.572  11.426  1.6410  0.6313 -1.6489
    8TMC3    H214217   2.253   4.398  11.345 -0.3977 -0.0133  2.1451
    8TMC3    C714218   2.408   4.486  11.544  0.0380 -0.3472 -0.2312
    8TMC3    C814219   2.353   4.197  11.193  0.3393 -0.5375  0.0652
    8TMC3    O114220   2.489   4.540  11.621  0.1964  0.5268 -0.0405
    8TMC3    O214221   2.274   4.139  11.265  0.2568  0.3128 -0.3553
    9MPD2     C14222   2.376   4.038  10.860 -0.1815  0.3156  0.6750
    9MPD2    C114223   2.365   4.046  10.993  0.3068  0.0051  0.0423
    9MPD2    C214224   2.310   3.937  11.060  0.4396 -1.4077 -0.0439
    9MPD2    C314225   2.275   3.827  10.991 -0.0089  0.3234 -0.0863
    9MPD2    C414226   2.298   3.819  10.857 -0.5267  0.0458 -0.3860
    9MPD2    C514227   2.343   3.924  10.792 -0.6334 -0.5675  0.2158
    9MPD2     H14228   2.297   3.941  11.168 -0.5487 -1.4505 -0.1604
    9MPD2    H114229   2.270   3.739  10.789 -1.7158  0.8491 -0.8303
    9MPD2    H214230   2.383   4.125  10.796  1.1310 -0.5895 -0.4157
    9MPD2    H314231   2.330   3.931  10.685  0.2517  0.8883  0.1945
    9MPD2     N14232   2.218   3.709  11.046 -0.2558 -0.5268 -0.1399
    9MPD2    H514233   2.214   3.631  10.981  0.2916 -0.8045  0.1560
    9MPD2    N114234   2.399   4.167  11.061  0.6979 -0.4318  0.1929
    9MPD2    H714235   2.453   4.231  11.004  1.2912 -1.0947  0.0087
    1MPD1     C14236   2.066   2.179  15.452 -0.0009  0.1082 -0.1843
    1MPD1    C114237   2.048   2.049  15.412 -0.0073 -0.5053 -0.2831
    1MPD1    C214238   1.960   1.968  15.479 -0.8889  0.1276  0.5539
    1MPD1    C314239   1.899   2.012  15.598  1.0886  0.5449 -0.2743
    1MPD1    C414240   1.931   2.140  15.642 -0.9435 -0.0393  0.1850
    1MPD1    C514241   2.016   2.221  15.577 -0.1795  0.9926 -0.3967
    1MPD1     H14242   1.951   1.868  15.438 -0.7103 -0.4359  1.8936
    1MPD1    H114243   1.899   2.178  15.738  0.1082  0.8708  0.1731
    1MPD1    H214244   2.131   2.244  15.395  1.4446 -3.1388 -2.3044
    1MPD1    H314245   2.044   2.320  15.609  0.1290  1.1702 -1.2103
    1MPD1     N14246   1.795   1.942  15.660 -0.0240  0.1821 -0.6221
    1MPD1    H514247   1.755   1.993  15.738  1.9681  2.5129 -1.0909
    1MPD1    N114248   2.109   2.007  15.290 -0.3999 -0.2857 -0.4726
    1MPD1    H614249   2.050   1.935  15.248  0.0512  0.5342 -2.5121
    1MPD1    H714250   2.118   2.083  15.223  3.4872  0.7772  1.2927
    2MPD1     C14251   1.498   1.024  15.492 -0.0653 -0.4109  0.4259
    2MPD1    C114252   1.622   1.073  15.508  0.0638  0.4164  0.6485
    2MPD1    C214253   1.639   1.170  15.601  0.6867  0.0851 -1.3004
    2MPD1    C314254   1.535   1.245  15.654  0.2125 -0.1481  0.6193
    2MPD1    C414255   1.411   1.196  15.631 -0.6821  0.0479 -0.1524
    2MPD1    C514256   1.393   1.086  15.550 -0.5238  0.7097  0.4169
    2MPD1     H14257   1.739   1.210  15.617  0.9865 -1.5186  0.8258
    2MPD1    H114258   1.315   1.228  15.670 -0.2916  1.6439 -0.4922
    2MPD1    H214259   1.466   0.937  15.434 -0.0877 -0.0747 -0.0699
    2MPD1    H314260   1.291   1.051  15.532 -0.1694  1.0700 -2.3275
    2MPD1     N14261   1.558   1.369  15.713  0.1607  0.1706  1.0942
    2MPD1    H514262   1.649   1.413  15.712 -0.0826  0.6390 -0.6029
    2MPD1    N114263   1.736   1.009  15.455  0.6568  0.5325  0.1390
    2MPD1    H614264   1.809   1.079  15.441  0.9669  0.1587 -0.1309
    2MPD1    H714265   1.718   0.963  15.366 -0.2931 -1.2554  1.2525
    3TCq2    C114266   1.457   1.449  15.763 -0.4300 -0.1766 -0.0922
    3TCq2    O214267   1.341   1.427  15.803  0.2762  0.1574  0.1511
    3TCq2    C214268   1.506   1.582  15.789 -0.5692  0.0480 -0.1518
    3TCq2    C314269   1.418   1.671  15.845 -0.4697  0.4801 -0.4634
    3TCq2    C414270   1.446   1.808  15.841 -0.0381 -1.1713 -0.3955
    3TCq2    C514271   1.558   1.856  15.780  0.2371  0.9541  0.0244
    3TCq2    C614272   1.647   1.768  15.723 -0.0653 -0.1713  0.3160
    3TCq2    C714273   1.626   1.636  15.731  0.5367 -0.2038  0.6019
    3TCq2    C814274   1.761   1.809  15.639 -0.7093  0.6931 -0.3227
    3TCq2    O414275   1.805   1.727  15.554 -0.0584 -0.2968 -0.5010
    3TCq2    C914276   1.339   1.896  15.881 -0.2139 -0.7735 -0.5869
    3TCq2    O514277   1.252   1.856  15.961  0.1564 -0.4026 -0.2390
    3TCq2    O614278   1.335   2.001  15.805  0.3619  0.3204  0.2622
    3TCq2    H214279   1.320   1.638  15.877  0.3319  0.8519  2.4069
    3TCq2    H314280   1.569   1.963  15.763 -2.6197  1.4234  1.1650
    3TCq2    H414281   1.709   1.579  15.691 -0.1398 -0.3524 -0.5958
    1TCq1    O114282   4.130   1.427  13.263 -0.3093  0.0099  0.5014
    1TCq1    C114283   4.176   1.328  13.182  0.1706  0.3461 -0.1206
    1TCq1    O214284   4.216   1.338  13.067 -0.7331 -0.2036  0.5692
    1TCq1    C214285   4.246   1.238  13.269 -0.0650  0.3852 -0.1806
    1TCq1    C314286   4.165   1.153  13.340 -0.8120 -0.0201  0.5389
    1TCq1    C414287   4.212   1.030  13.373 -0.8840 -0.1909 -0.2169
    1TCq1    C514288   4.333   0.990  13.328 -0.1756 -0.6753 -0.3356
    1TCq1    C614289   4.407   1.074  13.247  0.3693  0.2186 -0.5280
    1TCq1    C714290   4.365   1.203  13.215  0.1668 -0.4302 -0.6190
    1TCq1    C814291   4.529   1.012  13.190 -0.4193 -0.4756 -0.1080
    1TCq1    O414292   4.546   0.895  13.215  0.2672  0.2032 -0.6098
    1TCq1    C914293   4.137   0.937  13.448  0.3701 -0.0129  0.1464
    1TCq1    O514294   4.197   0.839  13.502  0.0304  0.3489 -0.2628
    1TCq1    O614295   4.014   0.948  13.429 -0.7647 -0.7080  0.2856
    1TCq1    H114296   4.146   1.405  13.357 -0.1765  1.7730  0.8891
    1TCq1    H214297   4.067   1.180  13.377 -1.6356  0.7348 -2.2551
    1TCq1    H314298   4.374   0.894  13.358  0.5979 -0.5665 -1.0398
    1TCq1    H414299   4.424   1.267  13.150  1.2976 -1.1888 -0.3446
    2MPD2     C14300   0.015   0.927  13.014 -0.0793 -0.1483  0.0068
    2MPD2    C114301   0.003   1.057  13.051  0.0441  0.2430 -0.2239
    2MPD2    C214302   0.102   1.142  13.006 -0.4476 -0.3138 -0.0928
    2MPD2    C314303   0.214   1.098  12.925  0.0375  0.6675  0.1526
    2MPD2    C414304   0.212   0.974  12.875  0.5288  0.1722 -0.1158
    2MPD2    C514305   0.112   0.892  12.920 -0.1482  0.1909  0.7067
    2MPD2     H14306   0.108   1.246  13.036  2.9041  0.4974 -3.5307
    2MPD2    H114307   0.291   0.937  12.811 -0.6215  2.7962 -3.0095
    2MPD2    H214308   4.652   0.861  13.024  0.9993 -1.4886  0.3287
    2MPD2    H314309   0.116   0.787  12.892  2.1012  0.1490  1.2198
    2MPD2     N14310   0.322   1.190  12.910  0.1377 -0.6286  0.7160
    2MPD2    H514311   0.306   1.283  12.949  0.5148  0.4336 -1.6690
    2MPD2    N114312   4.615   1.099  13.132  0.0272  0.2026  0.3071
    2MPD2    H714313   4.621   1.199  13.150 -0.4730  0.6166 -1.7750
    3TCq1    O114314   0.818   1.489  13.144  0.3887 -0.3720  0.5321
    3TCq1    C114315   0.705   1.421  13.149 -0.6278  0.2338 -0.6557
    3TCq1    O214316   0.634   1.406  13.246  0.4549 -0.4149  0.0124
    3TCq1    C214317   0.691   1.361  13.011  0.0271  0.1370 -0.6322
    3TCq1    C314318   0.790   1.369  12.922  0.1987 -0.0820  0.2205
    3TCq1    C414319   0.766   1.318  12.791 -0.0375  0.0601  0.4489
    3TCq1    C514320   0.640   1.266  12.761 -0.1450 -0.6204  0.3705
    3TCq1    C614321   0.539   1.262  12.854 -0.3880 -0.3508 -0.1234
    3TCq1    C714322   0.566   1.311  12.986  0.4252  0.5319 -0.5082
    3TCq1    C814323   0.431   1.165  12.835 -0.0842  0.4336 -0.0428
    3TCq1    O414324   0.474   1.065  12.784 -0.1025  0.4991  0.2857
    3TCq1    C914325   0.866   1.339  12.693 -0.6136 -0.0908  0.2054
    3TCq1    O514326   0.834   1.327  12.572  0.4011 -0.5659  0.1186
    3TCq1    O614327   0.981   1.361  12.745 -0.0282  0.0495  0.1393
    3TCq1    H114328   0.851   1.490  13.051  0.6008 -3.5059  0.5563
    3TCq1    H214329   0.889   1.413  12.929 -0.7030  1.9155  0.3194
    3TCq1    H314330   0.621   1.244  12.657  0.5750 -2.8972  0.7172
    3TCq1    H414331   0.499   1.303  13.071 -0.1539  0.6213 -0.9504
    1MPD2     C14332   4.588   2.769  15.105 -0.1125 -0.6375  0.2270
    1MPD2    C114333   4.549   2.637  15.113  0.0727 -0.2113 -0.0143
    1MPD2    C214334   4.629   2.545  15.047  0.0495  0.1691  0.3722
    1MPD2    C314335   0.023   2.588  14.980  0.2142  0.5488  0.1141
    1MPD2    C414336   0.055   2.716  14.973  0.3323 -0.1107  0.5627
    1MPD2    C514337   4.693   2.806  15.028  0.7661  0.1383 -0.1257
    1MPD2     H14338   4.593   2.443  15.043 -0.3243  0.3527 -0.7293
    1MPD2    H114339   0.142   2.757  14.922 -0.2190 -0.9994 -1.0656
    1MPD2    H214340   4.522   2.849  15.135  0.5964  0.2320 -0.5291
    1MPD2    H314341   4.715   2.912  15.023  1.0378  0.0088 -1.6651
    1MPD2     N14342   0.091   2.487  14.911 -0.6880 -0.0809 -0.6182
    1MPD2    H514343   0.063   2.391  14.933  0.4381 -0.2072  0.3075
    1MPD2    N114344   4.430   2.599  15.189  0.6449 -0.1858  0.7762
    1MPD2    H714345   4.381   2.679  15.226 -1.0544 -0.1888 -1.4854
    2TMC3    C114346   4.253   2.457  15.260 -0.3995 -0.8523 -0.1998
    2TMC3    C214347   4.206   2.334  15.228 -0.1977  0.0810 -0.0930
    2TMC3    C314348   4.087   2.326  15.171  0.8602  0.4542 -0.1865
    2TMC3    C414349   4.175   2.571  15.251 -0.1086  0.1537  0.5520
    2TMC3    C514350   4.051   2.555  15.207 -0.5066  0.2586 -0.0031
    2TMC3    C614351   4.001   2.431  15.171 -0.2142 -0.7856 -0.3051
    2TMC3     C14352   4.384   2.470  15.194  0.2535 -0.5839 -0.5124
    2TMC3     O14353   4.426   2.367  15.146  0.5007  0.1991 -0.3717
    2TMC3     H14354   4.266   2.244  15.236 -0.5813 -0.3518 -2.1356
    2TMC3    H114355   4.211   2.668  15.285  0.9125 -0.0279 -0.0183
    2TMC3    H214356   3.906   2.435  15.118 -0.9247 -0.2382  1.0081
    2TMC3    C714357   3.953   2.656  15.235 -0.2784  0.1857 -0.0452
    2TMC3    C814358   4.098   2.262  15.039 -0.5908  0.1039 -0.1623
    2TMC3    O114359   3.839   2.623  15.262 -0.3130 -1.3948  0.3052
    2TMC3    O214360   3.991   2.229  14.992  0.0777 -0.2207  0.8216
    3TCq1    O114361   4.237   3.875  15.364  0.7574 -0.1618 -0.1118
    3TCq1    C114362   4.200   3.804  15.471 -0.4255 -0.2845  0.1765
    3TCq1    O214363   4.117   3.830  15.562 -0.0344 -0.1502  0.4023
    3TCq1    C214364   4.236   3.666  15.446 -0.1200  0.6734 -0.1167
    3TCq1    C314365   4.350   3.630  15.371 -0.6349  0.8347 -0.0849
    3TCq1    C414366   4.358   3.496  15.342  0.1775  0.3844  0.4011
    3TCq1    C514367   4.267   3.398  15.387  0.0023 -0.3970  0.6819
    3TCq1    C614368   4.157   3.440  15.454 -0.3481 -0.0764 -0.2198
    3TCq1    C714369   4.146   3.572  15.489 -0.0940 -0.4904 -0.4941
    3TCq1    C814370   4.031   3.360  15.450 -0.7443 -0.2003 -0.7592
    3TCq1    O414371   3.926   3.417  15.480 -0.2610 -0.2595 -0.1904
    3TCq1    C914372   4.469   3.458  15.263 -0.5130 -0.4951  0.2290
    3TCq1    O514373   4.469   3.346  15.211  0.3274 -0.5935 -0.2083
    3TCq1    O614374   4.557   3.543  15.243 -0.4325 -0.2122 -0.3935
    3TCq1    H114375   4.291   3.817  15.306 -0.5901 -0.1750 -1.3448
    3TCq1    H214376   4.428   3.701  15.345 -0.5595  0.8013  0.0520
    3TCq1    H314377   4.284   3.295  15.357 -2.2601 -0.9581  1.3596
    3TCq1    H414378   4.054   3.604  15.536 -0.2611 -1.5901 -0.0664
    4MPD2     C14379   3.836   3.134  15.413 -0.2189  0.2853  0.1470
    4MPD2    C114380   3.972   3.131  15.373 -0.1975  0.2743  0.5791
    4MPD2    C214381   4.025   3.013  15.319 -0.8798  0.1503 -0.1813
    4MPD2    C314382   3.947   2.899  15.301 -0.7995 -0.2880  0.2311
    4MPD2    C414383   3.812   2.903  15.332  0.2032  0.6362 -0.1273
    4MPD2    C514384   3.762   3.015  15.396  0.4508  0.6739  0.0475
    4MPD2     H14385   4.131   3.011  15.295 -0.8128  1.4971 -0.0145
    4MPD2    H114386   3.742   2.820  15.324 -0.3585  1.1755 -0.7955
    4MPD2    H214387   3.791   3.219  15.462 -0.5387 -0.2100  0.7053
    4MPD2    H314388   3.663   3.009  15.439 -0.0981 -1.5571 -1.4801
    4MPD2     N14389   4.013   2.782  15.256 -0.3940  0.3150  0.2207
    4MPD2    H514390   4.111   2.786  15.233 -1.1403 -1.0292 -3.2846
    4MPD2    N114391   4.053   3.239  15.384  0.0609 -0.1045 -0.0567
    4MPD2    H714392   4.147   3.227  15.348  0.0999  0.4468 -0.1442
    5TMC2    C114393   0.132   2.179  14.826 -0.4287 -0.6765  0.4386
    5TMC2    C214394   0.225   2.145  14.917 -0.1160  0.0759  0.0863
    5TMC2    C314395   0.344   2.222  14.928  0.2239 -0.3707 -0.2734
    5TMC2    C414396   0.143   2.298  14.758 -0.3045  0.0186 -0.2787
    5TMC2    C514397   0.240   2.385  14.790  0.1590  0.2182  0.7353
    5TMC2    C614398   0.350   2.343  14.866 -0.7616 -0.0439  0.8032
    5TMC2     C14399   4.719   2.153  14.868  1.0576 -0.4629 -0.1940
    5TMC2     O14400   4.705   2.165  14.991 -0.6552 -0.1303  0.1099
    5TMC2     H14401   0.219   2.054  14.977  2.0144 -0.6656 -0.8114
    5TMC2    H114402   0.076   2.332  14.680 -1.3222 -0.5037  0.3694
    5TMC2    H214403   0.424   2.414  14.901  0.3696 -1.2794  0.8781
    5TMC2    C714404   0.195   2.506  14.831  0.4366  0.6002  0.0209
    5TMC2    C814405   0.449   2.179  15.022 -0.0680  0.1422 -0.3912
    5TMC2    O114406   0.263   2.605  14.803 -0.3300  0.0073  0.4743
    5TMC2    O214407   0.422   2.124  15.127 -0.3844 -0.0567 -0.0781
    5TMC2    O514408   0.563   2.172  14.953  0.1814  0.4915  0.0767
    5TMC2    H514409   0.558   2.186  14.857 -0.5140 -0.5001 -0.0370
    6MPD2     C14410   4.207   2.154  14.780 -0.9946  0.3806 -0.1348
    6MPD2    C114411   4.284   2.195  14.882 -0.3341 -1.0173 -0.5324
    6MPD2    C214412   4.422   2.183  14.878 -0.5816 -1.4420  0.3084
    6MPD2    C314413   4.488   2.134  14.771  0.2227 -0.0974 -0.1403
    6MPD2    C414414   4.409   2.098  14.656 -0.4195 -0.5078 -0.2530
    6MPD2    C514415   4.272   2.107  14.666 -0.5988 -0.7297 -0.0082
    6MPD2     H14416   4.477   2.205  14.969  1.7601  0.6251 -1.6317
    6MPD2    H114417   4.467   2.063  14.571 -1.5932  0.1061 -1.3104
    6MPD2    H214418   4.099   2.157  14.781 -0.9657  2.4296 -1.5861
    6MPD2    H314419   4.213   2.070  14.584  0.0593 -2.4344  0.3026
    6MPD2     N14420   4.633   2.139  14.762  0.2483 -0.2319 -0.1314
    6MPD2    H514421   4.675   2.115  14.673 -0.3607  0.7669 -0.6824
    6MPD2    N114422   4.230   2.250  14.998 -0.4733  1.0795  0.1338
    6MPD2    H714423   4.293   2.298  15.061  1.1042  1.9992 -2.1532
  945NH4     N114424   3.621   1.454  11.455  0.2676 -0.0680  0.3156
  945NH4     H214425   3.539   1.399  11.422  0.6731 -0.8382  0.5924
  945NH4     H314426   3.592   1.546  11.495  1.2935 -0.0005  0.9078
  945NH4     H414427   3.683   1.467  11.372  2.1536  1.2738  1.9446
  945NH4     H514428   3.667   1.402  11.532 -1.3032 -0.8294  0.7385
  946SOD     NA14429   4.258   1.536  10.566 -0.1432  0.0920 -0.2141
  947SOD     NA14430   0.676   4.070  15.495  0.1640  0.0580 -0.3601
  948SOD     NA14431   0.491   3.041  17.048  0.0467  0.2396 -0.0906
  949SOD     NA14432   1.300   1.947  15.594 -0.2327 -0.1255  0.1396
  950SOD     NA14433   0.755   4.206   2.188 -0.1106  0.2278 -0.5281
  951SOD     NA14434   1.997   3.133  15.983  0.3775 -0.2427  0.1036
  952SOD     NA14435   4.232   2.974   5.269  0.1130 -0.2884 -0.2474
  953SOD     NA14436   1.903   2.180   6.878  0.1742  0.3723 -0.3019
  954SOD     NA14437   2.770   2.640  13.598  0.1361  0.0848 -0.0365
  955SOD     NA14438   2.678   4.675  11.980  0.6178  0.2205 -0.0707
  956SOD     NA14439   4.662   3.243  15.294  0.2707  0.5028  0.3542
  957SOD     NA14440   0.530   1.765  12.027 -0.2050 -0.1962  0.0036
  958SOD     NA14441   3.907   1.552  12.783 -0.3168  0.0055  0.7181
  959SOD     NA14442   1.909   0.408   4.701  0.2091  0.0217 -0.3693
  960SOD     NA14443   0.267   2.748   9.881 -0.3789 -0.2535  0.0209
  961SOD     NA14444   4.430   0.294   1.853 -0.0657  0.0471  0.1084
  962SOD     NA14445   4.177   1.761  10.344 -0.0952 -0.3798  0.1993
  963SOD     NA14446   3.732   4.388   1.053  0.2721  0.1951 -0.2096
  964SOD     NA14447   0.829   3.174  12.381  0.0979 -0.5513 -0.2615
  965SOD     NA14448   3.364   1.067  13.360 -0.1597 -0.2232  0.3250
  966SOD     NA14449   1.507   3.955   0.385  0.0287  0.2587 -0.6011
  967SOD     NA14450   3.464   2.834  10.791 -0.7308  0.1694  0.1353
  968SOD     NA14451   4.678   1.636  10.137 -0.3693  0.1349 -0.4514
  969SOD     NA14452   0.690   4.496  12.742 -0.0734  0.2543  0.7242
  970SOD     NA14453   4.653   3.582   0.742 -0.1373 -0.1499 -0.0871
  971SOD     NA14454   1.124   1.214  10.232  0.4081  0.2695  0.5054
  972SOD     NA14455   1.672   0.679  14.744 -0.0706  0.4732 -0.0385
  973SOD     NA14456   0.338   0.970  11.755 -0.4860 -0.4106 -0.1669
  974SOD     NA14457   3.824   2.839   8.704 -0.4769  0.1860  0.2400
  975SOD     NA14458   1.201   1.551  12.471  0.1916 -0.0227 -0.1326
  976SOD     NA14459   4.703   3.177  12.276  0.3831  0.2245 -0.4289
  977SOD     NA14460   1.927   2.249  14.858 -0.5463 -0.0949  0.3888
  978SOD     NA14461   2.696   2.339  13.532  0.0375  0.4445 -0.4773
  979SOD     NA14462   1.661   0.083   9.327  0.4989  0.2470 -0.1264
  980SOD     NA14463   1.929   2.554  14.925  0.1890  0.4931 -0.0317
  981SOD     NA14464   3.655   4.431   0.480 -0.7015 -0.4496 -0.1976
  982SOD     NA14465   1.014   1.973  12.026 -0.1393  0.0390  0.2548
  983SOD     NA14466   1.397   4.326  17.307 -0.2034  0.1474 -0.2333
  984SOD     NA14467   4.032   3.089   2.028 -0.3069  0.0938 -0.3931
  985SOD     NA14468   0.896   0.623   2.471  0.1770 -0.0637  0.1006
  986SOD     NA14469   0.309   2.180  15.323  0.0561 -0.0651 -0.1883
  987SOD     NA14470   2.813   0.772  16.193  0.2491 -0.3391  0.1236
  988SOD     NA14471   2.216   2.979   2.126  0.0638 -0.1220  0.8704
  989SOD     NA14472   2.418   1.727   0.640 -0.1426  0.3894 -0.1544
  990SOD     NA14473   1.072   0.818   1.605  0.2605 -0.2755  0.2470
  991SOD     NA14474   3.493   2.738  13.800  0.1746 -0.6634  0.4218
  992SOD     NA14475   2.168   0.545  12.760  0.1430  0.1739  0.7254
  993SOD     NA14476   1.331   1.451  13.952 -0.0363  0.2866 -0.2447
  994SOD     NA14477   3.720   1.159  15.340 -0.1965 -0.2687  0.1311
  995SOD     NA14478   3.799   1.828   7.832  0.0031  0.3904  0.4151
  996SOD     NA14479   1.442   2.034  14.874  0.0441  0.2154  0.0380
  997SOD     NA14480   2.001   2.800   4.174 -0.1854  0.4226  0.3812
  998SOD     NA14481   4.189   3.501   8.540 -0.3814 -0.2033 -0.7017
  999SOD     NA14482   2.169   1.260   0.880 -0.0811  0.0733 -0.1968
 1000SOD     NA14483   1.519   2.775  12.825 -0.2814  0.0720  0.1327
 1001SOD     NA14484   3.801   0.972  14.040  0.2512  0.1322  0.5492
 1002SOD     NA14485   3.521   4.139   1.471  0.1821 -0.1193 -0.1052
 1003SOD     NA14486   0.682   1.527  12.226 -0.2367 -0.4262 -0.0473
 1004SOD     NA14487   2.141   2.172  14.627  0.3659  0.0322 -0.0929
 1005SOD     NA14488   2.253   1.632  17.601  0.8098  0.3483 -0.5343
 1006SOD     NA14489   1.043   1.732  12.242 -0.2165  0.3071  0.0260
 1007SOD     NA14490   1.158   1.041  10.978  0.3267 -0.0443  0.1216
 1008SOD     NA14491   3.067   1.792   2.201  0.0362  0.4515  0.1795
 1009SOD     NA14492   1.939   2.646  11.104  0.1817  0.4089  0.1958
 1010SOD     NA14493   0.934   0.806   3.040 -0.1561  0.2221  0.2687
 1011SOL     OW14494   3.648   1.835   6.245 -0.3884  0.3875  0.1220
 1011SOL    HW114495   3.633   1.901   6.177 -0.0863 -1.4634 -1.7478
 1011SOL    HW214496   3.557   1.822   6.272  0.1531 -1.2237  1.1137
 1012SOL     OW14497   0.445   1.711  10.468  0.0681  0.6621 -0.4184
 1012SOL    HW114498   0.374   1.661  10.508 -1.6041  2.7847 -0.7194
 1012SOL    HW214499   0.387   1.774  10.427 -0.6178  0.2966 -0.0022
 1013SOL     OW14500   4.532   4.328   1.887 -0.1681 -0.4158  0.3156
 1013SOL    HW114501   4.454   4.273   1.874 -1.3518  0.7603  2.5489
 1013SOL    HW214502   4.601   4.267   1.862 -0.2255  0.1148 -1.1752
 1014SOL     OW14503   3.955   0.935   7.128 -0.2201  0.8528 -0.3679
 1014SOL    HW114504   3.971   0.874   7.201 -1.1701  1.5860  0.4586
 1014SOL    HW214505   4.040   0.975   7.111 -0.7080  2.8991  1.9937
 1015SOL     OW14506   1.326   2.642  15.516 -0.6674 -0.2564 -0.5736
 1015SOL    HW114507   1.333   2.578  15.587 -0.4991 -1.2413 -1.4785
 1015SOL    HW214508   1.348   2.726  15.557  2.6571 -2.1584  1.5811
 1016SOL     OW14509   0.534   3.181   7.490 -0.3719 -0.0582 -0.4344
 1016SOL    HW114510   0.509   3.224   7.408  1.0721  2.3809  0.3995
 1016SOL    HW214511   0.491   3.235   7.556 -0.5395  0.8639 -1.2970
 1017SOL     OW14512   2.628   1.507   3.732 -0.4265  0.9046  0.3577
 1017SOL    HW114513   2.674   1.491   3.650  0.6512 -0.4455  1.2091
 1017SOL    HW214514   2.701   1.491   3.793 -0.4682  2.2533  0.7637
 1018SOL     OW14515   1.565   2.934   6.152 -0.0586  0.6018  0.2474
 1018SOL    HW114516   1.589   2.998   6.219 -0.6123  2.3516 -1.2045
 1018SOL    HW214517   1.572   2.849   6.194 -1.0015 -0.1955 -1.2145
 1019SOL     OW14518   0.326   2.141   1.096  0.0366 -0.0351  0.2263
 1019SOL    HW114519   0.239   2.155   1.060  0.3625  1.4212  0.0201
 1019SOL    HW214520   0.354   2.230   1.117  0.3514  0.0420 -0.5287
 1020SOL     OW14521   0.999   2.855   4.704 -0.0874  0.0588 -0.2925
 1020SOL    HW114522   0.917   2.881   4.747 -0.5411 -0.3702 -0.8945
 1020SOL    HW214523   0.969   2.775   4.660  2.5147 -0.9131 -0.3071
 1021SOL     OW14524   1.037   2.237   8.481  0.2075  0.3356 -0.2304
 1021SOL    HW114525   1.096   2.287   8.536  0.6062  1.0598 -1.3319
 1021SOL    HW214526   0.950   2.254   8.519 -0.1721 -1.1374 -0.4307
 1022SOL     OW14527   2.977   3.606  10.384 -0.7220  0.1729  0.2184
 1022SOL    HW114528   2.927   3.684  10.406 -0.2531  0.6805 -0.5232
 1022SOL    HW214529   3.031   3.641  10.313 -0.2033 -2.6565 -0.8243
 1023SOL     OW14530   1.367   2.697  11.563  0.0704 -0.4382  0.1338
 1023SOL    HW114531   1.450   2.743  11.561  0.7773 -1.6726  1.0546
 1023SOL    HW214532   1.345   2.704  11.471 -1.9888 -1.7393  0.5174
 1024SOL     OW14533   4.632   0.959   0.269  0.4208  0.3459  0.1041
 1024SOL    HW114534   4.590   0.961   0.183  0.0890 -0.1068  0.2552
 1024SOL    HW214535   4.560   0.926   0.323  1.2089 -0.9961  0.3461
 1025SOL     OW14536   0.427   3.772   5.629  0.3420 -0.0798  0.1923
 1025SOL    HW114537   0.428   3.736   5.540  1.4719 -0.8025  0.5070
 1025SOL    HW214538   0.379   3.702   5.674 -1.6829  1.3779  0.3131
 1026SOL     OW14539   4.470   0.804  10.345  0.2710 -0.1955 -0.2006
 1026SOL    HW114540   4.484   0.710  10.346  0.4109 -0.1690  0.9186
 1026SOL    HW214541   4.496   0.838  10.431 -0.7721 -1.5169  0.6328
 1027SOL     OW14542   2.768   2.104  16.632 -0.1031 -0.2442 -0.3703
 1027SOL    HW114543   2.732   2.113  16.720  2.3659  0.7101  0.5390
 1027SOL    HW214544   2.857   2.078  16.655  0.6649  0.6283 -2.3650
 1028SOL     OW14545   4.345   3.327   4.078 -0.1459 -0.0705  0.4911
 1028SOL    HW114546   4.275   3.340   4.015 -1.3339  0.0647  1.8416
 1028SOL    HW214547   4.290   3.292   4.148 -0.4996  1.4770  0.9717
 1029SOL     OW14548   0.924   1.958   2.027 -0.1175  0.0800  0.0783
 1029SOL    HW114549   0.938   1.984   2.118  0.9861  0.5010 -0.2072
 1029SOL    HW214550   0.882   1.873   2.035  0.3254 -0.2383 -0.9864
 1030SOL     OW14551   2.052   2.148   5.963 -0.2527  0.2083  0.0888
 1030SOL    HW114552   1.971   2.098   5.953  2.8926 -4.2936 -2.7014
 1030SOL    HW214553   2.122   2.083   5.960  0.2345  0.6855  1.1445
 1031SOL     OW14554   2.211   3.388   8.820  0.3766  0.5322 -0.1247
 1031SOL    HW114555   2.122   3.356   8.810  0.7825 -0.2131 -1.2963
 1031SOL    HW214556   2.259   3.307   8.832  2.0304  1.3706 -1.0777
 1032SOL     OW14557   2.042   1.928   5.663  0.0105  0.6478  0.1531
 1032SOL    HW114558   1.981   1.913   5.735  0.0109  0.1315  0.0461
 1032SOL    HW214559   1.981   1.939   5.591 -2.6428 -0.1991  2.2670
 1033SOL     OW14560   0.881   3.664  15.788  0.0058 -0.0195 -0.2239
 1033SOL    HW114561   0.930   3.726  15.843 -0.9800  1.6224 -1.2153
 1033SOL    HW214562   0.830   3.632  15.862 -0.4051 -0.6718 -0.7947
 1034SOL     OW14563   4.074   1.340   0.434 -0.2403 -0.3432 -0.0262
 1034SOL    HW114564   4.061   1.411   0.370 -1.1614  0.5389  1.1395
 1034SOL    HW214565   4.078   1.399   0.509  0.0190  0.8430 -0.9669
 1035SOL     OW14566   1.443   2.489  14.799  0.4852  0.1389  0.1299
 1035SOL    HW114567   1.510   2.480  14.731  1.6982 -0.3078  1.3732
 1035SOL    HW214568   1.472   2.572  14.838 -0.9094  0.6936 -0.0141
 1036SOL     OW14569   0.659   1.924  10.448 -0.0487  0.5562 -0.1201
 1036SOL    HW114570   0.592   1.985  10.480 -0.3681 -0.7717  1.7478
 1036SOL    HW214571   0.606   1.845  10.445 -0.3895  0.7741  0.1411
 1037SOL     OW14572   3.745   3.188   2.424 -0.1854  0.2790  0.6251
 1037SOL    HW114573   3.724   3.119   2.486  1.0563  0.9537  1.8079
 1037SOL    HW214574   3.709   3.158   2.341  0.8681 -0.4332  0.4241
 1038SOL     OW14575   2.774   0.441   8.238  0.5543 -0.2750  0.0628
 1038SOL    HW114576   2.814   0.356   8.258 -0.6926 -0.3863  2.0749
 1038SOL    HW214577   2.799   0.486   8.319  0.4600 -0.7237  0.3416
 1039SOL     OW14578   3.499   1.799   6.497  0.0246  0.3410 -0.7144
 1039SOL    HW114579   3.479   1.872   6.438 -1.6319 -0.7580 -1.5164
 1039SOL    HW214580   3.581   1.822   6.541 -0.6926 -1.1477  1.3918
 1040SOL     OW14581   3.871   4.229   1.157  0.3968 -0.4361 -0.1469
 1040SOL    HW114582   3.944   4.224   1.218  0.4183 -0.9552 -0.2122
 1040SOL    HW214583   3.914   4.187   1.082 -0.1959  1.1318 -1.3579
 1041SOL     OW14584   0.830   3.415  13.365 -0.5634 -0.4776  0.3261
 1041SOL    HW114585   0.787   3.330  13.362 -0.2731 -0.6008 -0.3654
 1041SOL    HW214586   0.925   3.404  13.373 -0.2731  0.5709 -1.6750
 1042SOL     OW14587   0.222   0.609   2.993 -0.9551 -0.3462  0.1001
 1042SOL    HW114588   0.164   0.591   2.919  0.1764 -1.1614 -0.5829
 1042SOL    HW214589   0.200   0.702   3.005  0.0164  0.2073 -2.3571
 1043SOL     OW14590   3.338   1.879  11.087  0.3860  0.2150  0.0014
 1043SOL    HW114591   3.387   1.927  11.021  0.7630 -0.2223 -0.0390
 1043SOL    HW214592   3.352   1.790  11.053 -2.1438 -1.1091  2.3636
 1044SOL     OW14593   3.885   1.859   8.048  0.5670 -0.0908  0.2179
 1044SOL    HW114594   3.830   1.817   8.114  0.2991  0.6622  0.4784
 1044SOL    HW214595   3.971   1.856   8.089  0.2779  0.8058  0.9031
 1045SOL     OW14596   2.440   2.791   7.015  0.1404 -0.0103 -0.1009
 1045SOL    HW114597   2.517   2.744   7.047  0.4809  0.8525  0.3463
 1045SOL    HW214598   2.376   2.721   7.001 -0.1901  0.3219 -0.2331
 1046SOL     OW14599   3.325   0.416  13.625  0.0509 -0.4628  0.1445
 1046SOL    HW114600   3.278   0.461  13.695 -1.4046  0.3650 -1.3370
 1046SOL    HW214601   3.257   0.361  13.586  0.4821  0.2470 -1.6268
 1047SOL     OW14602   0.307   4.471  10.081 -0.1852  0.8519  0.6050
 1047SOL    HW114603   0.356   4.540  10.037  1.7759 -3.2305 -3.6393
 1047SOL    HW214604   0.332   4.393  10.032  0.9061 -0.4406  3.1952
 1048SOL     OW14605   4.140   2.356   1.080 -0.4114  0.0389  0.4602
 1048SOL    HW114606   4.056   2.378   1.042 -0.0359  2.4328  1.0070
 1048SOL    HW214607   4.183   2.339   0.996  0.3353  0.5789  0.7299
 1049SOL     OW14608   3.413   2.172   8.039 -0.1372 -0.0227  0.3087
 1049SOL    HW114609   3.347   2.181   8.108  1.4393  1.6176  1.6025
 1049SOL    HW214610   3.364   2.191   7.960  0.9908  0.7646 -0.2052
 1050SOL     OW14611   4.188   1.947   6.061  0.4959  0.2449  0.7205
 1050SOL    HW114612   4.259   2.003   6.030  0.4600  0.8353  1.7022
 1050SOL    HW214613   4.117   2.011   6.066 -0.3258 -0.5960 -0.0885
 1051SOL     OW14614   3.939   2.493  12.344 -0.3540  0.1741 -0.9587
 1051SOL    HW114615   3.968   2.479  12.253 -1.0842  1.8634 -1.4561
 1051SOL    HW214616   3.853   2.452  12.334 -0.0494 -0.9049  0.9420
 1052SOL     OW14617   0.648   3.152  17.665 -0.6059 -0.1937  0.1347
 1052SOL    HW114618   0.552   3.153  17.669 -0.5095  0.8688  1.9287
 1052SOL    HW214619   0.670   3.059  17.671 -2.4207 -0.7485 -1.9183
 1053SOL     OW14620   2.469   2.503   1.437  0.0060  0.0279 -0.1598
 1053SOL    HW114621   2.511   2.586   1.459 -2.1515  1.2328 -0.5874
 1053SOL    HW214622   2.540   2.441   1.454 -0.8310 -0.4596  1.5182
 1054SOL     OW14623   2.863   3.685   2.197 -0.6902  0.5335 -0.1353
 1054SOL    HW114624   2.925   3.618   2.168 -0.0162  0.9469  0.3716
 1054SOL    HW214625   2.919   3.762   2.195  0.4981 -0.3998 -3.2647
 1055SOL     OW14626   1.719   1.867   7.569  0.4258  0.1568 -0.3029
 1055SOL    HW114627   1.674   1.930   7.625  0.9956  1.3328 -1.1742
 1055SOL    HW214628   1.783   1.828   7.629 -1.7792 -4.5197 -1.0351
 1056SOL     OW14629   0.625   0.188   4.446  0.0842 -0.1525  0.3673
 1056SOL    HW114630   0.648   0.158   4.534 -0.7070 -1.2138  0.2115
 1056SOL    HW214631   0.699   0.248   4.440  0.3491 -0.5281 -0.0782
 1057SOL     OW14632   2.099   4.267   3.132 -0.3992 -0.9735  0.5631
 1057SOL    HW114633   2.137   4.245   3.217 -1.0565 -0.6343  0.9397
 1057SOL    HW214634   2.016   4.220   3.140 -0.6483 -0.7315 -0.6050
 1058SOL     OW14635   3.775   0.872   7.885 -0.8009 -0.5929  1.0914
 1058SOL    HW114636   3.752   0.848   7.796 -2.0500  1.7186  0.7842
 1058SOL    HW214637   3.687   0.893   7.917 -0.6598  1.2274  0.2737
 1059SOL     OW14638   3.150   1.571   2.181 -0.5113  0.2501  0.1517
 1059SOL    HW114639   3.057   1.578   2.205 -1.2174 -0.0284 -2.4848
 1059SOL    HW214640   3.142   1.544   2.089 -0.5266  1.5170 -0.2207
 1060SOL     OW14641   4.063   2.076   2.267 -0.0748  0.2289 -0.3885
 1060SOL    HW114642   4.008   1.997   2.262  0.3008 -0.1513  1.7088
 1060SOL    HW214643   3.997   2.136   2.231 -0.4903 -0.0962 -0.1691
 1061SOL     OW14644   4.477   2.557   5.768 -0.9730 -0.6690  0.1910
 1061SOL    HW114645   4.486   2.634   5.712  0.6772 -0.2644  1.0173
 1061SOL    HW214646   4.531   2.498   5.717  0.8148  1.9160 -0.8603
 1062SOL     OW14647   1.145   4.310   9.446 -0.3315 -0.1172  0.1492
 1062SOL    HW114648   1.108   4.359   9.519  2.9356  2.6182 -0.0046
 1062SOL    HW214649   1.240   4.314   9.462 -0.3832 -0.6721  0.5840
 1063SOL     OW14650   2.779   2.552   2.455 -1.0465  0.6615 -0.0473
 1063SOL    HW114651   2.839   2.572   2.527  0.3909 -0.4693 -0.9226
 1063SOL    HW214652   2.788   2.457   2.445 -1.3639  0.8235 -2.0282
 1064SOL     OW14653   1.911   1.837   0.867 -0.4658 -0.3166 -0.4187
 1064SOL    HW114654   1.935   1.909   0.808 -0.9233 -0.1306 -0.3785
 1064SOL    HW214655   1.979   1.771   0.855 -1.1225 -1.0915  0.1197
 1065SOL     OW14656   1.150   0.042  15.932  0.3211 -0.1985 -0.5299
 1065SOL    HW114657   1.233   4.716  15.929  0.2669 -0.3636  0.5253
 1065SOL    HW214658   1.173   0.122  15.885 -1.6182  1.1487  0.7944
 1066SOL     OW14659   2.260   2.578  12.379  0.3744  0.3977  0.0494
 1066SOL    HW114660   2.273   2.616  12.466  1.2126 -1.6586  0.8336
 1066SOL    HW214661   2.240   2.652  12.322 -0.7084 -0.1509 -0.2730
 1067SOL     OW14662   1.011   3.072  10.510  0.3480  0.3641  0.1603
 1067SOL    HW114663   1.067   3.086  10.586  0.4171  0.7059  0.0464
 1067SOL    HW214664   0.952   3.006  10.545 -0.1805  1.0654  0.6005
 1068SOL     OW14665   3.855   1.990   8.487  0.2571  0.0059 -0.3059
 1068SOL    HW114666   3.815   2.077   8.479 -0.8838 -0.6336 -1.2986
 1068SOL    HW214667   3.938   2.031   8.462  0.5466 -0.0278  0.5993
 1069SOL     OW14668   3.806   1.653   6.538  0.0384  0.0820  0.2650
 1069SOL    HW114669   3.900   1.636   6.535 -0.0074  0.0862 -1.4755
 1069SOL    HW214670   3.809   1.748   6.530  0.5323  0.0870  0.5363
 1070SOL     OW14671   1.776   0.052  12.451 -0.0272 -0.2046  0.4067
 1070SOL    HW114672   1.838   0.066  12.379  0.2931  0.6546  0.8497
 1070SOL    HW214673   1.700   0.081  12.400 -0.8416 -1.5388  0.8635
 1071SOL     OW14674   4.138   1.662  11.170  0.2949  0.4328  0.0518
 1071SOL    HW114675   4.172   1.751  11.180  1.6986 -0.2078  0.9198
 1071SOL    HW214676   4.134   1.647  11.075 -0.0938 -0.8849  0.2779
 1072SOL     OW14677   4.604   3.854   7.575 -0.1149  0.1577 -0.3373
 1072SOL    HW114678   4.607   3.828   7.483 -0.5944  0.1958 -0.3649
 1072SOL    HW214679   4.569   3.943   7.576 -1.7641 -0.4938  0.3298
 1073SOL     OW14680   0.096   2.614  16.983  0.0942 -0.4758  0.2673
 1073SOL    HW114681   0.149   2.580  16.911  0.7180 -1.4271  1.1727
 1073SOL    HW214682   0.157   2.607  17.056  0.0269 -1.0996  0.2680
 1074SOL     OW14683   3.562   3.701   3.091 -0.1406  0.2436 -0.0423
 1074SOL    HW114684   3.643   3.676   3.136 -1.0716 -2.9950 -0.2235
 1074SOL    HW214685   3.508   3.745   3.156  0.3186  2.4956 -1.1779
 1075SOL     OW14686   4.559   2.791   0.632  0.3445  0.3216 -0.2292
 1075SOL    HW114687   4.484   2.757   0.583 -1.2114  3.5012 -0.0642
 1075SOL    HW214688   4.550   2.885   0.614 -0.1803  0.3090 -0.0364
 1076SOL     OW14689   2.057   3.473   4.298  0.0801 -0.0844  0.1438
 1076SOL    HW114690   2.002   3.516   4.231 -2.3319  0.6863  2.6284
 1076SOL    HW214691   2.071   3.392   4.249  1.2309  0.3278 -0.2048
 1077SOL     OW14692   0.864   4.318   2.358 -0.4411 -0.1953 -0.2003
 1077SOL    HW114693   0.947   4.365   2.361 -1.1687  1.0525  0.1301
 1077SOL    HW214694   0.872   4.268   2.439  0.3318 -0.5349 -0.4826
 1078SOL     OW14695   3.751   1.603   1.291 -0.2021 -0.0751 -0.4750
 1078SOL    HW114696   3.768   1.509   1.288 -1.2017 -0.3165  1.3908
 1078SOL    HW214697   3.764   1.616   1.385 -1.6876  0.3721 -0.3260
 1079SOL     OW14698   3.469   2.141  16.013  0.4352 -0.4072 -0.2567
 1079SOL    HW114699   3.398   2.125  15.950 -0.2305  1.5188 -0.0008
 1079SOL    HW214700   3.456   2.062  16.065  1.2152 -0.2543  0.1703
 1080SOL     OW14701   2.704   1.948   8.241 -0.1649 -0.7670 -0.3314
 1080SOL    HW114702   2.683   1.947   8.147  2.6603 -0.8984 -0.9343
 1080SOL    HW214703   2.794   1.916   8.239  0.0839 -0.0340 -1.3444
 1081SOL     OW14704   4.679   3.085   2.685 -0.0903  0.4099 -0.0132
 1081SOL    HW114705   4.603   3.137   2.711  1.2334  3.3498 -1.9809
 1081SOL    HW214706   4.649   3.001   2.719  0.3896 -0.1126 -0.8568
 1082SOL     OW14707   4.361   0.579   4.120 -0.3556  0.2707  0.1789
 1082SOL    HW114708   4.398   0.500   4.081 -0.4519  0.0214  0.5934
 1082SOL    HW214709   4.304   0.602   4.046 -1.0168 -1.2251  0.2244
 1083SOL     OW14710   2.735   1.785   0.229 -0.5643  0.3301 -0.0073
 1083SOL    HW114711   2.718   1.836   0.308  0.8193 -1.4544  1.4454
 1083SOL    HW214712   2.820   1.745   0.246 -1.0190 -0.9379 -0.6793
 1084SOL     OW14713   1.517   1.487  10.334  0.2387 -0.5375  0.2983
 1084SOL    HW114714   1.573   1.517  10.407  1.5996 -1.2849 -0.4463
 1084SOL    HW214715   1.439   1.461  10.383 -0.2253 -0.7446 -0.5528
 1085SOL     OW14716   1.593   3.350  15.228  0.2725 -0.3235  0.2128
 1085SOL    HW114717   1.596   3.434  15.273 -0.9224 -0.4405  0.5141
 1085SOL    HW214718   1.498   3.345  15.240  0.4787 -3.3769  0.5433
 1086SOL     OW14719   2.314   1.744   6.492  0.1349  0.3956  0.1496
 1086SOL    HW114720   2.296   1.742   6.398 -0.0314  0.5942  0.1752
 1086SOL    HW214721   2.392   1.690   6.497 -0.0754  0.0332 -0.5474
 1087SOL     OW14722   2.280   1.815   6.774  0.1203  0.2580  0.0483
 1087SOL    HW114723   2.286   1.795   6.681  0.6765  0.1968  0.1004
 1087SOL    HW214724   2.222   1.750   6.815  0.8146  2.1414  4.0805
 1088SOL     OW14725   4.585   4.131   4.421  0.3550 -0.1431  0.7348
 1088SOL    HW114726   4.645   4.098   4.489  1.7897 -1.6402 -1.2707
 1088SOL    HW214727   4.507   4.094   4.461  0.0709  1.7879  1.9858
 1089SOL     OW14728   0.946   2.081  17.017 -0.1566 -0.3607 -0.1483
 1089SOL    HW114729   1.005   2.006  17.018 -1.6411 -1.5381 -0.2132
 1089SOL    HW214730   0.915   2.097  16.927 -1.0978  0.6235  0.3539
 1090SOL     OW14731   3.076   4.064   4.243  0.3428  0.0419  0.0681
 1090SOL    HW114732   3.105   4.133   4.303  0.5577  0.2314 -0.2503
 1090SOL    HW214733   3.133   4.079   4.167 -0.8480  1.7199 -0.4946
 1091SOL     OW14734   4.333   1.737   9.991  0.1907 -0.1011  0.1509
 1091SOL    HW114735   4.380   1.710  10.070 -1.1417 -1.5609  0.4505
 1091SOL    HW214736   4.247   1.743  10.032  0.0571  0.0715 -0.1545
 1092SOL     OW14737   0.780   1.324   8.211  0.1615  0.0240 -0.4494
 1092SOL    HW114738   0.850   1.346   8.272  0.1647 -0.2106 -0.3658
 1092SOL    HW214739   0.830   1.302   8.133  0.9315  0.0397  0.0409
 1093SOL     OW14740   1.178   1.818   3.954 -0.3166 -0.2635  0.4473
 1093SOL    HW114741   1.169   1.773   3.870 -0.3632 -0.2446  0.4420
 1093SOL    HW214742   1.223   1.750   4.005  0.5738  0.7803  1.0523
 1094SOL     OW14743   0.201   4.425  14.708 -0.0228 -0.6744  0.3336
 1094SOL    HW114744   0.130   4.368  14.740  0.3440 -0.7724  0.9718
 1094SOL    HW214745   0.171   4.510  14.738  0.3962 -0.1453 -0.7588
 1095SOL     OW14746   1.083   3.532   5.800  0.5244  0.0694 -0.6666
 1095SOL    HW114747   1.129   3.465   5.851  1.6952 -0.0114 -1.8374
 1095SOL    HW214748   1.046   3.482   5.728  0.5749  2.0495 -2.0627
 1096SOL     OW14749   3.833   3.836   7.028  0.1089  0.5479  0.3695
 1096SOL    HW114750   3.923   3.845   6.997 -0.4490 -1.2803 -1.7371
 1096SOL    HW214751   3.789   3.808   6.948 -1.5886  0.8186  1.2171
 1097SOL     OW14752   3.776   4.634   5.734  0.5996 -0.4328 -0.0661
 1097SOL    HW114753   3.852   4.578   5.752 -1.5148 -3.0583  0.5777
 1097SOL    HW214754   3.704   4.591   5.780  1.2392  0.9014  2.2301
 1098SOL     OW14755   1.902   3.206   6.447 -0.0346 -0.2670  0.0581
 1098SOL    HW114756   1.922   3.267   6.376 -1.1461 -0.1042 -0.1087
 1098SOL    HW214757   1.867   3.269   6.510  2.3752  1.4434 -0.2917
 1099SOL     OW14758   2.693   0.751  15.029  0.9608  0.1282 -0.5749
 1099SOL    HW114759   2.667   0.842  15.016  1.1714  0.2887  0.0914
 1099SOL    HW214760   2.736   0.730  14.946  1.6490 -0.5167 -0.0612
 1100SOL     OW14761   4.406   0.571   7.336  0.3807  0.0467  0.3332
 1100SOL    HW114762   4.402   0.552   7.430  0.4746  0.2045  0.3699
 1100SOL    HW214763   4.499   0.591   7.323  0.0341  1.1874 -0.4003
 1101SOL     OW14764   4.168   2.737   5.875  0.1511 -0.0279  0.1012
 1101SOL    HW114765   4.168   2.832   5.860  1.8611  0.4887  3.3319
 1101SOL    HW214766   4.260   2.732   5.903 -0.1087 -0.8828  0.7834
 1102SOL     OW14767   2.790   2.514   3.145 -0.4251 -0.8340 -0.2066
 1102SOL    HW114768   2.729   2.557   3.204 -1.2405 -3.1038  0.6102
 1102SOL    HW214769   2.736   2.441   3.116 -0.6199 -1.2056  1.1181
 1103SOL     OW14770   3.632   3.876   4.153  0.0884  0.6352  1.2360
 1103SOL    HW114771   3.722   3.892   4.124 -0.3163 -0.8522 -0.7811
 1103SOL    HW214772   3.637   3.803   4.215 -2.1634 -0.8001 -0.2827
 1104SOL     OW14773   1.291   4.256   5.935  0.1030 -0.3070 -0.1780
 1104SOL    HW114774   1.204   4.273   5.898 -0.5362  1.4065  2.0874
 1104SOL    HW214775   1.349   4.296   5.870 -0.5381 -1.8323 -1.6745
 1105SOL     OW14776   3.386   3.502   1.717  0.0944 -0.5878 -0.2896
 1105SOL    HW114777   3.456   3.438   1.706  0.3653 -0.1951 -0.8512
 1105SOL    HW214778   3.435   3.584   1.705 -0.6857  0.0492  0.8809
 1106SOL     OW14779   3.295   1.885   7.339  0.2427  0.1009  0.1484
 1106SOL    HW114780   3.295   1.790   7.350  0.6957  0.3366  2.2013
 1106SOL    HW214781   3.261   1.898   7.251  1.2725  0.2398 -0.2323
 1107SOL     OW14782   2.070   2.049   7.510  0.3517 -0.3036  0.2132
 1107SOL    HW114783   2.140   2.111   7.489 -2.2841  3.3865  2.1739
 1107SOL    HW214784   2.101   2.008   7.590 -0.4269 -1.3614 -0.0264
 1108SOL     OW14785   2.036   0.578   4.302  0.4917  0.2211 -0.7508
 1108SOL    HW114786   2.089   0.499   4.295 -0.4184 -0.4743  0.3248
 1108SOL    HW214787   1.948   0.544   4.316  0.3842  0.5752 -0.5715
 1109SOL     OW14788   1.377   4.478  15.653  0.4299  0.1391  0.0147
 1109SOL    HW114789   1.424   4.529  15.719 -1.6074  1.0457  0.7486
 1109SOL    HW214790   1.403   4.525  15.573 -0.6085  0.5909 -0.0537
 1110SOL     OW14791   2.460   1.107  11.755  0.7229 -1.2215  0.3755
 1110SOL    HW114792   2.430   1.177  11.813  0.2822 -1.6761  0.6964
 1110SOL    HW214793   2.522   1.056  11.808  0.3593  0.5891  2.5236
 1111SOL     OW14794   3.114   0.056   5.020  0.3735 -0.1230 -0.3956
 1111SOL    HW114795   3.030   0.087   4.987 -0.7558 -0.4704  2.1181
 1111SOL    HW214796   3.114   4.700   4.965 -1.8849 -1.2897  1.2046
 1112SOL     OW14797   3.132   2.442   8.938  0.3211  0.0591  0.1565
 1112SOL    HW114798   3.096   2.360   8.904 -3.8780  1.9673 -0.0782
 1112SOL    HW214799   3.184   2.413   9.013 -1.2701 -0.7414  0.9674
 1113SOL     OW14800   1.010   0.048   4.448 -0.6577 -0.2710 -0.2737
 1113SOL    HW114801   1.020   0.015   4.537  0.5390 -0.7452 -0.5883
 1113SOL    HW214802   0.935   4.718   4.417 -0.8198 -0.8267  1.0415
 1114SOL     OW14803   2.332   0.764   7.994  0.5515  0.3019  0.2538
 1114SOL    HW114804   2.418   0.730   8.019  0.7919  1.0500  0.4448
 1114SOL    HW214805   2.357   0.842   7.943  0.2350  0.3601  0.1867
 1115SOL     OW14806   4.094   2.240   3.170  0.2352  0.5726 -0.2124
 1115SOL    HW114807   4.084   2.154   3.128  1.0685  0.5053 -0.2767
 1115SOL    HW214808   4.119   2.198   3.253 -1.0920  0.6677  0.2360
 1116SOL     OW14809   3.602   2.843   2.188  0.1834  0.2595  0.0144
 1116SOL    HW114810   3.650   2.779   2.241 -2.4624 -0.9275  0.9627
 1116SOL    HW214811   3.546   2.789   2.133 -0.5193  1.5935 -0.5700
 1117SOL     OW14812   1.548   2.709  13.207 -0.3227  0.1143 -0.4522
 1117SOL    HW114813   1.580   2.766  13.277 -2.5520 -0.8395  1.2959
 1117SOL    HW214814   1.546   2.772  13.134 -0.0014  1.6013  0.8250
 1118SOL     OW14815   2.303   2.988   3.129  0.0248 -0.0794  0.3133
 1118SOL    HW114816   2.394   2.979   3.100 -0.6619 -3.9876 -0.6178
 1118SOL    HW214817   2.310   3.027   3.216  0.3761  1.4881 -0.4067
 1119SOL     OW14818   4.227   2.868  11.131  0.0889 -0.2113 -0.7241
 1119SOL    HW114819   4.285   2.912  11.193 -1.4150 -1.3007  1.4470
 1119SOL    HW214820   4.285   2.819  11.072  0.2796 -0.3963 -0.3785
 1120SOL     OW14821   3.113   3.654   8.157  0.6468  0.0402  0.0727
 1120SOL    HW114822   3.164   3.725   8.116 -3.3819  1.7262 -2.0234
 1120SOL    HW214823   3.070   3.696   8.231 -2.1520 -2.2333 -0.3025
 1121SOL     OW14824   0.891   3.868   2.615 -0.6760 -0.1391 -0.1924
 1121SOL    HW114825   0.808   3.823   2.629 -0.9029  0.6849  1.0602
 1121SOL    HW214826   0.863   3.947   2.660  0.8921  0.8197 -0.8863
 1122SOL     OW14827   3.228   4.024   3.548  0.7688  0.0938  0.1291
 1122SOL    HW114828   3.278   4.049   3.470  0.4983 -0.9045 -0.3674
 1122SOL    HW214829   3.142   4.012   3.507  1.3014 -1.3985 -0.5234
 1123SOL     OW14830   3.514   1.241   4.476 -0.4674 -0.3347 -0.1475
 1123SOL    HW114831   3.492   1.175   4.541 -0.6085 -0.6958 -0.5570
 1123SOL    HW214832   3.443   1.234   4.412 -0.7660 -0.6386  0.2170
 1124SOL     OW14833   3.855   2.581   2.465  0.1060 -0.0964 -0.8668
 1124SOL    HW114834   3.878   2.496   2.501  2.6460  2.0929  2.7255
 1124SOL    HW214835   3.765   2.601   2.490  1.0194  0.2036  2.1142
 1125SOL     OW14836   3.227   2.138   6.137 -0.0295 -0.0840  0.4695
 1125SOL    HW114837   3.268   2.113   6.054  2.1495 -0.7998  1.7400
 1125SOL    HW214838   3.145   2.089   6.133  0.3699 -0.7452  0.2338
 1126SOL     OW14839   1.692   0.694  14.999 -0.0560 -0.3025 -0.4754
 1126SOL    HW114840   1.637   0.669  15.073  0.6384 -2.1926 -0.6024
 1126SOL    HW214841   1.662   0.783  14.982 -2.7010 -1.1132 -0.0725
 1127SOL     OW14842   1.925   0.592   7.362  0.2824 -0.3550  0.2913
 1127SOL    HW114843   1.955   0.582   7.452  0.5921 -0.1103  0.2134
 1127SOL    HW214844   1.925   0.687   7.366  1.6713 -0.3099 -0.6147
 1128SOL     OW14845   2.166   2.519   2.976  0.8500 -0.1905 -0.3917
 1128SOL    HW114846   2.178   2.588   3.042  1.0732  0.9534 -1.6296
 1128SOL    HW214847   2.247   2.468   2.977  0.8359 -0.1697  2.0146
 1129SOL     OW14848   3.946   4.177   8.222 -0.1324  0.1998 -0.0854
 1129SOL    HW114849   3.925   4.256   8.271  0.1643 -1.6104  2.9722
 1129SOL    HW214850   3.884   4.114   8.258  1.7647 -1.2136  0.7258
 1130SOL     OW14851   3.653   3.794  10.813  0.0225  0.3094 -0.3055
 1130SOL    HW114852   3.748   3.794  10.800 -0.1019  1.0588 -1.2135
 1130SOL    HW214853   3.634   3.714  10.862  0.0609 -0.7374 -2.0136
 1131SOL     OW14854   0.589   1.095   3.050  0.3040 -0.1313  0.1066
 1131SOL    HW114855   0.587   1.006   3.016  1.4556  0.3619 -1.3004
 1131SOL    HW214856   0.628   1.138   2.973 -2.0029  3.3455  0.8485
 1132SOL     OW14857   2.375   3.525   5.062  0.4864  0.3786 -0.4201
 1132SOL    HW114858   2.350   3.603   5.011  0.5892  0.4444 -0.3686
 1132SOL    HW214859   2.372   3.548   5.155 -3.4348  0.4745 -0.5678
 1133SOL     OW14860   4.425   1.725   5.562 -0.0897 -0.4208  0.1960
 1133SOL    HW114861   4.420   1.777   5.482  0.2918  0.4562  0.7460
 1133SOL    HW214862   4.397   1.642   5.523 -1.0318 -0.4695  0.9668
 1134SOL     OW14863   3.122   0.145  11.792  0.0350  0.6740  0.4735
 1134SOL    HW114864   3.056   0.166  11.858  1.0544 -2.4720  2.4944
 1134SOL    HW214865   3.188   0.208  11.821  0.9342 -0.3356  0.6143
 1135SOL     OW14866   1.734   3.432   7.320 -0.3808 -0.6455  0.1925
 1135SOL    HW114867   1.790   3.490   7.372 -1.0429 -0.5592  0.8239
 1135SOL    HW214868   1.704   3.372   7.388 -2.5686 -0.6692 -0.8068
 1136SOL     OW14869   2.443   0.987  15.564  0.4300 -0.5630 -0.7515
 1136SOL    HW114870   2.417   1.079  15.563 -0.6517 -0.8846 -2.1704
 1136SOL    HW214871   2.532   0.992  15.600 -0.4311  4.0416  0.8063
 1137SOL     OW14872   0.287   3.187   6.811  0.0861 -0.7810 -0.0360
 1137SOL    HW114873   0.289   3.093   6.791  0.0206 -0.8087  0.0858
 1137SOL    HW214874   0.193   3.197   6.822  0.2792  2.3419 -1.1843
 1138SOL     OW14875   0.976   3.665   0.095  0.1524  0.0437 -0.2923
 1138SOL    HW114876   1.045   3.722   0.128  1.4879 -1.2801 -0.7939
 1138SOL    HW214877   1.024   3.582   0.100  0.9866  0.6141  0.9393
 1139SOL     OW14878   0.784   0.599  10.215  0.3192 -0.1853 -0.1128
 1139SOL    HW114879   0.805   0.568  10.303  0.4177  3.5134  1.1659
 1139SOL    HW214880   0.833   0.681  10.227 -0.5701  0.4850 -1.0512
 1140SOL     OW14881   0.407   0.391  10.292  0.5771  0.1338 -0.3838
 1140SOL    HW114882   0.431   0.377  10.383 -0.5057  1.7067  0.1397
 1140SOL    HW214883   0.494   0.387  10.253  0.6360 -2.7765  0.0327
 1141SOL     OW14884   2.245   4.675   2.990 -0.2143  0.1525 -0.9443
 1141SOL    HW114885   2.277   4.646   2.904  2.5082  0.6298 -0.1112
 1141SOL    HW214886   2.174   0.008   2.958 -2.3975 -2.4850 -0.5652
 1142SOL     OW14887   0.496   3.782  13.817  0.3974  0.0481  0.2967
 1142SOL    HW114888   0.537   3.696  13.806  0.1627  0.0383 -0.4982
 1142SOL    HW214889   0.530   3.812  13.901 -0.2817 -2.1840  1.3739
 1143SOL     OW14890   4.694   3.236  17.616 -0.1221  0.9264 -0.8077
 1143SOL    HW114891   4.640   3.311  17.640  1.2630  0.3995  3.8559
 1143SOL    HW214892   0.051   3.262  17.663  1.6551 -2.5223 -1.9193
 1144SOL     OW14893   0.376   4.452   4.168 -0.0624 -0.1204 -0.0605
 1144SOL    HW114894   0.466   4.419   4.163  0.1285  0.5372 -1.1812
 1144SOL    HW214895   0.369   4.477   4.076 -1.0542 -0.5444 -0.0995
 1145SOL     OW14896   2.466   1.096   2.076  0.6633 -0.4153 -0.2251
 1145SOL    HW114897   2.459   1.147   1.995 -1.2576  1.0278  0.8243
 1145SOL    HW214898   2.436   1.011   2.045 -1.2334 -0.7238  2.4241
 1146SOL     OW14899   0.499   0.176   4.819 -0.6290  1.0289 -0.8276
 1146SOL    HW114900   0.501   0.233   4.742  0.2275 -2.1075 -3.1554
 1146SOL    HW214901   0.406   0.155   4.816 -0.0045 -2.2065  2.1213
 1147SOL     OW14902   3.735   4.420   0.833 -0.2925 -0.7708 -0.4807
 1147SOL    HW114903   3.651   4.451   0.799  0.0927 -0.4565 -1.1422
 1147SOL    HW214904   3.801   4.437   0.766  1.1992 -1.8162  0.7091
 1148SOL     OW14905   3.016   0.833  15.891 -0.0011 -0.4804 -0.1172
 1148SOL    HW114906   3.016   0.926  15.871 -0.2897 -0.4255  0.1427
 1148SOL    HW214907   3.109   0.812  15.900 -0.0761 -0.2849  1.1345
 1149SOL     OW14908   2.926   0.867   2.645  0.5598  0.2031  0.4676
 1149SOL    HW114909   2.962   0.811   2.576  0.9474  3.8382 -2.2633
 1149SOL    HW214910   2.855   0.813   2.681 -0.2033 -0.4008 -1.9296
 1150SOL     OW14911   4.388   1.124   2.201 -0.0910 -0.6018 -0.1735
 1150SOL    HW114912   4.482   1.128   2.186  0.3192  1.5120  3.0142
 1150SOL    HW214913   4.387   1.135   2.296 -0.2917  1.9378 -0.4623
 1151SOL     OW14914   3.268   1.776   7.065 -0.2957 -0.4113  0.4413
 1151SOL    HW114915   3.295   1.686   7.083 -0.0869 -0.1284  1.5022
 1151SOL    HW214916   3.321   1.798   6.987 -0.6723 -1.0567  0.0073
 1152SOL     OW14917   1.712   2.206   6.157  0.6388  0.2568 -0.5651
 1152SOL    HW114918   1.750   2.284   6.116  1.5444 -0.3201 -0.8179
 1152SOL    HW214919   1.622   2.235   6.172  0.4113 -1.0589  0.6291
 1153SOL     OW14920   0.165   0.721   6.922 -0.0572  0.0131 -0.0959
 1153SOL    HW114921   0.257   0.695   6.911  0.4926  1.5898  0.7825
 1153SOL    HW214922   0.145   0.776   6.847  0.5527 -0.0603 -0.3110
 1154SOL     OW14923   1.148   0.312   9.124  0.3448  0.0333  0.5320
 1154SOL    HW114924   1.159   0.280   9.034 -1.7021 -3.0027  1.3439
 1154SOL    HW214925   1.138   0.405   9.106 -0.3934  0.0611  1.0993
 1155SOL     OW14926   2.660   1.082   2.941 -0.4099 -0.1189  0.5308
 1155SOL    HW114927   2.675   1.116   2.852 -0.8768  0.3914  0.6451
 1155SOL    HW214928   2.713   1.136   2.999  0.4208 -1.4398  0.9709
 1156SOL     OW14929   1.701   3.848   1.398 -0.0465  0.1311 -0.1997
 1156SOL    HW114930   1.772   3.912   1.389 -0.1549  0.3392  0.4210
 1156SOL    HW214931   1.733   3.788   1.330  0.7377 -2.1226  2.1445
 1157SOL     OW14932   2.454   2.348   8.712 -0.1207 -0.0284  0.5655
 1157SOL    HW114933   2.446   2.436   8.676  1.1217 -0.3978 -0.6195
 1157SOL    HW214934   2.396   2.360   8.787  0.2895 -1.6553  1.1465
 1158SOL     OW14935   3.792   4.721  14.759 -0.3993  0.1879  0.1256
 1158SOL    HW114936   3.827   4.645  14.712 -0.1902  0.6744 -0.4994
 1158SOL    HW214937   3.724   0.027  14.698 -0.8555 -1.0234  0.0725
 1159SOL     OW14938   2.142   2.188   7.242  0.1082 -0.1493  0.6200
 1159SOL    HW114939   2.152   2.196   7.337  0.2878 -1.6330  0.7289
 1159SOL    HW214940   2.222   2.141   7.220  0.7122  0.8832  0.5870
 1160SOL     OW14941   1.742   3.915   3.054  0.1347 -0.1018 -0.3939
 1160SOL    HW114942   1.724   3.956   3.139  1.3500 -3.8569  1.6852
 1160SOL    HW214943   1.761   3.823   3.069  0.5625  0.4395  2.3745
 1161SOL     OW14944   2.212   3.777   7.903  0.6370  0.9412 -0.1829
 1161SOL    HW114945   2.307   3.780   7.900  0.6006  1.2483 -1.2884
 1161SOL    HW214946   2.197   3.737   7.989  0.0505  1.9612  0.1814
 1162SOL     OW14947   0.601   2.369   2.338  0.5208  0.5060  0.5024
 1162SOL    HW114948   0.620   2.324   2.420  1.7144 -1.9656 -1.1487
 1162SOL    HW214949   0.649   2.450   2.357  0.2346  0.6168  0.7461
 1163SOL     OW14950   0.121   3.163   9.622 -0.7070 -0.5854  0.4101
 1163SOL    HW114951   0.032   3.140   9.649 -1.0882  0.7162  0.2325
 1163SOL    HW214952   0.144   3.232   9.684  0.6728 -0.3769 -0.3312
 1164SOL     OW14953   2.121   2.870   4.364  0.4080  0.2803  0.6021
 1164SOL    HW114954   2.216   2.866   4.355  0.4373  0.4436  0.8684
 1164SOL    HW214955   2.114   2.859   4.459  0.4944 -1.1955  0.4382
 1165SOL     OW14956   3.203   1.120  13.211 -0.1913 -0.1921  0.4412
 1165SOL    HW114957   3.184   1.073  13.130  1.3692  2.7112 -1.6467
 1165SOL    HW214958   3.120   1.163  13.228  0.9506  1.9760  0.6130
 1166SOL     OW14959   3.781   2.621   8.667 -0.3365  0.4793  0.0718
 1166SOL    HW114960   3.771   2.542   8.719  2.6796  0.1616  0.1165
 1166SOL    HW214961   3.704   2.613   8.611  1.1080 -1.0633 -1.6753
 1167SOL     OW14962   0.926   0.255  13.594 -0.6653  0.0756  0.0324
 1167SOL    HW114963   0.848   0.213  13.632 -0.8799 -1.9825 -2.6787
 1167SOL    HW214964   0.885   0.302  13.521  1.5338 -0.7724 -1.7581
 1168SOL     OW14965   1.471   0.946   6.247 -0.6095 -0.0354  0.2177
 1168SOL    HW114966   1.549   0.908   6.288 -0.8692 -2.5809 -1.6499
 1168SOL    HW214967   1.438   0.995   6.322  0.3420 -1.0851  1.3314
 1169SOL     OW14968   4.516   2.420   6.809  0.2445 -0.1140  0.7823
 1169SOL    HW114969   4.451   2.434   6.878  2.4410  1.0726  2.6186
 1169SOL    HW214970   4.470   2.351   6.763 -0.4979 -1.3584  3.3819
 1170SOL     OW14971   0.517   2.428  16.760  0.0505 -0.2498  0.1879
 1170SOL    HW114972   0.586   2.494  16.767 -1.3724  1.4228 -1.2897
 1170SOL    HW214973   0.453   2.459  16.696 -1.8725 -3.6690  0.4529
 1171SOL     OW14974   1.621   3.763   0.462  0.1868 -0.0905 -0.2292
 1171SOL    HW114975   1.704   3.733   0.501  0.6373 -0.9874 -1.8657
 1171SOL    HW214976   1.582   3.683   0.428  3.6605 -2.4686  1.3125
 1172SOL     OW14977   2.060   1.795   4.751 -0.1932 -0.5096  0.0982
 1172SOL    HW114978   2.066   1.781   4.657  1.9909  1.8862 -0.1375
 1172SOL    HW214979   1.968   1.772   4.762  0.3695 -2.3196  0.8880
 1173SOL     OW14980   1.833   0.116   3.897 -0.3222 -0.2776 -0.0453
 1173SOL    HW114981   1.831   0.211   3.906 -1.6985 -0.2044 -1.0693
 1173SOL    HW214982   1.895   0.091   3.828 -1.1453  0.2504 -0.9811
 1174SOL     OW14983   0.121   4.685   3.886  0.1990 -0.6384 -0.0498
 1174SOL    HW114984   0.162   4.712   3.968 -0.5317 -1.0082  0.4446
 1174SOL    HW214985   0.168   4.602   3.880  0.2162 -0.5838 -0.6212
 1175SOL     OW14986   0.261   1.665   0.941  0.0746 -0.6814 -0.7515
 1175SOL    HW114987   0.251   1.760   0.930  0.5368 -0.3620  1.6239
 1175SOL    HW214988   0.340   1.646   0.890  1.8623 -0.6309  1.9870
 1176SOL     OW14989   1.607   0.803   9.621 -0.3657  0.0792 -0.5817
 1176SOL    HW114990   1.582   0.881   9.671 -0.5017 -0.2329 -0.1649
 1176SOL    HW214991   1.700   0.811   9.644 -0.5662  1.0900 -0.1208
 1177SOL     OW14992   4.412   4.125  10.500 -0.2209 -0.4696  0.4131
 1177SOL    HW114993   4.365   4.047  10.471 -1.6037  0.8529 -0.8911
 1177SOL    HW214994   4.453   4.094  10.581  5.3707 -0.2080 -2.3230
 1178SOL     OW14995   4.314   2.798   7.870 -0.3167 -0.2656 -0.4747
 1178SOL    HW114996   4.408   2.788   7.856 -0.1562 -0.5231  0.7831
 1178SOL    HW214997   4.275   2.712   7.861  2.2632 -1.8930  3.4894
 1179SOL     OW14998   4.127   4.279   2.378  0.2424  0.5705  0.6685
 1179SOL    HW114999   4.072   4.346   2.338 -1.7013 -1.4107  0.0491
 1179SOL    HW215000   4.079   4.251   2.456  1.4858 -2.4948  0.3246
 1180SOL     OW15001   0.058   3.684  16.354  0.5263 -0.0867  0.7042
 1180SOL    HW115002   0.120   3.724  16.416  0.5690  1.7916 -0.5680
 1180SOL    HW215003   4.694   3.713  16.384  1.1116 -1.3158  3.6622
 1181SOL     OW15004   4.281   2.594   4.073  0.3948 -0.5481  0.1300
 1181SOL    HW115005   4.341   2.649   4.023 -0.0334  1.4121  1.7774
 1181SOL    HW215006   4.346   2.558   4.133  0.1297  0.0999  0.8063
 1182SOL     OW15007   0.702   0.466  16.867  0.5035 -0.2365  0.1499
 1182SOL    HW115008   0.686   0.455  16.960 -1.2756 -0.6610 -0.2150
 1182SOL    HW215009   0.774   0.403  16.856 -1.3686 -2.2578 -0.4414
 1183SOL     OW15010   3.932   0.572   7.558  0.3419 -1.3115  0.4375
 1183SOL    HW115011   3.942   0.477   7.559  0.2307 -1.3113  1.5948
 1183SOL    HW215012   3.957   0.600   7.646  0.9360 -0.1042 -0.1038
 1184SOL     OW15013   1.500   3.087   5.729 -0.2502 -0.1737  0.0891
 1184SOL    HW115014   1.420   3.068   5.778 -0.7946 -0.1626 -0.7836
 1184SOL    HW215015   1.564   3.043   5.785 -2.0177 -1.0074  1.4527
 1185SOL     OW15016   1.894   2.470   3.994  0.8723 -0.0800 -0.0025
 1185SOL    HW115017   1.845   2.421   3.927  1.4483 -1.4282  0.5772
 1185SOL    HW215018   1.958   2.511   3.936  0.0675  1.6475  0.3097
 1186SOL     OW15019   3.218   1.310   2.342  0.0662 -0.1988  0.1171
 1186SOL    HW115020   3.271   1.231   2.335 -0.9695 -0.7448 -1.7275
 1186SOL    HW215021   3.257   1.376   2.284 -0.3251  0.9690  1.2000
 1187SOL     OW15022   1.746   4.433   1.056  0.4799  0.0371  0.6619
 1187SOL    HW115023   1.745   4.528   1.070  0.5820 -0.2301  2.4956
 1187SOL    HW215024   1.841   4.417   1.056  0.4842  0.0223 -0.6520
 1188SOL     OW15025   2.569   0.178   7.993  0.7033  0.0210 -0.1481
 1188SOL    HW115026   2.502   0.157   7.928  1.0129  0.2513 -0.5440
 1188SOL    HW215027   2.529   0.158   8.077  2.1067  1.4208  0.8503
 1189SOL     OW15028   0.945   1.196   4.740 -0.2826 -0.2045 -0.7757
 1189SOL    HW115029   0.860   1.239   4.730 -0.3829 -0.1943  0.1453
 1189SOL    HW215030   0.949   1.157   4.828  1.3724  1.4909 -0.0792
 1190SOL     OW15031   3.819   4.525   7.868 -0.0378  0.0147 -0.3785
 1190SOL    HW115032   3.861   4.611   7.880 -1.6052  0.7741 -0.2839
 1190SOL    HW215033   3.802   4.526   7.774 -0.4983 -0.5370 -0.2974
 1191SOL     OW15034   0.591   1.300  16.514  0.1655  0.3440  0.1084
 1191SOL    HW115035   0.594   1.216  16.560 -0.6770  0.1811 -0.1341
 1191SOL    HW215036   0.622   1.358  16.584 -0.5214  1.7127 -0.7314
 1192SOL     OW15037   2.215   3.174   3.898 -0.0792  0.2524 -0.0838
 1192SOL    HW115038   2.141   3.225   3.866  2.4339  2.2974 -2.6401
 1192SOL    HW215039   2.276   3.242   3.925  1.8170 -1.9668  1.2993
 1193SOL     OW15040   2.274   3.293   2.555 -0.4477 -0.1755  0.1168
 1193SOL    HW115041   2.275   3.217   2.614 -1.8061 -0.9163 -0.8085
 1193SOL    HW215042   2.347   3.281   2.494 -0.8747 -1.2885 -0.1856
 1194SOL     OW15043   1.691   4.593   6.811 -0.1803  0.2679  0.3866
 1194SOL    HW115044   1.651   4.571   6.727  2.5384 -0.9067 -0.5987
 1194SOL    HW215045   1.612   4.583   6.863 -0.6606  0.6997 -0.2654
 1195SOL     OW15046   0.196   2.401   4.702  0.0415 -0.0255 -0.3685
 1195SOL    HW115047   0.276   2.416   4.653  1.1146 -0.4881  1.2229
 1195SOL    HW215048   0.162   2.322   4.660 -1.9498  0.3745  0.4583
 1196SOL     OW15049   4.374   3.668   7.384 -0.6729 -0.4307  0.2472
 1196SOL    HW115050   4.451   3.610   7.379 -0.2128  0.1243  0.9875
 1196SOL    HW215051   4.351   3.687   7.293  2.1465 -1.1969 -0.6358
 1197SOL     OW15052   2.271   0.842   1.295 -0.3708 -0.1653  0.3021
 1197SOL    HW115053   2.255   0.818   1.204  0.9041 -0.0160  0.0399
 1197SOL    HW215054   2.188   0.886   1.314 -0.2094 -0.2431  1.2009
 1198SOL     OW15055   1.409   2.202   2.870 -0.1406  0.0153  0.1326
 1198SOL    HW115056   1.379   2.243   2.951 -0.2580 -0.1236  0.1606
 1198SOL    HW215057   1.503   2.217   2.879 -0.2042 -0.8937  2.2552
 1199SOL     OW15058   2.709   1.793   9.100 -0.0992 -0.0456  0.0863
 1199SOL    HW115059   2.634   1.832   9.053 -0.3529 -1.2740 -0.5190
 1199SOL    HW215060   2.689   1.819   9.190 -0.3186  1.3579 -0.3653
 1200SOL     OW15061   3.190   3.603   5.880  0.2456  0.4892  0.4801
 1200SOL    HW115062   3.174   3.536   5.813  2.0050 -0.8785  1.4297
 1200SOL    HW215063   3.167   3.681   5.829  0.7052 -0.3824 -1.0671
 1201SOL     OW15064   2.112   0.182  12.511 -0.1461 -0.8877  0.4122
 1201SOL    HW115065   2.056   0.146  12.443  0.4121  1.8526 -1.5015
 1201SOL    HW215066   2.067   0.148  12.588  2.3114 -3.4166  0.7353
 1202SOL     OW15067   3.932   3.463   5.198  0.4863  0.6985  0.3393
 1202SOL    HW115068   4.022   3.495   5.204  0.5878  0.0547  2.0924
 1202SOL    HW215069   3.898   3.474   5.286  0.5293  1.0182  0.3159
 1203SOL     OW15070   0.983   3.689   5.280  0.1344 -0.3721  0.1262
 1203SOL    HW115071   1.057   3.726   5.328 -0.6542  1.8680 -0.3953
 1203SOL    HW215072   1.030   3.623   5.229  1.0255  1.6014 -1.6346
 1204SOL     OW15073   2.622   2.774  10.771 -0.1982  0.4950  0.0721
 1204SOL    HW115074   2.610   2.869  10.759  0.3779  0.2676 -2.2960
 1204SOL    HW215075   2.698   2.765  10.713  0.3396 -2.0975  1.2188
 1205SOL     OW15076   1.617   0.550  17.066  0.3004 -0.7407  0.2649
 1205SOL    HW115077   1.556   0.602  17.014  1.4564  0.1523 -0.1962
 1205SOL    HW215078   1.684   0.618  17.076 -1.8515  0.9809  2.8958
 1206SOL     OW15079   4.468   1.083   2.801  0.3191 -0.0225 -0.6904
 1206SOL    HW115080   4.516   1.165   2.804 -1.6138  1.0047  2.1649
 1206SOL    HW215081   4.379   1.118   2.813  0.4193  0.8867 -2.6697
 1207SOL     OW15082   1.567   0.623   7.579 -0.4737  0.2014 -0.1223
 1207SOL    HW115083   1.642   0.563   7.576 -1.5975 -1.2461  1.5117
 1207SOL    HW215084   1.490   0.573   7.554  0.1685 -0.9938  0.2959
 1208SOL     OW15085   3.274   3.790  11.331 -0.2973  0.0504 -0.2461
 1208SOL    HW115086   3.332   3.814  11.403  0.5968  2.2938 -1.7474
 1208SOL    HW215087   3.204   3.739  11.373  0.8619 -1.2438  0.1325
 1209SOL     OW15088   0.047   0.855   5.542 -0.1463 -0.5921  0.2971
 1209SOL    HW115089   4.711   0.795   5.496 -1.1381  1.5792 -1.2997
 1209SOL    HW215090   4.715   0.934   5.547 -0.4672 -0.6287 -2.5053
 1210SOL     OW15091   2.109   3.169   2.014 -0.4688 -0.0724 -0.3149
 1210SOL    HW115092   2.037   3.207   2.064 -0.2287 -0.4139  0.2934
 1210SOL    HW215093   2.162   3.239   1.977 -3.3950  0.0302 -4.3418
 1211SOL     OW15094   3.244   1.273   1.560 -0.1985 -0.8224  0.5111
 1211SOL    HW115095   3.308   1.333   1.599  0.7420 -2.1211  0.9653
 1211SOL    HW215096   3.271   1.193   1.604  1.8998  0.0885  0.8874
 1212SOL     OW15097   3.818   0.946   5.638  0.7051 -0.1884  0.6194
 1212SOL    HW115098   3.830   0.933   5.732 -0.7968 -4.8313  0.1766
 1212SOL    HW215099   3.754   1.017   5.640  0.6112 -0.2195 -0.9495
 1213SOL     OW15100   1.159   0.599   9.107  0.3238  0.2871 -0.0174
 1213SOL    HW115101   1.156   0.694   9.097 -1.0318  0.2088 -0.4050
 1213SOL    HW215102   1.168   0.593   9.202  1.9950 -0.3794 -0.2174
 1214SOL     OW15103   1.762   3.570   5.337 -0.3845  0.1510 -0.2534
 1214SOL    HW115104   1.704   3.500   5.367 -0.6506  0.4121 -0.1641
 1214SOL    HW215105   1.766   3.544   5.244 -0.5671 -2.0913  0.3684
 1215SOL     OW15106   1.168   4.144   8.446  0.0265 -0.4347 -0.3023
 1215SOL    HW115107   1.176   4.146   8.542 -1.3262  1.6571 -0.2470
 1215SOL    HW215108   1.142   4.055   8.424 -0.0732 -0.6656  0.7460
 1216SOL     OW15109   0.352   4.459   2.847  0.5079  0.5321 -0.3653
 1216SOL    HW115110   0.268   4.425   2.815  0.7816 -0.8882  0.4286
 1216SOL    HW215111   0.336   4.553   2.854 -0.0382  0.4088  0.0583
 1217SOL     OW15112   3.056   3.079  14.604 -0.3704 -0.1467 -0.0911
 1217SOL    HW115113   3.004   3.131  14.543  0.4524 -0.1021 -0.7566
 1217SOL    HW215114   2.990   3.015  14.631  0.5797 -0.2418  1.9914
 1218SOL     OW15115   2.842   1.325   6.637  0.2653  0.0306 -0.4068
 1218SOL    HW115116   2.825   1.262   6.566 -1.0635  1.7557 -1.6276
 1218SOL    HW215117   2.832   1.411   6.596 -0.9532  0.7100  1.3036
 1219SOL     OW15118   4.243   3.280   7.961 -0.1973 -0.3146 -0.8142
 1219SOL    HW115119   4.182   3.251   8.029  0.1528 -1.4292 -0.9657
 1219SOL    HW215120   4.322   3.300   8.011 -0.5458  0.7920 -0.7114
 1220SOL     OW15121   4.126   0.259   4.010  0.4314  0.3041  0.2444
 1220SOL    HW115122   4.097   0.194   4.074  1.6987 -0.7597 -0.2722
 1220SOL    HW215123   4.043   0.301   3.986 -0.8850 -2.6305 -0.3009
 1221SOL     OW15124   0.972   1.596   3.506 -1.1685 -0.2409 -0.1850
 1221SOL    HW115125   0.947   1.522   3.450 -0.4715 -0.5248 -0.1234
 1221SOL    HW215126   0.942   1.668   3.451 -0.7908 -0.7140 -1.0243
 1222SOL     OW15127   0.960   0.644   1.739  1.2706 -0.2855  0.2440
 1222SOL    HW115128   1.024   0.638   1.811  1.7865  0.5770 -0.1412
 1222SOL    HW215129   0.872   0.633   1.774 -0.2944  0.5268 -3.5206
 1223SOL     OW15130   3.277   0.676   3.191 -0.3200 -0.4271 -1.0390
 1223SOL    HW115131   3.221   0.605   3.222  0.6118  0.0405  1.7420
 1223SOL    HW215132   3.356   0.624   3.176  2.3565  2.8603  1.5657
 1224SOL     OW15133   1.297   0.100   2.676 -0.4338  0.2176  0.0499
 1224SOL    HW115134   1.358   0.172   2.659  1.8104 -1.7217 -0.1684
 1224SOL    HW215135   1.244   0.116   2.755  0.6279  2.6997  0.2696
 1225SOL     OW15136   4.111   3.655   4.138 -0.2037 -0.1268 -0.0929
 1225SOL    HW115137   4.175   3.714   4.097 -1.5818  1.4472 -0.0110
 1225SOL    HW215138   4.147   3.612   4.215  2.3147 -0.0584 -1.2338
 1226SOL     OW15139   4.314   0.789   9.421 -0.5690 -0.3415 -0.4251
 1226SOL    HW115140   4.330   0.766   9.330  1.3941 -1.5686  0.2260
 1226SOL    HW215141   4.288   0.706   9.460 -2.0752 -0.4615 -1.7047
 1227SOL     OW15142   4.381   1.493   3.277 -0.2499 -0.0917 -0.2218
 1227SOL    HW115143   4.380   1.517   3.185 -2.9899 -1.0326 -0.4417
 1227SOL    HW215144   4.466   1.530   3.300  0.3254  0.0537 -2.6866
 1228SOL     OW15145   4.407   1.233   3.079  0.0269  0.5094 -0.4616
 1228SOL    HW115146   4.330   1.290   3.073 -1.1949 -1.0402  0.5673
 1228SOL    HW215147   4.458   1.268   3.005 -0.3469  0.7955 -0.5828
 1229SOL     OW15148   4.674   1.616   1.909  0.5572 -0.2083  1.0858
 1229SOL    HW115149   4.628   1.592   1.828  0.3448 -1.5563  1.6021
 1229SOL    HW215150   4.615   1.691   1.921  0.6432 -0.2219  1.6103
 1230SOL     OW15151   3.481   4.463  16.628 -0.5269 -0.1047 -0.2585
 1230SOL    HW115152   3.484   4.517  16.549  0.9283 -1.2088 -0.9596
 1230SOL    HW215153   3.570   4.470  16.662 -0.1311 -0.7406 -1.1500
 1231SOL     OW15154   0.366   0.069   0.075 -0.6359  0.2960  0.4337
 1231SOL    HW115155   0.383   0.007   0.146 -0.7728 -0.2418  0.0009
 1231SOL    HW215156   0.452   0.081   0.036 -0.4294 -0.5620  0.6258
 1232SOL     OW15157   3.431   4.643   6.784  0.1472 -0.1098  0.3306
 1232SOL    HW115158   3.379   4.595   6.849  0.8299 -1.2818  0.0044
 1232SOL    HW215159   3.497   4.577   6.761  0.0627  0.7209 -2.2918
 1233SOL     OW15160   0.320   0.630   8.168 -0.5389  0.0877 -0.2680
 1233SOL    HW115161   0.295   0.584   8.088  1.4731  0.1968 -0.9571
 1233SOL    HW215162   0.265   0.708   8.161  0.7570  1.1521  1.4475
 1234SOL     OW15163   4.032   0.318  12.550 -0.6396 -0.6590 -0.0328
 1234SOL    HW115164   3.942   0.296  12.525 -0.5949 -0.8973  0.0212
 1234SOL    HW215165   4.059   0.368  12.473 -0.1158 -2.2485 -0.8712
 1235SOL     OW15166   0.424   2.259   7.921  0.3648  0.4575 -0.4325
 1235SOL    HW115167   0.409   2.177   7.969  0.1167  1.3021  0.9136
 1235SOL    HW215168   0.502   2.287   7.969  0.3866 -0.9513  0.3723
 1236SOL     OW15169   1.250   0.806  13.138  0.1703 -0.1152  0.0488
 1236SOL    HW115170   1.301   0.875  13.096 -3.2882  1.8872 -0.8073
 1236SOL    HW215171   1.171   0.860  13.139  0.4550  0.3018  0.5847
 1237SOL     OW15172   2.254   2.821   1.954 -0.2938 -0.2744  0.3215
 1237SOL    HW115173   2.292   2.860   1.875  1.0557 -1.2088  0.5185
 1237SOL    HW215174   2.250   2.727   1.937  1.3989 -0.3029  0.0799
 1238SOL     OW15175   2.033   0.850   4.349  0.8874 -0.6839  0.1358
 1238SOL    HW115176   1.940   0.868   4.340  1.1923 -1.5234 -4.3337
 1238SOL    HW215177   2.034   0.758   4.324  0.5873 -1.3138  2.4300
 1239SOL     OW15178   1.229   0.991   6.504  0.5107 -0.2673  0.1826
 1239SOL    HW115179   1.187   1.059   6.451 -0.2874 -0.2792  0.7900
 1239SOL    HW215180   1.257   1.036   6.584  0.4028 -0.1554  0.1576
 1240SOL     OW15181   2.194   4.722  13.226 -1.0861 -0.1322  0.1584
 1240SOL    HW115182   2.116   4.666  13.227  1.3786 -3.5861 -2.3461
 1240SOL    HW215183   2.234   4.702  13.310 -0.7768  1.8508  0.4736
 1241SOL     OW15184   4.680   0.372   3.149 -0.0961  0.2780  0.6106
 1241SOL    HW115185   4.640   0.349   3.066  1.5874 -1.8457  0.3812
 1241SOL    HW215186   4.676   0.291   3.200  0.4383 -0.8559 -1.1377
 1242SOL     OW15187   4.015   1.007   8.258  0.5666  0.2696  0.4951
 1242SOL    HW115188   4.109   0.990   8.249  0.2728 -1.1520  0.0589
 1242SOL    HW215189   3.983   0.920   8.234  0.9402  1.2838 -3.6817
 1243SOL     OW15190   3.793   3.545   2.939 -0.0393  0.3646 -0.0292
 1243SOL    HW115191   3.741   3.476   2.899  0.8795 -1.9025  2.7260
 1243SOL    HW215192   3.747   3.559   3.022 -0.8665 -1.7995 -0.1271
 1244SOL     OW15193   4.501   1.028   6.664 -0.8103  0.6176 -0.1419
 1244SOL    HW115194   4.447   1.005   6.739 -0.9176  1.1158 -0.0670
 1244SOL    HW215195   4.530   1.111   6.700  0.9607  0.0738 -0.3278
 1245SOL     OW15196   4.472   0.746   2.368  0.1590 -0.5094 -0.2375
 1245SOL    HW115197   4.533   0.802   2.321 -2.3261  1.2988 -1.2704
 1245SOL    HW215198   4.477   0.792   2.452 -2.0424  1.9830 -1.4654
 1246SOL     OW15199   3.741   3.682   2.181  0.6881  0.7713 -0.0206
 1246SOL    HW115200   3.746   3.676   2.276 -2.3824 -1.4426 -0.0065
 1246SOL    HW215201   3.646   3.672   2.171  0.4472  2.9151  0.0121
 1247SOL     OW15202   3.597   4.159  11.045 -0.0466  0.0688 -0.1089
 1247SOL    HW115203   3.679   4.144  11.091  0.7841  2.0281 -0.9400
 1247SOL    HW215204   3.620   4.146  10.954  0.4762  0.7709 -0.0798
 1248SOL     OW15205   2.792   1.464   7.513 -0.5973 -0.1953 -0.4254
 1248SOL    HW115206   2.780   1.369   7.519  0.8636 -0.3375  0.2428
 1248SOL    HW215207   2.882   1.470   7.480 -1.1222 -0.0812 -1.8246
 1249SOL     OW15208   3.607   1.074  17.346  0.1322  0.5303  0.0067
 1249SOL    HW115209   3.651   1.159  17.339 -0.0805  0.5089 -1.6071
 1249SOL    HW215210   3.672   1.012  17.312 -0.5241 -0.7304  1.0674
 1250SOL     OW15211   4.661   1.721   2.567  0.8212  0.0965 -0.5170
 1250SOL    HW115212   4.684   1.801   2.519  0.8871  0.2516 -0.2295
 1250SOL    HW215213   0.016   1.717   2.624  0.1910  0.6284  0.3706
 1251SOL     OW15214   0.602   1.013   1.891  0.0931 -0.0413 -0.6767
 1251SOL    HW115215   0.591   0.970   1.807 -0.5841 -1.7754  0.2947
 1251SOL    HW215216   0.697   1.024   1.888 -0.1345  1.5376 -1.7550
 1252SOL     OW15217   0.816   1.336  14.057 -0.2466 -0.8734  1.0406
 1252SOL    HW115218   0.742   1.348  13.997  2.1416 -1.9541 -2.1414
 1252SOL    HW215219   0.876   1.403  14.024  0.0418 -1.4483  0.3943
 1253SOL     OW15220   3.803   1.280  11.808 -0.4453 -0.4314 -0.1074
 1253SOL    HW115221   3.832   1.235  11.729 -1.2045 -0.4884 -0.3542
 1253SOL    HW215222   3.718   1.303  11.772 -0.1629  0.0181 -0.4920
 1254SOL     OW15223   1.749   1.714   7.822  0.0195  0.3315  0.8427
 1254SOL    HW115224   1.735   1.770   7.899 -1.7336 -1.3356  1.7433
 1254SOL    HW215225   1.676   1.652   7.828  0.8318 -0.7779 -0.7948
 1255SOL     OW15226   3.900   2.645   5.255  0.4842  0.1097 -0.3684
 1255SOL    HW115227   3.924   2.734   5.232  3.1041 -0.1314  1.4936
 1255SOL    HW215228   3.926   2.602   5.173 -2.0292 -0.5326 -0.8297
 1256SOL     OW15229   3.385   2.989   9.070 -0.6742 -0.0858 -0.5510
 1256SOL    HW115230   3.327   3.047   9.118  0.3393 -0.3348  0.9771
 1256SOL    HW215231   3.461   3.047   9.078 -3.2493  2.9455  2.0689
 1257SOL     OW15232   0.927   1.873  16.713  0.5655  0.4069  0.2281
 1257SOL    HW115233   1.021   1.881  16.733  0.8548 -0.5682 -0.7484
 1257SOL    HW215234   0.893   1.960  16.733  1.4680  0.5064  1.3418
 1258SOL     OW15235   1.573   1.848   3.669  0.0989  0.3961 -0.3335
 1258SOL    HW115236   1.637   1.891   3.611  0.6467  1.0801  0.7861
 1258SOL    HW215237   1.521   1.916   3.712 -2.0709 -0.3369 -1.7557
 1259SOL     OW15238   1.101   2.525   5.614  0.1929  0.2460  0.2651
 1259SOL    HW115239   1.169   2.530   5.681 -0.4792  1.4751  0.8539
 1259SOL    HW215240   1.117   2.612   5.576  1.3429 -0.0149  0.1391
 1260SOL     OW15241   0.766   1.401   9.036 -0.1326  0.1969 -0.0717
 1260SOL    HW115242   0.673   1.411   9.016 -0.7330 -0.0717  2.4805
 1260SOL    HW215243   0.812   1.467   8.984  2.5169 -0.5064  1.3459
 1261SOL     OW15244   4.237   3.680   7.873  0.5168  0.1043 -0.2757
 1261SOL    HW115245   4.276   3.732   7.942  1.3224 -0.1778 -0.5148
 1261SOL    HW215246   4.270   3.715   7.790  0.2756 -0.6189 -0.6766
 1262SOL     OW15247   4.233   0.226   1.956  0.3930 -0.3875 -0.0259
 1262SOL    HW115248   4.264   0.165   2.023  1.4066  0.6363  0.4408
 1262SOL    HW215249   4.139   0.226   1.978 -0.3517 -1.7217 -3.3122
 1263SOL     OW15250   1.008   2.914   5.919 -0.4910 -0.0313  0.1427
 1263SOL    HW115251   1.003   2.960   6.003  0.1695  2.2200 -1.0597
 1263SOL    HW215252   0.928   2.951   5.884  0.5609 -0.1508 -2.3608
 1264SOL     OW15253   0.940   1.062   7.387  0.0764 -0.3584  0.0840
 1264SOL    HW115254   0.854   1.049   7.347  0.3338  0.5746 -0.7772
 1264SOL    HW215255   0.995   1.067   7.309  1.3865 -2.3379  0.8761
 1265SOL     OW15256   1.995   1.409  14.833 -0.2659 -0.3136 -0.0577
 1265SOL    HW115257   1.962   1.321  14.818 -0.6181  0.0875 -1.6231
 1265SOL    HW215258   2.090   1.402  14.827 -0.3005  0.7586 -1.6891
 1266SOL     OW15259   1.269   4.490  16.517 -0.5102 -0.3338 -0.2805
 1266SOL    HW115260   1.255   4.566  16.573 -0.4442 -0.0392 -0.6636
 1266SOL    HW215261   1.175   4.473  16.506 -0.6809  0.4366 -0.0314
 1267SOL     OW15262   2.318   0.585  11.048  0.3729  0.3594  0.1629
 1267SOL    HW115263   2.384   0.654  11.038 -0.1491  1.0364  1.4021
 1267SOL    HW215264   2.251   0.627  10.995  0.6139 -1.9454 -1.9558
 1268SOL     OW15265   2.418   3.766   2.676  0.6198  0.2284  0.3291
 1268SOL    HW115266   2.410   3.674   2.699 -0.4010 -0.1120 -1.4176
 1268SOL    HW215267   2.373   3.776   2.593  0.1095 -2.3360  0.3206
 1269SOL     OW15268   0.975   2.047   7.290  0.3148 -0.3788 -0.3942
 1269SOL    HW115269   0.956   2.129   7.335  0.5457  0.6056 -2.0849
 1269SOL    HW215270   0.887   2.026   7.260 -0.0494 -0.9253  1.0335
 1270SOL     OW15271   3.087   0.418   1.326  0.0003  0.2969  0.8441
 1270SOL    HW115272   3.026   0.439   1.397  2.0795 -2.2634  3.3738
 1270SOL    HW215273   3.050   0.472   1.255  0.0491 -1.3751 -0.4540
 1271SOL     OW15274   3.528   0.041   8.412 -0.2468  0.2276 -0.2009
 1271SOL    HW115275   3.440   0.020   8.379 -1.1311  2.7929  0.5391
 1271SOL    HW215276   3.523   4.719   8.496  0.8606 -0.7581 -0.6570
 1272SOL     OW15277   0.009   0.364   7.324  0.0938  0.0901  0.1537
 1272SOL    HW115278   0.006   0.317   7.407 -1.0762 -0.2310 -0.0734
 1272SOL    HW215279   4.696   0.293   7.271  0.9290 -0.2378  0.0470
 1273SOL     OW15280   1.772   1.003   4.593  0.2589  0.3884  0.6918
 1273SOL    HW115281   1.810   0.990   4.680  0.7550  0.4227  0.4814
 1273SOL    HW215282   1.728   0.921   4.570  2.3997 -0.4311 -0.5086
 1274SOL     OW15283   2.853   1.100  10.962 -0.1625 -0.4051 -0.6038
 1274SOL    HW115284   2.911   1.135  10.895  0.1915 -0.1638 -0.1742
 1274SOL    HW215285   2.840   1.164  11.031  0.4162 -0.5610 -0.3456
 1275SOL     OW15286   3.745   2.917   7.953 -0.3489  0.4974  0.1346
 1275SOL    HW115287   3.805   2.873   7.892 -1.9203 -2.3400  0.6671
 1275SOL    HW215288   3.672   2.856   7.941 -0.6409  0.4265  2.3098
 1276SOL     OW15289   1.629   0.981   1.493  0.5155 -0.5246 -0.4239
 1276SOL    HW115290   1.583   0.969   1.576  2.5087  1.6268  1.0068
 1276SOL    HW215291   1.570   0.932   1.435 -0.7072  0.2783  0.1459
 1277SOL     OW15292   3.436   2.416   4.361 -0.3301  0.0130 -0.0656
 1277SOL    HW115293   3.485   2.409   4.279 -1.9795  0.8214 -1.1307
 1277SOL    HW215294   3.357   2.363   4.345  0.8034 -1.3668 -1.0637
 1278SOL     OW15295   1.727   3.188  15.960 -0.0847 -0.0991  0.6195
 1278SOL    HW115296   1.696   3.275  15.982  1.2715  0.1120  1.6763
 1278SOL    HW215297   1.699   3.131  16.032 -0.5302 -2.3556 -1.3366
 1279SOL     OW15298   1.183   4.339  15.808  0.0007 -0.1553 -0.0651
 1279SOL    HW115299   1.267   4.364  15.769  0.6106  2.8140  3.1407
 1279SOL    HW215300   1.200   4.382  15.892  1.3598 -1.0246  0.1215
 1280SOL     OW15301   3.947   2.833  13.813 -0.3630  0.2209  0.2164
 1280SOL    HW115302   4.037   2.860  13.795  0.3325 -2.1423  0.1886
 1280SOL    HW215303   3.941   2.740  13.836  1.0492 -0.1157 -0.7736
 1281SOL     OW15304   4.704   4.714   5.156  0.7954  0.3941  0.1312
 1281SOL    HW115305   0.029   0.017   5.236 -0.6540 -3.9072  2.3199
 1281SOL    HW215306   4.693   0.072   5.105 -0.8886 -0.6132 -1.0690
 1282SOL     OW15307   1.602   2.155   2.446 -0.1485  0.7888 -0.2494
 1282SOL    HW115308   1.554   2.126   2.523  0.3611  0.7315  0.0500
 1282SOL    HW215309   1.579   2.087   2.383  0.1720  0.3629  0.0943
 1283SOL     OW15310   2.595   3.737   2.110  0.1267 -0.1374  0.1838
 1283SOL    HW115311   2.686   3.735   2.141  0.2536  1.4542 -0.0756
 1283SOL    HW215312   2.589   3.648   2.076  1.5752 -0.4359  0.7153
 1284SOL     OW15313   1.799   3.546   6.227 -1.0778  0.0430 -0.3234
 1284SOL    HW115314   1.764   3.583   6.147 -2.5734  2.7808  1.6036
 1284SOL    HW215315   1.829   3.622   6.278 -0.1008 -0.8117  0.4013
 1285SOL     OW15316   4.714   4.035  10.166 -0.2503 -0.1276  0.3537
 1285SOL    HW115317   4.677   4.115  10.201  0.2148  0.5075 -0.5904
 1285SOL    HW215318   0.073   4.059  10.119 -0.2111 -1.2364 -0.1422
 1286SOL     OW15319   0.883   0.901   5.028 -0.2645  0.4085 -0.2639
 1286SOL    HW115320   0.897   0.877   5.120 -2.0242 -0.1727 -0.1400
 1286SOL    HW215321   0.944   0.974   5.019 -0.5648  0.7323  0.2957
 1287SOL     OW15322   3.679   4.238   9.922  0.6969  0.0817  0.1317
 1287SOL    HW115323   3.669   4.322   9.877 -0.5354 -0.1150  0.0587
 1287SOL    HW215324   3.771   4.241   9.949  0.5564  0.8094  0.5178
 1288SOL     OW15325   1.308   0.236   4.178 -0.6133  0.7045  0.1009
 1288SOL    HW115326   1.215   0.232   4.154 -0.9104 -2.0242  1.6899
 1288SOL    HW215327   1.312   0.141   4.186  1.3510  0.5910 -2.4585
 1289SOL     OW15328   3.955   0.125   3.184 -0.2331 -0.3206 -0.0330
 1289SOL    HW115329   3.951   0.217   3.157 -0.3083  0.0043  1.0764
 1289SOL    HW215330   4.049   0.122   3.202  0.2227  1.3903 -2.1862
 1290SOL     OW15331   1.693   3.883   6.775 -0.1548  0.1920 -0.0435
 1290SOL    HW115332   1.700   3.979   6.782 -0.2566  0.3914 -2.5995
 1290SOL    HW215333   1.650   3.873   6.690 -2.6793  0.1703  1.2325
 1291SOL     OW15334   1.120   1.125   8.045  0.6638  0.0042  0.3383
 1291SOL    HW115335   1.143   1.045   8.090  1.7632 -1.5715 -3.0166
 1291SOL    HW215336   1.179   1.131   7.970 -0.2526  0.2549 -0.3648
 1292SOL     OW15337   3.619   3.519   5.871 -0.0267 -0.1044  0.1160
 1292SOL    HW115338   3.545   3.470   5.906  1.4740 -3.1539 -0.9421
 1292SOL    HW215339   3.657   3.458   5.808  0.2691  0.4765 -0.2591
 1293SOL     OW15340   2.831   3.410   1.474  0.1430  0.0539  0.3194
 1293SOL    HW115341   2.831   3.315   1.481 -0.2219 -0.0156 -0.6588
 1293SOL    HW215342   2.914   3.425   1.430 -0.4652  0.0535 -0.8287
 1294SOL     OW15343   1.416   0.339   4.429 -0.5207 -0.6916 -0.1375
 1294SOL    HW115344   1.417   0.300   4.341  0.2688 -0.1978 -0.3510
 1294SOL    HW215345   1.359   0.415   4.432  0.8602  0.3077  1.0785
 1295SOL     OW15346   3.014   0.766   6.963  0.2887  0.4701 -0.0066
 1295SOL    HW115347   2.996   0.702   6.894  0.4335  1.6106 -1.1023
 1295SOL    HW215348   3.102   0.738   6.988  0.2218  0.2755  0.0099
 1296SOL     OW15349   4.394   3.839   7.041 -0.0293 -0.2618  0.0645
 1296SOL    HW115350   4.410   3.827   6.948 -1.4955 -0.2696 -0.1917
 1296SOL    HW215351   4.299   3.843   7.055 -0.0146  2.3946 -0.5609
 1297SOL     OW15352   2.434   4.694   6.159  0.1330  0.1206  0.4471
 1297SOL    HW115353   2.383   0.007   6.232  1.1394 -0.6971  1.5518
 1297SOL    HW215354   2.373   4.636   6.113 -0.5617  1.2146  0.0049
 1298SOL     OW15355   4.706   1.154   3.879 -0.5023 -0.0979  0.1304
 1298SOL    HW115356   0.036   1.090   3.928  2.2059  1.7119 -0.3856
 1298SOL    HW215357   4.639   1.090   3.853  0.7161 -0.4733 -2.1087
 1299SOL     OW15358   3.848   3.109   3.989 -0.2955 -0.3832 -0.1619
 1299SOL    HW115359   3.813   3.152   3.911 -0.6267  0.0483  0.2277
 1299SOL    HW215360   3.850   3.017   3.962 -0.1929 -1.0276  2.0442
 1300SOL     OW15361   3.754   4.533   9.465 -0.4095  0.2017  0.3738
 1300SOL    HW115362   3.715   4.601   9.519  1.5664  1.0804  0.6673
 1300SOL    HW215363   3.799   4.486   9.534  1.3294  0.9194 -0.2673
 1301SOL     OW15364   4.107   1.622  13.036 -0.1361  0.0401  0.0282
 1301SOL    HW115365   4.014   1.614  13.018  0.1054 -1.8542 -0.4011
 1301SOL    HW215366   4.113   1.543  13.091  1.0480 -2.4859 -3.7006
 1302SOL     OW15367   1.536   1.553  16.883 -0.6161 -0.7069 -0.2906
 1302SOL    HW115368   1.587   1.619  16.836 -1.7446 -0.6433 -1.4166
 1302SOL    HW215369   1.545   1.486  16.816 -0.8140 -1.0213 -0.0012
 1303SOL     OW15370   3.198   2.012   8.407 -0.1275 -0.3827 -0.2407
 1303SOL    HW115371   3.278   2.060   8.428  0.1639 -0.6166 -0.8190
 1303SOL    HW215372   3.230   1.966   8.329 -0.4349 -2.1219  0.6824
 1304SOL     OW15373   1.512   0.792   3.967 -0.0166  0.1085  0.2771
 1304SOL    HW115374   1.447   0.723   3.977 -0.0440 -0.0098 -0.7512
 1304SOL    HW215375   1.598   0.756   3.988  1.2024  2.2970 -0.9114
 1305SOL     OW15376   0.394   2.998   5.398  0.5455  0.0633  0.3836
 1305SOL    HW115377   0.442   2.959   5.325 -1.8921  1.0213 -1.6755
 1305SOL    HW215378   0.418   3.090   5.390  1.1630 -0.2393 -1.2793
 1306SOL     OW15379   2.714   3.190   3.559  0.2265  0.3749 -0.4223
 1306SOL    HW115380   2.631   3.218   3.519  0.8823 -0.1066 -2.1370
 1306SOL    HW215381   2.728   3.258   3.625 -0.1337  1.0376 -1.0227
 1307SOL     OW15382   0.572   3.049   8.282  0.2606 -0.6542 -0.0048
 1307SOL    HW115383   0.562   3.048   8.377 -0.4259 -1.6818 -0.0866
 1307SOL    HW215384   0.641   2.983   8.274  0.6872 -0.0471 -1.3695
 1308SOL     OW15385   0.441   2.619   9.956 -0.4315  0.3852  0.1053
 1308SOL    HW115386   0.436   2.525   9.974  0.7525  0.0802 -1.1535
 1308SOL    HW215387   0.518   2.639  10.009 -1.1354 -0.4129  1.4143
 1309SOL     OW15388   3.863   3.258  16.166 -0.3592  0.0644 -0.0642
 1309SOL    HW115389   3.814   3.179  16.189  1.8230 -1.5896 -1.0722
 1309SOL    HW215390   3.948   3.221  16.190 -0.9657  0.6376  2.9991
 1310SOL     OW15391   3.299   0.810   2.043  0.0937 -0.6470 -0.0215
 1310SOL    HW115392   3.272   0.736   2.097  0.0918 -0.2812  0.4832
 1310SOL    HW215393   3.299   0.875   2.114  0.6220 -2.4486  1.6185
 1311SOL     OW15394   3.689   1.654   7.093  0.9677  0.5263 -0.3786
 1311SOL    HW115395   3.667   1.732   7.043  0.1769  0.8484  0.4749
 1311SOL    HW215396   3.602   1.623   7.117  0.0352  3.2956 -0.2052
 1312SOL     OW15397   0.024   4.079   4.997  0.4795  0.7578 -0.5133
 1312SOL    HW115398   0.067   4.136   4.933  0.4877 -0.9409 -2.0203
 1312SOL    HW215399   0.060   4.108   5.081 -1.5905  0.2501  0.5384
 1313SOL     OW15400   4.422   0.988   9.565  0.1074  0.0351 -0.5632
 1313SOL    HW115401   4.364   1.052   9.524 -0.3131  0.0031 -0.0165
 1313SOL    HW215402   4.403   0.909   9.515 -0.4237  0.0995 -0.4608
 1314SOL     OW15403   3.538   0.747   1.201  0.3699  0.3943  0.4980
 1314SOL    HW115404   3.468   0.701   1.156  1.5284 -1.2038  0.3332
 1314SOL    HW215405   3.612   0.706   1.155 -3.5587 -4.3354 -1.5287
 1315SOL     OW15406   3.052   2.268   2.252  0.2879 -0.5316  0.0617
 1315SOL    HW115407   2.959   2.258   2.273  0.0393 -0.2659 -0.9615
 1315SOL    HW215408   3.080   2.285   2.342  0.9019  0.8400 -0.4003
 1316SOL     OW15409   3.657   1.541   8.397  0.2969  0.2726  0.0364
 1316SOL    HW115410   3.705   1.585   8.327  0.5792 -1.6625 -0.9806
 1316SOL    HW215411   3.721   1.515   8.463  0.8185  1.9187  0.1683
 1317SOL     OW15412   0.253   1.101   1.706 -0.4874 -0.0025 -0.3283
 1317SOL    HW115413   0.329   1.152   1.735 -0.0781 -0.9896  0.3349
 1317SOL    HW215414   0.210   1.086   1.790  1.0583  0.4663  0.5523
 1318SOL     OW15415   0.199   2.208   2.548 -0.6011  0.4934  0.5889
 1318SOL    HW115416   0.226   2.172   2.463 -3.2125  0.7021 -0.3449
 1318SOL    HW215417   0.109   2.179   2.563 -0.8426  0.9143 -0.0368
 1319SOL     OW15418   0.496   0.649   8.827  0.4212  0.5967 -0.4685
 1319SOL    HW115419   0.402   0.665   8.813  0.3329  0.3153 -0.2024
 1319SOL    HW215420   0.492   0.558   8.856  1.7596 -0.0310 -2.3056
 1320SOL     OW15421   1.352   3.300  12.749 -0.4068  0.3320 -0.0250
 1320SOL    HW115422   1.362   3.394  12.761 -0.8893  0.3209  0.4809
 1320SOL    HW215423   1.417   3.276  12.683  0.3057 -0.0865  0.8426
 1321SOL     OW15424   0.361   1.256  10.710 -0.5994 -0.0345  0.0985
 1321SOL    HW115425   0.335   1.166  10.689 -1.5306  0.2209  0.1958
 1321SOL    HW215426   0.450   1.267  10.677  0.1958 -1.5712  1.7060
 1322SOL     OW15427   3.046   2.610   4.380  0.5669  0.1409 -0.1960
 1322SOL    HW115428   3.055   2.623   4.285  0.0943 -2.8107 -0.6613
 1322SOL    HW215429   2.965   2.661   4.384 -0.3035 -1.2513 -0.0235
 1323SOL     OW15430   3.549   0.193   6.795 -0.5008  0.3892 -0.5459
 1323SOL    HW115431   3.562   0.173   6.888 -1.0861  0.5950 -0.4177
 1323SOL    HW215432   3.482   0.136   6.758 -0.9600  0.0271  0.8331
 1324SOL     OW15433   3.799   2.085   7.192  0.0427  0.1893  0.2780
 1324SOL    HW115434   3.781   2.073   7.099 -1.0597  1.6132  0.3118
 1324SOL    HW215435   3.737   2.025   7.234  0.0375  0.4258  0.6114
 1325SOL     OW15436   4.048   0.129   8.474  0.1468  0.6015 -0.5057
 1325SOL    HW115437   3.991   0.155   8.546  0.0700 -0.2357 -0.2633
 1325SOL    HW215438   4.120   0.098   8.529  0.5389  1.0447 -0.7699
 1326SOL     OW15439   0.100   0.961   8.339  0.4098  0.1528 -0.0241
 1326SOL    HW115440   0.118   0.941   8.247 -0.9896  0.8990 -0.4498
 1326SOL    HW215441   0.189   0.986   8.365  0.1613  0.2493  0.7214
 1327SOL     OW15442   0.246   4.580   3.204  0.0256 -0.3624 -0.3825
 1327SOL    HW115443   0.290   4.495   3.206 -1.4560 -1.1268 -0.5443
 1327SOL    HW215444   0.326   4.633   3.198 -1.3179  1.8996  1.9288
 1328SOL     OW15445   3.539   2.408  12.086  0.7572 -0.2271 -0.2735
 1328SOL    HW115446   3.526   2.464  12.009  2.5327 -1.2296 -1.2949
 1328SOL    HW215447   3.468   2.346  12.070  0.7155 -0.5180  1.0300
 1329SOL     OW15448   0.515   4.226   9.022 -0.0148 -0.4677 -0.6797
 1329SOL    HW115449   0.547   4.236   9.111  1.5501 -2.2131 -1.0336
 1329SOL    HW215450   0.468   4.309   9.017 -1.4331 -1.2798 -0.9317
 1330SOL     OW15451   1.296   3.567   3.699  0.2363  0.5177  0.4003
 1330SOL    HW115452   1.280   3.613   3.781  0.1372 -0.0810  0.7131
 1330SOL    HW215453   1.341   3.494   3.742  0.7113 -0.7574 -2.2532
 1331SOL     OW15454   3.433   1.972   5.388 -0.1484 -0.0659 -0.3911
 1331SOL    HW115455   3.345   1.967   5.351 -0.1114  0.5052 -0.5469
 1331SOL    HW215456   3.446   2.065   5.370 -0.0894  0.0851  0.4389
 1332SOL     OW15457   2.645   4.000   7.869 -0.1559  0.4933  0.2399
 1332SOL    HW115458   2.729   4.019   7.826 -0.8915  1.9222 -0.5304
 1332SOL    HW215459   2.661   4.060   7.942 -1.3489  1.4739 -0.3128
 1333SOL     OW15460   1.781   4.580  14.592  0.0096  0.0261 -0.2739
 1333SOL    HW115461   1.798   4.669  14.624  0.9379  1.3026 -4.3220
 1333SOL    HW215462   1.853   4.569  14.531  0.2016  1.2258 -0.2646
 1334SOL     OW15463   3.530   2.409   9.436 -0.2372  0.1902  0.2204
 1334SOL    HW115464   3.583   2.488   9.447  0.1735 -0.4043  2.4355
 1334SOL    HW215465   3.550   2.389   9.344 -2.7336 -1.3940  0.0405
 1335SOL     OW15466   1.006   2.883   2.559  0.0350  0.5778 -0.1793
 1335SOL    HW115467   1.016   2.915   2.469  0.3330 -0.7766 -0.6299
 1335SOL    HW215468   1.058   2.947   2.608  0.9960 -0.9748  0.8028
 1336SOL     OW15469   0.631   0.460   6.129  0.1742 -0.2210 -0.1667
 1336SOL    HW115470   0.565   0.391   6.123 -0.4435  0.3245  0.3140
 1336SOL    HW215471   0.707   0.403   6.137 -1.0473 -1.6591  1.2314
 1337SOL     OW15472   1.186   2.104  11.926  0.3391  0.2972 -0.0629
 1337SOL    HW115473   1.225   2.067  11.848 -1.0665  3.0728 -2.0930
 1337SOL    HW215474   1.254   2.166  11.954 -0.0316  0.6098  0.1568
 1338SOL     OW15475   2.564   0.313   3.920  0.7008  0.0473 -0.0113
 1338SOL    HW115476   2.518   0.246   3.869  0.6059  0.1878 -0.1081
 1338SOL    HW215477   2.583   0.372   3.848 -1.4733  0.2034 -0.4456
 1339SOL     OW15478   0.934   3.678   5.601  0.0809  0.0861  0.3135
 1339SOL    HW115479   1.026   3.695   5.622 -0.0998  1.8008 -0.2265
 1339SOL    HW215480   0.935   3.591   5.562  0.0696  0.6861 -1.0217
 1340SOL     OW15481   3.288   2.442   3.147 -0.0982  0.6518  0.8163
 1340SOL    HW115482   3.233   2.519   3.130  0.2827  0.5657 -0.8166
 1340SOL    HW215483   3.380   2.469   3.151  0.3266 -0.3748 -2.3170
 1341SOL     OW15484   3.942   1.780   3.211  0.1697  0.6168  0.0874
 1341SOL    HW115485   3.888   1.805   3.286  1.2237  2.0577  0.3598
 1341SOL    HW215486   3.876   1.738   3.156 -0.4663 -0.4057  1.6204
 1342SOL     OW15487   4.534   0.945   8.634 -0.3230  0.0439 -0.1911
 1342SOL    HW115488   4.505   0.889   8.706 -0.3500  0.9833  0.5223
 1342SOL    HW215489   4.478   1.019   8.655 -0.1948  0.5920 -1.7395
 1343SOL     OW15490   1.740   0.815   2.738  0.2312  0.7804  0.1844
 1343SOL    HW115491   1.787   0.774   2.811 -3.7710 -2.0527  1.1480
 1343SOL    HW215492   1.690   0.887   2.776 -1.3606  0.0535 -0.5520
 1344SOL     OW15493   0.967   2.622   4.592 -0.0879 -0.0117  0.0930
 1344SOL    HW115494   0.935   2.644   4.504 -1.0949  1.1596  0.7525
 1344SOL    HW215495   1.040   2.565   4.569  0.5056  1.4253 -1.6369
 1345SOL     OW15496   0.185   3.156  12.809 -0.1934 -0.7195  0.7322
 1345SOL    HW115497   0.101   3.137  12.851 -1.4158  1.3949 -0.7663
 1345SOL    HW215498   0.226   3.070  12.804 -1.6837 -1.3038 -1.8421
 1346SOL     OW15499   2.378   2.888   0.488  0.1270 -0.1800 -0.5106
 1346SOL    HW115500   2.341   2.817   0.436 -0.4166 -0.7128  0.5972
 1346SOL    HW215501   2.355   2.877   0.580 -0.8225  0.9608 -0.6012
 1347SOL     OW15502   3.302   2.541   8.676  0.0047 -0.0139  0.2847
 1347SOL    HW115503   3.249   2.560   8.754 -0.0217  0.1193  0.2327
 1347SOL    HW215504   3.266   2.453   8.663 -1.3668  0.6544 -0.4489
 1348SOL     OW15505   4.050   4.592  17.555 -0.2824 -0.5128 -0.0351
 1348SOL    HW115506   3.985   4.533  17.592 -2.6485  0.9662 -1.7719
 1348SOL    HW215507   4.131   4.573  17.600  0.5826  0.0740 -1.3411
 1349SOL     OW15508   3.834   4.328  12.007  0.1114  0.3230 -0.1061
 1349SOL    HW115509   3.841   4.233  12.002  0.6068  0.3495  0.0114
 1349SOL    HW215510   3.916   4.351  11.964 -0.0277  1.8169  0.4342
 1350SOL     OW15511   0.983   1.108   6.717 -0.1318  0.3036 -0.0340
 1350SOL    HW115512   1.075   1.081   6.714 -0.1207  0.2132  1.1124
 1350SOL    HW215513   0.995   1.189   6.767 -0.2537 -0.4997  1.2944
 1351SOL     OW15514   1.502   1.017   3.766 -0.0698  0.5630 -0.5966
 1351SOL    HW115515   1.428   0.974   3.722  0.7795 -0.9148 -0.5505
 1351SOL    HW215516   1.494   0.981   3.854 -0.2906 -0.2057 -0.9338
 1352SOL     OW15517   2.045   2.805   3.640  0.2610  0.1697  0.1524
 1352SOL    HW115518   2.047   2.722   3.688 -1.8411  0.9762  1.6181
 1352SOL    HW215519   1.990   2.871   3.681 -2.2495 -1.3386 -0.7644
 1353SOL     OW15520   1.387   1.285   3.062  0.9000 -0.4224  0.0912
 1353SOL    HW115521   1.453   1.332   3.011 -0.7153  0.8363 -0.8541
 1353SOL    HW215522   1.439   1.235   3.125  1.3121 -1.1081 -0.8091
 1354SOL     OW15523   1.333   0.366   3.415  0.4775 -0.1769  0.2327
 1354SOL    HW115524   1.338   0.420   3.494  0.9094 -0.1466  0.1845
 1354SOL    HW215525   1.422   0.333   3.409 -0.2337 -1.5183 -3.0522
 1355SOL     OW15526   2.943   3.494  14.501  0.3429 -0.0634  0.0152
 1355SOL    HW115527   2.920   3.432  14.571 -2.4200 -0.2803 -1.1109
 1355SOL    HW215528   2.858   3.522  14.467 -0.7741 -2.6861  0.6469
 1356SOL     OW15529   3.100   3.186  10.574 -0.7610 -0.8189 -0.4088
 1356SOL    HW115530   3.092   3.263  10.519  1.9172  0.1700  0.5632
 1356SOL    HW215531   3.092   3.118  10.508 -1.0041 -1.1262 -0.0645
 1357SOL     OW15532   0.032   1.055   9.047  0.6558 -0.2570 -0.0357
 1357SOL    HW115533   0.015   0.973   9.000 -2.2547 -0.3163  1.1779
 1357SOL    HW215534   4.676   1.106   9.027 -0.6001 -2.2028 -0.1033
 1358SOL     OW15535   3.107   0.479   3.187  0.0712 -0.4880  0.3559
 1358SOL    HW115536   3.116   0.385   3.200  1.0078 -0.4218  0.2432
 1358SOL    HW215537   3.075   0.478   3.097  0.0930 -1.9700  0.3688
 1359SOL     OW15538   2.070   4.302  13.520  0.4552  0.0695 -0.4957
 1359SOL    HW115539   2.117   4.219  13.522 -0.0844 -0.2339 -0.3546
 1359SOL    HW215540   2.057   4.327  13.428  0.2837  0.4043 -0.3813
 1360SOL     OW15541   4.240   0.700   4.652 -0.6462  1.1674 -0.2702
 1360SOL    HW115542   4.304   0.761   4.688  0.0495 -0.0134  0.5282
 1360SOL    HW215543   4.244   0.721   4.559  0.7736  2.3912  0.0680
 1361SOL     OW15544   3.156   0.495   7.191  0.4781 -0.1568 -0.3714
 1361SOL    HW115545   3.172   0.521   7.282 -2.6870 -0.7004  0.3311
 1361SOL    HW215546   3.132   0.403   7.197 -0.8784  0.4076  2.6716
 1362SOL     OW15547   2.446   1.925   2.144  0.1164 -0.1123 -0.5086
 1362SOL    HW115548   2.466   1.934   2.050  2.3529  1.4799  0.1159
 1362SOL    HW215549   2.351   1.915   2.148  0.2632 -1.6874 -0.7302
 1363SOL     OW15550   1.103   3.379   4.883  0.1012  0.1341  0.1459
 1363SOL    HW115551   1.188   3.335   4.877 -0.6211 -1.4162  1.4038
 1363SOL    HW215552   1.060   3.325   4.816  0.9741 -0.2676 -0.0882
 1364SOL     OW15553   2.015   4.179   0.892  0.5707  0.3276  0.3069
 1364SOL    HW115554   1.953   4.195   0.821  0.5275  0.2877  0.3357
 1364SOL    HW215555   2.030   4.264   0.932  0.5500  0.5876 -0.2347
 1365SOL     OW15556   2.872   3.296   6.374  0.7863  0.0845  0.1645
 1365SOL    HW115557   2.802   3.286   6.440 -0.7414 -0.9837 -1.6257
 1365SOL    HW215558   2.892   3.389   6.381  0.3285  0.2066 -0.1901
 1366SOL     OW15559   2.550   4.547   9.047 -0.0675  0.2629 -0.4342
 1366SOL    HW115560   2.555   4.464   9.095  0.4241  0.8965  0.6202
 1366SOL    HW215561   2.583   4.613   9.107 -0.2041  0.3466 -0.4526
 1367SOL     OW15562   0.249   1.123   7.330 -0.0200  0.3758 -0.4565
 1367SOL    HW115563   0.324   1.125   7.270  2.1440  0.3793  2.2639
 1367SOL    HW215564   0.278   1.203   7.374 -0.5087  0.7403 -0.8087
 1368SOL     OW15565   2.955   4.553   7.242  0.5982 -0.4540 -0.2089
 1368SOL    HW115566   2.929   4.595   7.160  1.3024  0.3224 -0.0294
 1368SOL    HW215567   2.875   4.543   7.293  0.3692 -0.1822 -0.5128
 1369SOL     OW15568   1.306   0.895   3.599  0.1130 -0.2293  0.6899
 1369SOL    HW115569   1.342   0.830   3.538 -1.3025 -2.0750  1.8058
 1369SOL    HW215570   1.228   0.845   3.623  0.7992 -2.0276 -0.8328
 1370SOL     OW15571   3.215   3.367  13.399 -0.1698 -0.0765  1.0824
 1370SOL    HW115572   3.225   3.456  13.431 -1.1953  0.0924  0.9038
 1370SOL    HW215573   3.158   3.327  13.464 -2.9876  1.7988 -0.2372
 1371SOL     OW15574   1.930   3.532   7.493 -0.5219  0.1451 -0.1368
 1371SOL    HW115575   1.942   3.577   7.576 -0.4415 -1.4575  0.7149
 1371SOL    HW215576   2.021   3.511   7.475 -0.4026  0.7083 -0.1923
 1372SOL     OW15577   0.878   1.545  17.543  0.0156 -0.3680 -0.2232
 1372SOL    HW115578   0.862   1.628  17.498 -1.8162  0.0451  1.2154
 1372SOL    HW215579   0.796   1.507  17.511  0.0235 -2.2253  2.0027
 1373SOL     OW15580   3.138   1.816  15.024  0.0133  0.4235 -0.2199
 1373SOL    HW115581   3.225   1.821  15.062 -0.3243  1.1009  0.4659
 1373SOL    HW215582   3.122   1.906  14.997  1.5823  0.9529  0.6463
 1374SOL     OW15583   1.229   0.461  11.729  0.1218  0.0378  0.1692
 1374SOL    HW115584   1.315   0.475  11.689  0.0673  2.7253  0.9902
 1374SOL    HW215585   1.246   0.410  11.808  2.2069 -1.7074 -1.4092
 1375SOL     OW15586   2.930   4.518   9.184  0.0705 -0.5194  0.5876
 1375SOL    HW115587   3.022   4.544   9.185 -0.3219  1.0799 -3.0217
 1375SOL    HW215588   2.948   4.427   9.160 -1.6794 -0.3910 -1.2120
 1376SOL     OW15589   2.189   3.720   6.312 -0.3570  0.1555  0.1132
 1376SOL    HW115590   2.185   3.751   6.402 -2.1509  0.8725 -0.2203
 1376SOL    HW215591   2.242   3.641   6.319  2.5313  2.1247  0.4083
 1377SOL     OW15592   4.237   1.445   8.889  0.2485 -0.3228  0.3661
 1377SOL    HW115593   4.208   1.432   8.799 -2.9563 -2.5552  1.7405
 1377SOL    HW215594   4.151   1.458   8.928 -0.4941  0.2507 -1.4473
 1378SOL     OW15595   4.486   1.672   9.099 -0.3337  0.0741 -0.0978
 1378SOL    HW115596   4.409   1.669   9.156  0.5549 -1.8507  1.0024
 1378SOL    HW215597   4.479   1.586   9.057  0.1440 -0.2153  0.4115
 1379SOL     OW15598   2.833   4.583   2.356 -0.1156 -0.4685 -0.3013
 1379SOL    HW115599   2.801   4.566   2.445 -0.0327  1.6350  0.1283
 1379SOL    HW215600   2.827   4.678   2.358  0.8195 -0.4539  3.4450
 1380SOL     OW15601   3.434   3.056   4.760 -0.1834 -0.0900  0.6117
 1380SOL    HW115602   3.481   3.130   4.798 -0.4309  0.7661 -0.7694
 1380SOL    HW215603   3.348   3.092   4.736 -0.0097 -0.0314  0.0968
 1381SOL     OW15604   3.901   0.797   6.872 -0.0029  0.3388  0.1812
 1381SOL    HW115605   3.850   0.837   6.801  1.2384  0.4323 -0.6549
 1381SOL    HW215606   3.886   0.868   6.934 -0.9352  0.9395 -0.7179
 1382SOL     OW15607   4.604   1.807   9.981  0.7956 -0.1176  0.0975
 1382SOL    HW115608   4.509   1.800   9.992  1.2894 -2.9979  2.5589
 1382SOL    HW215609   4.616   1.887   9.930  1.2376  0.2772  0.8315
 1383SOL     OW15610   2.879   2.983   5.205 -0.4220  0.2232 -0.0906
 1383SOL    HW115611   2.899   2.939   5.288 -1.0092  0.3567  0.1256
 1383SOL    HW215612   2.896   3.075   5.227 -1.2814  0.1561  0.8498
 1384SOL     OW15613   2.499   3.954   3.205 -0.2235 -0.2113  0.0611
 1384SOL    HW115614   2.576   3.916   3.162 -0.6424  0.5387 -1.3772
 1384SOL    HW215615   2.481   4.034   3.156  1.0338 -1.3279 -2.2677
 1385SOL     OW15616   3.520   2.646  14.656 -0.2694  0.3795 -0.7398
 1385SOL    HW115617   3.535   2.580  14.724  3.5478 -0.8988 -2.7938
 1385SOL    HW215618   3.610   2.663  14.627 -0.7979  0.4829 -2.3248
 1386SOL     OW15619   0.657   2.573   3.071 -0.0318 -0.4382 -0.0068
 1386SOL    HW115620   0.600   2.649   3.082  1.3623  0.7720 -1.2181
 1386SOL    HW215621   0.607   2.492   3.086 -0.5798  0.1444  1.3589
 1387SOL     OW15622   3.464   0.125   8.078  0.5370  0.1425 -0.4373
 1387SOL    HW115623   3.469   0.194   8.144 -0.0141  0.3267 -0.5872
 1387SOL    HW215624   3.552   0.087   8.087  0.6186  0.5144  0.3621
 1388SOL     OW15625   1.905   4.553   2.778  0.1183  0.8635  0.6889
 1388SOL    HW115626   1.988   4.518   2.809 -0.6146  0.3636  2.0835
 1388SOL    HW215627   1.876   4.589   2.862 -2.9181 -1.7795  0.7456
 1389SOL     OW15628   2.778   1.159  10.638  0.3095  0.1679  1.0525
 1389SOL    HW115629   2.856   1.177  10.690  2.0325 -0.5975 -1.2738
 1389SOL    HW215630   2.763   1.242  10.593  0.5262 -0.4594 -0.1653
 1390SOL     OW15631   1.797   2.169   8.873 -0.2937  0.7944 -0.4052
 1390SOL    HW115632   1.852   2.169   8.952 -0.8475 -1.4409 -0.0237
 1390SOL    HW215633   1.727   2.112   8.903  0.3942 -0.2927 -0.8849
 1391SOL     OW15634   1.387   4.337   6.851 -0.4017  0.0164  0.0088
 1391SOL    HW115635   1.340   4.255   6.864 -0.2806  0.4896  3.3239
 1391SOL    HW215636   1.320   4.390   6.809 -0.6481 -1.1898 -1.1259
 1392SOL     OW15637   3.961   1.132  12.726 -0.0463  0.0872  0.5692
 1392SOL    HW115638   3.875   1.167  12.707  0.5031  1.6590  1.0270
 1392SOL    HW215639   3.948   1.039  12.746  1.4205 -0.7459 -2.3312
 1393SOL     OW15640   3.124   1.863  15.744 -0.0531  0.3812 -0.4112
 1393SOL    HW115641   3.120   1.768  15.756 -1.3699  0.3998 -0.7447
 1393SOL    HW215642   3.034   1.895  15.745 -0.9229 -1.9825 -1.0523
 1394SOL     OW15643   2.161   3.623   8.673 -0.3339  0.5496  1.1724
 1394SOL    HW115644   2.158   3.535   8.709 -0.2515  0.9601  2.1942
 1394SOL    HW215645   2.194   3.675   8.747  0.8572 -1.3786  1.9938
 1395SOL     OW15646   0.238   1.050   4.908  0.8207 -0.2712 -0.4787
 1395SOL    HW115647   0.258   0.980   4.970  0.3698  1.2785  1.4204
 1395SOL    HW215648   0.202   0.989   4.845  0.6299 -0.5596 -0.0933
 1396SOL     OW15649   3.935   0.371  11.268 -0.2026 -0.0671 -0.3276
 1396SOL    HW115650   4.011   0.325  11.233 -0.4737 -1.5175  0.9848
 1396SOL    HW215651   3.905   0.404  11.184 -2.6438 -1.5076 -0.0440
 1397SOL     OW15652   1.783   1.104   9.601  0.5282  0.4124  0.3422
 1397SOL    HW115653   1.721   1.133   9.534  0.7610  1.6740  0.6615
 1397SOL    HW215654   1.860   1.148   9.564  1.2741 -1.2559 -0.0873
 1398SOL     OW15655   1.207   2.182   2.396 -0.0810 -0.3893 -0.1857
 1398SOL    HW115656   1.236   2.273   2.397 -1.8970  0.1599  1.4433
 1398SOL    HW215657   1.207   2.156   2.488  0.3851 -1.7886 -0.5691
 1399SOL     OW15658   3.355   3.398   5.719 -0.3851 -0.0580 -0.3183
 1399SOL    HW115659   3.281   3.365   5.770 -1.7624  1.2695 -1.4383
 1399SOL    HW215660   3.419   3.338   5.755 -1.8469 -0.9837  0.7392
 1400SOL     OW15661   2.860   2.591   2.739 -0.0932 -0.2760  0.6681
 1400SOL    HW115662   2.920   2.591   2.813  0.8791 -0.5951 -0.1244
 1400SOL    HW215663   2.800   2.519   2.760  0.3357 -1.0948 -0.9009
 1401SOL     OW15664   2.416   0.581   5.701 -0.6297  0.0050  0.1670
 1401SOL    HW115665   2.335   0.621   5.733 -0.9648 -0.0657 -0.5657
 1401SOL    HW215666   2.449   0.546   5.783 -0.8365 -1.5957 -0.4306
 1402SOL     OW15667   2.272   2.836   7.483 -0.2561  0.1563 -0.3895
 1402SOL    HW115668   2.246   2.745   7.466 -1.8017 -0.2286  4.1798
 1402SOL    HW215669   2.301   2.852   7.393 -1.6233  1.2161 -0.6347
 1403SOL     OW15670   3.869   4.575   8.266 -0.2320  0.0081 -0.3236
 1403SOL    HW115671   3.878   4.535   8.352  2.3836  0.7098 -0.2601
 1403SOL    HW215672   3.956   4.613   8.253 -0.1146 -0.5694 -1.2412
 1404SOL     OW15673   1.942   0.817  10.561 -0.3297  0.0477 -0.8113
 1404SOL    HW115674   1.875   0.790  10.498 -1.0370  0.3063 -0.1781
 1404SOL    HW215675   2.023   0.779  10.527  0.2573  1.3371 -0.8535
 1405SOL     OW15676   4.686   3.371   9.805 -0.2491 -0.0629 -0.0766
 1405SOL    HW115677   4.654   3.456   9.774  2.5517  0.1179 -2.4549
 1405SOL    HW215678   4.641   3.309   9.748  1.5594 -0.8581 -0.6388
 1406SOL     OW15679   3.835   1.246   2.963 -0.9572 -0.0569 -0.0568
 1406SOL    HW115680   3.796   1.166   2.999 -2.1513  2.3006  3.8111
 1406SOL    HW215681   3.755   1.294   2.944 -0.2148 -0.1779 -3.5689
 1407SOL     OW15682   1.348   3.493  16.815  0.4763  0.5711  0.3099
 1407SOL    HW115683   1.350   3.536  16.729  1.8402 -0.5846 -0.2361
 1407SOL    HW215684   1.309   3.565  16.864  1.6589  1.1145  0.4325
 1408SOL     OW15685   3.959   0.982   1.098  0.5360  0.0760 -0.0114
 1408SOL    HW115686   3.917   0.965   1.013 -0.0040 -0.6419  0.3989
 1408SOL    HW215687   3.888   0.959   1.158  1.8066 -0.3504  1.3149
 1409SOL     OW15688   3.745   0.240   4.186  0.0085 -0.3541 -0.5665
 1409SOL    HW115689   3.680   0.303   4.216 -2.0712 -1.3663 -2.9347
 1409SOL    HW215690   3.765   0.279   4.101 -0.0466  0.4058 -0.2315
 1410SOL     OW15691   0.355   4.618   1.753  0.1557  0.0309  0.4649
 1410SOL    HW115692   0.440   4.605   1.795  0.2244 -0.2466  0.2350
 1410SOL    HW215693   0.366   4.712   1.737  0.0586  0.1360  1.0067
 1411SOL     OW15694   3.966   1.442   6.968 -0.7101 -0.1025  0.0187
 1411SOL    HW115695   3.965   1.405   7.056 -1.4004 -1.9205 -0.7632
 1411SOL    HW215696   3.990   1.532   6.992 -1.9993  0.0075  0.8653
 1412SOL     OW15697   4.334   2.976  10.379  0.2588 -0.0212 -0.3126
 1412SOL    HW115698   4.320   3.050  10.438 -0.6251 -1.4911  1.3239
 1412SOL    HW215699   4.430   2.974  10.375  0.3533  1.7897  1.4298
 1413SOL     OW15700   0.758   3.933   5.436 -0.4390  0.0271  0.2283
 1413SOL    HW115701   0.810   3.856   5.459 -2.6865 -1.3655  0.6341
 1413SOL    HW215702   0.714   3.956   5.518 -1.3786  2.4156 -0.9584
 1414SOL     OW15703   3.175   4.695   4.082  0.0990  0.0870  0.5031
 1414SOL    HW115704   3.098   0.005   4.034 -1.2215 -0.5746  2.2094
 1414SOL    HW215705   3.251   0.014   4.040 -0.7556  0.1474 -1.0047
 1415SOL     OW15706   2.769   0.189  11.596  0.0531  1.0905 -0.7877
 1415SOL    HW115707   2.822   0.268  11.599  0.5755  0.7243 -0.2321
 1415SOL    HW215708   2.813   0.131  11.658 -0.0133  2.0365  0.1481
 1416SOL     OW15709   1.498   1.244   9.314  0.1883 -0.4253 -0.0049
 1416SOL    HW115710   1.429   1.248   9.248 -0.5835 -2.0486  0.6930
 1416SOL    HW215711   1.452   1.269   9.394  1.2827 -1.0092  0.8036
 1417SOL     OW15712   0.894   0.156  16.605  0.3083  0.3965 -0.2260
 1417SOL    HW115713   0.841   0.204  16.542  0.9397  0.7002 -0.5191
 1417SOL    HW215714   0.867   0.069  16.575 -0.4049  0.3823  0.4437
 1418SOL     OW15715   4.489   2.878  14.800  0.3532  0.4167  0.3070
 1418SOL    HW115716   4.430   2.819  14.846  0.0979  1.2393  1.0214
 1418SOL    HW215717   4.565   2.828  14.768 -1.7368 -2.1480 -0.6506
 1419SOL     OW15718   3.856   2.211   0.208 -0.2458  0.2895 -0.2623
 1419SOL    HW115719   3.834   2.236   0.118 -1.7881  1.1535  0.3617
 1419SOL    HW215720   3.896   2.127   0.187 -0.5791 -0.3443  1.7311
 1420SOL     OW15721   0.527   4.308   4.665 -0.7769  0.2074  0.1289
 1420SOL    HW115722   0.564   4.239   4.611  0.0588  0.5100  0.3133
 1420SOL    HW215723   0.484   4.357   4.595 -0.6239 -1.7417 -1.3083
 1421SOL     OW15724   1.550   2.721   3.640  0.4998 -0.6162 -0.0581
 1421SOL    HW115725   1.607   2.645   3.649  0.3312 -0.6983  0.3199
 1421SOL    HW215726   1.596   2.771   3.573 -0.3812  0.3470  0.0572
 1422SOL     OW15727   2.600   1.418  11.956  0.1459  0.2608 -0.7959
 1422SOL    HW115728   2.519   1.369  11.967  0.6223 -0.3052  0.1737
 1422SOL    HW215729   2.555   1.500  11.978  0.7416  0.6343 -0.9577
 1423SOL     OW15730   1.436   4.564   5.717 -0.3236 -0.4238  0.4709
 1423SOL    HW115731   1.401   4.482   5.683 -0.1965  0.2609 -1.3412
 1423SOL    HW215732   1.381   4.632   5.678  0.7592  0.6579  0.8280
 1424SOL     OW15733   3.907   2.897   4.625  0.2028  0.3844  0.2903
 1424SOL    HW115734   3.887   2.937   4.540 -1.5702  0.3144  0.6630
 1424SOL    HW215735   3.882   2.809   4.597  0.9020  0.2437  0.1279
 1425SOL     OW15736   0.016   1.537   8.392  0.0392  0.5605  0.6710
 1425SOL    HW115737   4.660   1.505   8.347  0.6242  1.0711 -0.7293
 1425SOL    HW215738   0.076   1.466   8.411 -1.0317 -0.4897  0.1846
 1426SOL     OW15739   0.452   1.007  16.390  0.5230  0.2977  0.4007
 1426SOL    HW115740   0.523   1.064  16.360  1.1162 -0.7592 -0.2267
 1426SOL    HW215741   0.492   0.970  16.469  0.7844 -1.7744 -0.6963
 1427SOL     OW15742   2.870   0.589   3.975 -0.3784  0.3039 -0.0168
 1427SOL    HW115743   2.841   0.529   4.043 -0.6437 -0.0720 -0.4547
 1427SOL    HW215744   2.903   0.523   3.914  0.0003  0.8426 -0.3947
 1428SOL     OW15745   3.693   4.269   1.359 -0.2642  0.1446  0.0495
 1428SOL    HW115746   3.754   4.246   1.289  0.9668 -2.3720  1.9529
 1428SOL    HW215747   3.702   4.364   1.361 -0.6355  0.2259 -1.7758
 1429SOL     OW15748   0.446   1.379   2.591  0.4247 -0.0081  0.0635
 1429SOL    HW115749   0.403   1.458   2.556 -2.0234  0.5428  4.1946
 1429SOL    HW215750   0.482   1.430   2.664  0.6206 -1.1586  0.7680
 1430SOL     OW15751   2.624   1.646  16.354  0.2806 -0.2076  0.1286
 1430SOL    HW115752   2.656   1.655  16.264  2.8195 -1.8217  0.8818
 1430SOL    HW215753   2.631   1.734  16.390 -0.9078  0.0584 -0.2883
 1431SOL     OW15754   3.168   2.788  12.443  0.1936  0.3954  0.1948
 1431SOL    HW115755   3.230   2.715  12.436 -1.2005 -0.5310 -2.6609
 1431SOL    HW215756   3.202   2.847  12.375  0.0350  0.9637  0.6082
 1432SOL     OW15757   1.572   2.663   1.131 -0.1616 -0.1031  0.5443
 1432SOL    HW115758   1.663   2.666   1.160  0.0514 -1.9058  0.0291
 1432SOL    HW215759   1.557   2.569   1.121  0.8812 -0.0593 -1.4900
 1433SOL     OW15760   1.494   2.607   4.311  0.3377 -0.1458  0.3292
 1433SOL    HW115761   1.587   2.603   4.285 -0.1096  0.0962 -1.3111
 1433SOL    HW215762   1.491   2.530   4.369 -0.8078  0.4330  1.0174
 1434SOL     OW15763   4.227   4.649   0.078  0.0316  0.3916 -0.3667
 1434SOL    HW115764   4.248   4.710   0.007  0.3903  1.9399  1.0466
 1434SOL    HW215765   4.271   4.700   0.146 -1.7566 -0.7609  1.6731
 1435SOL     OW15766   4.509   4.226   6.740 -0.3031  0.0754  0.4894
 1435SOL    HW115767   4.493   4.306   6.690 -0.9512 -0.9083 -0.8555
 1435SOL    HW215768   4.569   4.174   6.687  0.8153  1.3752  0.4527
 1436SOL     OW15769   3.830   2.831   3.993 -0.0760 -0.2503  0.1589
 1436SOL    HW115770   3.847   2.742   3.962 -2.6619 -0.9021  0.6436
 1436SOL    HW215771   3.750   2.841   4.045 -0.0813  0.6758 -0.0261
 1437SOL     OW15772   1.699   1.800   5.278  0.5903 -0.3699 -0.3747
 1437SOL    HW115773   1.683   1.801   5.373 -1.6531  1.4294 -0.7653
 1437SOL    HW215774   1.762   1.729   5.265  0.6608 -0.2074 -0.9120
 1438SOL     OW15775   0.091   2.377   1.986 -0.5644  0.2806 -0.4168
 1438SOL    HW115776   0.016   2.415   1.941 -0.9772  1.5100  1.3067
 1438SOL    HW215777   0.100   2.301   1.929 -0.1933  2.1793 -2.8847
 1439SOL     OW15778   3.865   0.154   7.274 -0.4415 -0.1145  0.1068
 1439SOL    HW115779   3.957   0.180   7.279 -0.6051  0.4519  0.1436
 1439SOL    HW215780   3.848   0.128   7.183 -0.0329  1.5304 -0.4440
 1440SOL     OW15781   0.228   3.568   7.235 -0.7797  0.3245  0.4510
 1440SOL    HW115782   0.169   3.502   7.200  0.6035 -0.2823 -0.7258
 1440SOL    HW215783   0.189   3.649   7.203 -0.7329  0.4309  0.6586
 1441SOL     OW15784   2.797   0.637   6.568 -0.1000  0.1609 -0.3749
 1441SOL    HW115785   2.713   0.590   6.568  0.3671 -0.6858  1.2066
 1441SOL    HW215786   2.836   0.612   6.484  2.0365 -1.0981  1.0189
 1442SOL     OW15787   0.192   3.112   0.903 -0.0021  0.4793 -0.7481
 1442SOL    HW115788   0.179   3.166   0.981 -0.4227  0.8995 -1.1070
 1442SOL    HW215789   0.106   3.108   0.861 -0.5774 -1.3673  0.5875
 1443SOL     OW15790   3.794   3.346  10.115 -0.2918  0.6823 -0.7886
 1443SOL    HW115791   3.704   3.348  10.082 -0.7751 -0.2826  0.4627
 1443SOL    HW215792   3.786   3.431  10.158  0.2323  0.6348 -0.6011
 1444SOL     OW15793   2.967   2.673   3.519 -0.5164  0.5654 -0.1517
 1444SOL    HW115794   3.027   2.737   3.482  2.2481 -1.5435  0.6492
 1444SOL    HW215795   2.970   2.601   3.457  2.7412  0.4500  0.1531
 1445SOL     OW15796   3.580   1.711  10.438 -0.0006 -0.0088 -0.0263
 1445SOL    HW115797   3.523   1.657  10.492 -1.6024  2.4219  0.7497
 1445SOL    HW215798   3.517   1.729  10.369 -0.5555  0.2705  0.5494
 1446SOL     OW15799   3.573   4.293   8.559  0.3327  0.3340  0.0653
 1446SOL    HW115800   3.504   4.275   8.623  0.3634 -0.7282 -0.1947
 1446SOL    HW215801   3.652   4.286   8.612  1.2872  1.4421 -1.2212
 1447SOL     OW15802   0.116   0.855   1.791  0.0916 -0.2886  0.1148
 1447SOL    HW115803   0.074   0.928   1.745 -0.8136  0.0920  1.5152
 1447SOL    HW215804   0.206   0.886   1.798  0.5993 -1.7200 -0.1329
 1448SOL     OW15805   0.657   0.882  10.265 -0.4429 -0.1390  0.0934
 1448SOL    HW115806   0.748   0.866  10.241 -0.5015  0.0415 -0.2542
 1448SOL    HW215807   0.613   0.872  10.180  0.1736 -0.5077 -0.1816
 1449SOL     OW15808   0.177   4.375   8.163  0.9262 -0.4186  0.2118
 1449SOL    HW115809   0.089   4.354   8.195  0.8239 -2.7509 -1.5792
 1449SOL    HW215810   0.229   4.399   8.240  0.4553  2.9571 -0.5396
 1450SOL     OW15811   3.313   2.256  12.053 -0.0153  0.1494  0.2982
 1450SOL    HW115812   3.242   2.280  11.993  0.8817 -0.8350 -1.1410
 1450SOL    HW215813   3.319   2.161  12.055  0.9889  0.2116  0.1367
 1451SOL     OW15814   4.305   3.061   4.396 -0.7159 -0.1391  0.4501
 1451SOL    HW115815   4.367   3.002   4.353 -0.6755  0.5581 -0.4485
 1451SOL    HW215816   4.333   3.059   4.487  1.1415  2.2586 -0.0895
 1452SOL     OW15817   1.197   0.179  16.638  0.5533 -0.3175  0.0975
 1452SOL    HW115818   1.127   0.179  16.573  1.0105 -2.9670 -0.4216
 1452SOL    HW215819   1.153   0.233  16.704  0.8219 -2.0596  1.7105
 1453SOL     OW15820   3.684   1.041   3.822 -0.0803 -0.4953  0.5358
 1453SOL    HW115821   3.752   1.004   3.878  1.7495  3.5417  0.9178
 1453SOL    HW215822   3.727   1.076   3.744 -0.1777 -1.7157 -0.0817
 1454SOL     OW15823   4.443   1.026   8.220 -0.3121  0.0537 -0.5667
 1454SOL    HW115824   4.391   0.970   8.278 -1.2810 -0.4250 -1.9033
 1454SOL    HW215825   4.428   0.981   8.137 -0.4767 -2.9426  1.1113
 1455SOL     OW15826   1.678   0.698   8.132  0.4665  0.1574 -0.0326
 1455SOL    HW115827   1.674   0.791   8.107 -1.5291  0.4750  1.5113
 1455SOL    HW215828   1.681   0.670   8.040 -1.3413 -1.9422  0.5799
 1456SOL     OW15829   0.236   3.422  14.871 -0.1135  0.6745  0.1425
 1456SOL    HW115830   0.202   3.502  14.911  1.2631  2.3204 -2.0461
 1456SOL    HW215831   0.276   3.369  14.940 -0.2979 -0.7425 -0.8270
 1457SOL     OW15832   2.094   4.658   4.557  0.6374 -0.0715 -0.8957
 1457SOL    HW115833   2.024   4.703   4.509  0.5562 -0.4640 -1.1469
 1457SOL    HW215834   2.159   4.649   4.488  2.9273 -0.8188  1.3880
 1458SOL     OW15835   3.055   3.437   2.686 -0.5482  0.4746  0.3845
 1458SOL    HW115836   3.111   3.361   2.669 -0.9354  0.0536  0.9700
 1458SOL    HW215837   2.980   3.417   2.630  0.7696  2.5006 -2.0946
 1459SOL     OW15838   0.758   1.997   2.739 -0.6018  0.5537 -0.4122
 1459SOL    HW115839   0.735   1.990   2.646  2.4943 -1.2279 -1.0710
 1459SOL    HW215840   0.854   1.996   2.743 -0.6048  0.5074 -0.3584
 1460SOL     OW15841   2.153   3.279   0.969 -0.6948  0.4140 -0.2712
 1460SOL    HW115842   2.167   3.370   0.993  0.9283 -0.0351  0.4916
 1460SOL    HW215843   2.192   3.237   1.046 -2.6585  0.1121  0.5503
 1461SOL     OW15844   2.350   1.506   0.599 -0.4088  0.0858  0.4190
 1461SOL    HW115845   2.270   1.453   0.591 -1.6779  2.2669 -1.3958
 1461SOL    HW215846   2.416   1.438   0.605 -1.8972 -1.3163  1.1567
 1462SOL     OW15847   0.516   2.201   8.337 -0.4392  0.1296  0.3620
 1462SOL    HW115848   0.519   2.269   8.270 -0.5793  1.4965  1.7140
 1462SOL    HW215849   0.598   2.157   8.315  1.0595  1.9511  2.2871
 1463SOL     OW15850   1.880   4.033   2.843  0.5476 -0.1382  0.6175
 1463SOL    HW115851   1.829   3.979   2.904 -1.6564 -0.0024 -1.1043
 1463SOL    HW215852   1.857   4.119   2.880 -1.5320 -0.2318 -0.4434
 1464SOL     OW15853   0.655   4.255   8.322 -0.0091  0.5707  0.5398
 1464SOL    HW115854   0.698   4.328   8.278  0.8704  0.2401  0.8551
 1464SOL    HW215855   0.726   4.196   8.346 -2.0736 -2.3211 -0.4676
 1465SOL     OW15856   1.721   2.700   6.766  0.3944  0.5971 -0.4512
 1465SOL    HW115857   1.662   2.760   6.722 -1.8410  0.0069  1.7515
 1465SOL    HW215858   1.737   2.625   6.708 -0.7310 -0.6924  0.9054
 1466SOL     OW15859   1.431   3.515  12.440 -0.0138 -0.1766 -0.1553
 1466SOL    HW115860   1.466   3.429  12.463  2.3441  1.2739  1.6871
 1466SOL    HW215861   1.340   3.497  12.417 -0.6281 -0.7780  2.8435
 1467SOL     OW15862   2.042   4.139   6.260  0.6581 -0.0247  0.0997
 1467SOL    HW115863   1.951   4.165   6.243  0.6282  0.3062  0.7856
 1467SOL    HW215864   2.035   4.150   6.354 -0.0075  0.8655 -0.0513
 1468SOL     OW15865   1.255   3.257   4.045  0.3271  0.3573 -0.7319
 1468SOL    HW115866   1.180   3.234   3.990 -0.0676 -0.9339  0.3274
 1468SOL    HW215867   1.201   3.278   4.121  1.2219 -0.5432  0.1713
 1469SOL     OW15868   0.263   0.664   0.707 -0.2957  0.3013 -0.4507
 1469SOL    HW115869   0.200   0.595   0.727 -0.8251  0.5945 -1.0781
 1469SOL    HW215870   0.336   0.654   0.767 -0.4938  0.4109 -0.1908
 1470SOL     OW15871   1.642   1.766   1.326  0.4479  0.1699 -0.1465
 1470SOL    HW115872   1.634   1.778   1.231 -0.8308 -0.9105 -0.1815
 1470SOL    HW215873   1.554   1.739   1.351  0.9393 -0.9532  0.3647
 1471SOL     OW15874   0.132   3.691   8.219  0.3573 -0.2144  0.5316
 1471SOL    HW115875   0.073   3.744   8.166 -0.6264 -1.5752  0.2546
 1471SOL    HW215876   0.147   3.750   8.292 -0.1617  0.5582  0.0173
 1472SOL     OW15877   2.634   3.614   7.777  0.4868  0.2720  0.6333
 1472SOL    HW115878   2.657   3.529   7.742 -2.7598 -1.2722  2.2408
 1472SOL    HW215879   2.722   3.647   7.796  0.5510 -2.3547  4.8787
 1473SOL     OW15880   0.725   4.633   8.188  0.7265  0.4487  0.6590
 1473SOL    HW115881   0.814   4.661   8.206  0.4533  0.2542  2.3619
 1473SOL    HW215882   0.756   4.552   8.149  0.8333  0.6375  0.3562
 1474SOL     OW15883   3.035   2.914  15.881 -0.4233  0.1674  0.5180
 1474SOL    HW115884   3.095   2.979  15.918 -0.1844 -0.0894  0.5848
 1474SOL    HW215885   2.961   2.967  15.851  0.4521  0.4650 -1.1772
 1475SOL     OW15886   4.362   2.315   8.055  0.3314 -0.4660 -0.3137
 1475SOL    HW115887   4.295   2.322   8.123  1.9655  1.1379  1.1210
 1475SOL    HW215888   4.312   2.288   7.978 -0.2832  1.3787 -0.5564
 1476SOL     OW15889   1.418   3.801  12.447 -0.6460 -0.0579 -0.4653
 1476SOL    HW115890   1.496   3.839  12.488  0.5169 -1.4506 -1.3931
 1476SOL    HW215891   1.446   3.710  12.439 -0.4718  0.1632 -2.4103
 1477SOL     OW15892   4.291   3.031   9.771  0.5848  0.3955 -0.1792
 1477SOL    HW115893   4.303   2.952   9.823 -4.4293 -0.8855 -1.0105
 1477SOL    HW215894   4.296   3.091   9.846  0.2774 -0.3684  0.4436
 1478SOL     OW15895   0.696   0.328   7.063  0.3902 -0.0319  0.0585
 1478SOL    HW115896   0.744   0.408   7.086  0.4024  0.3614 -1.2924
 1478SOL    HW215897   0.689   0.294   7.152 -0.6299 -1.8059 -0.7071
 1479SOL     OW15898   3.558   3.721   1.671  0.0334  0.0280 -0.5168
 1479SOL    HW115899   3.650   3.700   1.656  0.4508 -0.5527  2.9385
 1479SOL    HW215900   3.561   3.817   1.668 -1.7601  0.0846 -0.6503
 1480SOL     OW15901   0.763   1.207   7.565 -0.7351 -0.3496 -0.1119
 1480SOL    HW115902   0.837   1.172   7.615  0.1695  0.6132 -0.7765
 1480SOL    HW215903   0.705   1.131   7.562 -0.6758 -0.3156 -2.1009
 1481SOL     OW15904   1.912   3.972   4.587 -0.1656 -0.5135 -0.1268
 1481SOL    HW115905   1.856   3.911   4.635  0.1066  0.5482  1.5765
 1481SOL    HW215906   1.931   3.917   4.512  1.8321 -0.0844  0.0411
 1482SOL     OW15907   0.687   3.757   8.488 -0.7185  0.1350 -0.1092
 1482SOL    HW115908   0.775   3.733   8.459 -1.4359  0.7097 -2.7828
 1482SOL    HW215909   0.695   3.853   8.484  1.5070  0.1312  4.0111
 1483SOL     OW15910   2.274   1.851   0.234  0.3208 -0.0158 -0.4068
 1483SOL    HW115911   2.195   1.895   0.266 -0.6233 -1.9020 -0.0848
 1483SOL    HW215912   2.321   1.845   0.317 -1.9508 -0.3374  0.8619
 1484SOL     OW15913   2.893   2.031   7.326 -0.4366  0.3012 -0.0375
 1484SOL    HW115914   2.952   1.981   7.270 -1.0768 -1.2024  0.6136
 1484SOL    HW215915   2.819   2.035   7.265 -0.0647 -1.1731 -0.5946
 1485SOL     OW15916   4.214   1.115   7.457  0.1267 -0.0659 -0.1351
 1485SOL    HW115917   4.266   1.036   7.444  0.5069 -0.0895  1.5346
 1485SOL    HW215918   4.254   1.180   7.399 -1.1770 -0.4226 -1.4375
 1486SOL     OW15919   3.591   2.558   4.129 -0.6588 -0.1965 -0.7119
 1486SOL    HW115920   3.591   2.464   4.115  1.8327 -0.6783  2.4213
 1486SOL    HW215921   3.579   2.598   4.043 -1.5012 -0.3720 -0.6731
 1487SOL     OW15922   0.149   3.179   2.910 -0.9657  0.4885  0.0429
 1487SOL    HW115923   0.111   3.114   2.968 -1.1218 -0.2120 -0.8452
 1487SOL    HW215924   0.089   3.172   2.836  2.0199 -0.1471 -2.3153
 1488SOL     OW15925   1.762   2.211   8.270 -0.3658 -1.0197 -0.2200
 1488SOL    HW115926   1.807   2.282   8.314 -1.9273 -0.0207 -0.2513
 1488SOL    HW215927   1.671   2.232   8.287 -0.4484 -0.0843 -1.8327
 1489SOL     OW15928   2.580   2.653   2.091 -0.1479  0.0924  0.6422
 1489SOL    HW115929   2.624   2.716   2.148  0.6415 -2.8620  3.2930
 1489SOL    HW215930   2.649   2.636   2.027 -1.2882  2.4241 -1.2333
 1490SOL     OW15931   2.737   3.095   1.051  0.5567 -0.4854 -0.1946
 1490SOL    HW115932   2.707   3.182   1.027 -1.1680 -1.8041 -2.7654
 1490SOL    HW215933   2.817   3.123   1.096  1.2047 -1.2142 -0.8844
 1491SOL     OW15934   3.316   1.878  15.536  0.2293 -0.7622  0.5005
 1491SOL    HW115935   3.381   1.944  15.560 -0.1439  0.4596 -1.8593
 1491SOL    HW215936   3.283   1.855  15.623 -2.8022 -0.6929 -0.6355
 1492SOL     OW15937   3.630   4.447   8.918  0.2978 -0.1754 -0.1769
 1492SOL    HW115938   3.657   4.452   9.010  0.1479 -2.8789  0.0041
 1492SOL    HW215939   3.542   4.479   8.936  0.8126  1.7392 -1.0494
 1493SOL     OW15940   0.165   1.229   2.368  0.1746 -0.3481  0.2205
 1493SOL    HW115941   0.241   1.180   2.336  1.1246 -0.2820  2.3837
 1493SOL    HW215942   0.197   1.318   2.357 -2.1444  0.3796 -0.5814
 1494SOL     OW15943   4.040   3.062   4.987 -0.1930 -0.2042  0.4682
 1494SOL    HW115944   3.974   3.067   4.918  0.1360 -2.9503 -0.0633
 1494SOL    HW215945   4.087   3.143   4.970 -1.1669 -0.2610 -2.5194
 1495SOL     OW15946   0.090   2.881   2.318  0.1506 -0.3019  0.0702
 1495SOL    HW115947   0.110   2.790   2.298 -0.1432 -0.5147  0.7550
 1495SOL    HW215948   0.177   2.915   2.339 -0.3044  1.5872 -1.0005
 1496SOL     OW15949   0.485   0.462   5.637 -0.1167 -0.5593  0.2086
 1496SOL    HW115950   0.481   0.499   5.725 -0.5461  0.9054 -0.4282
 1496SOL    HW215951   0.406   0.408   5.632 -2.1318  2.4698 -0.9706
 1497SOL     OW15952   4.464   1.863   4.115 -0.0064  0.5785  0.3579
 1497SOL    HW115953   4.553   1.875   4.080  0.3517 -1.2700  0.6525
 1497SOL    HW215954   4.477   1.790   4.176  0.8097  1.9374  1.8020
 1498SOL     OW15955   2.435   0.535   4.043 -0.1016  0.2796  0.1278
 1498SOL    HW115956   2.488   0.462   4.012  2.0629  3.0899 -2.8865
 1498SOL    HW215957   2.449   0.603   3.976  0.1151  0.9270  0.8291
 1499SOL     OW15958   1.737   3.819   9.410  0.0320 -0.0300  0.1001
 1499SOL    HW115959   1.776   3.757   9.471 -0.3135  0.6099  0.9601
 1499SOL    HW215960   1.767   3.902   9.447  2.7895  0.0172 -2.2610
 1500SOL     OW15961   0.275   1.066   6.694 -0.1366 -0.0280  0.7695
 1500SOL    HW115962   0.247   1.157   6.693 -0.9187 -0.2677  1.9426
 1500SOL    HW215963   0.308   1.060   6.604  1.0192 -2.2911  1.3378
 1501SOL     OW15964   1.130   1.141   9.082  0.0796 -0.1236  0.5157
 1501SOL    HW115965   1.197   1.209   9.087  0.0581  0.0295 -1.5156
 1501SOL    HW215966   1.056   1.176   9.032 -0.0846 -0.8630  0.2477
 1502SOL     OW15967   1.100   3.662  15.616 -0.4422  0.1208 -0.1722
 1502SOL    HW115968   1.053   3.639  15.536  0.4584 -1.0583 -0.3663
 1502SOL    HW215969   1.031   3.631  15.674 -0.8548 -1.8918 -1.7363
 1503SOL     OW15970   4.261   1.862   3.489 -0.5786 -0.3635  0.0802
 1503SOL    HW115971   4.340   1.833   3.535 -0.1687  0.0173 -0.3802
 1503SOL    HW215972   4.275   1.832   3.399  1.1947 -1.0589  0.6018
 1504SOL     OW15973   3.033   4.393   7.778 -0.4648 -0.1709 -0.1153
 1504SOL    HW115974   3.116   4.434   7.801 -0.8280 -1.1764  3.0179
 1504SOL    HW215975   3.071   4.305   7.775 -1.7699 -0.6854 -1.2893
 1505SOL     OW15976   4.614   3.568   3.439  0.2214  0.1857 -0.1587
 1505SOL    HW115977   4.566   3.485   3.438  0.3546  0.1106 -0.8437
 1505SOL    HW215978   4.578   3.605   3.519 -0.1255  1.8524 -1.0844
 1506SOL     OW15979   0.611   2.363  11.359  0.1255  0.0797  0.3799
 1506SOL    HW115980   0.689   2.388  11.408  1.2128  0.1989 -1.4133
 1506SOL    HW215981   0.547   2.429  11.386 -0.4028 -0.7078  1.0557
 1507SOL     OW15982   2.790   1.452  14.865  0.2377  0.1355 -0.6457
 1507SOL    HW115983   2.786   1.500  14.783  0.1470  0.2373 -0.5823
 1507SOL    HW215984   2.826   1.514  14.930 -0.6516 -0.0703  0.0477
 1508SOL     OW15985   3.753   3.845  12.941  0.7112  0.2120 -0.5101
 1508SOL    HW115986   3.673   3.802  12.910 -0.1786 -1.4121  3.9967
 1508SOL    HW215987   3.715   3.932  12.952  2.2287  1.1401 -2.6025
 1509SOL     OW15988   1.182   0.799   4.160 -0.6615 -0.1497 -0.2091
 1509SOL    HW115989   1.265   0.845   4.171 -0.7910 -0.4729  2.1113
 1509SOL    HW215990   1.164   0.835   4.073  0.3768  1.0482  0.0798
 1510SOL     OW15991   4.114   1.160   2.245 -0.6530 -0.0872  0.2211
 1510SOL    HW115992   4.114   1.235   2.304  0.1110  2.0669 -2.5328
 1510SOL    HW215993   4.207   1.155   2.221 -0.1154  1.2182  2.0335
 1511SOL     OW15994   4.611   2.673   7.338 -0.0962  0.7391 -0.3565
 1511SOL    HW115995   4.654   2.693   7.421 -1.1420  0.4318  0.2661
 1511SOL    HW215996   4.667   2.597   7.323  0.7305  1.8950 -3.1778
 1512SOL     OW15997   1.966   3.645   0.748  0.2497  0.1537  0.4621
 1512SOL    HW115998   2.044   3.594   0.726  1.4558  1.6393  1.2994
 1512SOL    HW215999   2.002   3.675   0.832  0.7957  1.4736 -0.2455
 1513SOL     OW16000   3.413   1.269   4.210 -0.1229  0.0848 -0.2569
 1513SOL    HW116001   3.322   1.295   4.192 -0.2002  0.7099  0.9605
 1513SOL    HW216002   3.465   1.295   4.134  0.0949  0.8015  0.1326
 1514SOL     OW16003   2.394   0.294  11.055 -0.4839  0.4348  0.1243
 1514SOL    HW116004   2.305   0.263  11.075 -0.5071 -0.1014 -0.8073
 1514SOL    HW216005   2.382   0.388  11.042 -0.5592  0.0668 -2.4403
 1515SOL     OW16006   4.060   1.588   6.519  0.1900  0.2514  0.2720
 1515SOL    HW116007   4.127   1.540   6.569  2.2095  2.7068 -0.0668
 1515SOL    HW216008   4.065   1.545   6.434  0.3118  0.0692  0.3692
 1516SOL     OW16009   2.956   3.231  16.148 -0.4432  0.3379 -0.3782
 1516SOL    HW116010   3.031   3.275  16.188 -1.1473  1.1590  0.0383
 1516SOL    HW216011   3.002   3.167  16.092  0.4516  1.4040 -0.8559
 1517SOL     OW16012   2.657   4.488   7.623  0.3453 -0.4398 -0.0031
 1517SOL    HW116013   2.678   4.447   7.706 -2.5675 -0.5765  0.6815
 1517SOL    HW216014   2.738   4.526   7.590 -0.1438 -0.8182 -1.6903
 1518SOL     OW16015   4.113   3.006  10.150  0.3030 -0.2802 -0.0464
 1518SOL    HW116016   4.074   2.998  10.063  0.6194  2.5563 -0.4755
 1518SOL    HW216017   4.208   3.003  10.136  0.2707  1.2006 -0.5946
 1519SOL     OW16018   2.756   1.602  14.640  0.3994 -0.6010 -0.2027
 1519SOL    HW116019   2.732   1.532  14.580  1.3809 -0.8980 -0.2572
 1519SOL    HW216020   2.668   1.637  14.655  0.1779 -1.2294 -0.0712
 1520SOL     OW16021   0.480   0.822  11.091  0.3477 -0.1642  0.1720
 1520SOL    HW116022   0.432   0.774  11.024  0.1445 -0.0433  0.2307
 1520SOL    HW216023   0.452   0.787  11.176 -1.3987 -1.1010 -0.7927
 1521SOL     OW16024   2.532   0.121  17.188 -0.3858 -0.0631  0.0354
 1521SOL    HW116025   2.599   0.145  17.252 -1.8507 -0.6033  1.7483
 1521SOL    HW216026   2.592   0.066  17.138 -0.2750 -0.2269  0.3487
 1522SOL     OW16027   3.909   2.648  10.986 -0.3040 -0.3199  0.0900
 1522SOL    HW116028   3.825   2.621  11.023  0.8834 -0.1073  2.8859
 1522SOL    HW216029   3.921   2.600  10.904  0.8724 -0.3315  0.2777
 1523SOL     OW16030   3.142   3.369   1.565  0.6030 -0.8763 -0.8941
 1523SOL    HW116031   3.139   3.336   1.654 -1.4483  1.3673 -0.1368
 1523SOL    HW216032   3.084   3.301   1.532 -0.0337 -0.2418 -1.0769
 1524SOL     OW16033   2.319   3.091   8.231  0.0514  0.2297 -0.4787
 1524SOL    HW116034   2.413   3.106   8.218  0.2132  0.1666  0.6246
 1524SOL    HW216035   2.288   3.120   8.146 -1.5390 -0.3931 -0.1111
 1525SOL     OW16036   1.516   2.102  11.717 -0.2666  0.1665  0.0037
 1525SOL    HW116037   1.439   2.065  11.674  0.0386  0.4112 -0.7446
 1525SOL    HW216038   1.551   2.029  11.769 -1.6486 -0.3773  0.1648
 1526SOL     OW16039   3.846   3.085   9.360  0.2878  0.1805  1.0172
 1526SOL    HW116040   3.921   3.088   9.420 -1.0826 -1.6101  2.8459
 1526SOL    HW216041   3.854   3.164   9.307 -0.8550  0.9211  1.9515
 1527SOL     OW16042   1.039   4.675   6.327  0.2296  0.0175 -0.4372
 1527SOL    HW116043   0.984   4.606   6.364  1.0014 -1.4789 -2.0818
 1527SOL    HW216044   1.011   4.666   6.236  1.4328  1.7578 -0.9914
 1528SOL     OW16045   1.425   0.348   2.625  0.4516  0.1355  0.3193
 1528SOL    HW116046   1.389   0.433   2.650  0.0344 -0.9934  3.6380
 1528SOL    HW216047   1.482   0.365   2.550  0.9192 -1.1369  0.3869
 1529SOL     OW16048   0.296   3.941   2.499 -0.4034  0.3448 -0.4446
 1529SOL    HW116049   0.215   3.901   2.529  1.1618 -1.5005  1.3008
 1529SOL    HW216050   0.290   3.937   2.404 -0.0581 -1.5516 -0.3783
 1530SOL     OW16051   3.645   2.485  17.076  0.2064 -0.2517  0.3443
 1530SOL    HW116052   3.576   2.522  17.022  0.1279 -1.0259 -0.0839
 1530SOL    HW216053   3.590   2.444  17.142  0.3791 -0.7330  0.1881
 1531SOL     OW16054   2.421   3.632   4.063 -0.1616 -0.6039 -0.0432
 1531SOL    HW116055   2.474   3.680   3.999  1.9622 -2.0355  0.6333
 1531SOL    HW216056   2.452   3.665   4.147 -0.9645 -0.3636  0.1540
 1532SOL     OW16057   0.609   3.905   9.213  0.4994  0.3667 -0.3282
 1532SOL    HW116058   0.696   3.865   9.218  0.3032 -0.1090 -0.8087
 1532SOL    HW216059   0.598   3.918   9.119 -0.1165 -0.1542 -0.3253
 1533SOL     OW16060   4.489   3.354  16.498 -0.6117 -0.5603 -0.4079
 1533SOL    HW116061   4.428   3.418  16.460  1.4990  0.9427 -1.2351
 1533SOL    HW216062   4.574   3.390  16.476 -1.1103  1.0466  0.2906
 1534SOL     OW16063   3.212   3.165   2.735 -0.0630  0.3430  0.0740
 1534SOL    HW116064   3.255   3.106   2.674 -2.7720 -0.5134 -0.9511
 1534SOL    HW216065   3.260   3.149   2.817  1.3691  1.7413 -0.4832
 1535SOL     OW16066   1.190   0.781   5.731 -0.1163 -0.1097  0.0578
 1535SOL    HW116067   1.157   0.825   5.809 -1.1163  1.0282 -1.0118
 1535SOL    HW216068   1.115   0.723   5.723 -0.2011  0.1041 -0.7345
 1536SOL     OW16069   3.825   0.872  13.270 -0.3055  0.6444 -0.4369
 1536SOL    HW116070   3.897   0.903  13.325  1.3920 -0.4396 -2.0300
 1536SOL    HW216071   3.874   0.869  13.188  0.6714  0.8566  0.1417
 1537SOL     OW16072   3.220   2.022   0.937  0.2225  0.4707  0.3254
 1537SOL    HW116073   3.298   1.969   0.916 -0.1945  0.8112 -2.0059
 1537SOL    HW216074   3.245   2.037   1.029 -0.6841 -1.8139  0.9385
 1538SOL     OW16075   0.625   3.492   3.391  0.2853 -0.0845 -0.1687
 1538SOL    HW116076   0.675   3.568   3.359 -0.3849  1.1943  1.7856
 1538SOL    HW216077   0.682   3.425   3.353 -0.5151 -1.0019  0.2636
 1539SOL     OW16078   4.646   4.241   8.019 -0.6874  0.1614 -0.3246
 1539SOL    HW116079   4.713   4.254   7.953 -0.1348  1.5917  0.5079
 1539SOL    HW216080   4.615   4.159   7.981 -0.5200  0.3328 -0.8231
 1540SOL     OW16081   1.246   0.983  16.143 -0.1448 -0.0273  0.3841
 1540SOL    HW116082   1.268   1.054  16.083 -0.3774 -1.6422 -1.6164
 1540SOL    HW216083   1.226   0.920  16.074  0.6816 -0.1387  0.2448
 1541SOL     OW16084   3.933   0.689   2.109 -0.2341  0.0142  0.0418
 1541SOL    HW116085   3.854   0.718   2.155 -2.0997  0.8186 -3.6609
 1541SOL    HW216086   3.933   0.756   2.041 -0.3318  0.4415  0.4635
 1542SOL     OW16087   1.953   1.742   4.019 -0.6022  0.3219 -0.0783
 1542SOL    HW116088   1.979   1.655   4.049 -1.4437 -0.5668 -1.9358
 1542SOL    HW216089   1.962   1.794   4.099  0.3459  0.5037 -0.3045
 1543SOL     OW16090   3.303   0.139  12.410 -0.4552  0.5035 -0.1350
 1543SOL    HW116091   3.355   0.175  12.482  1.5823  1.6458 -2.1978
 1543SOL    HW216092   3.359   0.066  12.383  1.5926  2.1186 -0.2595
 1544SOL     OW16093   1.810   1.718   4.714 -0.3671  0.1901  0.3132
 1544SOL    HW116094   1.824   1.631   4.751 -0.8935  0.3034  0.7740
 1544SOL    HW216095   1.751   1.697   4.641  0.4343  0.6213 -0.4606
 1545SOL     OW16096   0.143   0.462  16.158  0.4108  0.2696  0.0960
 1545SOL    HW116097   0.118   0.405  16.230  2.2468 -0.4497  0.1679
 1545SOL    HW216098   0.238   0.468  16.162  0.3529  1.0057  0.3229
 1546SOL     OW16099   1.690   1.032   2.234 -0.3489  0.1988  0.4666
 1546SOL    HW116100   1.688   1.120   2.271  1.1563 -0.2171  1.5584
 1546SOL    HW216101   1.650   0.974   2.299  1.0105 -1.0898  0.1507
 1547SOL     OW16102   1.078   2.453  13.786  0.1872  0.0016 -0.1583
 1547SOL    HW116103   1.109   2.519  13.847  0.5194 -0.4192  0.1206
 1547SOL    HW216104   1.150   2.390  13.793 -1.1376 -1.8001 -2.4914
 1548SOL     OW16105   4.174   4.061   3.689  0.8841 -0.6034  0.4563
 1548SOL    HW116106   4.166   4.125   3.760 -0.7099 -0.8599  0.5001
 1548SOL    HW216107   4.122   4.105   3.622 -1.8617 -3.2523  0.8373
 1549SOL     OW16108   0.598   0.254  11.594 -0.0579 -0.3094 -0.0483
 1549SOL    HW116109   0.545   0.284  11.668 -0.2799 -2.5501  0.7028
 1549SOL    HW216110   0.646   0.334  11.574  0.4601 -0.3393  1.0560
 1550SOL     OW16111   1.829   3.934  15.183 -0.7236  0.3881 -1.0395
 1550SOL    HW116112   1.844   4.027  15.167  0.6861  0.1437 -1.1857
 1550SOL    HW216113   1.912   3.890  15.165 -0.3812  0.2919  0.7459
 1551SOL     OW16114   1.688   4.339  13.943 -0.1635 -0.3702 -0.4745
 1551SOL    HW116115   1.651   4.424  13.966 -1.5331 -0.6741 -1.5527
 1551SOL    HW216116   1.773   4.341  13.987 -0.2023  1.6312 -0.4858
 1552SOL     OW16117   2.374   1.937   7.269 -0.6886 -0.7397  0.3942
 1552SOL    HW116118   2.359   1.951   7.362 -2.0931 -1.0347  0.2115
 1552SOL    HW216119   2.443   1.871   7.277 -0.3879 -0.4428  0.2949
 1553SOL     OW16120   1.580   1.584   1.561  0.0688  0.7035  0.3151
 1553SOL    HW116121   1.527   1.600   1.483  0.5796  2.7037  0.3790
 1553SOL    HW216122   1.644   1.655   1.550 -1.0541  1.1774 -3.1390
 1554SOL     OW16123   0.121   0.847  11.650  0.1112 -0.0317  0.3688
 1554SOL    HW116124   0.147   0.855  11.558  1.8404 -2.3612  0.6537
 1554SOL    HW216125   0.075   0.764  11.650  0.5750 -0.2897 -1.3004
 1555SOL     OW16126   1.122   0.021  12.529  0.7032 -0.8257  0.1229
 1555SOL    HW116127   1.072   0.032  12.610  1.5588  1.7473  0.2988
 1555SOL    HW216128   1.193   0.085  12.539  1.1139 -1.5421  1.6516
 1556SOL     OW16129   2.665   0.818   7.972  0.7295  0.0273 -0.6861
 1556SOL    HW116130   2.750   0.794   8.010  0.3495  0.4408  0.4222
 1556SOL    HW216131   2.677   0.864   7.890  1.6119  0.0882 -0.5217
 1557SOL     OW16132   0.012   3.472   9.082 -0.1813  0.0519 -0.2602
 1557SOL    HW116133   0.048   3.492   9.168  0.1581 -1.0578 -0.1438
 1557SOL    HW216134   0.092   3.491   9.033 -0.7765  0.9819 -0.8676
 1558SOL     OW16135   1.307   1.447   5.216 -0.1241 -0.1627  0.1349
 1558SOL    HW116136   1.400   1.426   5.227  0.6589  2.5680 -1.1748
 1558SOL    HW216137   1.276   1.444   5.306  2.0464  1.4640  0.9386
 1559SOL     OW16138   1.032   3.863   2.389  0.3625  0.7219  0.0802
 1559SOL    HW116139   0.986   3.885   2.470 -1.9812 -0.8281 -0.8234
 1559SOL    HW216140   1.091   3.792   2.416 -0.0093  1.0861  1.8714
 1560SOL     OW16141   1.102   1.971   7.006 -0.3767 -0.0182  0.7388
 1560SOL    HW116142   1.110   2.066   7.009 -2.0357  0.0876  1.7410
 1560SOL    HW216143   1.178   1.956   6.950 -0.8839 -1.7595  0.5053
 1561SOL     OW16144   3.806   0.399   3.196 -0.1830 -0.1920 -0.0695
 1561SOL    HW116145   3.765   0.313   3.195  1.1904 -0.8310 -0.6260
 1561SOL    HW216146   3.828   0.409   3.289  1.7461  1.5278 -0.7275
 1562SOL     OW16147   4.675   4.715   7.582 -0.0166  0.4092  0.0174
 1562SOL    HW116148   0.022   4.654   7.556  0.8483  0.8883  1.1756
 1562SOL    HW216149   4.668   0.044   7.502  1.3777 -0.4262 -0.6464
 1563SOL     OW16150   3.834   1.574   7.944  0.3238 -0.6030  0.2160
 1563SOL    HW116151   3.880   1.559   8.026  1.1282 -1.3927 -0.3806
 1563SOL    HW216152   3.777   1.497   7.945  1.4010 -1.3926  1.1477
 1564SOL     OW16153   3.526   4.618   1.442 -0.0695  0.0354  0.1873
 1564SOL    HW116154   3.600   4.597   1.386 -1.3244  0.6923 -1.7090
 1564SOL    HW216155   3.571   4.596   1.524  0.4974  0.2987 -0.0492
 1565SOL     OW16156   2.528   1.555   6.773  0.1877 -0.6951  0.9629
 1565SOL    HW116157   2.515   1.499   6.697 -1.7778 -1.6296  1.9630
 1565SOL    HW216158   2.586   1.507   6.833 -0.7685 -1.6108  1.1542
 1566SOL     OW16159   4.376   0.621  13.522  0.0688  0.3625  0.1288
 1566SOL    HW116160   4.314   0.692  13.503  2.5800  1.7997 -2.7068
 1566SOL    HW216161   4.418   0.616  13.436  0.5277 -0.2922  0.3972
 1567SOL     OW16162   2.600   1.110  10.837  0.0170 -0.1612 -0.3334
 1567SOL    HW116163   2.683   1.100  10.884  1.2295  2.7052 -1.8516
 1567SOL    HW216164   2.637   1.101  10.749 -0.2623  1.5633 -0.6173
 1568SOL     OW16165   0.955   4.248   2.066  0.3536 -0.2586  0.2085
 1568SOL    HW116166   1.015   4.186   2.108  0.6239 -2.0742 -2.9034
 1568SOL    HW216167   1.013   4.285   2.000  1.1341 -0.4438  0.7822
 1569SOL     OW16168   1.471   3.617  14.855  0.4513  0.7796  0.4109
 1569SOL    HW116169   1.483   3.543  14.796  0.3736 -0.2957  1.7588
 1569SOL    HW216170   1.491   3.685  14.790 -0.2227  0.1685 -0.4376
 1570SOL     OW16171   1.056   3.940   8.285 -0.7093  0.3429  0.2040
 1570SOL    HW116172   0.997   3.960   8.212  0.0888 -1.6001 -0.9687
 1570SOL    HW216173   1.114   3.900   8.220 -2.0377  0.5869 -1.1484
 1571SOL     OW16174   2.969   2.355  17.628  0.5960 -0.3653 -0.0648
 1571SOL    HW116175   2.982   2.394  17.541 -0.5264 -1.3121 -0.6472
 1571SOL    HW216176   3.031   2.405  17.681  0.2572 -0.5523  0.4967
 1572SOL     OW16177   0.792   1.093   9.545 -0.4034 -0.2202 -0.2235
 1572SOL    HW116178   0.775   1.096   9.451 -0.6475  1.3789 -0.1346
 1572SOL    HW216179   0.792   1.001   9.569 -2.7376 -0.3151 -0.5686
 1573SOL     OW16180   0.843   2.122  16.760  0.3489  0.0781  0.1976
 1573SOL    HW116181   0.882   2.188  16.703  0.7077 -0.5047 -0.2400
 1573SOL    HW216182   0.753   2.142  16.735 -0.2217 -0.7587  1.5795
 1574SOL     OW16183   4.392   1.701  17.233  0.2508  0.8042  0.2576
 1574SOL    HW116184   4.481   1.694  17.267 -0.1351  0.4745  1.1950
 1574SOL    HW216185   4.382   1.794  17.214  0.6276  1.2253  2.0955
 1575SOL     OW16186   4.656   0.887   2.253 -0.3538 -0.2564  1.1047
 1575SOL    HW116187   4.658   0.983   2.247 -0.1186 -0.2428  1.4312
 1575SOL    HW216188   0.024   0.869   2.226 -1.3088 -1.2593 -1.4544
 1576SOL     OW16189   0.006   0.193  10.248  0.3280  0.0113 -0.3133
 1576SOL    HW116190   0.012   0.230  10.336  0.0747 -0.4347 -0.1088
 1576SOL    HW216191   0.070   0.122  10.247 -0.2909 -0.5248 -1.4245
 1577SOL     OW16192   2.589   1.237   5.437 -0.6082  0.2990  0.1575
 1577SOL    HW116193   2.676   1.264   5.463 -0.2569  0.7333 -1.4400
 1577SOL    HW216194   2.564   1.166   5.496  0.7678 -0.1871  0.1460
 1578SOL     OW16195   4.175   1.978   5.196 -0.1133 -0.4077 -0.1388
 1578SOL    HW116196   4.207   2.056   5.241 -0.2718  1.4184 -3.1724
 1578SOL    HW216197   4.082   1.992   5.215 -0.2839 -0.4307 -0.9161
 1579SOL     OW16198   2.386   4.667   4.806  0.7148  1.1441  0.0392
 1579SOL    HW116199   2.458   4.614   4.772 -0.5799 -0.2023 -0.5852
 1579SOL    HW216200   2.389   0.011   4.736 -0.2140  3.1923  1.9106
 1580SOL     OW16201   0.107   0.868  17.593  0.1640  0.0815  0.6175
 1580SOL    HW116202   0.025   0.866  17.642  0.2499  1.2060  0.7904
 1580SOL    HW216203   0.171   0.890  17.660  0.3314 -3.9239  1.7612
 1581SOL     OW16204   1.791   0.307   9.720  0.3187 -0.2279 -0.1875
 1581SOL    HW116205   1.796   0.392   9.764  0.9594 -1.1833  1.5752
 1581SOL    HW216206   1.717   0.259   9.755 -0.2482  0.1839 -0.8108
 1582SOL     OW16207   1.259   3.847   8.483 -0.0383  0.2920  0.1589
 1582SOL    HW116208   1.342   3.885   8.453 -0.6319  1.3162 -0.2116
 1582SOL    HW216209   1.205   3.853   8.404  1.3123  1.2740 -0.6916
 1583SOL     OW16210   4.015   0.554  12.751  0.4034 -0.5463  0.6471
 1583SOL    HW116211   4.100   0.525  12.784  0.7597 -0.3538 -0.0876
 1583SOL    HW216212   4.019   0.538  12.656  0.2230 -3.3620  1.1209
 1584SOL     OW16213   3.184   0.106   6.639  0.2669  0.3040 -0.8739
 1584SOL    HW116214   3.163   0.084   6.730 -0.9934 -1.6578 -1.6451
 1584SOL    HW216215   3.093   0.102   6.609  0.2365  1.5348 -0.9744
 1585SOL     OW16216   3.059   4.487  12.311  0.4060 -0.1549  0.3397
 1585SOL    HW116217   3.078   4.580  12.302  1.3464 -0.5915 -2.1839
 1585SOL    HW216218   3.145   4.449  12.327  0.3442  0.0549  1.1842
 1586SOL     OW16219   3.578   1.803   7.928 -0.1002  0.4275  0.2315
 1586SOL    HW116220   3.562   1.753   8.008  0.2557 -1.1417 -0.6748
 1586SOL    HW216221   3.525   1.759   7.861 -0.8053 -0.2680  1.2519
 1587SOL     OW16222   0.757   4.454  15.301  0.1328  0.0344 -0.4624
 1587SOL    HW116223   0.847   4.484  15.291  0.9053 -2.5043 -1.1987
 1587SOL    HW216224   0.716   4.523  15.248  0.1453  0.5064  0.1369
 1588SOL     OW16225   2.799   2.248   0.546 -0.2006 -0.3763 -0.6631
 1588SOL    HW116226   2.757   2.318   0.497  1.2055  0.5903 -0.4820
 1588SOL    HW216227   2.818   2.292   0.629  1.9242  0.0911 -1.3923
 1589SOL     OW16228   0.247   0.519   0.249  0.6680  0.0890 -0.0015
 1589SOL    HW116229   0.195   0.585   0.296  0.0236 -0.9890  0.8080
 1589SOL    HW216230   0.314   0.569   0.203  1.0556 -0.9516 -0.5571
 1590SOL     OW16231   2.272   1.799  11.835  0.3000  0.5323 -0.2857
 1590SOL    HW116232   2.295   1.884  11.797  4.1672 -0.4663 -0.1769
 1590SOL    HW216233   2.205   1.834  11.895 -0.8124 -0.6134 -0.8663
 1591SOL     OW16234   2.842   0.534   8.483 -0.1560 -0.2762  0.1329
 1591SOL    HW116235   2.807   0.586   8.556 -1.5857 -1.9457  0.6357
 1591SOL    HW216236   2.891   0.460   8.519 -1.5163  0.3429  3.2309
 1592SOL     OW16237   0.511   2.453  12.573  0.0918 -0.3826  0.5100
 1592SOL    HW116238   0.450   2.396  12.528 -1.4925  0.6055  1.4182
 1592SOL    HW216239   0.538   2.396  12.645 -0.8516  1.2821  2.1792
 1593SOL     OW16240   1.032   2.403   4.926 -0.0401  0.5445  0.2910
 1593SOL    HW116241   1.016   2.377   5.016  1.4298 -2.4927 -0.2924
 1593SOL    HW216242   1.115   2.450   4.934 -1.3569  2.8317  0.4430
 1594SOL     OW16243   1.493   3.102   9.725  0.0378  0.1416 -0.2004
 1594SOL    HW116244   1.456   3.034   9.668  0.1533 -0.5169  0.5077
 1594SOL    HW216245   1.583   3.074   9.716  0.1357  0.4326 -0.1305
 1595SOL     OW16246   0.755   3.212   2.516 -0.7205  0.1966 -0.0679
 1595SOL    HW116247   0.849   3.229   2.519 -0.4597 -1.2295  0.0534
 1595SOL    HW216248   0.717   3.267   2.448 -1.1726  0.9021  0.7602
 1596SOL     OW16249   2.422   1.307   8.270  0.0898 -0.1096 -0.2050
 1596SOL    HW116250   2.350   1.253   8.236  2.2286 -2.3205 -1.1831
 1596SOL    HW216251   2.472   1.335   8.193 -0.5084  1.8435  0.1189
 1597SOL     OW16252   4.526   0.067  14.333  0.0661  0.3991  0.3739
 1597SOL    HW116253   4.487   0.068  14.420 -0.4069 -1.0317  0.1759
 1597SOL    HW216254   4.450   0.046  14.280 -0.1132 -0.0856  0.8194
 1598SOL     OW16255   3.510   3.650   7.915  0.3150 -0.2662  0.2108
 1598SOL    HW116256   3.556   3.674   7.996 -1.1939  1.9724  0.3983
 1598SOL    HW216257   3.550   3.709   7.851  0.1157  0.2755  0.5808
 1599SOL     OW16258   3.278   0.469  14.059 -0.6540  0.0769 -0.2479
 1599SOL    HW116259   3.226   0.434  14.131 -0.9502 -2.1742 -1.5803
 1599SOL    HW216260   3.354   0.496  14.111 -2.5157  3.2022  0.8718
 1600SOL     OW16261   0.850   1.145   3.859  0.1856  0.3950  0.0952
 1600SOL    HW116262   0.880   1.225   3.903 -3.2232  0.8667  1.5585
 1600SOL    HW216263   0.916   1.128   3.792 -1.5063 -0.3201 -1.3802
 1601SOL     OW16264   1.900   2.678   0.958  0.2269  0.2841 -0.5906
 1601SOL    HW116265   1.919   2.721   1.041 -1.0241 -1.2270  0.4840
 1601SOL    HW216266   1.869   2.595   0.995  3.4564  0.1971  1.8725
 1602SOL     OW16267   2.201   3.810   4.285 -0.6773 -0.4678 -0.2882
 1602SOL    HW116268   2.129   3.770   4.334  0.4532 -1.6338  0.3895
 1602SOL    HW216269   2.183   3.810   4.191 -1.1752  4.2779 -0.2257
 1603SOL     OW16270   4.305   3.150  16.480 -0.0425  0.0081 -0.1827
 1603SOL    HW116271   4.255   3.228  16.505 -0.8315 -0.6977  0.4564
 1603SOL    HW216272   4.393   3.187  16.487 -0.4074  1.1198 -1.4174
 1604SOL     OW16273   3.535   0.748  14.434  0.3147 -0.6961  0.3056
 1604SOL    HW116274   3.631   0.756  14.438  0.1716  0.9348  0.0869
 1604SOL    HW216275   3.527   0.771  14.527  2.0325  0.8269  0.0744
 1605SOL     OW16276   1.485   0.027   7.357 -0.1747 -0.4524 -0.2185
 1605SOL    HW116277   1.559   4.716   7.306 -0.1046 -0.8329  0.1290
 1605SOL    HW216278   1.491   0.118   7.327  0.0558  0.2777  2.0832
 1606SOL     OW16279   2.356   2.455   4.714  0.9386  0.2589 -0.7104
 1606SOL    HW116280   2.277   2.401   4.706  2.1695 -1.5020 -0.7212
 1606SOL    HW216281   2.390   2.424   4.798  0.2451  1.2661 -0.0499
 1607SOL     OW16282   3.056   2.175   7.526 -0.4669 -0.2985  0.2547
 1607SOL    HW116283   3.009   2.138   7.451 -0.2203 -1.7564  0.8172
 1607SOL    HW216284   3.098   2.251   7.488 -2.9767  0.0784 -1.7493
 1608SOL     OW16285   3.139   3.161   5.543  0.3469  0.2833 -0.1399
 1608SOL    HW116286   3.172   3.251   5.544 -1.6761  0.9754  2.0178
 1608SOL    HW216287   3.198   3.127   5.475 -0.7203 -1.6913 -0.0464
 1609SOL     OW16288   3.523   1.974   5.647  0.3816  0.5053  0.2681
 1609SOL    HW116289   3.473   2.056   5.652 -1.3737 -0.4626 -1.4226
 1609SOL    HW216290   3.534   1.970   5.552  0.3611 -1.3549  0.3396
 1610SOL     OW16291   1.908   2.904   6.010 -1.0032 -0.1054  0.4830
 1610SOL    HW116292   1.947   2.828   5.967 -0.0613  1.1406 -0.8513
 1610SOL    HW216293   1.974   2.922   6.078 -1.8550 -1.5299  1.6850
 1611SOL     OW16294   3.444   0.815  14.083  0.6714  0.0382  1.0680
 1611SOL    HW116295   3.430   0.730  14.123  1.6770 -0.6521 -0.0469
 1611SOL    HW216296   3.510   0.857  14.139 -0.2863  3.4866 -0.3783
 1612SOL     OW16297   3.672   0.135   3.192  0.6451  0.1778 -0.2261
 1612SOL    HW116298   3.765   0.114   3.197  0.2660 -0.7514  3.2689
 1612SOL    HW216299   3.661   0.093   3.278 -0.5755  1.0293  0.0244
 1613SOL     OW16300   2.321   4.061   5.809  0.4659 -0.1363  0.8786
 1613SOL    HW116301   2.278   3.976   5.818  1.3105 -0.9073 -2.7731
 1613SOL    HW216302   2.292   4.101   5.891 -0.2192  0.9988  0.0809
 1614SOL     OW16303   3.705   2.383  11.333 -0.1904  0.7186 -0.1850
 1614SOL    HW116304   3.739   2.367  11.245 -0.4510 -1.5990  0.1367
 1614SOL    HW216305   3.612   2.360  11.330 -0.2387  1.0654 -1.3045
 1615SOL     OW16306   2.579   1.504   8.733  0.0329 -0.1275 -0.0346
 1615SOL    HW116307   2.564   1.417   8.769  1.4032 -0.3100  0.0861
 1615SOL    HW216308   2.546   1.485   8.645 -0.1901 -1.5357  0.3620
 1616SOL     OW16309   4.540   3.968  15.349  0.1513 -0.0567 -0.1240
 1616SOL    HW116310   4.607   4.033  15.329  1.9893 -1.9598 -0.1862
 1616SOL    HW216311   4.567   3.898  15.289  0.1690 -0.5259  0.4255
 1617SOL     OW16312   0.382   2.537   7.746  0.5749  0.3076  0.5025
 1617SOL    HW116313   0.415   2.591   7.818 -1.5840  3.6597 -0.9990
 1617SOL    HW216314   0.422   2.454   7.771  1.0653 -0.0316 -1.3740
 1618SOL     OW16315   2.198   1.531  16.972 -0.3232 -0.5001  0.3044
 1618SOL    HW116316   2.256   1.606  16.957  0.3046 -1.3506 -1.4892
 1618SOL    HW216317   2.244   1.467  17.027  2.8131  0.8275 -0.7215
 1619SOL     OW16318   0.964   2.269   7.947 -0.3558  0.2398  0.0286
 1619SOL    HW116319   0.969   2.284   8.042  0.3310  1.5051 -0.2064
 1619SOL    HW216320   1.044   2.220   7.932 -0.2444  0.2409  0.5965
 1620SOL     OW16321   4.288   3.038   2.758 -0.0034 -0.3286  0.6637
 1620SOL    HW116322   4.260   3.129   2.759  0.0139 -0.3185  0.3329
 1620SOL    HW216323   4.253   3.021   2.670 -2.2232 -0.1204  1.5190
 1621SOL     OW16324   4.502   0.453  10.097 -0.0535 -0.1126  0.1611
 1621SOL    HW116325   4.495   0.413  10.010 -0.3987  0.4416 -0.0619
 1621SOL    HW216326   4.471   0.541  10.073 -0.4032 -0.5232 -0.9048
 1622SOL     OW16327   2.117   1.948   8.717 -0.5610 -0.2615  0.6608
 1622SOL    HW116328   2.131   1.945   8.622 -1.7552 -0.7909  0.5026
 1622SOL    HW216329   2.145   1.860   8.745  0.5870 -0.7066 -1.8841
 1623SOL     OW16330   1.026   1.080   0.721 -0.3379 -0.5212 -0.1229
 1623SOL    HW116331   1.068   1.143   0.662  0.6705 -0.7554  0.3583
 1623SOL    HW216332   1.077   1.080   0.802 -1.3730 -1.9630  0.5203
 1624SOL     OW16333   0.208   3.449   4.816  0.7436 -0.0092 -0.5595
 1624SOL    HW116334   0.139   3.439   4.750  0.5599 -0.4462 -0.3014
 1624SOL    HW216335   0.159   3.469   4.895  0.2501  0.9332 -1.1051
 1625SOL     OW16336   3.157   2.324   2.947  0.1222  0.0579 -0.1866
 1625SOL    HW116337   3.193   2.355   3.029  1.7039  0.1431 -0.9155
 1625SOL    HW216338   3.136   2.410   2.911  2.0006  0.8420  0.5781
 1626SOL     OW16339   4.217   3.927   4.049 -0.3431  0.0121 -0.3281
 1626SOL    HW116340   4.124   3.908   4.059 -0.8185  2.8527  0.7498
 1626SOL    HW216341   4.218   4.015   4.088  0.5211 -0.0474 -0.2161
 1627SOL     OW16342   2.515   2.306   9.531 -0.1369  0.1489 -0.7345
 1627SOL    HW116343   2.564   2.381   9.564  0.7877 -0.1344 -1.4852
 1627SOL    HW216344   2.426   2.337   9.548  0.3697  1.5156 -0.6236
 1628SOL     OW16345   3.657   0.775   5.448 -0.9077 -0.8721 -0.1003
 1628SOL    HW116346   3.724   0.732   5.395  0.3798 -0.5847  1.3001
 1628SOL    HW216347   3.713   0.812   5.517  0.5591  0.3485 -1.9498
 1629SOL     OW16348   2.932   0.509   7.769  0.2210 -0.0923  0.2543
 1629SOL    HW116349   2.954   0.477   7.681 -0.8888 -1.6715  0.5328
 1629SOL    HW216350   2.973   0.595   7.777 -0.5174  0.1888  0.9658
 1630SOL     OW16351   0.203   2.862   4.192  0.1925  0.5914 -0.0936
 1630SOL    HW116352   0.250   2.785   4.162  0.2052  0.6905 -0.3351
 1630SOL    HW216353   0.215   2.859   4.287 -2.3071 -0.7699  0.1738
 1631SOL     OW16354   3.916   4.415   3.845 -0.4320  0.1435  0.2260
 1631SOL    HW116355   3.935   4.327   3.879  0.8879  0.0866 -0.6598
 1631SOL    HW216356   3.980   4.418   3.774 -0.8683  1.4383 -0.1106
 1632SOL     OW16357   3.614   1.641  10.815  0.1988  0.2206  0.0597
 1632SOL    HW116358   3.569   1.573  10.764  1.5900  0.2986 -1.2610
 1632SOL    HW216359   3.576   1.725  10.787  1.6413  1.4130  1.6480
 1633SOL     OW16360   1.612   4.098   7.722  0.5524  0.0737 -0.0638
 1633SOL    HW116361   1.607   4.033   7.791  1.5341  1.3130  1.1661
 1633SOL    HW216362   1.568   4.173   7.763  0.3412  0.3414 -0.7723
 1634SOL     OW16363   3.710   1.933  13.255  0.7791  0.4625  0.6154
 1634SOL    HW116364   3.678   1.890  13.176 -0.7609  3.6726 -0.5400
 1634SOL    HW216365   3.758   2.007  13.218 -2.4824  1.4596 -1.6077
 1635SOL     OW16366   4.395   2.660   9.228 -0.1407 -0.5542  0.2471
 1635SOL    HW116367   4.402   2.577   9.275 -1.3461 -0.4824  0.5549
 1635SOL    HW216368   4.371   2.635   9.138 -0.6468 -0.3757  0.3282
 1636SOL     OW16369   3.997   0.870  14.118  0.4980  0.1785  0.4103
 1636SOL    HW116370   4.013   0.793  14.064 -0.7652  0.0840  0.1561
 1636SOL    HW216371   4.056   0.856  14.192  0.9767 -0.1852 -0.0412
 1637SOL     OW16372   0.038   4.667  10.463  0.0003 -0.0270 -0.2290
 1637SOL    HW116373   0.074   0.031  10.487  2.1915 -0.2649 -2.6668
 1637SOL    HW216374   0.063   4.665  10.371 -0.1302 -1.4775 -0.2188
 1638SOL     OW16375   2.848   3.523   8.724 -0.8535  0.2133  0.4037
 1638SOL    HW116376   2.852   3.527   8.819 -0.6125 -1.3653  0.4592
 1638SOL    HW216377   2.904   3.450   8.699  0.5596  0.7213  2.1006
 1639SOL     OW16378   1.302   0.554   0.582  0.0277 -0.0299  0.0858
 1639SOL    HW116379   1.251   0.633   0.604  3.1842  2.5472 -1.8790
 1639SOL    HW216380   1.263   0.487   0.638 -1.1092 -2.4685 -3.6082
 1640SOL     OW16381   3.274   1.986   1.236  0.0368 -0.1425  0.4538
 1640SOL    HW116382   3.229   1.917   1.188 -0.0469  0.3410 -0.1812
 1640SOL    HW216383   3.346   1.942   1.282 -0.1210  0.2508  1.0740
 1641SOL     OW16384   1.493   3.539   4.177  0.6434 -0.3524 -0.1798
 1641SOL    HW116385   1.474   3.525   4.270 -2.7077 -0.2415 -0.8128
 1641SOL    HW216386   1.500   3.635   4.181  0.7146 -0.3471 -0.4146
 1642SOL     OW16387   1.748   4.411   5.224 -0.0934  0.2568 -0.1700
 1642SOL    HW116388   1.817   4.473   5.201 -1.2297  1.7514  0.4997
 1642SOL    HW216389   1.800   4.352   5.279 -0.1601  0.2686 -0.0951
 1643SOL     OW16390   0.672   4.377   2.910 -0.2267  0.3287 -0.2452
 1643SOL    HW116391   0.750   4.383   2.854  0.6911 -2.8086  0.6927
 1643SOL    HW216392   0.598   4.411   2.859 -1.1450  2.8492  2.7798
 1644SOL     OW16393   1.545   1.680  11.090 -0.2842 -0.2925 -0.9140
 1644SOL    HW116394   1.638   1.667  11.073 -0.5194 -0.7228 -1.8545
 1644SOL    HW216395   1.509   1.657  11.005  1.5791  1.4849 -2.1731
 1645SOL     OW16396   3.252   1.427   6.928  0.3011 -0.4779 -0.2527
 1645SOL    HW116397   3.325   1.372   6.956 -1.2121 -1.9392  0.8242
 1645SOL    HW216398   3.288   1.477   6.854 -1.1437  1.8933  0.6431
 1646SOL     OW16399   1.177   2.516   3.954  0.5832  0.3686 -0.6715
 1646SOL    HW116400   1.241   2.508   4.025  0.9528  2.0765 -0.8228
 1646SOL    HW216401   1.225   2.517   3.871  0.5127  0.8602 -0.7082
 1647SOL     OW16402   2.217   0.778   5.431  0.3264  0.0678 -0.4719
 1647SOL    HW116403   2.227   0.707   5.493  2.6935  0.8236 -0.0128
 1647SOL    HW216404   2.229   0.743   5.343 -1.1943 -2.2155  0.2380
 1648SOL     OW16405   0.749   2.934   4.766 -0.2482 -0.4300  0.2512
 1648SOL    HW116406   0.749   3.025   4.795  0.1312 -0.8456  1.5511
 1648SOL    HW216407   0.658   2.933   4.734 -0.0251  0.4078 -0.4053
 1649SOL     OW16408   0.459   0.534   4.148  0.3367  0.7218  0.3406
 1649SOL    HW116409   0.476   0.445   4.117 -0.7331  1.2538 -1.7480
 1649SOL    HW216410   0.478   0.576   4.065  0.3332  1.1061  0.5344
 1650SOL     OW16411   1.492   4.350   1.160 -0.0557 -0.0950 -0.0547
 1650SOL    HW116412   1.572   4.350   1.107  2.3145 -0.9353  3.4981
 1650SOL    HW216413   1.473   4.441   1.179  0.1458  0.0964 -0.7553
 1651SOL     OW16414   2.529   0.009   5.881 -0.6742  0.3124 -0.0909
 1651SOL    HW116415   2.611   4.686   5.903 -0.7457  0.6718  0.9243
 1651SOL    HW216416   2.481   0.011   5.964  1.3713  2.7711  1.0320
 1652SOL     OW16417   1.889   0.314   8.650 -0.9344 -0.6492 -0.3937
 1652SOL    HW116418   1.949   0.247   8.683 -0.8890 -1.3780 -1.9346
 1652SOL    HW216419   1.851   0.327   8.737 -1.3985  3.9990 -1.2999
 1653SOL     OW16420   4.027   1.498  11.359  0.0078 -0.0445  0.6846
 1653SOL    HW116421   4.071   1.574  11.321  0.2296 -0.0612  0.9119
 1653SOL    HW216422   3.937   1.512  11.331  0.4049 -0.5808 -0.8784
 1654SOL     OW16423   1.556   4.363  15.316  0.7034 -0.2352  0.9140
 1654SOL    HW116424   1.590   4.274  15.310 -3.5589 -1.7158 -1.4472
 1654SOL    HW216425   1.620   4.415  15.365  1.4165 -0.3855  0.1293
 1655SOL     OW16426   0.124   0.457   2.471 -0.3346 -0.3548  0.0870
 1655SOL    HW116427   0.054   0.434   2.410 -0.2488 -2.3974  0.7584
 1655SOL    HW216428   0.176   0.377   2.475  1.4460  0.7776 -0.6492
 1656SOL     OW16429   1.323   3.037   6.494  0.1775 -0.2203 -0.1809
 1656SOL    HW116430   1.274   3.018   6.574 -0.1477 -0.0180 -0.3345
 1656SOL    HW216431   1.414   3.016   6.518 -0.4975 -4.3085 -1.1533
 1657SOL     OW16432   0.388   2.309   6.938 -0.0329 -0.0387  0.2727
 1657SOL    HW116433   0.428   2.386   6.978 -0.9787  1.0138 -0.7946
 1657SOL    HW216434   0.455   2.242   6.951  0.8413  1.3019  2.6617
 1658SOL     OW16435   4.092   2.413   4.488  0.4010 -0.2205  0.0538
 1658SOL    HW116436   4.052   2.483   4.436  0.9352 -0.2327 -0.3738
 1658SOL    HW216437   4.118   2.354   4.417 -1.8822  0.6511 -1.5065
 1659SOL     OW16438   0.902   1.983   0.424 -0.2544  0.1990  0.1111
 1659SOL    HW116439   0.918   1.895   0.388 -2.0037 -0.7162  1.5604
 1659SOL    HW216440   0.882   1.960   0.514 -1.2099 -2.1469 -0.6899
 1660SOL     OW16441   0.604   2.763   2.848  0.0944  0.4007  0.1412
 1660SOL    HW116442   0.532   2.704   2.869 -1.3627  2.3484  0.6178
 1660SOL    HW216443   0.668   2.694   2.834 -0.7769 -0.5982  1.1154
 1661SOL     OW16444   0.040   3.777   7.103 -0.6360  0.3843  0.1280
 1661SOL    HW116445   0.007   3.816   7.184  2.8266  2.6704  0.4763
 1661SOL    HW216446   4.678   3.769   7.059 -0.9868  0.8558  0.6977
 1662SOL     OW16447   2.877   1.786  17.588  0.5961 -0.4174  0.3530
 1662SOL    HW116448   2.817   1.717  17.617  0.5266 -0.3287  0.4190
 1662SOL    HW216449   2.950   1.780  17.650 -0.4309 -0.5754  1.5480
 1663SOL     OW16450   2.915   3.274  13.405 -0.2858 -0.4733  0.2997
 1663SOL    HW116451   2.910   3.263  13.500 -0.9573  0.1011  0.3321
 1663SOL    HW216452   2.863   3.200  13.373 -4.9215  1.7971  2.6401
 1664SOL     OW16453   0.233   1.056  10.544  0.1258 -0.3476  0.6070
 1664SOL    HW116454   0.151   1.093  10.510  0.8699  0.3239 -0.4610
 1664SOL    HW216455   0.208   0.987  10.605 -0.0763 -0.7863  0.0183
 1665SOL     OW16456   0.613   2.787   0.812 -0.3416  0.4013  0.1331
 1665SOL    HW116457   0.589   2.863   0.758 -1.6096 -0.0395  0.0799
 1665SOL    HW216458   0.555   2.725   0.769  0.9256 -1.7404  1.5186
 1666SOL     OW16459   2.763   3.907   2.538  0.3543  0.2912 -0.0332
 1666SOL    HW116460   2.828   3.966   2.499  0.1438 -0.0187 -0.8672
 1666SOL    HW216461   2.699   3.969   2.572 -0.5181 -1.0684  0.7619
 1667SOL     OW16462   1.351   2.601   6.932  0.0969  0.3629 -0.2351
 1667SOL    HW116463   1.293   2.632   6.863 -0.4225  1.1095  0.5336
 1667SOL    HW216464   1.367   2.679   6.984 -3.3890  1.8106 -1.3848
 1668SOL     OW16465   4.541   1.500   4.574 -0.0346  0.2637 -0.1785
 1668SOL    HW116466   4.592   1.473   4.650 -0.4808 -0.3798 -0.1100
 1668SOL    HW216467   4.454   1.489   4.611  0.0190  0.6991  0.0761
 1669SOL     OW16468   3.165   3.167   6.842 -0.4100 -0.0866  0.3649
 1669SOL    HW116469   3.203   3.141   6.758 -0.8014  0.5998 -0.0197
 1669SOL    HW216470   3.083   3.207   6.814 -0.5526 -0.5209  0.1715
 1670SOL     OW16471   4.307   0.239   4.231  0.5314  0.5870  0.0872
 1670SOL    HW116472   4.315   0.248   4.136  1.3939 -1.3730 -0.0312
 1670SOL    HW216473   4.226   0.187   4.233  0.8872  0.0521  0.5122
 1671SOL     OW16474   0.403   1.964   8.109  0.1203 -0.0150 -0.1618
 1671SOL    HW116475   0.331   1.979   8.171  1.2285  0.7003  0.9556
 1671SOL    HW216476   0.472   1.931   8.165  0.5793 -2.4536 -2.1865
 1672SOL     OW16477   1.165   0.681  14.819  0.2468 -0.2833 -0.4098
 1672SOL    HW116478   1.194   0.608  14.872 -0.2143 -0.0784  0.1288
 1672SOL    HW216479   1.126   0.648  14.738  2.2955  1.2112 -2.0027
 1673SOL     OW16480   4.442   2.388   7.248  0.8120 -0.2217  0.4249
 1673SOL    HW116481   4.438   2.462   7.187  0.7699  1.2595  2.1824
 1673SOL    HW216482   4.534   2.405   7.267  0.4071  1.7213  0.6753
 1674SOL     OW16483   0.116   3.487   9.345 -0.1083 -0.5713 -0.1131
 1674SOL    HW116484   0.165   3.560   9.382 -1.0042  0.3913 -0.8038
 1674SOL    HW216485   0.189   3.432   9.316 -1.0295 -1.8700  0.0171
 1675SOL     OW16486   0.301   4.611   4.573  0.0665  0.4269 -0.0661
 1675SOL    HW116487   0.316   4.604   4.667  1.1434 -0.0884 -0.2723
 1675SOL    HW216488   0.280   4.703   4.559  0.9529  0.6478  0.0271
 1676SOL     OW16489   2.472   4.463   1.259  1.0507 -0.5428  0.2381
 1676SOL    HW116490   2.381   4.458   1.230  1.2422 -3.0234  0.0525
 1676SOL    HW216491   2.517   4.446   1.176  3.1876  2.1922  0.8100
 1677SOL     OW16492   2.544   4.044  10.493 -0.1163 -0.5000 -0.1236
 1677SOL    HW116493   2.502   3.961  10.473 -0.1433 -0.1590 -1.4968
 1677SOL    HW216494   2.623   4.001  10.525  0.7523  1.7391  0.7990
 1678SOL     OW16495   2.953   1.180   7.106 -0.1551  0.2267 -0.1855
 1678SOL    HW116496   2.951   1.180   7.010 -2.5227 -1.1116 -0.1279
 1678SOL    HW216497   2.885   1.244   7.128 -1.1121 -0.4617 -1.1272
 1679SOL     OW16498   0.895   4.684   4.072 -0.7229 -0.1048 -0.1146
 1679SOL    HW116499   0.858   4.622   4.009 -0.3158 -1.1112  0.6327
 1679SOL    HW216500   0.813   4.708   4.114 -0.8404  0.6815 -0.7862
 1680SOL     OW16501   2.656   3.052  10.744  0.2148 -0.1525 -0.0793
 1680SOL    HW116502   2.648   3.092  10.658  1.3275 -0.1339 -0.1760
 1680SOL    HW216503   2.709   3.122  10.783  0.6480 -0.2343 -0.5288
 1681SOL     OW16504   3.513   1.289   4.759 -0.4029  0.2758 -0.2336
 1681SOL    HW116505   3.585   1.278   4.821  0.0490  2.2768 -0.4128
 1681SOL    HW216506   3.530   1.368   4.708 -4.4048  0.5351 -1.1483
 1682SOL     OW16507   1.819   2.607   6.152  0.2965  0.2044 -0.2595
 1682SOL    HW116508   1.759   2.566   6.089  0.4476 -1.5814  0.7596
 1682SOL    HW216509   1.903   2.606   6.105  1.2172 -0.2213  1.4117
 1683SOL     OW16510   1.352   3.389   5.936 -0.0727  0.0744 -0.3483
 1683SOL    HW116511   1.414   3.355   6.000 -0.0808  1.8128  0.5702
 1683SOL    HW216512   1.366   3.483   5.942 -2.0189  0.3559 -0.0954
 1684SOL     OW16513   2.306   1.847   4.832 -0.1931 -0.6416  0.0638
 1684SOL    HW116514   2.325   1.808   4.918  1.3154 -0.2867 -0.1225
 1684SOL    HW216515   2.213   1.834   4.810 -0.5359  1.4188  0.2461
 1685SOL     OW16516   3.607   4.301  15.435 -0.0144 -1.1516 -0.0516
 1685SOL    HW116517   3.641   4.386  15.463 -0.8443 -1.0283  0.6158
 1685SOL    HW216518   3.681   4.259  15.393 -1.1194 -0.0798 -3.0840
 1686SOL     OW16519   0.774   1.926   9.360  0.1364  0.4197  1.0682
 1686SOL    HW116520   0.794   1.942   9.453  0.4976 -0.5220  1.1484
 1686SOL    HW216521   0.789   2.016   9.330  2.1414 -1.0214 -2.1419
 1687SOL     OW16522   0.362   1.850   2.937 -0.2115  0.3756  0.2757
 1687SOL    HW116523   0.446   1.896   2.943 -0.7511  1.4985 -0.7829
 1687SOL    HW216524   0.364   1.771   2.991  5.4428  0.0015 -0.5330
 1688SOL     OW16525   2.773   1.226  17.479  0.3132  0.0791 -0.1117
 1688SOL    HW116526   2.732   1.170  17.414  2.0451  0.7789 -1.7862
 1688SOL    HW216527   2.694   1.235  17.531 -0.9735 -2.0337 -1.7008
 1689SOL     OW16528   0.938   2.322   5.181  0.6136 -0.1430  0.2003
 1689SOL    HW116529   0.853   2.278   5.187 -0.1392  1.2459 -0.2089
 1689SOL    HW216530   0.960   2.326   5.275  1.2440 -1.5778  0.1157
 1690SOL     OW16531   0.157   1.699  10.013 -0.2281 -0.3252  0.0368
 1690SOL    HW116532   0.194   1.668   9.930  2.6168  1.8553  0.5227
 1690SOL    HW216533   0.160   1.793   9.995 -0.4081  0.5812  4.9132
 1691SOL     OW16534   1.405   2.286   5.211  0.3369 -0.1575  0.5790
 1691SOL    HW116535   1.478   2.344   5.188 -1.1379  2.5429  2.6805
 1691SOL    HW216536   1.443   2.205   5.178 -2.2824 -1.2455  0.2513
 1692SOL     OW16537   0.208   3.570  10.881  0.2783  0.2307  0.5365
 1692SOL    HW116538   0.283   3.614  10.921  0.0018  1.2115 -0.0455
 1692SOL    HW216539   0.142   3.638  10.884 -2.0361 -2.0794  2.2548
 1693SOL     OW16540   3.888   3.298   9.142  0.4164 -0.1581  0.8601
 1693SOL    HW116541   3.952   3.245   9.095 -0.1186  2.5087 -2.9378
 1693SOL    HW216542   3.950   3.345   9.198 -0.1976 -0.6416  1.9308
 1694SOL     OW16543   2.453   0.921   2.602 -0.1337 -0.3094 -0.5487
 1694SOL    HW116544   2.502   1.003   2.610  0.4753 -0.5097 -2.3110
 1694SOL    HW216545   2.465   0.892   2.512 -0.7074 -2.5369  0.0968
 1695SOL     OW16546   4.578   1.606   2.318 -0.3060 -0.3275  0.8052
 1695SOL    HW116547   4.489   1.584   2.344 -0.8448 -0.7359 -1.3914
 1695SOL    HW216548   4.604   1.667   2.387 -0.0590 -2.7785  2.8690
 1696SOL     OW16549   3.120   4.117   5.129  0.4580  0.2950 -0.8036
 1696SOL    HW116550   3.202   4.068   5.135  0.6949  0.4619 -2.6761
 1696SOL    HW216551   3.134   4.174   5.205 -1.7902 -2.3238  1.5504
 1697SOL     OW16552   4.449   0.302   8.298  0.3090  0.0892  0.7785
 1697SOL    HW116553   4.465   0.396   8.294  0.2095  0.0280 -0.7903
 1697SOL    HW216554   4.389   0.306   8.373  0.0124  1.9290  0.4436
 1698SOL     OW16555   3.502   0.468  15.435 -0.1132  0.6821  0.1878
 1698SOL    HW116556   3.556   0.437  15.507 -1.0446  1.1294  1.0843
 1698SOL    HW216557   3.543   0.552  15.414  3.7436 -1.6203 -1.5041
 1699SOL     OW16558   4.072   3.959   8.136  0.0296  0.3180  0.1942
 1699SOL    HW116559   4.126   3.940   8.213  0.5410 -0.7895 -0.4341
 1699SOL    HW216560   4.050   4.050   8.153  0.1501  0.5429 -0.8293
 1700SOL     OW16561   0.086   3.184   8.895 -0.7178 -0.2766  0.3044
 1700SOL    HW116562   0.022   3.189   8.965 -2.9899  0.1759 -1.7961
 1700SOL    HW216563   0.159   3.157   8.951 -1.5932 -2.6360  0.3087
 1701SOL     OW16564   1.855   0.823   2.444  0.7416  0.1219  0.2928
 1701SOL    HW116565   1.763   0.814   2.466 -0.0979  0.7292 -3.0139
 1701SOL    HW216566   1.849   0.791   2.354 -1.2485 -1.2864  0.9361
 1702SOL     OW16567   4.252   2.785   2.992 -0.2228  0.2234  0.0141
 1702SOL    HW116568   4.255   2.726   2.917  2.7251  2.6909 -1.7881
 1702SOL    HW216569   4.343   2.814   2.995  0.1803 -0.8846 -1.6601
 1703SOL     OW16570   3.027   2.303   1.483  0.2691  0.5907 -0.3944
 1703SOL    HW116571   3.017   2.213   1.513  0.4762 -0.5296 -3.5780
 1703SOL    HW216572   3.121   2.301   1.463  0.2689 -0.0430 -0.3280
 1704SOL     OW16573   1.669   2.959   2.068 -0.2021  0.2285  0.0934
 1704SOL    HW116574   1.693   2.927   2.155  0.3476  0.9608  0.2040
 1704SOL    HW216575   1.640   2.882   2.018  2.3359 -0.7727  0.1942
 1705SOL     OW16576   4.651   0.783   6.369  0.1232 -0.1172  0.2506
 1705SOL    HW116577   4.660   0.776   6.274 -0.8331 -2.4486  0.3330
 1705SOL    HW216578   0.019   0.760   6.394  0.6039  0.1836 -1.2353
 1706SOL     OW16579   0.502   0.065   9.260 -0.4195 -0.4123  0.5607
 1706SOL    HW116580   0.497   0.161   9.268  0.2738 -0.2246 -1.3645
 1706SOL    HW216581   0.543   0.050   9.175  1.8165 -0.2059  1.6009
 1707SOL     OW16582   3.317   3.138   3.664 -0.0365  0.4535  0.2271
 1707SOL    HW116583   3.258   3.134   3.589  1.9298 -2.5627 -1.1431
 1707SOL    HW216584   3.341   3.229   3.646  0.5069  0.1508 -0.5642
 1708SOL     OW16585   2.570   3.859   5.845 -0.0441  0.3519  0.0032
 1708SOL    HW116586   2.601   3.776   5.883 -1.5539 -0.4401 -0.5100
 1708SOL    HW216587   2.559   3.917   5.921  0.4107  0.7482 -0.2355
 1709SOL     OW16588   0.338   1.154  10.106 -0.2099 -0.2340  0.0419
 1709SOL    HW116589   0.316   1.061  10.099 -0.6259 -0.2907  2.2354
 1709SOL    HW216590   0.399   1.157  10.180  0.0219  1.4229 -0.1986
 1710SOL     OW16591   1.468   0.653   3.744  0.3566 -0.1598 -0.1344
 1710SOL    HW116592   1.497   0.726   3.799 -2.7269  3.3845 -3.2040
 1710SOL    HW216593   1.549   0.628   3.701  1.2967  1.1082  0.8913
 1711SOL     OW16594   3.931   4.144   5.698  0.2395  0.2043 -0.1446
 1711SOL    HW116595   3.900   4.113   5.614  1.1981 -0.0911 -0.3886
 1711SOL    HW216596   3.852   4.178   5.739 -0.2673 -0.7882 -0.3000
 1712SOL     OW16597   2.006   2.282   7.860  0.2202 -0.2384 -0.2576
 1712SOL    HW116598   1.942   2.236   7.914  0.3891 -1.6584 -1.2401
 1712SOL    HW216599   2.076   2.217   7.849  0.4551 -0.4125  2.1752
 1713SOL     OW16600   2.474   2.051   6.850  0.3648  0.4468 -0.2002
 1713SOL    HW116601   2.520   1.975   6.886 -0.6482 -0.1513 -0.1907
 1713SOL    HW216602   2.415   2.004   6.791 -1.2002  1.2511  0.7244
 1714SOL     OW16603   4.197   3.583   2.673 -0.0383  0.3933  0.3922
 1714SOL    HW116604   4.246   3.632   2.607  0.9719  0.3936  1.1443
 1714SOL    HW216605   4.202   3.497   2.630 -0.9128  1.3621 -1.6521
 1715SOL     OW16606   1.599   0.036   4.914  0.2825 -0.5188 -0.4744
 1715SOL    HW116607   1.611   0.114   4.969 -1.7851 -1.2771  1.0133
 1715SOL    HW216608   1.601   4.689   4.981 -1.4175  0.2720  0.3912
 1716SOL     OW16609   0.055   0.766  10.319  0.0700  0.3710 -0.3040
 1716SOL    HW116610   0.057   0.746  10.412  0.8972 -3.5159 -1.1584
 1716SOL    HW216611   4.717   0.694  10.300  0.9009  0.0469 -1.7492
 1717SOL     OW16612   0.947   4.030   7.068 -0.5354 -0.1445 -0.1289
 1717SOL    HW116613   1.030   3.991   7.097 -1.0804  0.7044  2.5808
 1717SOL    HW216614   0.988   4.109   7.032  1.9573 -1.8695 -1.0825
 1718SOL     OW16615   2.600   4.532  12.121  0.2941 -0.0167  0.0822
 1718SOL    HW116616   2.507   4.523  12.103  1.1838 -1.5705 -3.7884
 1718SOL    HW216617   2.622   4.500  12.208  1.3559 -1.2116 -0.6152
 1719SOL     OW16618   3.689   3.762   6.331  0.3619  0.3721  0.4106
 1719SOL    HW116619   3.608   3.794   6.369  1.3745  3.0005  0.3021
 1719SOL    HW216620   3.647   3.682   6.299  0.3770  0.3300  0.4964
 1720SOL     OW16621   1.554   1.979   4.491 -0.0241 -0.1315  0.0942
 1720SOL    HW116622   1.517   1.896   4.519 -0.9438 -0.9390 -3.4547
 1720SOL    HW216623   1.514   2.036   4.556  0.3452  2.2282 -1.7142
 1721SOL     OW16624   4.331   4.366   5.134  0.2607  0.5806  0.3048
 1721SOL    HW116625   4.380   4.445   5.115  0.4707  0.2607 -0.5001
 1721SOL    HW216626   4.316   4.379   5.227 -0.4364  1.2977  0.0919
 1722SOL     OW16627   0.256   2.048   6.400 -0.4802 -0.0730  0.1890
 1722SOL    HW116628   0.265   1.992   6.477  3.1906  1.4491  0.8572
 1722SOL    HW216629   0.296   2.127   6.438  3.3432 -1.5763 -0.7870
 1723SOL     OW16630   2.372   3.790   5.571 -0.2884  0.1290 -0.4771
 1723SOL    HW116631   2.280   3.764   5.562 -0.6047  1.5292 -1.4116
 1723SOL    HW216632   2.367   3.837   5.654 -1.4609  2.2982 -1.7675
 1724SOL     OW16633   3.810   3.186  16.868 -0.7097 -0.0939  0.0186
 1724SOL    HW116634   3.787   3.223  16.954  1.7543 -0.6826  0.9176
 1724SOL    HW216635   3.790   3.264  16.815  1.7380 -1.1694 -2.5072
 1725SOL     OW16636   2.280   4.714   4.358 -0.0266  0.1668 -0.1625
 1725SOL    HW116637   2.341   0.018   4.289  0.6738 -1.6082 -0.1934
 1725SOL    HW216638   2.303   0.063   4.418  0.7645 -1.2396  1.1597
 1726SOL     OW16639   0.930   3.589   3.614  0.5374  0.5444  0.3076
 1726SOL    HW116640   0.998   3.527   3.587 -0.2643 -0.9839  1.8395
 1726SOL    HW216641   0.978   3.660   3.571  0.1014 -0.9716 -2.6938
 1727SOL     OW16642   1.889   3.330   3.533 -0.0115  0.1482  0.5556
 1727SOL    HW116643   1.926   3.370   3.612 -1.3440  0.4082  1.0509
 1727SOL    HW216644   1.818   3.278   3.570  0.3476  1.3225  2.9219
 1728SOL     OW16645   2.547   1.879   3.308 -0.1532  0.0860 -0.1574
 1728SOL    HW116646   2.515   1.792   3.333 -0.7543  0.3239 -0.0900
 1728SOL    HW216647   2.597   1.845   3.234 -0.1187 -0.5377  0.1519
 1729SOL     OW16648   0.871   2.605   7.669 -0.4806 -0.1032 -0.1837
 1729SOL    HW116649   0.953   2.557   7.676 -0.1175  0.5326 -0.1580
 1729SOL    HW216650   0.823   2.569   7.744  0.9488  1.4139  1.4577
 1730SOL     OW16651   0.705   1.528   0.470  0.5892 -0.2718 -0.1870
 1730SOL    HW116652   0.731   1.593   0.405  2.1520 -1.1154 -0.4235
 1730SOL    HW216653   0.720   1.451   0.416 -1.1163 -0.4613 -0.3850
 1731SOL     OW16654   4.380   2.771  14.540  0.3995 -0.0863  0.2642
 1731SOL    HW116655   4.446   2.753  14.607  1.2033 -1.4611 -0.9169
 1731SOL    HW216656   4.429   2.833  14.487  0.0596 -0.7373 -0.8137
 1732SOL     OW16657   1.099   1.894   8.066  0.5577  0.1560 -0.2480
 1732SOL    HW116658   1.006   1.900   8.088  0.9794  0.3246  1.4862
 1732SOL    HW216659   1.147   1.914   8.146 -0.1644  0.7475  0.0405
 1733SOL     OW16660   4.210   3.968  10.170 -0.0363 -0.0114 -0.0483
 1733SOL    HW116661   4.142   3.924  10.119  0.0504 -1.9920  1.5702
 1733SOL    HW216662   4.236   3.902  10.233 -0.0826  0.0882  0.0741
 1734SOL     OW16663   1.078   3.965   5.061  0.2615 -0.1834  0.1842
 1734SOL    HW116664   1.020   4.028   5.018 -1.4477 -1.5909  0.4175
 1734SOL    HW216665   1.007   3.914   5.100  0.4043  0.2400  0.9937
 1735SOL     OW16666   3.440   4.330   3.694 -0.1138  0.2416  0.1015
 1735SOL    HW116667   3.428   4.235   3.697 -1.8079  0.4654  0.6181
 1735SOL    HW216668   3.457   4.351   3.786 -0.2290 -1.3003  0.4751
 1736SOL     OW16669   1.973   2.055   5.111 -0.4726 -0.6961 -0.4581
 1736SOL    HW116670   2.001   2.100   5.031 -3.0322  0.7893 -0.4955
 1736SOL    HW216671   1.903   2.114   5.138  1.0102  0.8595 -0.0752
 1737SOL     OW16672   4.233   2.067   4.751 -0.2031  0.1354 -0.5230
 1737SOL    HW116673   4.286   2.025   4.683  0.7569  1.8135 -0.7985
 1737SOL    HW216674   4.258   2.013   4.827 -2.0386  0.0368  0.0126
 1738SOL     OW16675   4.632   4.364   8.269  0.4950 -0.0817 -0.1392
 1738SOL    HW116676   4.624   4.455   8.240  3.3450  0.2704  0.2345
 1738SOL    HW216677   4.619   4.317   8.187 -2.2295  0.9744 -0.3366
 1739SOL     OW16678   1.763   2.935   1.375 -0.6231 -0.7040 -0.4151
 1739SOL    HW116679   1.853   2.967   1.381 -2.0542  3.1145  0.2175
 1739SOL    HW216680   1.776   2.847   1.412 -0.0256 -0.1236  0.7409
 1740SOL     OW16681   0.808   2.893   8.641  0.1532  0.6874 -0.2020
 1740SOL    HW116682   0.743   2.950   8.600 -0.2217  0.5170  0.1576
 1740SOL    HW216683   0.796   2.920   8.732 -0.6045 -1.7107  0.4200
 1741SOL     OW16684   3.005   3.547   1.343 -0.0660 -0.4055  0.2152
 1741SOL    HW116685   3.037   3.527   1.255  2.2068 -1.4948  1.2793
 1741SOL    HW216686   3.075   3.547   1.409 -0.8074  0.3429  0.9894
 1742SOL     OW16687   4.700   3.823  13.542 -0.4160  0.3452  0.3551
 1742SOL    HW116688   0.071   3.845  13.546 -0.0024 -1.0721 -1.7196
 1742SOL    HW216689   4.659   3.902  13.578 -2.0217 -1.3003  2.1853
 1743SOL     OW16690   3.564   0.481   1.987  0.6502  0.1613 -0.6266
 1743SOL    HW116691   3.548   0.508   2.077  2.0746 -0.2854 -0.2252
 1743SOL    HW216692   3.478   0.490   1.947  0.3052 -0.5271 -0.0249
 1744SOL     OW16693   0.373   0.941  14.314  0.1686  0.6959 -0.1392
 1744SOL    HW116694   0.399   1.026  14.351 -0.0931 -0.0276  1.6945
 1744SOL    HW216695   0.299   0.975  14.265 -0.3707  1.4100  1.1475
 1745SOL     OW16696   4.294   1.159   1.589 -0.2246 -0.2386  0.1574
 1745SOL    HW116697   4.301   1.231   1.652 -1.6250 -0.3031  0.3941
 1745SOL    HW216698   4.199   1.143   1.589 -0.5898  1.8886 -0.1844
 1746SOL     OW16699   1.784   1.277  17.151  0.0304  0.1249 -0.3087
 1746SOL    HW116700   1.703   1.325  17.136  0.8056  0.8478 -2.3079
 1746SOL    HW216701   1.840   1.353  17.167  0.9084 -1.3037  3.3184
 1747SOL     OW16702   0.881   0.103   3.247 -0.3854  0.2779  0.1072
 1747SOL    HW116703   0.929   0.180   3.277 -0.9207  0.5885  0.1802
 1747SOL    HW216704   0.849   0.071   3.331 -1.8647  0.2552 -0.4493
 1748SOL     OW16705   3.770   4.413  16.691  0.3540  0.2487 -0.2130
 1748SOL    HW116706   3.745   4.321  16.704 -1.0292  0.3250 -2.2137
 1748SOL    HW216707   3.858   4.421  16.655  0.3753  2.4348  0.3204
 1749SOL     OW16708   3.514   0.324   8.524  0.2031 -0.1049  0.2453
 1749SOL    HW116709   3.541   0.266   8.596 -0.1088  1.2544  1.4679
 1749SOL    HW216710   3.475   0.393   8.578  0.9716 -1.3652  2.4243
 1750SOL     OW16711   2.544   2.311  10.001  0.1501 -0.4555  0.2758
 1750SOL    HW116712   2.502   2.394  10.022  0.2017  0.1208 -1.9253
 1750SOL    HW216713   2.521   2.307   9.908  0.4600 -0.7330  0.2094
 1751SOL     OW16714   1.393   4.020   2.923  0.0174 -0.2149 -0.1212
 1751SOL    HW116715   1.418   3.935   2.888 -1.5058 -0.1685 -1.2797
 1751SOL    HW216716   1.322   4.035   2.862  0.0280  2.0432  0.4354
 1752SOL     OW16717   1.971   3.511   8.289 -0.2719  0.7835 -0.9342
 1752SOL    HW116718   1.935   3.561   8.363 -0.7228 -0.7276 -0.1385
 1752SOL    HW216719   2.047   3.478   8.337  0.4274  1.3937 -1.6293
 1753SOL     OW16720   0.710   3.778   2.992  0.1524  0.2770 -0.1017
 1753SOL    HW116721   0.699   3.873   2.982  0.7730  0.6226  2.3899
 1753SOL    HW216722   0.678   3.747   2.908 -2.2711  0.5693  0.7183
 1754SOL     OW16723   3.824   1.112   5.319 -0.8039 -0.5750 -0.3154
 1754SOL    HW116724   3.904   1.067   5.292 -0.4548 -1.5946  2.4282
 1754SOL    HW216725   3.854   1.181   5.378 -3.0292  0.2121 -0.0869
 1755SOL     OW16726   3.036   1.107   8.918 -0.1465 -0.1531  0.0295
 1755SOL    HW116727   2.987   1.029   8.944 -0.4378  0.4701  1.3520
 1755SOL    HW216728   3.121   1.063   8.921 -0.4943 -0.7622  1.0067
 1756SOL     OW16729   3.324   1.726   5.531  0.3197 -0.0697 -0.2800
 1756SOL    HW116730   3.395   1.682   5.579  0.2645  0.5994  0.4160
 1756SOL    HW216731   3.375   1.801   5.501  0.2811  0.4254  0.8943
 1757SOL     OW16732   1.174   2.250   5.741 -0.0120  0.1278 -0.8664
 1757SOL    HW116733   1.163   2.316   5.672 -1.3241  1.7450  0.8787
 1757SOL    HW216734   1.163   2.301   5.822 -0.6600  0.2221 -1.0138
 1758SOL     OW16735   4.292   3.256   7.479  0.6802  0.2794 -0.1085
 1758SOL    HW116736   4.214   3.303   7.508 -0.6622 -0.7968 -1.9708
 1758SOL    HW216737   4.271   3.165   7.502  0.6820  0.6773  1.4967
 1759SOL     OW16738   3.636   3.293   0.029 -0.0571  0.3053  0.0654
 1759SOL    HW116739   3.572   3.294   0.100  0.6491  1.0920  0.6940
 1759SOL    HW216740   3.703   3.351   0.066  0.0003 -1.5067  2.8306
 1760SOL     OW16741   3.781   0.710   3.792  0.1685  0.2654  0.0725
 1760SOL    HW116742   3.819   0.767   3.859 -1.0117  0.7921  0.2847
 1760SOL    HW216743   3.813   0.749   3.711  1.6578 -0.3733  0.3408
 1761SOL     OW16744   0.353   1.770   9.210  0.8335  0.0765 -0.3473
 1761SOL    HW116745   0.308   1.820   9.143 -0.2094 -0.9462 -0.4054
 1761SOL    HW216746   0.285   1.777   9.277  2.6207 -3.9138  1.9189
 1762SOL     OW16747   4.533   4.431  11.635 -0.6049 -0.2691  0.2523
 1762SOL    HW116748   4.492   4.345  11.632 -2.2349  0.5180 -0.0033
 1762SOL    HW216749   4.624   4.411  11.610 -0.3250 -0.9747  1.8226
 1763SOL     OW16750   3.889   1.945   0.138  0.3240  0.2748  0.4380
 1763SOL    HW116751   3.890   1.928   0.044  0.1244 -0.6625  0.5983
 1763SOL    HW216752   3.949   1.878   0.170  0.1376  1.1045  2.5464
 1764SOL     OW16753   4.068   3.896   7.249 -0.0745 -0.4365  0.2674
 1764SOL    HW116754   4.090   3.808   7.218  1.0783  0.2890 -1.0337
 1764SOL    HW216755   3.979   3.879   7.278  0.2507  0.3973  1.7494
 1765SOL     OW16756   1.113   0.871  15.435 -0.2490  0.3366 -0.0549
 1765SOL    HW116757   1.092   0.790  15.482 -0.3042  1.7350  2.3001
 1765SOL    HW216758   1.165   0.842  15.360 -0.8173  2.9496 -1.4492
 1766SOL     OW16759   4.238   3.890   9.021 -0.2032  0.0345  0.7644
 1766SOL    HW116760   4.226   3.965   9.079  2.2807  0.5067  0.6579
 1766SOL    HW216761   4.319   3.861   9.062  1.1215 -0.7344 -2.4064
 1767SOL     OW16762   2.120   1.297   2.893  0.6748  0.2579 -0.2657
 1767SOL    HW116763   2.206   1.259   2.873  0.8080  0.8903 -0.8958
 1767SOL    HW216764   2.130   1.385   2.856 -0.3400 -0.5146 -2.3562
 1768SOL     OW16765   4.114   1.019   6.575 -0.8648  0.0122  0.1418
 1768SOL    HW116766   4.139   0.982   6.490 -2.3417 -0.0088 -0.2844
 1768SOL    HW216767   4.053   1.087   6.547 -1.2319 -0.0834  0.7217
 1769SOL     OW16768   4.614   0.666   3.939  0.0028  0.1445  0.2583
 1769SOL    HW116769   4.587   0.732   4.002 -0.6426 -0.2219  0.3752
 1769SOL    HW216770   4.669   0.607   3.989 -3.0203 -1.5705  1.5928
 1770SOL     OW16771   3.750   4.640   1.673  0.3503 -0.3858 -0.6713
 1770SOL    HW116772   3.686   4.659   1.742  1.4510 -0.5990  0.4103
 1770SOL    HW216773   3.750   4.720   1.620  0.0805  0.2259  0.2373
 1771SOL     OW16774   2.163   2.928   6.889  0.1682  0.1979  0.1610
 1771SOL    HW116775   2.247   2.970   6.911 -1.3202  4.5069 -2.2920
 1771SOL    HW216776   2.178   2.840   6.921  0.5832  0.3196  0.3084
 1772SOL     OW16777   4.326   0.144   7.322  0.4344 -0.6626 -0.6924
 1772SOL    HW116778   4.377   0.186   7.253  0.0144 -2.2432 -1.9914
 1772SOL    HW216779   4.250   0.121   7.269 -0.4520  0.4053  0.1344
 1773SOL     OW16780   4.532   2.487   6.521 -0.1808 -0.4449  0.0140
 1773SOL    HW116781   4.483   2.500   6.602 -1.5736  0.1122 -0.9061
 1773SOL    HW216782   4.581   2.407   6.537  0.8906  0.7301  2.5030
 1774SOL     OW16783   3.025   0.670  13.430  0.6115  0.1332 -0.8377
 1774SOL    HW116784   2.981   0.613  13.492 -2.9994  0.7439 -2.8677
 1774SOL    HW216785   2.958   0.732  13.403  1.8644  1.7302 -0.3219
 1775SOL     OW16786   4.005   0.061   1.857  0.3444  0.2412 -0.3827
 1775SOL    HW116787   3.944   0.036   1.789  0.8624  1.6574 -1.3741
 1775SOL    HW216788   3.941   0.079   1.927  1.4932  0.7942  0.5276
 1776SOL     OW16789   1.042   3.156   4.742  0.4030  0.9863 -0.0342
 1776SOL    HW116790   1.085   3.082   4.700 -3.7293 -2.1421  1.2287
 1776SOL    HW216791   0.970   3.108   4.783 -0.0538  1.3667 -0.3916
 1777SOL     OW16792   1.590   2.500   6.902  0.3098 -0.2671  0.6190
 1777SOL    HW116793   1.506   2.544   6.911 -0.5335 -1.5309 -0.9918
 1777SOL    HW216794   1.645   2.571   6.871  2.4619 -2.4048 -0.4800
 1778SOL     OW16795   3.543   3.850   4.813  0.4942 -0.0251  0.2688
 1778SOL    HW116796   3.535   3.897   4.729  1.1178 -3.4997 -1.7303
 1778SOL    HW216797   3.455   3.824   4.840 -0.0342  0.1895 -1.2481
 1779SOL     OW16798   0.013   0.485   6.916  0.5046  0.9551  0.2095
 1779SOL    HW116799   0.052   0.572   6.925 -0.3190  1.2649  0.7196
 1779SOL    HW216800   4.645   0.516   6.914  0.1574  0.0744  1.9050
 1780SOL     OW16801   2.901   3.809   9.257  0.7091  0.6684  0.3222
 1780SOL    HW116802   2.816   3.852   9.267  0.3310  0.6157 -2.4670
 1780SOL    HW216803   2.883   3.720   9.286 -1.3689  1.1335  0.5266
 1781SOL     OW16804   4.262   0.404   6.536  0.4334 -0.6542  0.0180
 1781SOL    HW116805   4.184   0.456   6.514 -0.6287 -2.5354 -0.6041
 1781SOL    HW216806   4.328   0.468   6.512  0.4193 -1.8618 -3.1631
 1782SOL     OW16807   1.694   1.575   7.547 -0.3455 -0.3081  0.6249
 1782SOL    HW116808   1.622   1.535   7.594  1.1550 -1.3779  2.0160
 1782SOL    HW216809   1.678   1.667   7.569 -0.1838  0.1465 -1.1135
 1783SOL     OW16810   3.020   3.165   4.354 -0.1050  0.2898  0.0632
 1783SOL    HW116811   3.100   3.207   4.383 -1.3011  1.7354  1.2826
 1783SOL    HW216812   2.985   3.246   4.316 -0.6502  1.9900  4.1740
 1784SOL     OW16813   2.983   0.595   6.762  0.5134  0.4284 -0.2707
 1784SOL    HW116814   2.910   0.598   6.700 -0.5743 -0.4404  0.9752
 1784SOL    HW216815   3.053   0.616   6.701  1.1193  0.7285  0.5389
 1785SOL     OW16816   4.125   1.894  12.252  0.1814 -0.4032  0.3327
 1785SOL    HW116817   4.167   1.912  12.168 -2.2113 -1.4592 -1.0921
 1785SOL    HW216818   4.102   1.983  12.277 -1.1245 -1.0171  1.3128
 1786SOL     OW16819   3.484   2.754   9.185 -0.5101  0.3915 -0.1882
 1786SOL    HW116820   3.412   2.814   9.168  0.8907  2.3108  0.6750
 1786SOL    HW216821   3.476   2.697   9.108  1.5360  1.1775 -1.0022
 1787SOL     OW16822   2.940   0.121   2.091 -0.5761 -0.2512 -0.5729
 1787SOL    HW116823   3.017   0.173   2.066  0.4854 -1.6466 -0.2049
 1787SOL    HW216824   2.923   0.081   2.006  0.2849 -1.7933 -0.0033
 1788SOL     OW16825   4.327   1.946   2.989  0.4982  0.1118 -0.8292
 1788SOL    HW116826   4.375   1.958   3.071 -0.6387 -2.5678  0.2293
 1788SOL    HW216827   4.352   2.020   2.933  3.8572 -0.4103  0.0053
 1789SOL     OW16828   4.555   1.876   8.932  0.5001  0.0246  0.6356
 1789SOL    HW116829   4.525   1.809   8.870 -0.7646 -0.5020  1.8037
 1789SOL    HW216830   4.543   1.825   9.012  0.3885 -0.0487  0.5717
 1790SOL     OW16831   2.113   0.490   3.956 -0.5470  0.6358 -0.9131
 1790SOL    HW116832   2.172   0.518   3.886 -0.7079 -0.0897 -1.3364
 1790SOL    HW216833   2.176   0.439   4.008 -0.9415  0.2298 -0.8333
 1791SOL     OW16834   0.617   3.765   2.244 -0.2068  0.6855  0.2477
 1791SOL    HW116835   0.561   3.723   2.179  0.5737 -0.3388  0.2251
 1791SOL    HW216836   0.603   3.711   2.322 -0.7199  1.1783  0.4945
 1792SOL     OW16837   4.017   3.141   3.278  0.3012 -0.1760  0.2678
 1792SOL    HW116838   4.079   3.104   3.215  1.6161 -2.3159  2.8146
 1792SOL    HW216839   3.996   3.223   3.234  1.4732 -0.1837 -0.3027
 1793SOL     OW16840   0.753   4.537   1.136 -0.0901 -0.3210  0.2402
 1793SOL    HW116841   0.800   4.566   1.058  2.0340 -0.0230  1.6363
 1793SOL    HW216842   0.726   4.446   1.123 -0.1697 -0.4202  1.0615
 1794SOL     OW16843   4.146   4.212   3.897  0.0630  0.1161 -0.4078
 1794SOL    HW116844   4.064   4.164   3.911  1.1732 -1.4871  0.6313
 1794SOL    HW216845   4.171   4.235   3.986  5.9454 -1.9455 -1.5113
 1795SOL     OW16846   1.652   3.307   4.630  0.6703 -0.2669  0.1142
 1795SOL    HW116847   1.723   3.254   4.595 -0.3456 -1.5747 -0.0004
 1795SOL    HW216848   1.700   3.389   4.635  1.0885 -0.6099  1.9251
 1796SOL     OW16849   0.282   2.812   4.452  0.1271 -0.1584 -0.1579
 1796SOL    HW116850   0.372   2.783   4.461  0.7162  1.1249 -2.0927
 1796SOL    HW216851   0.250   2.831   4.541  2.0592 -1.9085  0.9011
 1797SOL     OW16852   0.106   2.916   3.498  0.6153 -0.4087  0.0795
 1797SOL    HW116853   0.147   2.947   3.579  0.6115 -1.3780  0.4551
 1797SOL    HW216854   0.059   2.994   3.468 -0.1758 -0.2026  1.8267
 1798SOL     OW16855   4.019   2.545   5.734 -0.1636  0.5124 -0.0242
 1798SOL    HW116856   4.078   2.470   5.738 -0.8563  0.0813  2.7656
 1798SOL    HW216857   4.069   2.614   5.778  0.6946  0.4088 -0.8527
 1799SOL     OW16858   1.589   3.571  15.363  0.0746  0.4284  0.3809
 1799SOL    HW116859   1.567   3.539  15.451  2.0617 -1.5871  0.1362
 1799SOL    HW216860   1.625   3.657  15.384 -0.6150  1.1589 -1.4486
 1800SOL     OW16861   0.771   3.366   2.874 -0.7356  0.0971  0.8262
 1800SOL    HW116862   0.679   3.382   2.893 -0.9101 -0.6406  0.5998
 1800SOL    HW216863   0.767   3.272   2.856  1.7708  0.5661 -2.1683
 1801SOL     OW16864   2.853   0.179  16.604 -0.2159 -0.1481 -0.3569
 1801SOL    HW116865   2.811   0.216  16.681 -2.2414 -1.3481 -0.8978
 1801SOL    HW216866   2.809   0.095  16.593  2.0288 -1.3643 -0.0771
 1802SOL     OW16867   2.722   2.815  13.467  0.0249 -0.6102 -0.5136
 1802SOL    HW116868   2.638   2.851  13.440  0.8742  1.1242 -0.7921
 1802SOL    HW216869   2.785   2.884  13.448 -2.4871  1.7149 -0.2402
 1803SOL     OW16870   3.215   4.097   9.018  0.3367 -0.0150  0.4156
 1803SOL    HW116871   3.270   4.076   8.943 -2.2140 -0.4276 -1.3339
 1803SOL    HW216872   3.237   4.017   9.066 -2.3400 -1.0850 -0.1694
 1804SOL     OW16873   2.292   3.621   0.185  0.0308  0.1509  0.0386
 1804SOL    HW116874   2.270   3.652   0.097  0.2529  0.0505 -0.0536
 1804SOL    HW216875   2.220   3.672   0.222  0.6542  0.9494  0.1396
 1805SOL     OW16876   2.569   3.316   1.814 -0.3423  0.7937  0.4930
 1805SOL    HW116877   2.561   3.222   1.830  0.2169  1.0377  2.1957
 1805SOL    HW216878   2.522   3.319   1.731  0.3000  2.7201  0.1949
 1806SOL     OW16879   3.100   1.212   3.887  0.0035 -1.1890  0.1933
 1806SOL    HW116880   3.069   1.145   3.827  2.0107 -0.8390 -1.2585
 1806SOL    HW216881   3.143   1.259   3.815 -0.4393 -0.2846  0.5194
 1807SOL     OW16882   0.684   1.610   2.056  0.3152  0.0604  0.0182
 1807SOL    HW116883   0.681   1.514   2.056 -0.8247  0.0990 -1.0249
 1807SOL    HW216884   0.727   1.634   1.974  0.1342  0.5605  0.0708
 1808SOL     OW16885   0.098   2.743  10.786 -0.0462  0.6118  0.2730
 1808SOL    HW116886   0.192   2.726  10.776 -0.5949 -0.3460 -3.2203
 1808SOL    HW216887   0.059   2.670  10.833  2.2997  1.2012  3.1190
 1809SOL     OW16888   0.080   1.609   8.779 -1.2381 -0.1153 -0.0701
 1809SOL    HW116889   0.043   1.589   8.865  1.7941 -0.0315  1.2639
 1809SOL    HW216890   0.050   1.538   8.723  0.0185  0.6323 -1.7167
 1810SOL     OW16891   1.391   2.003   6.221 -0.3607  0.0770  0.5334
 1810SOL    HW116892   1.333   1.951   6.165  1.0231 -2.4569  1.4965
 1810SOL    HW216893   1.383   2.096   6.199 -0.5488 -0.0690 -0.0178
 1811SOL     OW16894   3.945   1.128  11.229 -0.1738 -0.0488  0.5589
 1811SOL    HW116895   3.978   1.213  11.201  2.0520 -0.5213  1.7731
 1811SOL    HW216896   4.016   1.072  11.199  1.7982  2.7450  0.1042
 1812SOL     OW16897   3.381   4.032   8.779 -0.2258 -0.4077 -0.1965
 1812SOL    HW116898   3.453   4.060   8.836  0.1533  0.9157 -1.3453
 1812SOL    HW216899   3.419   3.974   8.714 -2.2520 -0.3276 -1.4371
 1813SOL     OW16900   4.450   0.375   4.629  0.1964 -0.2425  0.4511
 1813SOL    HW116901   4.528   0.419   4.595 -0.5624  0.1730 -0.7918
 1813SOL    HW216902   4.473   0.283   4.615  1.8881  0.4200 -1.1269
 1814SOL     OW16903   2.145   0.246   7.872 -0.0798  0.0763  0.0667
 1814SOL    HW116904   2.074   0.190   7.842  0.8817 -0.4286 -1.3072
 1814SOL    HW216905   2.154   0.312   7.803 -0.8431  0.2892  0.1781
 1815SOL     OW16906   3.582   0.571   4.339  0.0878 -0.2948  0.0145
 1815SOL    HW116907   3.606   0.543   4.427  0.6762 -0.5743 -0.2324
 1815SOL    HW216908   3.648   0.635   4.314  1.6893 -2.9692 -2.6762
 1816SOL     OW16909   1.424   2.868  15.627  0.0238  0.8639 -0.6144
 1816SOL    HW116910   1.476   2.917  15.691 -0.7723 -0.9743  1.4341
 1816SOL    HW216911   1.413   2.934  15.558 -0.8257  1.6572  0.2911
 1817SOL     OW16912   3.584   2.306  11.648 -0.3082 -0.3128  1.0318
 1817SOL    HW116913   3.595   2.398  11.670 -3.0726  0.6048 -1.3727
 1817SOL    HW216914   3.492   2.299  11.624  0.1169 -1.3519 -0.3308
 1818SOL     OW16915   1.292   3.140   7.466  0.0170  0.1720  0.1425
 1818SOL    HW116916   1.226   3.126   7.398  0.1762  1.2300 -0.2321
 1818SOL    HW216917   1.369   3.104   7.422 -0.3634  0.0756 -0.4428
 1819SOL     OW16918   4.448   1.856   0.927 -0.1762  0.0984  0.0666
 1819SOL    HW116919   4.507   1.797   0.974 -0.7728 -0.2695  0.3529
 1819SOL    HW216920   4.454   1.930   0.987  1.5699 -0.7719  0.9944
 1820SOL     OW16921   3.541   4.037   0.881  0.0867 -0.0324  0.5567
 1820SOL    HW116922   3.588   4.028   0.799  0.1663 -0.7656  0.6836
 1820SOL    HW216923   3.454   4.012   0.849  0.7422  1.7684 -2.5621
 1821SOL     OW16924   4.441   0.793   4.968 -0.0963 -0.1220  0.3074
 1821SOL    HW116925   4.408   0.882   4.968  0.2643  0.0213  1.4603
 1821SOL    HW216926   4.513   0.799   5.031 -2.4251  1.2418  2.8893
 1822SOL     OW16927   4.064   4.305   5.066  0.1368  0.4140  0.7831
 1822SOL    HW116928   4.149   4.343   5.091  0.6363 -0.4519  0.4090
 1822SOL    HW216929   4.072   4.288   4.972 -0.5911  0.7996  0.6554
 1823SOL     OW16930   4.425   2.127   2.792  0.6726  0.6201  0.3241
 1823SOL    HW116931   4.515   2.159   2.791  0.4429  1.1340 -2.4891
 1823SOL    HW216932   4.414   2.083   2.708 -0.8437  1.3138  0.1703
 1824SOL     OW16933   0.540   1.580   6.105 -0.2850 -0.0225 -0.5932
 1824SOL    HW116934   0.513   1.603   6.194  1.7700 -0.3655  0.1392
 1824SOL    HW216935   0.606   1.648   6.087  0.7477 -1.1552 -1.0689
 1825SOL     OW16936   1.549   3.067   7.310 -0.2853 -0.4528  0.1286
 1825SOL    HW116937   1.537   2.988   7.364 -0.7901 -2.0362 -2.2847
 1825SOL    HW216938   1.632   3.101   7.341 -0.2595 -0.0154 -0.4177
 1826SOL     OW16939   0.350   0.895   8.742  0.0871  0.5992  0.2472
 1826SOL    HW116940   0.429   0.895   8.796  0.6747  0.5407 -0.6028
 1826SOL    HW216941   0.284   0.884   8.809 -0.5930  2.4474 -0.0936
 1827SOL     OW16942   0.845   0.187   7.935 -0.0322 -0.1406 -0.0258
 1827SOL    HW116943   0.823   0.232   8.016  0.5978 -0.5786  0.3819
 1827SOL    HW216944   0.756   0.171   7.904  0.0862  1.4379 -1.1991
 1828SOL     OW16945   4.064   0.375   2.967  0.1759 -0.1343  0.2246
 1828SOL    HW116946   3.984   0.410   2.928  0.2756 -2.4130 -2.0482
 1828SOL    HW216947   4.134   0.431   2.935  0.1172 -0.3823 -0.3446
 1829SOL     OW16948   4.357   0.966   6.428  0.5344 -0.0195 -0.5792
 1829SOL    HW116949   4.366   1.012   6.511 -2.0593 -3.8245  1.8198
 1829SOL    HW216950   4.369   0.879   6.468  1.7245 -0.3743 -1.6800
 1830SOL     OW16951   2.543   2.252   4.251 -0.1603 -0.1563  0.6457
 1830SOL    HW116952   2.544   2.254   4.347  1.0668  1.2987  0.6156
 1830SOL    HW216953   2.636   2.239   4.231  0.1681 -0.8797  2.6128
 1831SOL     OW16954   4.651   1.419  17.147 -0.2288 -0.5023 -0.3297
 1831SOL    HW116955   4.650   1.417  17.242 -1.8867  0.0556 -0.3259
 1831SOL    HW216956   4.571   1.373  17.123 -0.4943  0.1375 -0.6644
 1832SOL     OW16957   3.952   1.829   8.732 -0.7359  0.5634  0.0065
 1832SOL    HW116958   3.978   1.763   8.668 -1.1281  3.8086 -3.4713
 1832SOL    HW216959   3.993   1.910   8.704 -0.7297 -0.0938 -1.8857
 1833SOL     OW16960   4.333   4.041  16.316  0.6419 -0.5066 -0.6124
 1833SOL    HW116961   4.285   3.962  16.339 -0.8999  0.0669 -1.8040
 1833SOL    HW216962   4.383   4.009  16.241 -2.2867 -0.6588 -2.5003
 1834SOL     OW16963   0.887   0.290   4.455  0.3955  0.4150 -0.1363
 1834SOL    HW116964   0.938   0.210   4.448 -1.0577 -0.2131 -3.6635
 1834SOL    HW216965   0.890   0.308   4.549 -0.7884 -0.4814  0.0649
 1835SOL     OW16966   2.139   2.306   4.697  0.7440  0.0569 -0.3199
 1835SOL    HW116967   2.145   2.244   4.624  0.4949  1.3313 -1.4234
 1835SOL    HW216968   2.129   2.249   4.773 -0.8270 -0.3212 -0.8210
 1836SOL     OW16969   1.569   1.268   5.731 -0.5527  0.2754  0.0897
 1836SOL    HW116970   1.654   1.258   5.775 -1.6828 -1.9088  1.7692
 1836SOL    HW216971   1.534   1.182   5.756 -0.6814  0.0608 -0.8519
 1837SOL     OW16972   1.038   1.950   2.686 -0.4311 -0.0598  0.3801
 1837SOL    HW116973   1.121   1.983   2.652 -0.0887 -0.7553  0.5377
 1837SOL    HW216974   1.058   1.923   2.775  1.9385 -3.3447 -1.1625
 1838SOL     OW16975   3.133   2.830   4.855 -0.1212 -0.1163  0.6937
 1838SOL    HW116976   3.104   2.832   4.764  1.7943  1.1073  0.1148
 1838SOL    HW216977   3.192   2.755   4.849  0.9566  0.8265 -0.2828
 1839SOL     OW16978   0.132   2.050   4.679  0.2364 -0.5612  1.1332
 1839SOL    HW116979   0.216   2.045   4.633  0.2476  0.6776  1.0102
 1839SOL    HW216980   0.121   1.956   4.686  0.3939 -0.8248 -2.4506
 1840SOL     OW16981   4.679   2.102   3.304  0.2646  0.3202  0.1216
 1840SOL    HW116982   0.031   2.068   3.253  1.9384  2.3812  1.1601
 1840SOL    HW216983   4.678   2.192   3.272 -3.3568  0.8751  1.8118
 1841SOL     OW16984   3.368   0.470  12.178 -1.3194 -0.2036 -0.1399
 1841SOL    HW116985   3.430   0.407  12.214  0.6999  1.9931  0.2144
 1841SOL    HW216986   3.416   0.525  12.116 -0.8563 -1.1578 -0.6265
 1842SOL     OW16987   3.650   4.004   7.156 -0.3555  0.0003  0.5818
 1842SOL    HW116988   3.720   3.948   7.123  0.5787  1.5505 -0.0547
 1842SOL    HW216989   3.586   3.936   7.181  1.8706 -2.3598 -0.1711
 1843SOL     OW16990   0.256   2.863   9.006 -0.7515  0.2327  0.3245
 1843SOL    HW116991   0.267   2.951   9.043  0.2398  0.5396 -0.7030
 1843SOL    HW216992   0.343   2.849   8.968 -0.2576  0.4275  1.3829
 1844SOL     OW16993   3.260   2.096   4.082  0.2929 -0.4860  0.0179
 1844SOL    HW116994   3.250   2.081   3.988 -2.6437  1.2514  0.0293
 1844SOL    HW216995   3.286   2.011   4.116 -0.3368  0.3422  2.5730
 1845SOL     OW16996   2.482   3.128   7.413  0.1652  0.0106 -0.8997
 1845SOL    HW116997   2.434   3.173   7.482  1.8324  1.5752 -0.7695
 1845SOL    HW216998   2.429   3.049   7.401 -3.6975  2.5412 -0.5937
 1846SOL     OW16999   4.482   1.021   3.853  0.1577  0.3189 -0.1244
 1846SOL    HW117000   4.471   0.964   3.929 -0.4850 -1.8616 -1.8353
 1846SOL    HW217001   4.419   1.091   3.867 -2.6673 -1.9375 -1.3677
 1847SOL     OW17002   4.415   0.845   1.990 -0.0134  0.1890  0.2367
 1847SOL    HW117003   4.448   0.902   2.060  0.0098  0.2660  0.1630
 1847SOL    HW217004   4.494   0.827   1.939 -2.3046 -0.7894 -2.9374
 1848SOL     OW17005   0.167   4.696   8.471 -0.5698  0.5926  0.2587
 1848SOL    HW117006   0.105   0.021   8.415  1.1703 -0.7162 -2.7641
 1848SOL    HW217007   0.220   0.047   8.502 -0.8012  1.6289 -1.7761
 1849SOL     OW17008   0.668   3.058   7.054  0.0425 -0.0177  0.2586
 1849SOL    HW117009   0.598   3.123   7.060 -3.1753 -3.6076  1.4044
 1849SOL    HW217010   0.733   3.115   7.013 -1.5094  0.4804 -1.4745
 1850SOL     OW17011   0.535   3.599   0.039  0.0705 -0.5427  0.2109
 1850SOL    HW117012   0.477   3.551   0.099  2.1076  0.7788  3.2400
 1850SOL    HW217013   0.479   3.669   0.007 -0.9042  0.1538  3.4946
 1851SOL     OW17014   2.997   2.251   1.892  0.2665  0.3772  0.0615
 1851SOL    HW117015   3.003   2.170   1.840 -0.2560 -0.9143  2.0011
 1851SOL    HW217016   3.084   2.252   1.931  1.4026  0.7941 -2.4427
 1852SOL     OW17017   2.086   2.621   3.876 -0.0474  0.3241 -0.7938
 1852SOL    HW117018   2.030   2.697   3.895 -0.3919  0.4238 -2.2493
 1852SOL    HW217019   2.171   2.639   3.916 -0.7543  0.8230  0.4889
 1853SOL     OW17020   0.271   0.524   7.231  0.3516 -0.5109  0.1244
 1853SOL    HW117021   0.197   0.464   7.243 -1.1008  1.5079  1.2820
 1853SOL    HW217022   0.322   0.491   7.157  0.1312  0.1296 -0.3042
 1854SOL     OW17023   2.690   2.486  17.111  0.0130 -0.1229 -0.1213
 1854SOL    HW117024   2.746   2.563  17.125  2.4368 -2.4304  2.9253
 1854SOL    HW217025   2.660   2.477  17.201  0.8042 -1.8726 -0.0347
 1855SOL     OW17026   4.417   3.005   0.436  0.3035 -0.3505  0.4046
 1855SOL    HW117027   4.348   2.951   0.398  1.0711 -2.9903  2.8232
 1855SOL    HW217028   4.481   3.005   0.365 -0.1306  0.9899  0.0102
 1856SOL     OW17029   0.544   4.120   2.175  0.2170  0.2227  0.0949
 1856SOL    HW117030   0.518   4.030   2.196  0.5069  0.0368 -0.3503
 1856SOL    HW217031   0.485   4.143   2.103  1.7403  0.5663 -1.0509
 1857SOL     OW17032   0.121   3.000   7.628  0.6572 -0.5030 -0.0661
 1857SOL    HW117033   0.162   2.959   7.703  1.4730 -2.7873 -1.7624
 1857SOL    HW217034   0.130   3.094   7.648  0.3652 -0.6406  0.6848
 1858SOL     OW17035   4.107   1.506   4.360 -0.5247  0.4113 -0.6056
 1858SOL    HW117036   4.063   1.422   4.358 -0.1606  0.2086 -0.0379
 1858SOL    HW217037   4.065   1.561   4.427  0.9292 -0.2003  0.7997
 1859SOL     OW17038   0.992   2.701   6.250 -0.2879 -0.9355 -0.1418
 1859SOL    HW117039   0.912   2.747   6.225 -0.1851 -0.9760 -0.5397
 1859SOL    HW217040   1.042   2.741   6.178 -1.4651  0.7693 -0.0202
 1860SOL     OW17041   1.331   1.190  12.791 -0.0945  0.2958  1.1564
 1860SOL    HW117042   1.413   1.157  12.753 -0.3958 -1.9892  2.4780
 1860SOL    HW217043   1.267   1.157  12.728  1.0423  1.3850 -0.5756
 1861SOL     OW17044   0.115   1.461   9.087 -0.3538  0.4841 -0.1543
 1861SOL    HW117045   0.150   1.379   9.124 -1.5923  0.7286  1.5623
 1861SOL    HW217046   0.035   1.430   9.045 -0.3195  0.0148  0.1147
 1862SOL     OW17047   4.176   3.637   8.960  0.0845  0.0247 -0.1054
 1862SOL    HW117048   4.208   3.725   8.980 -1.1311  0.3341  0.5334
 1862SOL    HW217049   4.227   3.588   9.025 -1.7160  0.6150  1.7813
 1863SOL     OW17050   2.062   4.348  15.523 -0.0811 -0.2628 -0.4087
 1863SOL    HW117051   2.023   4.407  15.458  0.7632  0.6352 -0.1059
 1863SOL    HW217052   2.155   4.372  15.524 -0.5519  1.4920  1.9532
 1864SOL     OW17053   4.061   2.713   3.183  0.2169 -0.5121 -0.3989
 1864SOL    HW117054   4.127   2.733   3.117 -0.8449  2.4271 -0.5834
 1864SOL    HW217055   4.113   2.705   3.263 -1.4574  0.0697  0.7419
 1865SOL     OW17056   3.529   0.080   2.690 -0.3682  0.1425 -0.1519
 1865SOL    HW117057   3.535   0.020   2.764 -0.6084  0.0174 -0.2328
 1865SOL    HW217058   3.444   0.120   2.709 -0.5562 -0.0711 -0.5347
 1866SOL     OW17059   4.257   3.320   0.737  0.4882  0.4708  0.1492
 1866SOL    HW117060   4.169   3.290   0.717  0.8030  0.2024 -0.8118
 1866SOL    HW217061   4.233   3.375   0.812  2.4538  0.9695  0.4187
 1867SOL     OW17062   4.488   1.954   6.478  0.1645 -0.2465  0.1259
 1867SOL    HW117063   4.576   1.923   6.495 -0.1879 -2.3142 -1.7391
 1867SOL    HW217064   4.509   2.007   6.401 -1.9955  1.2046  0.5370
 1868SOL     OW17065   0.595   3.860  14.081  0.8118  0.0699  0.0141
 1868SOL    HW117066   0.565   3.892  14.167  0.2325 -0.3876 -0.0231
 1868SOL    HW217067   0.628   3.773  14.104 -1.0205 -0.7601 -0.5568
 1869SOL     OW17068   2.737   3.859   3.505 -0.3841 -0.5896  0.3932
 1869SOL    HW117069   2.668   3.877   3.569 -1.4916  0.2849 -1.0534
 1869SOL    HW217070   2.698   3.801   3.439 -1.2313 -0.0900  0.4554
 1870SOL     OW17071   2.662   2.975   1.784  0.0953 -0.5037 -0.8760
 1870SOL    HW117072   2.745   2.963   1.830  0.4970  1.0874 -1.2045
 1870SOL    HW217073   2.689   2.993   1.694 -1.1066 -0.8064 -1.2917
 1871SOL     OW17074   1.352   1.920   6.872  0.0992  0.3505 -0.4286
 1871SOL    HW117075   1.443   1.944   6.890 -0.1560  0.2926  0.9391
 1871SOL    HW217076   1.346   1.839   6.923  1.4616 -0.9433 -2.3087
 1872SOL     OW17077   1.672   2.737  15.184 -0.2815 -0.1179 -0.3755
 1872SOL    HW117078   1.675   2.787  15.265  2.9555 -1.8159  0.5454
 1872SOL    HW217079   1.759   2.699  15.178 -0.3607 -0.6736  2.2318
 1873SOL     OW17080   2.452   3.715  11.597 -0.4117  0.0089 -0.2952
 1873SOL    HW117081   2.453   3.790  11.537 -0.0072 -1.3454 -2.0108
 1873SOL    HW217082   2.428   3.756  11.679 -1.6639 -1.2074 -0.0662
 1874SOL     OW17083   4.558   2.525   2.515  0.0764  0.6039  0.6926
 1874SOL    HW117084   4.529   2.453   2.459 -0.7906  1.3293  0.2117
 1874SOL    HW217085   4.641   2.529   2.467 -1.5154 -0.5562 -2.1212
 1875SOL     OW17086   0.268   1.186  11.739  0.2174  0.3125 -0.1215
 1875SOL    HW117087   0.203   1.253  11.759 -0.5458  0.1555 -2.1423
 1875SOL    HW217088   0.324   1.232  11.677 -0.6207 -0.1905 -1.2430
 1876SOL     OW17089   3.596   2.973   9.324 -0.1718 -0.1558  0.1100
 1876SOL    HW117090   3.689   2.978   9.343 -0.2013 -0.9677  0.4928
 1876SOL    HW217091   3.591   2.899   9.263  1.1044 -0.5720  0.5084
 1877SOL     OW17092   1.275   2.308   4.280 -0.4235  0.7050 -0.0509
 1877SOL    HW117093   1.257   2.287   4.189  0.9046 -1.9003  0.2743
 1877SOL    HW217094   1.251   2.224   4.319 -3.0739  0.7427 -1.6331
 1878SOL     OW17095   4.176   4.704   6.225  0.7600  0.3510  0.0265
 1878SOL    HW117096   4.206   0.032   6.149 -2.0282 -0.4738 -1.6485
 1878SOL    HW217097   4.183   0.052   6.290 -0.6818  0.7834 -0.2866
 1879SOL     OW17098   1.194   2.767   8.758  0.9023  0.3400  0.3436
 1879SOL    HW117099   1.153   2.850   8.781 -1.7517 -1.4450  2.0020
 1879SOL    HW217100   1.165   2.708   8.827  1.0000  1.3167  1.2216
 1880SOL     OW17101   2.773   0.119   0.081 -0.0695  0.2293  0.6630
 1880SOL    HW117102   2.690   0.118   0.128 -0.8209 -3.0311 -0.7570
 1880SOL    HW217103   2.769   0.039   0.028  1.8274 -0.3189  1.3630
 1881SOL     OW17104   3.535   2.199   3.664  0.5387  0.8330 -0.2009
 1881SOL    HW117105   3.499   2.286   3.645  0.7973  1.0978  0.5197
 1881SOL    HW217106   3.549   2.172   3.573  0.0864  0.3725 -0.1279
 1882SOL     OW17107   4.386   3.919   3.829  0.4283 -0.1743 -0.0920
 1882SOL    HW117108   4.333   3.902   3.907  0.1077 -0.9567 -0.4845
 1882SOL    HW217109   4.321   3.949   3.767 -2.2159 -0.9303  2.3053
 1883SOL     OW17110   0.115   3.552   7.524 -0.1209 -0.6573  0.5777
 1883SOL    HW117111   0.089   3.617   7.590 -0.4788 -0.1415 -0.0621
 1883SOL    HW217112   0.047   3.560   7.456 -1.8970 -2.9991  2.0920
 1884SOL     OW17113   4.661   4.124   6.537 -0.0793  0.4597  0.4219
 1884SOL    HW117114   4.662   4.028   6.533 -1.3355  0.3356  3.4054
 1884SOL    HW217115   0.025   4.146   6.502 -0.7715 -0.9993 -2.2237
 1885SOL     OW17116   3.036   1.511   2.961 -0.3395  0.0273 -0.3754
 1885SOL    HW117117   3.033   1.419   2.937 -1.7424  0.0772 -0.4024
 1885SOL    HW217118   2.943   1.526   2.979 -0.4420  2.5900 -3.0085
 1886SOL     OW17119   0.838   2.930   0.156 -0.5174 -0.2808  0.3109
 1886SOL    HW117120   0.770   2.912   0.091 -0.8461 -0.4708  0.7038
 1886SOL    HW217121   0.835   2.857   0.218 -1.1205  0.0508  0.6798
 1887SOL     OW17122   1.452   1.566  10.073  0.6577  0.5793 -0.4811
 1887SOL    HW117123   1.467   1.562  10.167  1.0040 -0.1067 -0.5644
 1887SOL    HW217124   1.534   1.597  10.036  1.1824 -1.2307 -0.8735
 1888SOL     OW17125   1.230   1.110   4.492 -0.6806 -0.0445 -0.0176
 1888SOL    HW117126   1.207   1.171   4.563  0.2193 -0.1525  0.3709
 1888SOL    HW217127   1.316   1.076   4.518 -1.0676 -1.9085 -1.2564
 1889SOL     OW17128   1.083   0.978   5.298  0.2797 -0.1655  0.0790
 1889SOL    HW117129   0.999   0.934   5.314 -0.4025  1.2996  0.4723
 1889SOL    HW217130   1.068   1.069   5.325  0.0856 -0.0941 -0.2745
 1890SOL     OW17131   1.188   2.071   4.330 -0.1244  0.4538  0.5252
 1890SOL    HW117132   1.196   2.017   4.251 -0.2191  0.1400  0.7267
 1890SOL    HW217133   1.204   2.007   4.399 -1.8972 -1.5545 -0.9203
 1891SOL     OW17134   4.466   3.601   0.881  0.3287  0.2000 -0.3008
 1891SOL    HW117135   4.498   3.607   0.971 -0.8777  1.2007  0.0627
 1891SOL    HW217136   4.395   3.537   0.883 -1.4748  2.2032 -1.0191
 1892SOL     OW17137   4.048   1.969   6.920  0.4598 -0.2477 -0.1070
 1892SOL    HW117138   4.011   1.885   6.946  0.1016  0.2474  0.9885
 1892SOL    HW217139   4.067   1.940   6.831 -1.3039 -0.9882 -0.2266
 1893SOL     OW17140   0.926   4.549   6.068 -0.2315 -0.1984 -0.1788
 1893SOL    HW117141   0.914   4.460   6.036 -1.5404 -0.3625  0.7532
 1893SOL    HW217142   0.835   4.572   6.088  0.7305  1.7859  1.9071
 1894SOL     OW17143   1.878   2.437   8.465  0.4471  0.0238 -0.1273
 1894SOL    HW117144   1.855   2.433   8.558  0.4615 -0.3832 -0.1422
 1894SOL    HW217145   1.854   2.528   8.447  0.7488  0.3981  1.3655
 1895SOL     OW17146   2.356   3.882   8.419  0.8093  0.0744  0.0859
 1895SOL    HW117147   2.427   3.899   8.481  0.8257  0.3119  0.0044
 1895SOL    HW217148   2.284   3.912   8.475  2.3381  2.5649  0.7436
 1896SOL     OW17149   0.858   2.360   6.603 -0.2984  0.7600 -0.0010
 1896SOL    HW117150   0.851   2.435   6.661  1.3296  1.5149 -0.7863
 1896SOL    HW217151   0.767   2.330   6.608 -0.3135  0.7702 -0.2093
 1897SOL     OW17152   4.115   0.737   5.163  0.3344 -0.0532 -0.1014
 1897SOL    HW117153   4.171   0.685   5.105 -0.9442 -1.5967  0.0317
 1897SOL    HW217154   4.155   0.734   5.250 -1.9097  0.7779  0.9503
 1898SOL     OW17155   1.189   2.773   5.551 -0.2597  0.4397  0.1367
 1898SOL    HW117156   1.226   2.810   5.631  0.1065 -0.1215  0.2231
 1898SOL    HW217157   1.112   2.828   5.535  0.7766  2.5317  2.4178
 1899SOL     OW17158   0.883   0.095  10.435  0.4266 -0.6437 -0.0851
 1899SOL    HW117159   0.934   0.051  10.502  0.9815  0.1276 -0.0055
 1899SOL    HW217160   0.851   0.024  10.380 -0.8451  0.2641 -0.5236
 1900SOL     OW17161   4.705   1.423  16.281 -0.5069  0.2413  0.3600
 1900SOL    HW117162   4.640   1.427  16.351  0.5253 -1.9266  1.4220
 1900SOL    HW217163   4.649   1.370  16.224  0.9236  0.5265 -1.3254
 1901SOL     OW17164   4.244   1.971  16.152 -0.5720  0.6754 -0.0661
 1901SOL    HW117165   4.244   2.004  16.242  0.0892  0.1881  0.1158
 1901SOL    HW217166   4.254   1.879  16.175 -0.0690  1.2776  2.0996
 1902SOL     OW17167   0.559   0.852   1.668  0.1194 -0.5938  0.1991
 1902SOL    HW117168   0.556   0.886   1.579  1.7470 -2.0689 -0.4132
 1902SOL    HW217169   0.481   0.798   1.680 -1.1735  0.9572 -1.1568
 1903SOL     OW17170   0.981   3.655   3.295 -0.2216 -0.4435 -0.5730
 1903SOL    HW117171   0.996   3.571   3.338 -3.8148  0.0530  1.6463
 1903SOL    HW217172   0.903   3.695   3.334 -0.1167 -0.6401 -0.1674
 1904SOL     OW17173   3.148   3.242   4.966  0.0341  0.1132 -0.3101
 1904SOL    HW117174   3.185   3.160   5.000  0.6935  0.2954 -0.5935
 1904SOL    HW217175   3.118   3.283   5.047  0.3696  0.9132 -0.5946
 1905SOL     OW17176   0.278   0.426  13.862 -0.3666 -0.4087  0.2090
 1905SOL    HW117177   0.200   0.403  13.811  0.3640  0.0019 -1.0934
 1905SOL    HW217178   0.268   0.364  13.934 -1.1108  0.1008  0.5472
 1906SOL     OW17179   4.497   0.587   8.348  0.2078  0.3333  0.0016
 1906SOL    HW117180   4.538   0.669   8.376 -0.3017  1.3660 -2.3305
 1906SOL    HW217181   4.406   0.595   8.374  0.5153  2.0780  0.5445
 1907SOL     OW17182   1.575   3.245   8.607 -0.6081 -0.4161 -0.4636
 1907SOL    HW117183   1.563   3.162   8.561  0.0276 -2.1639  2.4859
 1907SOL    HW217184   1.671   3.246   8.604 -0.6052  1.4163  0.1652
 1908SOL     OW17185   2.283   2.721   5.216  0.2899  0.2146  0.3151
 1908SOL    HW117186   2.211   2.768   5.174  1.0465  0.4241 -0.7754
 1908SOL    HW217187   2.285   2.770   5.298  2.0849  2.7670 -1.2201
 1909SOL     OW17188   0.986   1.725   0.381 -0.5743 -0.4952  0.4690
 1909SOL    HW117189   0.978   1.736   0.287 -0.8776 -1.1712  0.4188
 1909SOL    HW217190   1.063   1.668   0.387  0.3075  0.6008 -0.6193
 1910SOL     OW17191   1.726   1.847   0.580  0.9341  0.0379 -0.2027
 1910SOL    HW117192   1.694   1.874   0.667  1.3976 -0.4228  0.1113
 1910SOL    HW217193   1.734   1.755   0.606  0.8917  0.2522  0.5854
 1911SOL     OW17194   0.915   3.080   7.325 -0.4833 -0.0383 -0.1754
 1911SOL    HW117195   0.870   3.040   7.400 -3.8872  2.1946 -1.0541
 1911SOL    HW217196   0.877   3.167   7.337 -1.1045 -0.2622 -0.5582
 1912SOL     OW17197   4.697   2.224   0.465  0.5537 -0.2529 -0.2785
 1912SOL    HW117198   4.644   2.235   0.387 -1.1519  1.3703  1.1182
 1912SOL    HW217199   0.037   2.297   0.464 -1.2935  1.2856 -1.3256
 1913SOL     OW17200   4.202   0.651   8.973  0.0055  0.3486  0.1865
 1913SOL    HW117201   4.126   0.710   8.969 -0.8083 -0.7243 -0.0872
 1913SOL    HW217202   4.167   0.563   8.976 -1.1077  0.6820 -2.5738
 1914SOL     OW17203   4.073   0.967   2.405  0.2489  0.3397 -0.2290
 1914SOL    HW117204   4.067   1.021   2.327  0.1002  0.6790  0.0166
 1914SOL    HW217205   4.137   0.902   2.375  1.3811  1.2699  0.1645
 1915SOL     OW17206   1.026   0.563   8.868 -0.0110  0.4351 -0.4003
 1915SOL    HW117207   1.104   0.572   8.812 -0.6731  1.3444 -1.1742
 1915SOL    HW217208   1.068   0.581   8.952 -0.2524  1.8214 -0.5775
 1916SOL     OW17209   4.310   3.648   4.916 -0.3202 -0.0855 -0.3242
 1916SOL    HW117210   4.228   3.610   4.885 -0.2727  1.2738 -2.1527
 1916SOL    HW217211   4.274   3.715   4.975 -0.5373 -0.2948 -0.2216
 1917SOL     OW17212   0.415   1.860   5.862 -0.2422 -0.3123 -0.0295
 1917SOL    HW117213   0.336   1.827   5.904 -0.3427 -0.6585 -0.4811
 1917SOL    HW217214   0.426   1.786   5.802  1.9252  1.1353 -1.4537
 1918SOL     OW17215   1.727   0.359   6.905  0.2688 -0.2965  0.2133
 1918SOL    HW117216   1.737   0.454   6.907 -1.4280 -0.1416  1.2422
 1918SOL    HW217217   1.800   0.337   6.847  0.9530  1.0333  0.5646
 1919SOL     OW17218   1.321   2.991   1.824  0.2193 -0.3655 -0.1548
 1919SOL    HW117219   1.287   2.901   1.829 -0.4366  0.0261  2.4666
 1919SOL    HW217220   1.387   2.974   1.758 -0.3018 -0.7277 -0.5868
 1920SOL     OW17221   2.337   0.963   6.146  0.3452 -0.1916 -0.4308
 1920SOL    HW117222   2.414   1.020   6.150  0.5623 -0.5179  0.1840
 1920SOL    HW217223   2.290   1.020   6.085  0.8633  1.6084  0.8293
 1921SOL     OW17224   1.633   0.215   6.311 -0.4479 -0.2047  0.8166
 1921SOL    HW117225   1.660   0.248   6.397 -3.7008  3.1428  0.5490
 1921SOL    HW217226   1.617   0.122   6.328  1.0006 -0.3819  1.2733
 1922SOL     OW17227   2.531   0.809   0.486 -0.1704  0.4291  0.7073
 1922SOL    HW117228   2.515   0.833   0.577 -2.9982 -0.7679  0.5411
 1922SOL    HW217229   2.596   0.874   0.458  0.9161 -0.4349  1.2047
 1923SOL     OW17230   1.111   0.883   3.927  0.3699  0.0242  0.2011
 1923SOL    HW117231   1.094   0.843   3.842 -1.4050 -0.6868  0.9023
 1923SOL    HW217232   1.125   0.971   3.893  0.1417  0.6103  1.6549
 1924SOL     OW17233   3.727   4.489   9.175 -0.0035 -0.2366  0.0137
 1924SOL    HW117234   3.804   4.494   9.232 -1.9970  2.4270  2.4713
 1924SOL    HW217235   3.655   4.498   9.237 -0.0582 -1.6200  0.1497
 1925SOL     OW17236   2.222   1.591   4.093 -0.1226  0.3814 -0.1062
 1925SOL    HW117237   2.150   1.530   4.112 -0.0454  0.6073  0.9138
 1925SOL    HW217238   2.252   1.601   4.183 -0.1556  0.0654 -0.0600
 1926SOL     OW17239   4.191   3.478  12.568  0.3070  0.0361  0.1565
 1926SOL    HW117240   4.215   3.439  12.484  0.9702  1.6574 -0.4108
 1926SOL    HW217241   4.139   3.412  12.614  1.9857 -2.3950 -1.4120
 1927SOL     OW17242   2.371   0.444   6.269 -0.2633  0.4163 -0.0980
 1927SOL    HW117243   2.372   0.426   6.176 -5.2805 -1.2789  0.1972
 1927SOL    HW217244   2.356   0.538   6.257  1.7830  0.6778 -0.5552
 1928SOL     OW17245   3.885   3.264  11.505 -0.0490  0.7893 -0.4053
 1928SOL    HW117246   3.978   3.282  11.493  0.3777 -2.1677 -1.4721
 1928SOL    HW217247   3.865   3.252  11.412  0.2535 -1.5596 -0.1503
 1929SOL     OW17248   4.458   4.308  10.086  0.2232 -1.1083  0.4783
 1929SOL    HW117249   4.505   4.305  10.169  0.2620 -0.4980  0.4795
 1929SOL    HW217250   4.481   4.399  10.066 -2.3713 -0.7037 -0.6713
 1930SOL     OW17251   1.057   2.064   5.495 -0.1324 -0.1430  0.1408
 1930SOL    HW117252   1.047   2.156   5.470 -1.3764  0.1291  1.6061
 1930SOL    HW217253   0.990   2.013   5.451  0.3284 -0.8534  0.2529
 1931SOL     OW17254   4.077   3.517   4.889  0.4587 -0.5397 -0.5995
 1931SOL    HW117255   4.007   3.534   4.953  0.9301  0.3445 -0.3228
 1931SOL    HW217256   4.043   3.444   4.837  1.0657 -0.9695 -0.3857
 1932SOL     OW17257   3.933   0.039   3.592 -0.5519 -0.0607 -0.8692
 1932SOL    HW117258   3.952   0.001   3.507 -0.9136 -0.5480 -0.7312
 1932SOL    HW217259   4.020   0.024   3.630 -0.9360 -0.1634 -0.0154
 1933SOL     OW17260   1.434   2.688  10.148 -0.3203 -0.2011 -0.0589
 1933SOL    HW117261   1.408   2.696  10.240 -1.9343 -1.4517 -0.3936
 1933SOL    HW217262   1.396   2.759  10.097  0.2118 -0.6080 -1.0193
 1934SOL     OW17263   4.075   2.048  14.284  0.3975  0.0136 -0.7318
 1934SOL    HW117264   4.046   2.039  14.375 -2.2513 -0.7457 -1.6338
 1934SOL    HW217265   4.001   2.000  14.245 -0.4787  1.2273 -0.5508
 1935SOL     OW17266   3.847   0.638   5.264 -0.1484  0.2638 -0.1643
 1935SOL    HW117267   3.924   0.686   5.232 -0.4499  0.5978 -0.3896
 1935SOL    HW217268   3.892   0.554   5.266 -1.5754 -0.4592  1.0925
 1936SOL     OW17269   3.460   4.603  16.198  0.4264 -0.0685  0.2902
 1936SOL    HW117270   3.496   4.689  16.218 -0.6785 -0.2285  2.9034
 1936SOL    HW217271   3.536   4.545  16.194  1.9931  1.8944  2.1938
 1937SOL     OW17272   1.746   2.260   1.404  0.5251  0.3959  0.3312
 1937SOL    HW117273   1.682   2.190   1.396  0.7685  0.2283 -0.2099
 1937SOL    HW217274   1.818   2.213   1.361 -0.3339 -0.8608  0.2893
 1938SOL     OW17275   1.310   4.536   7.407  0.1000 -0.8504 -0.0802
 1938SOL    HW117276   1.383   4.598   7.400  0.8586 -1.6371  0.9874
 1938SOL    HW217277   1.354   4.452   7.396  1.7972 -0.1661  1.4928
 1939SOL     OW17278   4.263   1.269   0.764  0.1645  0.1872 -0.3044
 1939SOL    HW117279   4.203   1.199   0.791  1.8344 -0.1873  2.3630
 1939SOL    HW217280   4.344   1.233   0.800 -0.3900  1.2328  1.9883
 1940SOL     OW17281   2.109   0.824   1.083  0.0553  0.2413  0.0960
 1940SOL    HW117282   2.053   0.798   1.156  4.1958 -0.0153  3.2340
 1940SOL    HW217283   2.052   0.834   1.007  0.9238 -0.8236 -0.6980
 1941SOL     OW17284   1.635   0.886   7.560 -0.0061 -0.3686  0.0028
 1941SOL    HW117285   1.627   0.793   7.583  0.9803 -1.0851 -2.5410
 1941SOL    HW217286   1.623   0.925   7.647 -1.6806  0.2188 -0.4995
 1942SOL     OW17287   0.936   0.844  14.803  0.4204 -0.0382 -0.0818
 1942SOL    HW117288   1.009   0.804  14.849 -1.2713 -0.3106  2.3283
 1942SOL    HW217289   0.981   0.922  14.768  0.6145 -0.2321 -0.2648
 1943SOL     OW17290   4.469   4.599  16.456  0.8005  0.6481 -0.2407
 1943SOL    HW117291   4.435   4.634  16.374 -0.8624 -0.3172  0.0278
 1943SOL    HW217292   4.453   4.671  16.517 -0.7769 -0.1570  0.3007
 1944SOL     OW17293   2.220   1.614   7.557 -0.1106 -0.6500 -0.4586
 1944SOL    HW117294   2.299   1.561   7.571  1.4475  1.0300 -3.0080
 1944SOL    HW217295   2.174   1.561   7.492  0.3812 -0.6735 -0.7838
 1945SOL     OW17296   3.714   2.934  14.683  0.0914 -0.0496  0.2667
 1945SOL    HW117297   3.622   2.912  14.693  0.2360 -0.9456 -0.3316
 1945SOL    HW217298   3.730   2.982  14.764 -2.1333 -3.0554  2.4327
 1946SOL     OW17299   2.514   1.257   5.161 -0.5147 -0.0767  0.2446
 1946SOL    HW117300   2.526   1.209   5.244 -0.3789 -0.5839 -0.0668
 1946SOL    HW217301   2.574   1.329   5.182  0.7915 -0.8266 -0.9784
 1947SOL     OW17302   2.851   3.413   4.553  0.0735  0.0020  0.1596
 1947SOL    HW117303   2.925   3.356   4.573 -0.2971  0.0147  1.5741
 1947SOL    HW217304   2.886   3.446   4.471  1.7213 -0.1508  0.8097
 1948SOL     OW17305   1.516   1.067  11.913  0.5366  0.0699 -0.8730
 1948SOL    HW117306   1.588   1.038  11.858  0.2572 -0.8377 -0.7753
 1948SOL    HW217307   1.491   1.153  11.879  0.4084  0.9368  1.4122
 1949SOL     OW17308   2.018   2.953   7.678  0.6030  0.1344  0.1261
 1949SOL    HW117309   2.111   2.969   7.660  0.6820 -0.6599 -0.2056
 1949SOL    HW217310   1.989   3.038   7.709 -1.4052 -0.8868  1.0516
 1950SOL     OW17311   2.672   0.744   2.480  0.4167  0.0947 -0.4098
 1950SOL    HW117312   2.718   0.824   2.454  0.3904  0.6316  1.2183
 1950SOL    HW217313   2.647   0.706   2.396  2.8568  0.3215 -1.2544
 1951SOL     OW17314   0.078   4.696  17.152 -0.4336 -0.5695  0.7346
 1951SOL    HW117315   0.160   4.653  17.129 -1.0776 -2.8701  2.7023
 1951SOL    HW217316   0.073   0.040  17.083  0.0030 -0.7130  0.5678
 1952SOL     OW17317   1.947   1.523   6.988  0.0482  0.4860  0.6346
 1952SOL    HW117318   1.964   1.432   6.963  1.1466  0.8020  0.2447
 1952SOL    HW217319   1.853   1.510   6.997 -0.0426  0.4166 -0.4386
 1953SOL     OW17320   4.577   3.676   0.526  0.3209 -0.0802  0.4264
 1953SOL    HW117321   4.581   3.771   0.531  0.3058  0.0619 -2.4628
 1953SOL    HW217322   4.609   3.670   0.436  1.3740  0.1512  0.7780
 1954SOL     OW17323   3.542   0.985   2.947 -0.7880 -0.3291 -0.0180
 1954SOL    HW117324   3.511   1.007   3.035  1.0246  0.6232  0.3819
 1954SOL    HW217325   3.489   1.047   2.898 -0.4725 -0.5103 -0.5929
 1955SOL     OW17326   3.115   4.172   1.044 -0.6977  0.0883 -0.9399
 1955SOL    HW117327   3.023   4.157   1.023 -1.1114  0.4925  0.5769
 1955SOL    HW217328   3.106   4.252   1.097 -0.9961 -0.7283  0.2270
 1956SOL     OW17329   1.391   2.479  15.720  0.1411 -0.3795  1.0216
 1956SOL    HW117330   1.481   2.447  15.718  0.5499  0.9246 -1.4778
 1956SOL    HW217331   1.357   2.461  15.808 -3.0113 -0.5596 -0.2185
 1957SOL     OW17332   2.069   2.263   2.918 -0.4437 -0.0890  0.1751
 1957SOL    HW117333   2.077   2.345   2.968 -2.2463  0.5188 -0.5074
 1957SOL    HW217334   2.030   2.299   2.838 -0.1604  0.5330  0.3152
 1958SOL     OW17335   0.359   3.711   0.854  0.1803  0.1231 -0.5763
 1958SOL    HW117336   0.436   3.716   0.911 -0.7536 -0.3115  0.7482
 1958SOL    HW217337   0.303   3.656   0.910 -0.4003 -0.3760 -1.6519
 1959SOL     OW17338   2.038   4.491   4.276 -0.3397 -0.1871  0.2427
 1959SOL    HW117339   1.979   4.519   4.206  0.9452 -2.7819 -1.8794
 1959SOL    HW217340   2.006   4.407   4.308 -1.0209  0.1820  0.5363
 1960SOL     OW17341   2.928   1.525   3.351 -0.4719 -0.2405 -0.0900
 1960SOL    HW117342   2.964   1.585   3.285 -1.0780  0.8580  0.5930
 1960SOL    HW217343   2.971   1.441   3.336 -0.4776  0.4313 -3.8563
 1961SOL     OW17344   1.937   1.413  10.670 -0.7092 -0.5889 -0.0657
 1961SOL    HW117345   1.884   1.334  10.683  0.5968 -1.1543  1.8004
 1961SOL    HW217346   1.881   1.475  10.716  0.8636 -0.2366  1.3710
 1962SOL     OW17347   2.400   1.325   0.100 -0.1735 -0.2064 -0.6995
 1962SOL    HW117348   2.439   1.309   0.185  0.7056 -0.5620 -1.1680
 1962SOL    HW217349   2.362   1.413   0.099 -2.1854 -1.0817 -0.1501
 1963SOL     OW17350   2.833   2.107   4.449 -0.1845  0.6327 -0.4038
 1963SOL    HW117351   2.825   2.123   4.355 -0.8032  2.5947 -0.0121
 1963SOL    HW217352   2.919   2.149   4.459 -0.8530  2.0065 -0.5169
 1964SOL     OW17353   0.808   3.620   9.081 -0.1009  0.1765 -1.0828
 1964SOL    HW117354   0.837   3.691   9.024  0.1559  0.4046 -0.6742
 1964SOL    HW217355   0.854   3.637   9.164 -1.5011 -2.0687  0.1545
 1965SOL     OW17356   4.385   2.237  12.165 -0.8119 -0.2092 -0.7552
 1965SOL    HW117357   4.374   2.315  12.220 -0.8518 -1.1997  0.6323
 1965SOL    HW217358   4.306   2.187  12.187  0.4360 -1.8261  0.0921
 1966SOL     OW17359   0.629   2.045   3.628  0.3486 -0.4656  0.2746
 1966SOL    HW117360   0.593   2.063   3.541  1.5446 -2.2955 -0.5938
 1966SOL    HW217361   0.662   2.129   3.658 -1.3650 -0.0537  0.9932
 1967SOL     OW17362   0.919   3.662   8.068  0.0279  0.0359 -0.0289
 1967SOL    HW117363   0.859   3.717   8.117 -2.5060  0.4126 -3.5729
 1967SOL    HW217364   0.862   3.668   7.991  1.0288 -1.5426 -0.9038
 1968SOL     OW17365   2.808   2.507  16.245 -0.2332  0.2735 -0.6633
 1968SOL    HW117366   2.730   2.479  16.197  0.2099 -0.6721 -0.8367
 1968SOL    HW217367   2.818   2.430  16.301  0.7993  1.3462  0.6399
 1969SOL     OW17368   1.222   2.586  13.982  0.3916 -0.3323  0.2971
 1969SOL    HW117369   1.248   2.499  14.013  1.2365 -0.4904 -0.8620
 1969SOL    HW217370   1.303   2.634  13.998 -0.6616  1.5563 -0.0505
 1970SOL     OW17371   1.144   4.277  15.040 -0.9708  0.4208 -0.4521
 1970SOL    HW117372   1.069   4.335  15.042 -1.0450  0.3114 -0.0564
 1970SOL    HW217373   1.197   4.319  15.109 -2.1783 -1.2541  1.5013
 1971SOL     OW17374   2.245   0.818   2.983 -0.3812 -0.4998  0.3328
 1971SOL    HW117375   2.340   0.805   2.986 -0.5858 -2.4484 -1.8457
 1971SOL    HW217376   2.238   0.890   2.920 -0.4212 -0.8896 -0.1043
 1972SOL     OW17377   4.519   1.421   3.603  0.9614  0.0792 -0.1988
 1972SOL    HW117378   4.482   1.337   3.577  0.3615  0.4582 -0.5726
 1972SOL    HW217379   4.511   1.464   3.518 -2.2403 -0.9218 -0.3705
 1973SOL     OW17380   3.706   4.544   3.273 -0.4572  0.1136  0.2091
 1973SOL    HW117381   3.801   4.553   3.286 -0.8495  0.9214  2.5440
 1973SOL    HW217382   3.680   4.559   3.364  0.3955 -0.0159  0.4781
 1974SOL     OW17383   3.259   2.583  12.166  0.2026  0.8933  0.0916
 1974SOL    HW117384   3.320   2.614  12.099  1.1630  0.1710  0.6358
 1974SOL    HW217385   3.197   2.543  12.105  0.3011  0.9209 -0.0257
 1975SOL     OW17386   0.585   3.495   6.336  0.1264 -0.0676 -0.4370
 1975SOL    HW117387   0.522   3.425   6.351  0.0527  0.3665  1.2521
 1975SOL    HW217388   0.663   3.442   6.321  0.8805  1.1263 -0.7468
 1976SOL     OW17389   3.315   3.942   2.574  0.2078 -0.0236 -0.2990
 1976SOL    HW117390   3.357   3.882   2.513 -0.8777  1.3367 -2.3516
 1976SOL    HW217391   3.361   3.920   2.655 -1.7538 -0.8807  0.5929
 1977SOL     OW17392   3.724   0.808   1.652  0.2843 -0.5821  0.0530
 1977SOL    HW117393   3.747   0.749   1.725  1.2189 -0.5720 -0.2404
 1977SOL    HW217394   3.629   0.798   1.658  0.1439  1.8598  2.0178
 1978SOL     OW17395   4.474   1.941   1.336 -0.0333 -0.4695 -0.2491
 1978SOL    HW117396   4.411   1.870   1.319 -0.6894 -0.3278  1.5910
 1978SOL    HW217397   4.479   1.988   1.253 -0.0505  1.2735  0.7432
 1979SOL     OW17398   3.987   2.914   2.172 -0.3398  0.0446  0.4751
 1979SOL    HW117399   4.069   2.879   2.208  1.0470  0.2236 -2.5639
 1979SOL    HW217400   3.928   2.907   2.248 -0.8158 -0.3371  0.0655
 1980SOL     OW17401   3.268   3.746  11.687  0.3179 -0.2381 -0.2660
 1980SOL    HW117402   3.312   3.758  11.771 -0.1945 -2.4091  0.3293
 1980SOL    HW217403   3.326   3.783  11.621 -1.0798 -0.2417 -1.4869
 1981SOL     OW17404   0.738   2.338   7.480  0.0452 -0.3518  0.1496
 1981SOL    HW117405   0.770   2.384   7.402  2.2582  1.0338  1.8560
 1981SOL    HW217406   0.648   2.371   7.489 -0.2704 -0.7476 -1.5234
 1982SOL     OW17407   1.035   1.251   5.350  0.0432 -0.3164 -0.0033
 1982SOL    HW117408   1.092   1.325   5.371 -0.2493 -0.5016  1.4610
 1982SOL    HW217409   0.972   1.291   5.290  2.1818  1.8815 -0.7724
 1983SOL     OW17410   3.035   2.059  16.335 -0.2834  0.2953 -0.2007
 1983SOL    HW117411   2.964   2.124  16.336  0.5604  1.2194 -0.1521
 1983SOL    HW217412   3.016   2.025  16.248  0.1277  0.7191 -0.4578
 1984SOL     OW17413   2.786   3.751   7.539  0.6319 -0.1786 -0.4455
 1984SOL    HW117414   2.704   3.745   7.588 -0.0868 -0.3351 -1.6615
 1984SOL    HW217415   2.785   3.845   7.521  0.1920  0.4408  2.7698
 1985SOL     OW17416   2.462   1.298   1.289 -0.5385  0.4963 -0.0129
 1985SOL    HW117417   2.384   1.352   1.281 -1.8499 -1.2436  1.0030
 1985SOL    HW217418   2.515   1.315   1.211  1.9703  1.8025  2.0130
 1986SOL     OW17419   4.528   2.324   2.330  0.3424 -0.2091  1.0863
 1986SOL    HW117420   4.595   2.267   2.293 -1.9880 -0.9664 -1.9789
 1986SOL    HW217421   4.455   2.264   2.343 -0.7809  0.7665 -0.7265
 1987SOL     OW17422   1.201   3.071   4.462  0.7240 -0.4580 -0.1741
 1987SOL    HW117423   1.239   3.026   4.538 -0.0290 -2.0066 -0.7042
 1987SOL    HW217424   1.208   2.997   4.401 -1.1198  0.6913 -1.7827
 1988SOL     OW17425   4.120   4.436  11.169  0.0885 -0.5617  0.0775
 1988SOL    HW117426   4.154   4.404  11.085  0.5240  0.2200 -0.0424
 1988SOL    HW217427   4.176   4.380  11.222 -1.5450 -0.5438  1.8061
 1989SOL     OW17428   0.154   2.206  15.502 -0.0367 -0.0066 -0.3231
 1989SOL    HW117429   0.072   2.157  15.502  0.5778 -1.0115 -0.0495
 1989SOL    HW217430   0.124   2.297  15.513 -0.0624  0.2640 -2.7578
 1990SOL     OW17431   2.636   0.154   6.163 -0.4317  0.0065  0.1428
 1990SOL    HW117432   2.565   0.093   6.143 -0.4508  0.6663 -1.8189
 1990SOL    HW217433   2.690   0.078   6.182 -0.2848  0.0686 -0.0256
 1991SOL     OW17434   1.724   3.985   7.183 -0.5466  0.0524 -0.5195
 1991SOL    HW117435   1.704   3.912   7.123 -0.5606  0.4158 -0.9566
 1991SOL    HW217436   1.783   3.940   7.244  1.4096  2.3151 -0.7692
 1992SOL     OW17437   0.037   0.601  11.496 -0.5203 -0.0449  0.7192
 1992SOL    HW117438   4.669   0.571  11.509 -0.5731 -0.7811 -1.3307
 1992SOL    HW217439   0.043   0.608  11.400 -1.2042 -0.3838  0.6517
 1993SOL     OW17440   2.469   2.115   5.528 -0.1948 -0.2338  0.4665
 1993SOL    HW117441   2.449   2.092   5.437  1.2433 -1.0142  0.3650
 1993SOL    HW217442   2.418   2.047   5.573  0.7970 -0.4963  1.1776
 1994SOL     OW17443   4.151   3.775   4.405 -0.0530 -0.2343 -0.2647
 1994SOL    HW117444   4.121   3.819   4.484  0.8371  0.3094 -0.2291
 1994SOL    HW217445   4.129   3.685   4.427  1.0469 -0.7801 -1.3891
 1995SOL     OW17446   1.362   1.675   4.110 -0.2057 -0.0388  0.4940
 1995SOL    HW117447   1.290   1.670   4.173  0.0305 -1.7278  0.6298
 1995SOL    HW217448   1.443   1.660   4.159 -2.0995  1.0597  3.9234
 1996SOL     OW17449   0.838   2.731  10.013 -0.1644  0.4178  0.2068
 1996SOL    HW117450   0.808   2.761  10.098 -1.7547 -1.7092  0.3947
 1996SOL    HW217451   0.772   2.662  10.001  0.3175 -0.0778  0.4151
 1997SOL     OW17452   2.541   2.277   3.398  0.5819  0.3502 -0.5941
 1997SOL    HW117453   2.493   2.245   3.322 -1.9306  1.3098  0.5675
 1997SOL    HW217454   2.569   2.195   3.437  2.5961  2.1315  1.7331
 1998SOL     OW17455   0.157   4.256   4.830  0.0074  0.0609 -0.0954
 1998SOL    HW117456   0.251   4.268   4.848  0.4940 -1.2596 -1.7702
 1998SOL    HW217457   0.116   4.331   4.873  1.3266 -0.2015  1.6450
 1999SOL     OW17458   4.526   2.417   4.852  0.4450 -0.5135  0.8747
 1999SOL    HW117459   4.483   2.427   4.767 -0.3782 -2.2807  1.0830
 1999SOL    HW217460   4.544   2.323   4.851  1.6998 -0.2994  2.3744
 2000SOL     OW17461   3.242   0.688   3.883  0.6824 -0.1918  0.0970
 2000SOL    HW117462   3.299   0.760   3.911  1.4278 -1.2833  1.4111
 2000SOL    HW217463   3.305   0.627   3.843 -0.9976 -1.8724  0.0271
 2001SOL     OW17464   3.975   1.981  11.612 -0.3262 -0.1085  0.3197
 2001SOL    HW117465   3.939   2.056  11.565  1.9844  0.5302 -0.4433
 2001SOL    HW217466   3.960   2.020  11.698  1.5286 -0.9149  0.9991
 2002SOL     OW17467   1.758   0.282   7.938 -0.4067 -0.5917 -0.2731
 2002SOL    HW117468   1.731   0.253   8.026 -0.6888 -0.1242 -0.2056
 2002SOL    HW217469   1.742   0.201   7.888  3.5573  0.1394 -2.6706
 2003SOL     OW17470   0.364   0.565  15.678 -0.0240  0.2398 -0.5168
 2003SOL    HW117471   0.312   0.527  15.748  2.6230 -4.1927 -0.9420
 2003SOL    HW217472   0.297   0.609  15.626  0.3262  0.4937 -0.7526
 2004SOL     OW17473   0.449   0.776  11.663  0.9012 -0.0112  0.0576
 2004SOL    HW117474   0.401   0.711  11.611 -1.7863  0.2806  2.1984
 2004SOL    HW217475   0.514   0.723  11.710 -0.8793 -0.9834  1.4001
 2005SOL     OW17476   3.963   2.714  15.581 -0.3666  0.0981  0.0240
 2005SOL    HW117477   3.969   2.738  15.489  3.7047 -0.4936  0.1729
 2005SOL    HW217478   3.867   2.712  15.581 -0.4113  2.7788  1.3843
 2006SOL     OW17479   0.890   2.096   8.960  0.0370 -0.2299  0.3936
 2006SOL    HW117480   0.971   2.134   8.927 -0.4986  1.8688  1.5008
 2006SOL    HW217481   0.860   2.168   9.016  1.5415  1.7232 -1.3257
 2007SOL     OW17482   1.532   0.147  17.025  0.2174  0.2536 -0.0277
 2007SOL    HW117483   1.481   0.227  17.038 -0.2735 -0.0870  0.1515
 2007SOL    HW217484   1.523   0.131  16.931 -0.9406 -1.8026  0.4312
 2008SOL     OW17485   0.003   3.645   4.623  0.3494  0.1989  0.0038
 2008SOL    HW117486   4.714   3.695   4.542 -2.9099  0.9698  0.9069
 2008SOL    HW217487   0.036   3.703   4.691 -0.7506  1.6883 -0.7382
 2009SOL     OW17488   4.216   4.625   5.646  1.0237  0.3972  0.3422
 2009SOL    HW117489   4.250   4.690   5.708  3.3602 -1.3141  0.8161
 2009SOL    HW217490   4.268   4.549   5.671  1.5012  1.1155  1.5438
 2010SOL     OW17491   0.815   1.728   4.876  0.8507  0.5582  0.1441
 2010SOL    HW117492   0.723   1.752   4.869  1.2919  3.0574  3.2812
 2010SOL    HW217493   0.840   1.730   4.783  1.6974  0.1152  0.3544
 2011SOL     OW17494   4.415   3.614   4.615  0.6497 -0.6403  0.4528
 2011SOL    HW117495   4.415   3.695   4.667 -0.0439  0.3184 -1.0585
 2011SOL    HW217496   4.502   3.584   4.642  0.1516 -3.7541 -1.4356
 2012SOL     OW17497   2.624   0.812   5.859  0.0303 -0.0080  0.4410
 2012SOL    HW117498   2.714   0.781   5.863 -0.3226 -1.0256  0.3925
 2012SOL    HW217499   2.595   0.772   5.941  0.4064 -1.5677 -0.1914
 2013SOL     OW17500   4.346   0.937   7.186  0.0118 -0.6116  0.0261
 2013SOL    HW117501   4.306   0.851   7.175 -1.0881 -0.2543  1.2769
 2013SOL    HW217502   4.380   0.932   7.275 -0.4378 -1.5346  0.1419
 2014SOL     OW17503   2.987   1.978   3.991 -0.2620  0.3667 -0.0002
 2014SOL    HW117504   3.051   1.914   4.023  0.1234  0.8151  0.1200
 2014SOL    HW217505   3.037   2.034   3.932  1.1413 -0.2266  0.6247
 2015SOL     OW17506   3.363   1.460   9.242 -1.2194 -0.1493 -0.2285
 2015SOL    HW117507   3.346   1.371   9.273  2.2389  0.1715  2.4963
 2015SOL    HW217508   3.328   1.512   9.314  0.5857  0.2815  0.3148
 2016SOL     OW17509   1.111   2.237   7.006  0.0316  0.9907 -0.2810
 2016SOL    HW117510   1.204   2.243   7.024 -0.2352  2.7990  0.3898
 2016SOL    HW217511   1.069   2.289   7.074 -0.9838  0.2334 -0.3214
 2017SOL     OW17512   3.144   4.267   6.990 -0.3546  0.2031 -0.4771
 2017SOL    HW117513   3.074   4.258   6.926 -1.0025  0.6029  0.1795
 2017SOL    HW217514   3.100   4.265   7.075 -2.1198  0.8364 -1.3661
 2018SOL     OW17515   2.538   1.683  10.608 -0.2885  0.1531 -0.0009
 2018SOL    HW117516   2.491   1.600  10.599 -1.7734  0.7953  1.7908
 2018SOL    HW217517   2.550   1.693  10.703 -0.3593  0.8400 -0.0627
 2019SOL     OW17518   1.262   3.712   5.668  0.4460 -0.3746 -0.2500
 2019SOL    HW117519   1.258   3.799   5.708 -3.3275 -1.5253  1.8534
 2019SOL    HW217520   1.213   3.664   5.735 -0.2988  1.4139  0.4720
 2020SOL     OW17521   0.895   3.223  12.584  0.9798  0.1082 -0.6867
 2020SOL    HW117522   0.977   3.198  12.627  0.4658  0.1709  0.3157
 2020SOL    HW217523   0.898   3.319  12.583 -0.7265  0.1530 -0.1271
 2021SOL     OW17524   2.060   0.671  16.060  1.2039  0.0124  0.3606
 2021SOL    HW117525   2.114   0.611  16.110 -1.8378  0.0139  3.6961
 2021SOL    HW217526   2.111   0.752  16.068 -1.5644  1.7900  0.4200
 2022SOL     OW17527   4.455   0.023   9.185  0.2627 -0.3834 -0.0905
 2022SOL    HW117528   4.421   0.112   9.181  2.9920  0.7420  1.8630
 2022SOL    HW217529   4.540   0.047   9.223  0.9346 -4.0979  0.7185
 2023SOL     OW17530   4.601   1.834  10.304  0.1152  0.1776  0.3397
 2023SOL    HW117531   4.544   1.769  10.262  0.7599  0.7397 -1.4018
 2023SOL    HW217532   4.614   1.793  10.390 -4.0376 -3.5168 -0.7998
 2024SOL     OW17533   2.971   4.364   7.512  0.2133 -0.3208  0.2256
 2024SOL    HW117534   2.881   4.331   7.524 -0.6337  1.2708 -1.7378
 2024SOL    HW217535   2.991   4.396   7.600 -2.5088  2.1195 -0.0561
 2025SOL     OW17536   3.184   3.708   1.678 -0.2529  0.4984  0.6821
 2025SOL    HW117537   3.217   3.618   1.679 -1.3317  0.1060  0.6023
 2025SOL    HW217538   3.157   3.709   1.770 -2.8790  0.3058 -0.0905
 2026SOL     OW17539   4.599   0.195   6.812 -0.0923 -0.1009 -0.4222
 2026SOL    HW117540   4.648   0.125   6.769 -0.0852  0.6169 -1.5531
 2026SOL    HW217541   4.622   0.277   6.770  2.7543 -1.1793 -0.9749
 2027SOL     OW17542   4.570   1.658   1.083  0.5288 -0.1774  0.1318
 2027SOL    HW117543   4.624   1.598   1.031 -0.6613 -1.6746  0.6381
 2027SOL    HW217544   4.541   1.598   1.151  0.6815 -0.5571 -0.1372
 2028SOL     OW17545   2.161   3.713  17.664  0.1219  0.2480  0.7367
 2028SOL    HW117546   2.081   3.751   0.011  0.0887  0.2967  0.6130
 2028SOL    HW217547   2.173   3.757  17.580 -2.8138 -3.4802 -1.6450
 2029SOL     OW17548   3.587   2.313  15.797 -0.0275  0.1442  0.0664
 2029SOL    HW117549   3.547   2.243  15.848  1.3850 -0.2911  0.5746
 2029SOL    HW217550   3.680   2.316  15.821 -0.0468 -1.8712  0.3844
 2030SOL     OW17551   3.375   0.760   5.417 -0.1437 -0.3453  0.5797
 2030SOL    HW117552   3.470   0.761   5.418 -0.1678  2.0844 -0.4187
 2030SOL    HW217553   3.363   0.808   5.335 -0.5282 -1.1057  0.1903
 2031SOL     OW17554   3.229   4.450   4.586  0.1088  0.5425 -0.4090
 2031SOL    HW117555   3.309   4.502   4.599  0.8181 -0.2765 -1.4979
 2031SOL    HW217556   3.249   4.368   4.632 -0.6362  0.5124 -0.1450
 2032SOL     OW17557   4.691   0.920  13.947  0.7202  1.1613 -0.1484
 2032SOL    HW117558   4.616   0.881  13.903  0.9677 -0.9075  1.2925
 2032SOL    HW217559   0.015   0.962  13.874  1.5084 -0.2050 -0.4408
 2033SOL     OW17560   4.299   2.827  17.263  0.2024  0.0597 -0.2811
 2033SOL    HW117561   4.299   2.853  17.355 -0.3063  1.1441 -0.5917
 2033SOL    HW217562   4.212   2.789  17.254  0.2860  0.1966 -1.7037
 2034SOL     OW17563   0.918   1.230   8.911  0.1130 -0.0679 -0.2366
 2034SOL    HW117564   0.864   1.288   8.965  0.7626 -0.1563  0.5146
 2034SOL    HW217565   0.875   1.149   8.941 -1.4154  0.5891 -0.6773
 2035SOL     OW17566   3.914   1.818   9.015  0.0038  0.2531  0.1370
 2035SOL    HW117567   3.916   1.913   9.025  1.6110  0.1038  1.1881
 2035SOL    HW217568   3.932   1.820   8.921  0.3369  1.1185  0.2189
 2036SOL     OW17569   1.235   0.647   1.588  0.0347 -0.7974  0.2951
 2036SOL    HW117570   1.292   0.586   1.634 -1.1867 -0.8825  1.6833
 2036SOL    HW217571   1.304   0.688   1.536  0.8244 -1.8153  0.5494
 2037SOL     OW17572   0.420   3.570   5.879 -0.0306 -0.1003  0.3985
 2037SOL    HW117573   0.374   3.539   5.801  0.5682 -0.9379  0.3705
 2037SOL    HW217574   0.403   3.494   5.935  2.4306 -0.4543  0.6753
 2038SOL     OW17575   1.019   2.275   3.983  0.0140  0.5658 -0.2799
 2038SOL    HW117576   0.985   2.294   4.070  1.3614  2.3909 -0.1445
 2038SOL    HW217577   1.101   2.231   4.006  1.3183  1.0918 -4.0090
 2039SOL     OW17578   3.637   1.844   9.108 -0.4067 -0.3438 -0.2837
 2039SOL    HW117579   3.658   1.937   9.098  0.9507 -0.6066  0.2372
 2039SOL    HW217580   3.696   1.817   9.178 -0.9435 -2.0872 -0.5043
 2040SOL     OW17581   4.520   2.137   4.379 -0.9187 -0.0671  0.2335
 2040SOL    HW117582   4.590   2.131   4.314 -0.8407 -0.4577  0.3567
 2040SOL    HW217583   4.441   2.146   4.324 -2.6115 -1.6352  2.4112
 2041SOL     OW17584   1.873   4.425   6.317  0.0284 -0.1857  0.8450
 2041SOL    HW117585   1.915   4.479   6.249  2.4154 -1.5284  1.2762
 2041SOL    HW217586   1.948   4.388   6.362  1.7545  0.9621 -1.0385
 2042SOL     OW17587   0.113   3.929   9.592 -0.3676 -0.0124 -0.2394
 2042SOL    HW117588   0.098   3.959   9.682  1.3363 -1.0421  0.3722
 2042SOL    HW217589   0.204   3.957   9.585 -0.3753  0.0911  0.0939
 2043SOL     OW17590   3.217   4.132  10.326 -0.2958  0.2559  0.4473
 2043SOL    HW117591   3.184   4.206  10.275  0.2420  1.2211  1.5042
 2043SOL    HW217592   3.310   4.155  10.326 -0.2294 -0.0086  0.7061
 2044SOL     OW17593   1.904   1.760   2.308  0.2769  0.5962  0.1937
 2044SOL    HW117594   1.884   1.764   2.214  1.2480  0.2127 -0.0275
 2044SOL    HW217595   1.970   1.830   2.302 -0.0643  0.8732 -0.3783
 2045SOL     OW17596   2.245   2.931  12.591 -0.2956 -0.5429  0.8044
 2045SOL    HW117597   2.244   2.900  12.501  0.3739  0.7091  0.3614
 2045SOL    HW217598   2.309   2.867  12.621  0.8945  1.3914  2.4003
 2046SOL     OW17599   1.928   0.051   5.846  0.4186 -0.3382  0.3521
 2046SOL    HW117600   1.851   0.071   5.900 -0.0040  1.0912 -0.7937
 2046SOL    HW217601   1.917   4.678   5.837  0.2139 -0.3246  0.4497
 2047SOL     OW17602   4.496   3.331   3.455  0.2006 -0.7254 -0.6186
 2047SOL    HW117603   4.491   3.290   3.368 -1.7969 -2.3605  0.2659
 2047SOL    HW217604   4.536   3.265   3.511  1.8684  1.3025  0.5996
 2048SOL     OW17605   3.725   4.508  12.209 -0.5077 -0.3732 -0.1056
 2048SOL    HW117606   3.734   4.451  12.133  2.1018 -0.9113  0.5853
 2048SOL    HW217607   3.815   4.495  12.240 -0.2685 -1.1903 -1.1400
 2049SOL     OW17608   3.299   3.448   5.245 -0.2554  0.3922 -0.0224
 2049SOL    HW117609   3.206   3.433   5.227 -0.0826 -1.2002  0.4122
 2049SOL    HW217610   3.303   3.486   5.332  2.2361  0.9240 -0.3843
 2050SOL     OW17611   0.071   4.215  15.573 -0.0547 -0.3587 -0.0063
 2050SOL    HW117612   0.109   4.290  15.620  0.6199 -0.7250  0.0341
 2050SOL    HW217613   0.115   4.141  15.616  0.7872 -1.2897 -2.4579
 2051SOL     OW17614   0.683   4.707  13.970  0.2967 -1.2999 -0.0339
 2051SOL    HW117615   0.650   4.719  14.059 -1.3900 -0.6072 -0.7540
 2051SOL    HW217616   0.630   4.631  13.948 -0.4501 -0.5945 -0.6687
 2052SOL     OW17617   2.549   2.671   8.177 -0.1986 -0.3773 -0.0009
 2052SOL    HW117618   2.580   2.721   8.252 -1.3942  1.6272 -0.8298
 2052SOL    HW217619   2.523   2.593   8.226 -0.9993  0.6747  1.2315
 2053SOL     OW17620   2.562   3.192  13.070 -0.0649 -0.2574 -0.0268
 2053SOL    HW117621   2.481   3.142  13.056 -0.9178  1.2267 -0.3557
 2053SOL    HW217622   2.572   3.246  12.992  0.4570 -1.4495 -0.7924
 2054SOL     OW17623   2.278   0.566   3.758  0.0437  0.0373  0.2930
 2054SOL    HW117624   2.258   0.653   3.722 -1.2530 -0.1222  0.6267
 2054SOL    HW217625   2.374   0.566   3.758  0.0701  2.0236 -3.1992
 2055SOL     OW17626   0.479   3.046  16.827 -0.0307 -0.2960 -0.5274
 2055SOL    HW117627   0.395   3.054  16.781 -1.0552  1.8801  1.7259
 2055SOL    HW217628   0.527   3.120  16.790 -0.8151  0.0685 -0.8091
 2056SOL     OW17629   4.420   2.439   0.972 -0.3474  0.3863  0.0549
 2056SOL    HW117630   4.447   2.377   1.040  2.1167 -1.2841 -2.4838
 2056SOL    HW217631   4.357   2.389   0.920 -0.9315  2.7449 -1.5200
 2057SOL     OW17632   0.359   2.846   7.450  0.0593 -0.0709 -0.2690
 2057SOL    HW117633   0.391   2.873   7.363  1.7787  1.4378  0.8276
 2057SOL    HW217634   0.281   2.900   7.460  0.7688  1.0435 -0.7353
 2058SOL     OW17635   2.037   3.381   6.286  0.2613  0.3519  0.0991
 2058SOL    HW117636   2.129   3.406   6.290  0.3924 -0.4339  2.3467
 2058SOL    HW217637   2.031   3.357   6.194 -0.8050 -0.6633  0.4314
 2059SOL     OW17638   0.392   0.089   7.621 -0.0351 -0.3117 -0.4012
 2059SOL    HW117639   0.482   0.083   7.653 -0.1151 -0.9548 -0.3019
 2059SOL    HW217640   0.408   0.106   7.527  2.9500 -1.5344 -0.1332
 2060SOL     OW17641   4.154   2.485   5.313  0.3934 -0.6076  0.1975
 2060SOL    HW117642   4.185   2.490   5.223 -1.9476  0.8856 -0.5040
 2060SOL    HW217643   4.060   2.493   5.295  0.0794  1.0276  2.5769
 2061SOL     OW17644   2.822   1.927   8.534  0.2909 -0.1995 -0.6239
 2061SOL    HW117645   2.768   1.944   8.457 -0.5811  1.0658  0.2730
 2061SOL    HW217646   2.872   1.847   8.516 -1.3441 -1.1898 -0.7602
 2062SOL     OW17647   3.747   1.993   4.221 -0.5851  0.2263 -0.0797
 2062SOL    HW117648   3.807   1.939   4.169 -1.8574 -0.0301 -1.2674
 2062SOL    HW217649   3.666   1.967   4.178 -0.4908 -1.2485  0.6419
 2063SOL     OW17650   1.392   0.750   6.572  0.1602 -0.1414 -0.2969
 2063SOL    HW117651   1.475   0.755   6.523  1.1768 -1.8452  1.2610
 2063SOL    HW217652   1.359   0.838   6.552  0.4346  0.1021  0.3231
 2064SOL     OW17653   2.551   1.593   1.162  0.1456  0.1121  0.7401
 2064SOL    HW117654   2.510   1.678   1.148 -0.3615 -0.4803 -1.2999
 2064SOL    HW217655   2.478   1.551   1.209 -1.8791  2.5544 -0.2605
 2065SOL     OW17656   3.276   1.533   5.136  0.0207  0.2056 -0.1065
 2065SOL    HW117657   3.212   1.598   5.167  0.6250  1.4580 -1.5104
 2065SOL    HW217658   3.356   1.584   5.149  0.4697 -0.1615 -1.4770
 2066SOL     OW17659   1.426   0.526  15.579  0.5461 -0.0352 -0.1207
 2066SOL    HW117660   1.512   0.562  15.557  1.0465 -1.0043  0.2795
 2066SOL    HW217661   1.455   0.460  15.641 -0.1588  0.7467  1.0444
 2067SOL     OW17662   0.001   0.760  16.527  0.1589  0.2605  0.4703
 2067SOL    HW117663   4.719   0.726  16.438 -2.1139  1.4236  0.1226
 2067SOL    HW217664   4.686   0.848  16.517  0.9064  0.4414 -0.7196
 2068SOL     OW17665   2.230   0.532   7.880  0.4481 -0.3264  0.0989
 2068SOL    HW117666   2.280   0.609   7.907  1.0502 -0.9618  0.7804
 2068SOL    HW217667   2.270   0.500   7.799  1.6436  0.2886  0.4618
 2069SOL     OW17668   2.438   2.511   7.949  0.6912 -0.2524  0.0253
 2069SOL    HW117669   2.384   2.545   7.877  0.1883 -3.3118 -1.0637
 2069SOL    HW217670   2.412   2.568   8.021 -1.6838 -2.3096  0.8258
 2070SOL     OW17671   3.274   0.206   3.732 -0.0288 -0.7789  0.0651
 2070SOL    HW117672   3.344   0.148   3.762  0.6802  0.0380 -0.0051
 2070SOL    HW217673   3.201   0.144   3.726 -0.4436 -0.3545  0.6986
 2071SOL     OW17674   1.902   1.314   3.657 -0.3117 -0.0531  0.2729
 2071SOL    HW117675   1.861   1.239   3.701 -1.1967  0.6121  0.5806
 2071SOL    HW217676   1.964   1.343   3.724 -0.6470  1.5157 -0.1129
 2072SOL     OW17677   2.853   1.459   9.505 -0.0839  0.7469 -0.3889
 2072SOL    HW117678   2.945   1.460   9.530 -1.4791  0.9959  4.6781
 2072SOL    HW217679   2.824   1.528   9.565 -2.7241 -1.2521  0.6666
 2073SOL     OW17680   4.348   3.331   2.905  0.4128 -0.1588 -0.3533
 2073SOL    HW117681   4.259   3.303   2.886  0.0535  0.8777 -0.2055
 2073SOL    HW217682   4.323   3.388   2.978  0.1440  0.8991 -1.2711
 2074SOL     OW17683   1.515   0.404   7.925 -0.6860 -0.1386  0.2033
 2074SOL    HW117684   1.605   0.372   7.920 -0.5971 -0.0214  0.9675
 2074SOL    HW217685   1.524   0.481   7.869  2.2096 -0.3188  0.4328
 2075SOL     OW17686   2.377   2.998   1.085  0.0098  0.7135 -0.0613
 2075SOL    HW117687   2.319   2.922   1.087  0.8425  0.0849 -0.2403
 2075SOL    HW217688   2.342   3.052   1.156  0.2509 -0.0287  0.6216
 2076SOL     OW17689   4.178   3.835   5.449 -0.1425 -0.6487  0.0568
 2076SOL    HW117690   4.178   3.749   5.406 -1.8717 -1.4177  1.5557
 2076SOL    HW217691   4.262   3.863   5.414  0.7565 -2.5729  0.6297
 2077SOL     OW17692   0.810   4.248   6.202  0.4453  0.8270  0.0641
 2077SOL    HW117693   0.865   4.309   6.251 -1.0762  0.8799  1.7245
 2077SOL    HW217694   0.748   4.314   6.171 -2.0899 -0.9508  1.3188
 2078SOL     OW17695   2.621   3.943   5.490  0.4975 -0.0872  0.4725
 2078SOL    HW117696   2.624   3.903   5.404  1.9156  4.1806 -1.4833
 2078SOL    HW217697   2.541   3.899   5.520 -0.6514  0.6156 -1.5875
 2079SOL     OW17698   1.767   0.124  12.710  0.2631 -0.2888  1.0495
 2079SOL    HW117699   1.702   0.194  12.705  0.2163 -0.5269 -1.8122
 2079SOL    HW217700   1.771   0.084  12.623  0.9193  1.8294  0.0877
 2080SOL     OW17701   2.824   4.275   5.504  0.5037 -0.0577  0.0765
 2080SOL    HW117702   2.884   4.201   5.505 -2.4165 -2.4733 -1.1004
 2080SOL    HW217703   2.742   4.249   5.461  1.5450 -0.4335 -1.7166
 2081SOL     OW17704   2.185   2.155  14.045 -0.1672  0.8111  0.3096
 2081SOL    HW117705   2.156   2.234  13.998 -0.0847  0.8196  0.2737
 2081SOL    HW217706   2.246   2.190  14.110  1.2321  0.8145 -0.9980
 2082SOL     OW17707   2.661   1.397  14.490  0.2492 -0.0418 -0.3608
 2082SOL    HW117708   2.661   1.320  14.547  2.3956  0.8740  0.8819
 2082SOL    HW217709   2.648   1.355  14.405 -2.3643 -1.2001  0.6090
 2083SOL     OW17710   3.776   0.217   9.488 -0.1007  0.4169  0.1636
 2083SOL    HW117711   3.768   0.272   9.410  1.8565  0.4789  0.0087
 2083SOL    HW217712   3.869   0.198   9.493 -0.2775 -1.0275 -2.0430
 2084SOL     OW17713   4.615   4.260  10.322 -0.1972  0.1510 -0.1779
 2084SOL    HW117714   4.560   4.215  10.386 -1.4236  0.3864 -1.0787
 2084SOL    HW217715   4.621   4.345  10.366  0.2958  0.0276 -0.0053
 2085SOL     OW17716   3.335   3.348   6.918 -0.1532 -0.2032 -0.6523
 2085SOL    HW117717   3.268   3.290   6.884  0.1313 -0.8592 -0.0990
 2085SOL    HW217718   3.403   3.281   6.928  0.8499  0.7760 -0.8523
 2086SOL     OW17719   4.346   4.179   7.292 -0.4555 -0.0707  0.2540
 2086SOL    HW117720   4.368   4.266   7.326  1.9095  0.5931 -2.9358
 2086SOL    HW217721   4.298   4.200   7.211 -0.1498 -3.2254 -0.7290
 2087SOL     OW17722   2.391   1.401   7.277  0.6741  0.1346  0.0270
 2087SOL    HW117723   2.306   1.426   7.314  0.5036 -0.0874 -0.2138
 2087SOL    HW217724   2.360   1.362   7.195 -0.2587 -0.1010  0.4946
 2088SOL     OW17725   3.152   0.314  12.280  0.2642  0.2248  0.0643
 2088SOL    HW117726   3.206   0.265  12.341  0.4489  0.0594 -0.2352
 2088SOL    HW217727   3.205   0.392  12.261  1.0213 -0.7760 -1.9088
 2089SOL     OW17728   1.047   0.806  11.029 -0.7635  0.3515  0.0294
 2089SOL    HW117729   0.955   0.781  11.045 -0.6361 -0.3159 -0.3064
 2089SOL    HW217730   1.088   0.739  11.084 -0.7329  0.1359 -0.2535
 2090SOL     OW17731   1.769   2.367   5.693 -0.5446  0.0911  0.4231
 2090SOL    HW117732   1.739   2.304   5.627  0.2167  1.3545 -1.1172
 2090SOL    HW217733   1.768   2.453   5.651  3.4115 -0.4194 -0.7795
 2091SOL     OW17734   4.046   1.372  12.843  0.9854  0.0452  0.0582
 2091SOL    HW117735   4.117   1.344  12.900 -0.9777 -1.7358  1.6478
 2091SOL    HW217736   4.026   1.291  12.795 -1.4026  1.2021 -0.9069
 2092SOL     OW17737   1.712   2.457  17.064 -0.1734 -0.2584  0.2253
 2092SOL    HW117738   1.664   2.508  17.130  0.4080  0.3273  0.1990
 2092SOL    HW217739   1.640   2.418  17.014  0.7291 -1.6680  0.0333
 2093SOL     OW17740   2.268   3.269   5.013 -0.3091 -0.6825 -0.1698
 2093SOL    HW117741   2.320   3.336   5.058  0.4925 -0.1814 -1.8596
 2093SOL    HW217742   2.211   3.323   4.959  0.9791  0.7034 -0.1378
 2094SOL     OW17743   4.516   4.556  10.027 -0.0218 -0.3929 -0.3543
 2094SOL    HW117744   4.586   4.572   9.964  0.0890 -1.0262 -0.3961
 2094SOL    HW217745   4.514   4.643  10.067 -0.0264  0.2911 -1.8349
 2095SOL     OW17746   2.604   3.323   8.973  0.2582  0.2364 -0.5451
 2095SOL    HW117747   2.580   3.409   9.008  1.2373  0.5184 -0.5817
 2095SOL    HW217748   2.556   3.324   8.890 -2.0067 -1.3595  0.7566
 2096SOL     OW17749   3.320   4.513   6.288 -0.5567  0.1732  0.4621
 2096SOL    HW117750   3.251   4.456   6.252 -0.9371  0.0603  1.3799
 2096SOL    HW217751   3.311   4.505   6.383 -1.0428  1.6537  0.5318
 2097SOL     OW17752   2.118   0.716  17.370  0.2028  0.1859 -0.2529
 2097SOL    HW117753   2.170   0.796  17.374  0.4549 -0.0846  1.9383
 2097SOL    HW217754   2.084   0.708  17.459 -0.2142 -1.3573 -0.5509
 2098SOL     OW17755   3.296   0.934   4.320 -0.2497  0.2523  0.3785
 2098SOL    HW117756   3.325   0.852   4.279 -1.8564  0.8789 -1.9644
 2098SOL    HW217757   3.272   0.975   4.237 -0.7911 -1.6839 -0.4251
 2099SOL     OW17758   1.128   1.607   4.679  0.4985 -0.4137  0.0507
 2099SOL    HW117759   1.168   1.535   4.730  0.0444 -0.1971  0.7189
 2099SOL    HW217760   1.152   1.584   4.590 -1.3706  2.0045 -1.0596
 2100SOL     OW17761   1.539   4.406   5.389  0.0848 -0.7319 -0.1649
 2100SOL    HW117762   1.590   4.408   5.308 -0.7138  0.1317 -0.6453
 2100SOL    HW217763   1.577   4.475   5.443  1.5656 -1.4575 -0.2776
 2101SOL     OW17764   3.837   0.130  10.283  0.9810  0.6667 -0.3416
 2101SOL    HW117765   3.872   0.102  10.368  0.0438  1.1967  0.2207
 2101SOL    HW217766   3.917   0.113  10.233  1.7025 -0.6663  1.2435
 2102SOL     OW17767   0.164   1.152   5.432 -0.3646 -0.0622  0.5019
 2102SOL    HW117768   0.188   1.060   5.424  0.8040  0.6603 -4.4152
 2102SOL    HW217769   0.147   1.148   5.526  2.0356  0.6580  0.9571
 2103SOL     OW17770   2.096   3.327   5.321  0.0638  0.3548  0.3041
 2103SOL    HW117771   2.076   3.403   5.375  3.3694  1.3525  0.1213
 2103SOL    HW217772   2.089   3.366   5.234  1.1296 -0.5565 -0.1932
 2104SOL     OW17773   1.239   1.641   0.928 -0.2082  0.3743  0.4001
 2104SOL    HW117774   1.296   1.678   0.861 -0.4268 -0.0170 -0.0049
 2104SOL    HW217775   1.195   1.581   0.867 -1.5842  1.8459 -0.0610
 2105SOL     OW17776   4.002   3.099  16.714  0.5839  0.2524 -0.0186
 2105SOL    HW117777   3.955   3.120  16.633 -1.2857  0.0963  1.0157
 2105SOL    HW217778   3.942   3.129  16.783  1.7310 -0.9138  1.4954
 2106SOL     OW17779   4.124   2.452   0.566  0.1999 -0.1221  0.6089
 2106SOL    HW117780   4.059   2.440   0.497  0.7366  0.7567 -0.0472
 2106SOL    HW217781   4.091   2.511   0.634 -1.0824 -0.9762  0.7147
 2107SOL     OW17782   4.408   3.920   5.345 -0.2455 -0.0045  0.2797
 2107SOL    HW117783   4.449   3.930   5.259  0.3380  2.9155  0.8878
 2107SOL    HW217784   4.423   4.005   5.386 -1.4813  0.1535  0.4269
 2108SOL     OW17785   4.669   0.538   4.543  0.3344  0.3383  0.0659
 2108SOL    HW117786   4.645   0.609   4.483  1.1262  0.8957  0.4040
 2108SOL    HW217787   0.042   0.528   4.530  0.5905 -0.2706  2.4769
 2109SOL     OW17788   1.343   4.578  15.966  0.7233  0.2100 -0.6997
 2109SOL    HW117789   1.338   4.490  16.002  0.0511  0.4790 -0.1388
 2109SOL    HW217790   1.426   4.577  15.917 -0.0718  1.5522 -2.0853
 2110SOL     OW17791   2.616   0.411   0.507  0.0244  0.2368  0.0468
 2110SOL    HW117792   2.640   0.399   0.415  0.3527 -0.0155  0.1638
 2110SOL    HW217793   2.697   0.392   0.555  0.2003 -0.8689 -0.7053
 2111SOL     OW17794   3.641   2.230   9.618 -0.3573 -0.1258 -0.6232
 2111SOL    HW117795   3.615   2.309   9.569  0.1040  0.9004  0.7990
 2111SOL    HW217796   3.569   2.171   9.594  0.0466 -0.1579 -1.7691
 2112SOL     OW17797   2.843   3.132   7.674 -0.4891  0.0090 -0.2296
 2112SOL    HW117798   2.914   3.074   7.701 -0.9897 -0.6646 -0.3604
 2112SOL    HW217799   2.775   3.065   7.669 -0.8740  0.3770  0.0758
 2113SOL     OW17800   4.634   0.786   4.383 -0.1452 -1.0020 -0.0674
 2113SOL    HW117801   4.561   0.834   4.422  0.2139 -0.1716 -0.4330
 2113SOL    HW217802   4.714   0.827   4.414 -1.7247  1.0746  1.2624
 2114SOL     OW17803   3.553   0.199  10.300 -0.5296 -0.1219 -0.2450
 2114SOL    HW117804   3.640   0.181  10.266 -1.0189 -0.7442 -1.1748
 2114SOL    HW217805   3.507   0.162  10.224 -1.4000 -1.4780  0.9434
 2115SOL     OW17806   4.120   4.627   0.388 -0.1667 -0.1802  0.4004
 2115SOL    HW117807   4.158   4.583   0.464 -0.4188 -1.4895 -0.2313
 2115SOL    HW217808   4.197   4.669   0.350 -0.7801  0.1356 -0.5078
 2116SOL     OW17809   2.469   1.350   6.564 -0.1643 -0.3957  0.4828
 2116SOL    HW117810   2.450   1.259   6.541  1.1501 -0.0104 -2.0459
 2116SOL    HW217811   2.384   1.371   6.604 -0.2883 -0.1784  0.1072
 2117SOL     OW17812   0.294   2.898   0.626  0.5002 -0.2108 -0.2665
 2117SOL    HW117813   0.230   2.859   0.685  1.4678  0.5365  1.2778
 2117SOL    HW217814   0.369   2.904   0.686 -0.2456  2.6912  0.3775
 2118SOL     OW17815   4.202   4.158   7.863 -0.2838 -0.5812  0.2019
 2118SOL    HW117816   4.184   4.162   7.769 -0.2765 -1.3397  0.1666
 2118SOL    HW217817   4.263   4.231   7.872 -0.7597 -0.0491 -0.8638
 2119SOL     OW17818   1.221   4.350  10.572  0.0658 -0.3170  0.0091
 2119SOL    HW117819   1.151   4.348  10.638  0.0205 -2.5481 -0.1067
 2119SOL    HW217820   1.274   4.425  10.599 -0.1677  0.5363 -1.9618
 2120SOL     OW17821   1.239   2.260   6.350 -0.4450  0.0444 -0.0662
 2120SOL    HW117822   1.184   2.325   6.306 -1.2580 -1.0854 -0.6997
 2120SOL    HW217823   1.176   2.190   6.365  1.1137 -1.6064 -1.3515
 2121SOL     OW17824   1.550   2.008   3.212 -0.2397  0.1757 -0.4197
 2121SOL    HW117825   1.476   2.007   3.151 -1.4424  0.5334  1.0364
 2121SOL    HW217826   1.577   2.100   3.220  1.0892 -0.2113 -0.4883
 2122SOL     OW17827   0.216   3.450  16.272  0.0799  0.2262  0.1733
 2122SOL    HW117828   0.182   3.537  16.251 -0.3796 -0.3571 -1.4576
 2122SOL    HW217829   0.164   3.388  16.222 -0.1684 -0.5476  1.3906
 2123SOL     OW17830   1.095   0.780  16.024 -0.1119 -0.4565 -0.1117
 2123SOL    HW117831   1.129   0.712  16.082  2.6841 -1.7307 -3.2435
 2123SOL    HW217832   1.000   0.769  16.023 -0.0540 -0.9971  0.3103
 2124SOL     OW17833   2.435   1.650   5.718 -0.0273  0.1002 -0.1067
 2124SOL    HW117834   2.527   1.633   5.735 -0.2970 -1.5925 -0.3377
 2124SOL    HW217835   2.408   1.699   5.796 -1.9268 -1.6711  0.3706
 2125SOL     OW17836   3.486   4.643   9.333  0.1098  0.0620 -0.2824
 2125SOL    HW117837   3.535   4.686   9.403  1.1969  1.7410 -2.0644
 2125SOL    HW217838   3.467   4.556   9.368 -2.3465  1.1160  1.0048
 2126SOL     OW17839   4.574   0.166   8.818 -0.0881  0.1797  0.1595
 2126SOL    HW117840   4.579   0.138   8.727 -0.6665 -1.0965  0.5243
 2126SOL    HW217841   4.666   0.188   8.835 -0.0840  0.1686  0.1520
 2127SOL     OW17842   4.627   1.743   4.591 -0.0353 -0.6401 -0.3545
 2127SOL    HW117843   4.617   1.649   4.573 -0.8346 -0.7686  0.6972
 2127SOL    HW217844   4.718   1.756   4.565 -0.1934  0.6684 -0.2159
 2128SOL     OW17845   1.269   0.361  11.993 -0.7785  0.0397  0.2324
 2128SOL    HW117846   1.352   0.336  12.034 -1.3638  1.1866  2.1204
 2128SOL    HW217847   1.209   0.360  12.068 -2.5363 -0.1543 -1.2012
 2129SOL     OW17848   3.073   3.216   7.508 -0.7777  0.3061  0.1691
 2129SOL    HW117849   2.985   3.185   7.486 -1.4332  1.8189  0.5935
 2129SOL    HW217850   3.087   3.166   7.589  1.7644 -0.1417 -0.5735
 2130SOL     OW17851   0.256   1.152   3.743 -0.3386 -0.2805 -0.9074
 2130SOL    HW117852   0.302   1.235   3.731 -1.4395  0.3719 -0.5968
 2130SOL    HW217853   0.174   1.187   3.777  0.4771  1.9080 -1.1899
 2131SOL     OW17854   1.852   0.870   9.692 -0.4323 -0.1475  0.3623
 2131SOL    HW117855   1.851   0.893   9.785 -0.0770 -0.1882  0.3760
 2131SOL    HW217856   1.830   0.951   9.645  3.2434  0.3458 -0.5430
 2132SOL     OW17857   2.864   1.723   4.359  0.3448  0.0182 -0.1357
 2132SOL    HW117858   2.816   1.642   4.344  0.5157  0.0577 -0.8927
 2132SOL    HW217859   2.945   1.684   4.393  0.6045  1.5018  0.9369
 2133SOL     OW17860   4.277   3.983   7.442 -0.2411 -0.5900 -0.3852
 2133SOL    HW117861   4.321   4.049   7.388  3.1620 -2.2978  0.2716
 2133SOL    HW217862   4.213   3.943   7.384 -0.7659 -0.5429  0.1638
 2134SOL     OW17863   1.272   0.635   8.764  0.1372 -0.4755 -0.2091
 2134SOL    HW117864   1.344   0.590   8.808  1.5896  0.3139 -1.7648
 2134SOL    HW217865   1.311   0.659   8.679  2.7678  0.3331  1.2271
 2135SOL     OW17866   0.317   1.436  10.433  0.7686 -0.1655  1.2313
 2135SOL    HW117867   0.359   1.351  10.415  1.0441  0.2524 -0.0598
 2135SOL    HW217868   0.346   1.483  10.355  0.3574 -2.8734 -0.5570
 2136SOL     OW17869   1.436   0.565   9.131  0.2316 -0.9067  0.0856
 2136SOL    HW117870   1.465   0.655   9.141  0.1785 -0.8286 -0.4534
 2136SOL    HW217871   1.405   0.562   9.040 -0.0269 -5.0203  0.3134
 2137SOL     OW17872   2.807   0.833   3.825 -0.5060  0.0850  0.1223
 2137SOL    HW117873   2.901   0.819   3.834 -0.5390 -0.1724  0.0597
 2137SOL    HW217874   2.776   0.755   3.871 -1.5527  0.3028 -0.2187
 2138SOL     OW17875   0.036   3.528   5.064 -0.2577 -0.2034  0.2427
 2138SOL    HW117876   4.703   3.519   5.141 -1.6204 -1.6852 -0.8849
 2138SOL    HW217877   0.001   3.608   5.025  1.2610 -0.6219 -2.0115
 2139SOL     OW17878   4.013   1.956   5.787 -0.2168  0.2162  0.1780
 2139SOL    HW117879   4.003   1.861   5.778  1.3965  0.0521  0.1223
 2139SOL    HW217880   4.078   1.977   5.720 -0.6347  0.9799  0.0142
 2140SOL     OW17881   0.675   0.662   3.687 -0.7402 -0.3150  0.2552
 2140SOL    HW117882   0.751   0.647   3.744 -0.5941  0.4614  0.2637
 2140SOL    HW217883   0.612   0.664   3.759 -0.4361  0.3423  0.5085
 2141SOL     OW17884   1.658   4.054  11.725 -0.5353  0.1926  1.1613
 2141SOL    HW117885   1.595   4.122  11.747 -0.1021  0.9990 -0.0894
 2141SOL    HW217886   1.625   4.022  11.641  0.6217 -0.7255  1.0478
 2142SOL     OW17887   4.697   1.342   8.826  0.3094 -0.3718 -0.0270
 2142SOL    HW117888   4.650   1.260   8.840 -0.5024  0.2606  1.0065
 2142SOL    HW217889   0.067   1.317   8.826  1.0283  2.1962 -0.1363
 2143SOL     OW17890   1.101   1.333   8.240  0.1174 -0.1900  0.0773
 2143SOL    HW117891   1.124   1.257   8.186  1.9617  1.5050 -1.5418
 2143SOL    HW217892   1.181   1.385   8.246 -0.7096  1.2136 -0.9054
 2144SOL     OW17893   2.106   0.228   8.153  0.0258 -0.1942 -0.0812
 2144SOL    HW117894   2.123   0.135   8.166  0.2706 -0.4846 -2.6326
 2144SOL    HW217895   2.113   0.230   8.058  1.5942 -0.0573  0.0291
 2145SOL     OW17896   1.487   2.206  15.780 -0.0686 -0.4020  0.1216
 2145SOL    HW117897   1.521   2.180  15.695 -1.7356 -1.9938 -0.0594
 2145SOL    HW217898   1.419   2.141  15.796 -0.3737 -0.0218  0.3831
 2146SOL     OW17899   3.012   0.209   1.671 -0.8205 -0.3438  0.1612
 2146SOL    HW117900   2.991   0.278   1.734  3.3679 -0.1984  1.4200
 2146SOL    HW217901   2.997   0.245   1.584  0.6678  1.6439  0.7151
 2147SOL     OW17902   3.304   2.640  11.543  0.2335  0.0757 -0.0504
 2147SOL    HW117903   3.231   2.664  11.601  0.9761 -2.0594  1.7537
 2147SOL    HW217904   3.375   2.699  11.570 -1.5545  1.1908  2.1672
 2148SOL     OW17905   3.143   1.177   8.458  0.5753  0.4192 -0.6977
 2148SOL    HW117906   3.122   1.257   8.506 -0.3087  0.1888 -0.7003
 2148SOL    HW217907   3.217   1.149   8.512  0.7306  0.3056 -0.9690
 2149SOL     OW17908   0.208   1.670   1.404 -0.1242  0.1229  0.1858
 2149SOL    HW117909   0.164   1.653   1.487  1.9104  0.5803  1.3814
 2149SOL    HW217910   0.174   1.754   1.373 -1.9327  0.4359  3.0266
 2150SOL     OW17911   3.821   3.165  12.247 -0.7075 -0.2766  0.1269
 2150SOL    HW117912   3.899   3.150  12.193 -0.9918 -1.2222 -0.0278
 2150SOL    HW217913   3.857   3.198  12.329  0.1483 -1.8191  0.3622
 2151SOL     OW17914   2.503   4.682  16.070  0.8076  0.5124 -0.4425
 2151SOL    HW117915   2.517   4.718  15.983  2.4869 -0.3260 -0.5164
 2151SOL    HW217916   2.567   4.610  16.067  0.5993  0.4207 -2.6505
 2152SOL     OW17917   4.267   3.116   6.515 -0.2833 -0.3475 -0.3819
 2152SOL    HW117918   4.356   3.102   6.547 -0.9467 -1.6373  0.9164
 2152SOL    HW217919   4.290   3.114   6.423  0.2458  2.2560 -0.3020
 2153SOL     OW17920   3.888   4.255  15.394  0.0471 -0.7012 -0.2740
 2153SOL    HW117921   3.963   4.236  15.338 -0.5839  0.2416 -1.4522
 2153SOL    HW217922   3.856   4.166  15.412 -0.6870 -0.6387 -1.2692
 2154SOL     OW17923   0.757   1.733   6.421 -0.0759  0.3250  0.5995
 2154SOL    HW117924   0.828   1.779   6.466 -0.3268  0.8983  0.4087
 2154SOL    HW217925   0.685   1.791   6.445  0.5386  1.3319 -0.0239
 2155SOL     OW17926   2.208   4.586   9.720 -0.3485  0.3714 -0.2396
 2155SOL    HW117927   2.194   4.605   9.813  0.9661  1.6587 -0.3068
 2155SOL    HW217928   2.304   4.586   9.721 -0.3467  0.2700 -1.5898
 2156SOL     OW17929   1.477   2.147   4.716 -0.0633 -0.5619  0.0713
 2156SOL    HW117930   1.421   2.118   4.788  0.7108 -1.0721  0.4792
 2156SOL    HW217931   1.432   2.222   4.678  4.2402  1.0628 -1.8196
 2157SOL     OW17932   0.701   3.010   2.218 -0.3610  0.0596  0.6413
 2157SOL    HW117933   0.640   2.937   2.207  0.8100 -1.0612  1.6466
 2157SOL    HW217934   0.705   3.032   2.311  0.5378 -0.9321  0.8314
 2158SOL     OW17935   1.655   2.438   6.478  0.2851  0.1683  0.2121
 2158SOL    HW117936   1.562   2.447   6.457  0.5108  3.0147  0.4256
 2158SOL    HW217937   1.665   2.352   6.518 -2.9413 -0.5360 -0.5348
 2159SOL     OW17938   2.687   0.999   7.727  0.1729 -0.0467  0.0483
 2159SOL    HW117939   2.760   1.028   7.781 -0.9449 -1.5071  2.3647
 2159SOL    HW217940   2.731   0.977   7.645  0.2396  0.5685 -0.0801
 2160SOL     OW17941   1.962   3.121  17.383 -0.3755  0.1449 -0.0858
 2160SOL    HW117942   2.041   3.079  17.419 -2.8133 -5.6169 -1.4866
 2160SOL    HW217943   1.982   3.214  17.375 -2.3731  0.4549 -1.4287
 2161SOL     OW17944   3.820   3.129   6.352  0.1021  0.1912  0.4907
 2161SOL    HW117945   3.894   3.178   6.388  0.5532 -0.0921 -0.0543
 2161SOL    HW217946   3.821   3.145   6.258  0.4526 -0.8099  0.3272
 2162SOL     OW17947   2.019   4.546   6.083  0.4950  0.1938 -0.1188
 2162SOL    HW117948   2.007   4.635   6.114 -1.2798  0.7307 -2.3603
 2162SOL    HW217949   2.113   4.532   6.071  0.9411  2.2011  1.0986
 2163SOL     OW17950   4.640   3.297   9.373 -0.2145  0.1759  0.0124
 2163SOL    HW117951   4.708   3.362   9.352 -1.2241  1.5035  0.8841
 2163SOL    HW217952   4.656   3.281   9.466 -5.1219 -2.7367  0.3162
 2164SOL     OW17953   0.265   0.928  11.962 -0.8059  0.3722 -0.3130
 2164SOL    HW117954   0.170   0.919  11.959 -0.6824 -0.8487 -0.5817
 2164SOL    HW217955   0.301   0.884  12.039  0.0607 -1.2768 -1.6631
 2165SOL     OW17956   0.647   1.569   0.171 -0.5718  0.6641 -0.2848
 2165SOL    HW117957   0.691   1.490   0.140 -2.1544 -0.6087  0.7567
 2165SOL    HW217958   0.651   1.629   0.096 -2.4730 -0.4156 -1.2369
 2166SOL     OW17959   2.459   0.279  15.008 -0.1441 -0.2353 -0.1721
 2166SOL    HW117960   2.540   0.258  15.055  1.3529  2.9654 -1.3060
 2166SOL    HW217961   2.438   0.196  14.966  1.9784 -1.8628  1.9388
 2167SOL     OW17962   1.068   0.524   4.175  0.4776  0.3083  0.0944
 2167SOL    HW117963   1.132   0.590   4.200  0.5612 -0.7108  2.6055
 2167SOL    HW217964   0.984   0.566   4.193  1.6188  2.6146 -0.0127
 2168SOL     OW17965   0.436   3.736  14.709  0.0819  0.0190 -0.2092
 2168SOL    HW117966   0.519   3.779  14.729 -1.5140  2.8524  0.2813
 2168SOL    HW217967   0.470   3.652  14.679  1.7278  0.9288 -0.8935
 2169SOL     OW17968   1.549   2.516   8.088  0.0009  0.2126 -0.6339
 2169SOL    HW117969   1.504   2.476   8.162 -0.3082 -0.2740 -1.0886
 2169SOL    HW217970   1.497   2.490   8.013 -0.4753 -0.3849 -0.0961
 2170SOL     OW17971   3.281   3.600   0.940 -1.2493 -0.0774 -0.5068
 2170SOL    HW117972   3.362   3.620   0.986 -1.2328 -1.7544  0.2116
 2170SOL    HW217973   3.235   3.584   1.023 -0.2688  0.1744  0.0800
 2171SOL     OW17974   3.436   0.981   5.923  0.4608 -0.7254 -0.3676
 2171SOL    HW117975   3.350   0.960   5.960  1.2357  1.3234  2.6572
 2171SOL    HW217976   3.408   1.033   5.848  0.1516 -0.0308  0.2185
 2172SOL     OW17977   0.635   1.761  17.641  0.2098  0.3139 -0.2585
 2172SOL    HW117978   0.611   1.684  17.589  0.9181  1.2463 -1.9355
 2172SOL    HW217979   0.596   1.829  17.586 -1.8879  0.1490  1.0223
 2173SOL     OW17980   1.940   2.380   6.419  0.3372  0.0657  0.2905
 2173SOL    HW117981   1.846   2.378   6.404  0.5059  0.8802 -0.9230
 2173SOL    HW217982   1.983   2.341   6.342 -0.9096 -0.4906 -0.1220
 2174SOL     OW17983   4.348   4.624   4.398  0.4790  0.0435  0.4344
 2174SOL    HW117984   4.417   4.592   4.456 -1.0160 -0.3487  2.0002
 2174SOL    HW217985   4.392   4.681   4.335 -0.8147  0.7971  0.2166
 2175SOL     OW17986   2.953   3.023   7.135  0.9281 -0.3594 -0.8817
 2175SOL    HW117987   3.046   3.041   7.149  0.2458  0.9732  1.9504
 2175SOL    HW217988   2.915   3.090   7.193 -0.6231 -1.8871 -0.1138
 2176SOL     OW17989   3.707   2.341   5.653 -0.2968 -0.0446  0.0466
 2176SOL    HW117990   3.720   2.381   5.739 -1.9094 -0.4394  0.4679
 2176SOL    HW217991   3.796   2.356   5.622 -1.1947  1.0079 -1.9932
 2177SOL     OW17992   3.067   3.730   4.605 -0.1164  0.3158 -0.0363
 2177SOL    HW117993   3.059   3.660   4.671 -0.2114 -1.8731 -2.3609
 2177SOL    HW217994   3.010   3.793   4.647 -0.9288 -1.3922  1.4340
 2178SOL     OW17995   1.259   0.717  15.773  0.5755 -0.0458  0.3629
 2178SOL    HW117996   1.257   0.658  15.849 -2.2381 -0.8710 -0.3310
 2178SOL    HW217997   1.262   0.648  15.708 -0.9694 -1.0506  1.3336
 2179SOL     OW17998   1.096   4.163   7.623 -0.3212  0.1303 -0.4546
 2179SOL    HW117999   1.007   4.188   7.600 -0.6290 -0.7954 -0.2226
 2179SOL    HW218000   1.119   4.251   7.653 -0.7248  0.8124 -2.1233
 2180SOL     OW18001   4.506   2.873   4.323  0.0517  0.2168  0.1662
 2180SOL    HW118002   4.469   2.822   4.395 -1.0600 -0.0804 -0.6033
 2180SOL    HW218003   4.538   2.807   4.262  0.3956 -0.0308  0.6213
 2181SOL     OW18004   3.788   2.981   4.411  1.2018 -0.2121 -0.0032
 2181SOL    HW118005   3.815   3.062   4.368  1.5013 -1.0754 -1.4630
 2181SOL    HW218006   3.818   2.909   4.356  2.7805  1.9092 -1.9198
 2182SOL     OW18007   3.268   2.835   8.140 -0.5242 -0.0877  0.1263
 2182SOL    HW118008   3.345   2.849   8.195  0.8867 -0.5660 -1.7224
 2182SOL    HW218009   3.300   2.761   8.089  0.5856 -0.2479  1.0628
 2183SOL     OW18010   0.026   1.703   9.217  0.0382 -0.6318  0.5993
 2183SOL    HW118011   4.661   1.690   9.180  0.8595 -1.9838 -0.8430
 2183SOL    HW218012   0.084   1.642   9.171  2.4892  1.8763  0.3765
 2184SOL     OW18013   4.625   3.829   9.408 -0.2102  0.2247 -0.1885
 2184SOL    HW118014   4.672   3.866   9.483  1.3536  0.6241 -1.3679
 2184SOL    HW218015   4.685   3.841   9.335  0.3433 -0.8702  0.0735
 2185SOL     OW18016   0.547   0.255   3.385 -1.2776 -0.1601  0.8369
 2185SOL    HW118017   0.606   0.291   3.450 -1.3074  0.3396  0.5817
 2185SOL    HW218018   0.563   0.322   3.319  1.5951 -1.0154  0.6555
 2186SOL     OW18019   0.420   3.365   6.673  0.4309 -0.0327 -0.1561
 2186SOL    HW118020   0.442   3.449   6.714  1.1530 -0.7103  0.8627
 2186SOL    HW218021   0.381   3.308   6.740  1.2613 -0.2613  0.1279
 2187SOL     OW18022   0.662   2.683   6.625 -0.1820 -0.0542  0.2296
 2187SOL    HW118023   0.693   2.599   6.660  0.2397  0.5931  1.3798
 2187SOL    HW218024   0.570   2.676   6.652 -0.0979 -1.0534  0.2729
 2188SOL     OW18025   2.378   3.729  15.555  0.3482  0.7021 -0.0705
 2188SOL    HW118026   2.395   3.813  15.514  0.5606  1.2097  1.0730
 2188SOL    HW218027   2.377   3.678  15.474  0.2760 -1.0114  1.0018
 2189SOL     OW18028   1.508   0.884   5.228 -0.0443  0.4830 -0.1387
 2189SOL    HW118029   1.559   0.805   5.244 -0.7279 -0.2985 -1.8100
 2189SOL    HW218030   1.486   0.909   5.317 -0.9749 -0.1050 -0.1969
 2190SOL     OW18031   3.776   0.608   2.362  0.2038  0.6460 -0.2773
 2190SOL    HW118032   3.857   0.558   2.375  0.6290  1.0621 -1.3663
 2190SOL    HW218033   3.760   0.645   2.449  0.4689  0.3872 -0.1165
 2191SOL     OW18034   3.287   0.842   6.756 -0.4722 -0.0084 -0.7826
 2191SOL    HW118035   3.253   0.890   6.831  2.0985 -0.8931  0.9571
 2191SOL    HW218036   3.316   0.764   6.804 -0.4968  1.0990  1.0245
 2192SOL     OW18037   2.697   1.624  11.796  0.7973 -0.4361 -0.1846
 2192SOL    HW118038   2.608   1.615  11.763 -0.0046 -0.7698  2.0409
 2192SOL    HW218039   2.697   1.571  11.876  1.8306  0.0913  0.1637
 2193SOL     OW18040   3.114   3.500  16.616  0.1111  0.3335 -0.1247
 2193SOL    HW118041   3.186   3.436  16.612  0.7852  1.1007 -0.2358
 2193SOL    HW218042   3.082   3.474  16.702 -1.1002 -0.7835 -0.9073
 2194SOL     OW18043   1.449   2.226   6.623 -0.6296  0.0717 -0.0339
 2194SOL    HW118044   1.411   2.309   6.595  2.4725  1.4953 -0.0683
 2194SOL    HW218045   1.408   2.224   6.709 -1.7334  1.2172 -0.5366
 2195SOL     OW18046   3.962   2.248   6.715  0.0469  0.3408  0.0335
 2195SOL    HW118047   3.878   2.289   6.697 -0.0206  0.7622  1.2911
 2195SOL    HW218048   4.014   2.323   6.686  0.9191 -0.1839  0.2212
 2196SOL     OW18049   1.878   0.949  15.836 -0.5642 -0.5366 -0.1345
 2196SOL    HW118050   1.859   0.890  15.763 -2.3970  1.5055 -1.2888
 2196SOL    HW218051   1.834   0.893  15.901 -3.0487  1.4286 -0.1467
 2197SOL     OW18052   0.333   3.297  16.474 -0.2587 -0.0705 -0.0296
 2197SOL    HW118053   0.290   3.324  16.393 -2.5483  0.0314  1.2411
 2197SOL    HW218054   0.409   3.355  16.463  1.0368 -1.9630 -1.0289
 2198SOL     OW18055   0.430   4.680   2.211  0.2902 -0.6433 -0.4683
 2198SOL    HW118056   0.398   4.683   2.301  0.4508 -0.0713 -0.4272
 2198SOL    HW218057   0.394   0.041   2.178  0.8097  0.6584  2.2388
 2199SOL     OW18058   1.037   0.795   7.373  0.0588  0.1310  0.7556
 2199SOL    HW118059   1.014   0.876   7.419 -1.6382 -0.4929  1.0259
 2199SOL    HW218060   0.995   0.804   7.288  1.8231  0.6949 -0.0514
 2200SOL     OW18061   4.628   0.170   6.444  0.4572  0.2298 -0.2547
 2200SOL    HW118062   4.655   0.183   6.535  0.1395 -0.2909 -0.0860
 2200SOL    HW218063   4.711   0.197   6.404  1.7211 -1.1130  1.4522
 2201SOL     OW18064   2.954   0.237  15.000 -0.4584  0.1920  0.2986
 2201SOL    HW118065   3.001   0.207  15.077  0.8914 -0.5385 -0.8047
 2201SOL    HW218066   2.968   0.168  14.935 -0.4245  1.5846 -1.1802
 2202SOL     OW18067   1.401   0.967   4.183 -0.0609 -0.6627  0.0560
 2202SOL    HW118068   1.469   0.947   4.118 -0.0219  1.5062 -0.5862
 2202SOL    HW218069   1.376   1.057   4.163  2.0612 -0.5103 -1.9626
 2203SOL     OW18070   1.014   1.763  15.919  0.4232 -0.2089  0.1960
 2203SOL    HW118071   1.050   1.685  15.877 -2.0399 -1.0571 -0.3560
 2203SOL    HW218072   1.090   1.820  15.926 -1.3800  2.1625  0.7515
 2204SOL     OW18073   1.114   1.243  12.928 -0.3045  0.7728 -0.4556
 2204SOL    HW118074   1.059   1.301  12.875  1.2700  1.5914 -1.2160
 2204SOL    HW218075   1.190   1.246  12.870 -0.4462  1.6066 -0.5958
 2205SOL     OW18076   4.303   4.143  10.910  0.2474 -0.2843 -0.8116
 2205SOL    HW118077   4.383   4.174  10.869 -0.5584  2.5929 -0.1747
 2205SOL    HW218078   4.253   4.224  10.914  0.3367 -0.2687  0.0799
 2206SOL     OW18079   4.379   4.337   7.732 -0.3287 -0.3229 -0.0737
 2206SOL    HW118080   4.305   4.395   7.713 -2.7020 -3.0954  0.8043
 2206SOL    HW218081   4.445   4.382   7.785 -0.9951  1.4125 -0.7031
 2207SOL     OW18082   3.281   2.053  15.850 -0.0050 -0.0532  0.1400
 2207SOL    HW118083   3.277   2.113  15.776 -2.9911 -1.6527 -0.9819
 2207SOL    HW218084   3.225   1.985  15.813 -0.2311 -1.0374  2.3253
 2208SOL     OW18085   4.544   3.958   0.552 -0.1050 -0.4484 -0.0992
 2208SOL    HW118086   4.599   4.036   0.549  0.5480 -0.8590  1.0466
 2208SOL    HW218087   4.466   3.983   0.503  0.6186 -1.5354 -1.7834
 2209SOL     OW18088   2.849   2.156   0.272  0.3787  0.3136  0.7234
 2209SOL    HW118089   2.935   2.193   0.249 -0.1437  1.2384  0.2978
 2209SOL    HW218090   2.841   2.206   0.353  2.1116 -0.0831  1.1537
 2210SOL     OW18091   3.662   4.313   7.663 -0.3526 -0.3560  0.4017
 2210SOL    HW118092   3.705   4.251   7.723 -0.6227  1.1997  2.1787
 2210SOL    HW218093   3.611   4.361   7.728 -2.7042  0.3236 -1.9258
 2211SOL     OW18094   0.389   2.461   3.076 -0.2004 -0.5798 -0.2868
 2211SOL    HW118095   0.380   2.501   2.989 -2.2454  1.0912  0.6894
 2211SOL    HW218096   0.332   2.516   3.129 -0.3301 -2.1946  1.2552
 2212SOL     OW18097   3.577   2.617   3.492 -0.3940  0.0247  0.4457
 2212SOL    HW118098   3.543   2.542   3.541 -0.0526 -0.8106 -0.5900
 2212SOL    HW218099   3.662   2.628   3.534 -1.2358  2.9912  1.3623
 2213SOL     OW18100   1.887   0.845   4.988  0.1676 -0.8029 -0.3871
 2213SOL    HW118101   1.943   0.890   5.052  0.4154  0.8759 -1.7926
 2213SOL    HW218102   1.891   0.752   5.011  0.1430  0.1362  3.4722
 2214SOL     OW18103   4.317   1.705   0.349 -0.0906  0.1507 -0.5906
 2214SOL    HW118104   4.360   1.624   0.324 -0.4919 -0.5426  0.9420
 2214SOL    HW218105   4.273   1.686   0.432  2.9051 -0.8501  0.7636
 2215SOL     OW18106   4.547   3.017   5.654  0.2016  0.2139 -0.4821
 2215SOL    HW118107   4.532   3.080   5.584  0.1405 -0.4456 -1.0535
 2215SOL    HW218108   4.492   3.044   5.728 -1.5761 -1.3535 -1.2420
 2216SOL     OW18109   1.004   4.316   5.046  0.7756 -0.2139 -0.1181
 2216SOL    HW118110   0.980   4.244   4.988  0.0224 -0.2201  0.1990
 2216SOL    HW218111   1.022   4.389   4.987 -1.0598  0.9245  0.7187
 2217SOL     OW18112   0.422   2.928  13.365 -0.3886 -0.0650 -0.3767
 2217SOL    HW118113   0.388   3.001  13.416 -0.9677 -0.3681 -0.3271
 2217SOL    HW218114   0.366   2.926  13.287  0.3925  1.5835 -0.9795
 2218SOL     OW18115   1.112   3.946  15.621 -0.8208 -0.2676  0.0670
 2218SOL    HW118116   1.197   3.970  15.585 -0.1913  2.0381  3.1421
 2218SOL    HW218117   1.127   3.852  15.613 -1.3923 -0.3582  0.0267
 2219SOL     OW18118   3.285   0.064  12.096 -0.4587  0.6882 -0.0024
 2219SOL    HW118119   3.286   0.152  12.060 -1.0482  1.1102  1.0124
 2219SOL    HW218120   3.375   0.049  12.126 -1.1586  0.0283  1.8389
 2220SOL     OW18121   2.425   1.874   5.906 -0.5974  0.0203 -0.4439
 2220SOL    HW118122   2.506   1.914   5.875  0.0191  0.2202  1.4907
 2220SOL    HW218123   2.387   1.957   5.934 -4.0447 -1.3873 -0.8789
 2221SOL     OW18124   0.245   3.555   8.963  0.2568  0.4715 -0.7173
 2221SOL    HW118125   0.194   3.617   8.910 -1.4467 -1.8575 -1.8171
 2221SOL    HW218126   0.283   3.612   9.030  1.8993 -0.3420 -0.9741
 2222SOL     OW18127   1.364   3.615  15.231 -0.0769 -0.2850 -0.2198
 2222SOL    HW118128   1.432   3.581  15.290  1.8844  0.5127 -2.0434
 2222SOL    HW218129   1.400   3.692  15.188 -2.8900  1.0100 -0.2735
 2223SOL     OW18130   0.913   1.389  16.093  0.1511 -0.0285  0.5018
 2223SOL    HW118131   0.841   1.382  16.155  0.1701 -1.1979  0.3860
 2223SOL    HW218132   0.990   1.390  16.151  0.5802 -0.3077 -0.0608
 2224SOL     OW18133   0.875   1.350   5.191  0.2850  0.3514 -0.3621
 2224SOL    HW118134   0.783   1.354   5.163 -0.0878 -0.3185  0.7808
 2224SOL    HW218135   0.910   1.385   5.109 -2.4735  0.7922 -1.3666
 2225SOL     OW18136   3.018   4.316   0.676  0.1405 -0.3177 -0.3420
 2225SOL    HW118137   3.032   4.275   0.591 -0.4435 -0.5559 -0.3259
 2225SOL    HW218138   2.979   4.237   0.712  0.3179 -0.3015 -0.1149
 2226SOL     OW18139   0.006   4.373   4.342  0.2283  0.1120  0.4547
 2226SOL    HW118140   0.055   4.357   4.423  0.4935  2.8076  0.8101
 2226SOL    HW218141   4.677   4.292   4.332  1.8306 -0.7192 -1.0365
 2227SOL     OW18142   0.623   4.439   6.115 -0.2372 -0.4334 -0.7837
 2227SOL    HW118143   0.562   4.414   6.045  0.4078  2.3538 -2.3171
 2227SOL    HW218144   0.613   4.533   6.130  0.7547 -0.2370 -1.3958
 2228SOL     OW18145   0.646   1.129  16.189  0.4921 -0.2373  0.3120
 2228SOL    HW118146   0.620   1.134  16.097  1.5940  0.3418  0.0313
 2228SOL    HW218147   0.660   1.223  16.197 -0.0547 -0.3120  2.0736
 2229SOL     OW18148   1.643   4.184  15.578 -0.1653 -0.2500 -0.2135
 2229SOL    HW118149   1.650   4.279  15.565 -0.0669 -0.4579 -1.6743
 2229SOL    HW218150   1.733   4.165  15.551  0.0660 -1.8830  1.6661
 2230SOL     OW18151   0.945   4.001   0.470 -0.4718  0.3041  0.9423
 2230SOL    HW118152   0.912   3.989   0.381 -0.9923 -0.6837  1.2789
 2230SOL    HW218153   0.998   4.080   0.457  0.4722 -0.3042  1.0543
 2231SOL     OW18154   1.376   3.351   4.691  0.6394  0.1119  0.0177
 2231SOL    HW118155   1.356   3.322   4.601 -1.9892 -0.5785  0.8333
 2231SOL    HW218156   1.456   3.304   4.714 -0.3742 -1.8106 -0.3780
 2232SOL     OW18157   4.166   3.676   8.389 -0.0545 -0.1347 -0.2272
 2232SOL    HW118158   4.157   3.768   8.413 -2.6796 -0.5239  0.2778
 2232SOL    HW218159   4.259   3.673   8.368 -0.7464 -0.0210 -3.2074
 2233SOL     OW18160   2.772   1.697  15.827  0.0840 -0.3354  0.1002
 2233SOL    HW118161   2.809   1.784  15.816  2.4270 -1.2760  0.6533
 2233SOL    HW218162   2.719   1.673  15.751 -1.1813  0.6398  0.6708
 2234SOL     OW18163   0.973   4.302   8.310 -0.3916  0.4928 -0.6135
 2234SOL    HW118164   1.030   4.228   8.330  1.1868  1.5773 -1.0746
 2234SOL    HW218165   1.018   4.371   8.359  0.3263 -0.5241  0.1612
 2235SOL     OW18166   0.362   1.189  11.291  0.4361 -0.1641 -0.0134
 2235SOL    HW118167   0.377   1.160  11.201 -0.2706  0.7243 -0.4197
 2235SOL    HW218168   0.367   1.285  11.287 -1.2125 -0.0194  1.6212
 2236SOL     OW18169   1.723   4.178   5.972 -0.7352  0.7076 -0.1887
 2236SOL    HW118170   1.667   4.119   5.922  1.6776 -0.7232 -1.2029
 2236SOL    HW218171   1.674   4.256   5.946 -1.2132  0.5862  0.3564
 2237SOL     OW18172   0.721   0.624   1.850 -0.9879 -0.1295  0.0332
 2237SOL    HW118173   0.676   0.675   1.783  1.1626  1.1709 -0.3988
 2237SOL    HW218174   0.707   0.529   1.843 -2.2670 -0.0626  1.7940
 2238SOL     OW18175   0.159   2.311   7.104 -0.0504  0.0437  0.3232
 2238SOL    HW118176   0.232   2.340   7.049  0.1619  0.5719  0.8778
 2238SOL    HW218177   0.192   2.230   7.143  2.3548  0.5663 -0.5776
 2239SOL     OW18178   2.553   0.409   2.840 -0.2016  0.6238 -0.0950
 2239SOL    HW118179   2.484   0.348   2.813  0.1613  0.8446 -1.5245
 2239SOL    HW218180   2.523   0.494   2.805  1.9672  0.8725 -1.3553
 2240SOL     OW18181   1.541   4.326   4.987 -0.1929 -0.2835 -0.1451
 2240SOL    HW118182   1.582   4.256   5.038 -0.1945  0.0842  0.3637
 2240SOL    HW218183   1.547   4.404   5.042  1.3649 -0.0603 -0.6398
 2241SOL     OW18184   1.519   3.359   2.862  0.4259  0.6047 -0.2303
 2241SOL    HW118185   1.561   3.369   2.947  0.1250  0.4825 -0.0696
 2241SOL    HW218186   1.559   3.429   2.811 -0.5253  1.1491 -0.2212
 2242SOL     OW18187   0.483   3.396   3.672 -0.8260 -0.1936  0.0770
 2242SOL    HW118188   0.557   3.395   3.612  2.1439 -1.5756  3.7865
 2242SOL    HW218189   0.418   3.364   3.610 -1.2096  0.4755  0.1229
 2243SOL     OW18190   0.662   1.661   0.696 -0.7790 -0.1232  0.1762
 2243SOL    HW118191   0.576   1.623   0.712 -0.8525 -0.0372 -0.0215
 2243SOL    HW218192   0.680   1.624   0.610 -0.7673 -1.2920  0.6885
 2244SOL     OW18193   3.382   2.838   5.944 -0.0341  0.4522  0.0156
 2244SOL    HW118194   3.465   2.872   5.911  0.0915 -1.7022 -1.8795
 2244SOL    HW218195   3.331   2.860   5.866 -0.7580  1.9003  0.8976
 2245SOL     OW18196   2.231   3.437   8.158  0.6392 -0.1385  0.4397
 2245SOL    HW118197   2.217   3.384   8.236 -1.0306 -1.4773 -0.7614
 2245SOL    HW218198   2.267   3.517   8.195 -0.0599  0.3015  0.1804
 2246SOL     OW18199   4.710   2.785   7.096  0.0979  0.4379 -0.1397
 2246SOL    HW118200   0.025   2.838   7.166  1.6625 -0.9603  0.0757
 2246SOL    HW218201   4.664   2.731   7.160 -0.0038  1.4499  0.6437
 2247SOL     OW18202   0.929   0.926   8.526  0.6115  0.1622  0.0346
 2247SOL    HW118203   0.962   1.007   8.488  4.2266 -1.6358 -0.6709
 2247SOL    HW218204   0.843   0.953   8.558  1.7738  0.8030  2.5693
 2248SOL     OW18205   3.865   2.160  12.316 -0.2472 -0.0553 -0.0982
 2248SOL    HW118206   3.851   2.201  12.231 -4.1218  1.3952  1.2314
 2248SOL    HW218207   3.777   2.152  12.352  0.0926  2.2090  1.2063
 2249SOL     OW18208   0.518   3.096   8.539 -0.0593 -0.2119 -0.5987
 2249SOL    HW118209   0.486   3.184   8.520  1.3463  0.4153 -0.1096
 2249SOL    HW218210   0.518   3.090   8.635 -0.9074  0.3655 -0.5644
 2250SOL     OW18211   0.669   2.105   3.949 -0.0226  0.0704 -0.1145
 2250SOL    HW118212   0.756   2.064   3.947  1.1743  2.7044 -1.6647
 2250SOL    HW218213   0.684   2.187   3.901  3.2614 -1.4891 -1.8195
 2251SOL     OW18214   1.031   3.253   2.556 -0.3626  0.5913  0.2430
 2251SOL    HW118215   1.088   3.220   2.626 -0.6901 -1.8331 -0.6431
 2251SOL    HW218216   1.063   3.206   2.479 -1.8288 -1.3070  0.8142
 2252SOL     OW18217   2.050   3.659   2.548 -0.4935 -0.6152 -0.2505
 2252SOL    HW118218   1.962   3.688   2.525 -0.2796 -1.3527 -2.0482
 2252SOL    HW218219   2.069   3.724   2.616 -1.4571  1.2827 -1.7951
 2253SOL     OW18220   2.503   1.205   7.645  0.4921 -0.6904  0.0673
 2253SOL    HW118221   2.565   1.136   7.668  0.3121 -1.2805 -1.2010
 2253SOL    HW218222   2.468   1.167   7.564  1.8295  1.4923 -1.5390
 2254SOL     OW18223   3.134   4.282   3.225 -0.1867 -0.3488  0.2846
 2254SOL    HW118224   3.140   4.247   3.136 -0.5494  1.9497 -0.6419
 2254SOL    HW218225   3.221   4.258   3.258 -0.0447 -1.0286 -0.5811
 2255SOL     OW18226   3.456   2.120   9.426 -0.5934 -0.3280 -0.5396
 2255SOL    HW118227   3.398   2.174   9.480  1.3766  0.2991  0.9553
 2255SOL    HW218228   3.427   2.133   9.335 -1.0681 -1.5041 -0.5474
 2256SOL     OW18229   3.342   1.936   4.811 -0.0052  0.0875  0.1293
 2256SOL    HW118230   3.315   1.983   4.733 -0.7372 -1.3882 -0.5119
 2256SOL    HW218231   3.258   1.920   4.855 -0.7581  2.0048 -0.6194
 2257SOL     OW18232   2.909   3.201   8.433  0.0977 -0.0325  0.1649
 2257SOL    HW118233   2.861   3.138   8.487 -0.9911  0.1472 -0.5820
 2257SOL    HW218234   2.967   3.144   8.383 -0.0366 -1.3388  1.5120
 2258SOL     OW18235   3.224   2.069  11.749 -0.0024  0.2904  0.5889
 2258SOL    HW118236   3.290   2.041  11.686  0.5343  3.5028 -0.2794
 2258SOL    HW218237   3.182   2.139  11.699 -0.9672 -0.0657  0.8986
 2259SOL     OW18238   3.046   1.144   8.210 -0.4588  0.0059  0.4619
 2259SOL    HW118239   2.953   1.132   8.232 -1.0474 -0.3598 -2.2529
 2259SOL    HW218240   3.095   1.168   8.289 -0.8047 -1.8200  1.2400
 2260SOL     OW18241   1.472   3.771   9.381 -0.2408  0.7917  0.2844
 2260SOL    HW118242   1.565   3.762   9.402 -0.2653  2.5578  1.1194
 2260SOL    HW218243   1.462   3.701   9.316  0.4913 -0.7158  1.7804
 2261SOL     OW18244   0.624   3.244  12.330 -0.0848 -0.3367  0.1073
 2261SOL    HW118245   0.622   3.305  12.257 -1.8315 -1.3862 -0.6898
 2261SOL    HW218246   0.533   3.245  12.360 -1.0613 -0.8146 -2.9317
 2262SOL     OW18247   1.202   1.405   3.304  0.1879  0.2779 -0.8160
 2262SOL    HW118248   1.239   1.339   3.245  0.7055  1.1042 -1.4184
 2262SOL    HW218249   1.272   1.406   3.369 -0.6814 -1.1922  0.1446
 2263SOL     OW18250   1.562   2.289   3.236  0.0247  1.1792 -0.1523
 2263SOL    HW118251   1.526   2.336   3.161 -0.6068  0.9420  0.0097
 2263SOL    HW218252   1.537   2.343   3.311 -0.2977  1.2606 -0.3186
 2264SOL     OW18253   1.238   3.036   2.105 -0.3387 -0.2967  0.4929
 2264SOL    HW118254   1.300   3.075   2.044 -0.0314  0.4579  1.2790
 2264SOL    HW218255   1.171   2.996   2.050 -1.3767  1.9086  0.1640
 2265SOL     OW18256   3.431   2.965   0.610 -0.1457  0.1591 -0.3492
 2265SOL    HW118257   3.445   3.047   0.657 -1.1104 -0.0526  0.3064
 2265SOL    HW218258   3.522   2.955   0.582  0.2327 -1.3175  1.4279
 2266SOL     OW18259   3.092   3.045   8.044 -0.3095  0.0961  0.5948
 2266SOL    HW118260   3.152   3.102   7.996 -1.8368  2.4492  1.4801
 2266SOL    HW218261   3.142   2.982   8.096  3.1889  1.2137 -1.3702
 2267SOL     OW18262   1.191   3.549   5.144 -0.3756 -0.0872  0.5766
 2267SOL    HW118263   1.276   3.590   5.164 -0.8925  1.9712 -1.4134
 2267SOL    HW218264   1.216   3.523   5.056  3.0327 -2.0689  2.1127
 2268SOL     OW18265   4.712   4.315   5.400  0.5398 -0.0639 -0.2183
 2268SOL    HW118266   0.047   4.352   5.333  0.3583  0.3553 -0.1361
 2268SOL    HW218267   0.049   4.249   5.437 -1.7246 -2.6725 -1.2199
 2269SOL     OW18268   1.151   4.547   5.358 -0.4363 -0.6658 -0.0800
 2269SOL    HW118269   1.219   4.567   5.293 -2.1335  1.0352 -1.3331
 2269SOL    HW218270   1.127   4.464   5.318  0.7860 -1.3366  0.5647
 2270SOL     OW18271   0.260   3.153  17.046  0.2429  0.0305 -0.1155
 2270SOL    HW118272   0.258   3.204  17.126 -0.7489 -1.4563  0.8246
 2270SOL    HW218273   0.167   3.135  17.031  0.2658 -0.1405 -0.0546
 2271SOL     OW18274   0.941   2.047   0.056 -0.4201  0.2491 -0.1602
 2271SOL    HW118275   0.875   2.100   0.101 -0.2603  2.0173 -2.0007
 2271SOL    HW218276   0.917   1.958   0.083 -0.6249 -0.7532 -3.6662
 2272SOL     OW18277   4.524   2.056  15.191  0.0038  0.4163  0.1124
 2272SOL    HW118278   4.592   2.103  15.143  0.8975 -1.0574 -0.0694
 2272SOL    HW218279   4.524   1.974  15.141  0.8401 -1.0962  2.5713
 2273SOL     OW18280   2.224   1.372   6.703 -0.5317 -0.0774  0.3117
 2273SOL    HW118281   2.253   1.350   6.791  1.4833  0.1898 -0.2819
 2273SOL    HW218282   2.129   1.361   6.708 -0.3717 -1.3185  0.7746
 2274SOL     OW18283   3.233   2.620   5.233  0.2663 -0.0450 -0.1167
 2274SOL    HW118284   3.159   2.634   5.292  0.7612 -0.3400  0.5767
 2274SOL    HW218285   3.293   2.682   5.274  0.1520 -1.3139  1.9790
 2275SOL     OW18286   4.682   3.021   3.042 -0.1122  0.2360 -0.3346
 2275SOL    HW118287   4.701   2.930   3.065  0.0907  0.1002 -1.0236
 2275SOL    HW218288   4.615   2.999   2.977  2.1041 -0.6344 -2.3189
 2276SOL     OW18289   4.042   1.337   3.163 -0.6319  0.0360  0.2228
 2276SOL    HW118290   3.982   1.266   3.144 -0.4728  0.2622 -1.1084
 2276SOL    HW218291   4.056   1.391   3.085 -1.0938 -1.0225 -0.5878
 2277SOL     OW18292   4.661   0.915   2.965 -0.2253 -0.8912 -0.0732
 2277SOL    HW118293   4.610   0.835   2.970 -1.8712  0.1507 -0.3073
 2277SOL    HW218294   4.624   0.974   2.899 -0.4385 -0.7082  0.2153
 2278SOL     OW18295   2.132   4.709   3.920 -0.0771  0.2338 -0.3519
 2278SOL    HW118296   2.108   0.038   3.997  2.6346 -1.8944  1.9084
 2278SOL    HW218297   2.099   4.623   3.944 -0.9137  0.3923 -0.9526
 2279SOL     OW18298   0.918   4.013   8.060 -0.1469 -0.6034 -0.0734
 2279SOL    HW118299   0.843   4.072   8.048 -0.2720 -0.4997  1.2000
 2279SOL    HW218300   0.973   4.028   7.983  0.2833 -1.0341  0.1552
 2280SOL     OW18301   2.298   0.676   5.198  0.2654 -0.3234  0.3930
 2280SOL    HW118302   2.366   0.732   5.162 -0.6649 -0.5264 -1.6620
 2280SOL    HW218303   2.339   0.591   5.181  1.7799  0.3660  0.6515
 2281SOL     OW18304   3.135   1.931   5.938 -0.5232 -0.3577 -0.3629
 2281SOL    HW118305   3.086   1.868   5.990 -0.9479  2.0330  2.1435
 2281SOL    HW218306   3.113   1.903   5.849  0.9464  0.6153 -1.0474
 2282SOL     OW18307   3.271   3.054   5.330  0.0471  0.2893  0.8245
 2282SOL    HW118308   3.198   3.033   5.272  0.5094 -0.8539  0.6503
 2282SOL    HW218309   3.296   2.964   5.351  1.4219  0.0264 -1.8153
 2283SOL     OW18310   4.517   2.754   6.487 -0.4008 -0.3787  0.0429
 2283SOL    HW118311   4.515   2.663   6.458  2.1739  0.7639 -3.7155
 2283SOL    HW218312   4.426   2.767   6.515 -0.6019 -1.8143  0.0785
 2284SOL     OW18313   0.197   0.151  15.398 -0.4614  0.2169  0.4302
 2284SOL    HW118314   0.169   0.178  15.486 -2.4747 -0.3019 -0.0478
 2284SOL    HW218315   0.220   0.059  15.411 -0.8493 -0.2024 -1.8356
 2285SOL     OW18316   1.181   4.442   6.719 -0.3323  0.7172  0.3484
 2285SOL    HW118317   1.173   4.381   6.646  1.5685  0.6934  0.1401
 2285SOL    HW218318   1.117   4.505   6.687 -0.6361  0.9866  1.5039
 2286SOL     OW18319   1.159   4.526   7.013 -0.3625  0.5272 -0.3564
 2286SOL    HW118320   1.133   4.435   7.001  0.3667  0.3640 -0.7045
 2286SOL    HW218321   1.121   4.567   6.935  0.9532 -0.0348 -1.2947
 2287SOL     OW18322   4.358   3.023  10.074 -0.4881 -0.2294 -0.4537
 2287SOL    HW118323   4.448   2.994  10.060 -0.7806 -0.3925 -2.0294
 2287SOL    HW218324   4.366   3.107  10.118 -1.1577 -1.0270  1.1868
 2288SOL     OW18325   4.545   2.970  16.537 -0.1059  0.1591  0.1226
 2288SOL    HW118326   4.458   2.980  16.575 -1.0342 -0.0901 -1.9185
 2288SOL    HW218327   4.590   3.033  16.592 -0.5674  0.1326  0.5273
 2289SOL     OW18328   1.645   2.337   7.580  0.2260 -0.3519 -0.0507
 2289SOL    HW118329   1.619   2.424   7.549 -2.1668 -1.5458 -1.3694
 2289SOL    HW218330   1.729   2.325   7.534 -0.3384  0.0042 -1.1686
 2290SOL     OW18331   3.099   0.226   7.145 -0.2962 -0.3107 -0.4592
 2290SOL    HW118332   3.011   0.216   7.181 -0.1543 -0.9508 -0.2904
 2290SOL    HW218333   3.128   0.138   7.120  2.7592  0.6839 -0.4640
 2291SOL     OW18334   2.748   3.571   5.043 -0.7118 -0.0848  0.0171
 2291SOL    HW118335   2.721   3.480   5.033 -1.0823  0.5491 -4.4248
 2291SOL    HW218336   2.785   3.586   4.956  0.1949 -0.5345  0.3233
 2292SOL     OW18337   2.986   0.558   6.041  0.1745 -0.1116 -0.3695
 2292SOL    HW118338   2.913   0.506   6.010  1.0470 -2.0789  0.9093
 2292SOL    HW218339   2.956   0.646   6.017 -0.7135 -0.0648  0.9226
 2293SOL     OW18340   3.500   1.414   1.634 -0.4796 -0.1882  0.0555
 2293SOL    HW118341   3.477   1.495   1.680 -0.4565  0.0276 -0.3170
 2293SOL    HW218342   3.582   1.384   1.673 -1.6915  0.0401  2.7745
 2294SOL     OW18343   0.177   1.023   9.817 -0.7619 -0.1207 -0.0019
 2294SOL    HW118344   0.153   0.977   9.897  1.2484 -1.8987 -0.4249
 2294SOL    HW218345   0.093   1.061   9.792 -1.3424  0.2867  2.6383
 2295SOL     OW18346   3.409   0.585   4.737 -0.0772 -0.5099 -0.2443
 2295SOL    HW118347   3.354   0.515   4.774 -0.2151 -0.4717 -0.3735
 2295SOL    HW218348   3.415   0.647   4.810  0.4178 -0.0351 -0.6889
 2296SOL     OW18349   2.925   2.042  14.134 -0.0110 -0.1836  0.1875
 2296SOL    HW118350   2.870   2.105  14.088  0.6987  0.0896 -0.2773
 2296SOL    HW218351   2.946   1.977  14.067 -0.7950  0.2910 -0.5163
 2297SOL     OW18352   3.001   1.847  13.980 -0.0650 -0.1023  0.5459
 2297SOL    HW118353   2.989   1.874  13.889  0.3072  2.2543  1.1977
 2297SOL    HW218354   2.962   1.760  13.975  0.8092 -0.3665 -1.7726
 2298SOL     OW18355   0.339   4.015   7.805  0.0865 -0.4320 -0.3817
 2298SOL    HW118356   0.412   3.954   7.797  1.9894  1.9904 -1.6371
 2298SOL    HW218357   0.354   4.077   7.877 -0.0483  0.7538 -1.3713
 2299SOL     OW18358   4.062   1.467  10.481  0.1502  0.0431  0.2256
 2299SOL    HW118359   3.980   1.450  10.526  0.7733  1.5192  1.8912
 2299SOL    HW218360   4.029   1.474  10.391 -1.8386  0.7465  1.0398
 2300SOL     OW18361   3.254   2.466   7.244  0.1001  0.3168 -0.2586
 2300SOL    HW118362   3.254   2.558   7.220 -0.2305  0.2525 -0.4919
 2300SOL    HW218363   3.347   2.463   7.267  0.2565 -0.1016 -0.9300
 2301SOL     OW18364   1.945   0.278   2.369 -1.3130 -0.1999 -0.2481
 2301SOL    HW118365   1.885   0.281   2.295 -1.8589 -0.1721  0.2004
 2301SOL    HW218366   2.025   0.306   2.324  0.0094 -0.6735  1.7863
 2302SOL     OW18367   1.347   1.045   8.856 -0.6218  0.1037  1.1321
 2302SOL    HW118368   1.313   1.131   8.831  1.3619 -0.2220 -2.6578
 2302SOL    HW218369   1.272   0.997   8.821 -0.0585  0.8012 -1.0181
 2303SOL     OW18370   0.034   1.675   5.186  0.4648  0.2704  0.9011
 2303SOL    HW118371   0.028   1.658   5.280  2.4368 -2.0690  0.6159
 2303SOL    HW218372   0.098   1.605   5.173 -0.2415  0.0144 -1.2530
 2304SOL     OW18373   2.834   3.411   3.713  0.2072  0.1360  0.5701
 2304SOL    HW118374   2.904   3.346   3.703 -0.2249  0.2907 -3.5368
 2304SOL    HW218375   2.883   3.490   3.690 -0.7675  0.3605 -0.7393
 2305SOL     OW18376   4.585   0.146   1.903  0.6772  0.5640  0.1023
 2305SOL    HW118377   4.676   0.145   1.931  0.4026 -0.4142  0.9738
 2305SOL    HW218378   4.576   0.052   1.884  0.6193  0.7138 -0.6198
 2306SOL     OW18379   2.708   2.732   6.827 -0.1535  0.0626  0.2909
 2306SOL    HW118380   2.754   2.747   6.909  2.4848 -2.9916 -0.6357
 2306SOL    HW218381   2.751   2.654   6.791 -1.7826 -1.3782  1.4677
 2307SOL     OW18382   2.802   4.061   4.241 -0.4144 -0.0840 -0.8861
 2307SOL    HW118383   2.757   4.116   4.304 -0.1931 -0.3662 -0.4805
 2307SOL    HW218384   2.896   4.078   4.249 -0.7236  0.1895  2.0747
 2308SOL     OW18385   2.820   2.681   0.688  0.0171 -0.8904  0.1989
 2308SOL    HW118386   2.832   2.594   0.727 -0.5821 -1.6665 -1.3418
 2308SOL    HW218387   2.785   2.741   0.753 -1.4160 -1.9148  0.3752
 2309SOL     OW18388   0.251   1.310  13.244 -0.5948 -0.4041 -0.0840
 2309SOL    HW118389   0.304   1.234  13.219 -0.5177 -0.6507  0.8277
 2309SOL    HW218390   0.277   1.362  13.169  1.7895 -2.1800 -0.5017
 2310SOL     OW18391   0.531   1.887   6.462  0.5402 -0.1202 -0.9619
 2310SOL    HW118392   0.463   1.850   6.405 -1.0494 -0.5280  1.2109
 2310SOL    HW218393   0.496   1.874   6.550 -2.5343 -3.1492 -2.5979
 2311SOL     OW18394   4.558   1.054   7.083  0.2623 -0.4498 -0.0892
 2311SOL    HW118395   4.469   1.021   7.094 -0.2581  1.3117  1.0570
 2311SOL    HW218396   4.574   1.094   7.168  1.0064 -0.4666 -0.2230
 2312SOL     OW18397   4.712   2.047   2.546  0.5213  0.0159  0.3867
 2312SOL    HW118398   0.043   1.996   2.486  1.1099  0.2197  0.7359
 2312SOL    HW218399   4.620   2.024   2.536  0.4866  0.8201 -1.2458
 2313SOL     OW18400   1.837   4.656   4.135 -0.1887 -0.4852 -0.0325
 2313SOL    HW118401   1.750   4.691   4.150 -0.3065 -0.5823 -0.4838
 2313SOL    HW218402   1.843   4.675   4.041 -0.4940  1.0855  0.2597
 2314SOL     OW18403   2.016   0.201   4.698 -0.1769 -0.0325 -0.5084
 2314SOL    HW118404   2.028   0.165   4.786  1.2800  1.3076 -0.1524
 2314SOL    HW218405   2.010   0.118   4.651  2.8809 -0.1331 -0.7251
 2315SOL     OW18406   3.309   4.550   3.565 -0.0409 -0.4513  0.1585
 2315SOL    HW118407   3.233   4.495   3.547 -0.6487  0.4563 -0.0967
 2315SOL    HW218408   3.362   4.484   3.609 -0.4234 -1.3983 -0.7859
 2316SOL     OW18409   2.188   1.589   9.537 -0.0464  0.0958 -0.1772
 2316SOL    HW118410   2.099   1.555   9.535  0.3076 -0.8891  0.8200
 2316SOL    HW218411   2.223   1.535   9.466 -0.9078 -2.5082  1.3935
 2317SOL     OW18412   4.379   3.344   9.362  0.1742 -0.1777  0.3960
 2317SOL    HW118413   4.474   3.336   9.355  0.1377 -0.4685  0.1831
 2317SOL    HW218414   4.365   3.341   9.456  0.8067 -0.2869  0.4870
 2318SOL     OW18415   3.555   4.247   1.038  0.3931 -0.0022  0.3294
 2318SOL    HW118416   3.539   4.174   0.978 -0.5973  1.4017 -1.1119
 2318SOL    HW218417   3.472   4.233   1.084 -0.1838  0.9601 -0.4154
 2319SOL     OW18418   1.909   0.038   9.812  1.0915 -0.1848 -0.2765
 2319SOL    HW118419   1.932   0.097   9.884  0.9902 -0.3197 -0.1332
 2319SOL    HW218420   1.911   0.106   9.744  0.1437 -0.7216 -0.8389
 2320SOL     OW18421   0.386   3.736   8.015 -0.5164 -0.0210  0.1759
 2320SOL    HW118422   0.381   3.791   8.093 -0.6480  0.6281 -0.2867
 2320SOL    HW218423   0.458   3.681   8.045  0.2541  1.7945  1.6227
 2321SOL     OW18424   4.379   1.981  12.778 -0.5110 -0.0772  0.0500
 2321SOL    HW118425   4.455   2.039  12.781  0.6015 -1.4348 -2.0349
 2321SOL    HW218426   4.340   2.015  12.859  0.2365 -0.7606  0.6945
 2322SOL     OW18427   4.146   2.874   6.670  0.1401 -0.8089 -0.4139
 2322SOL    HW118428   4.171   2.945   6.611 -0.3005 -0.1289  0.2218
 2322SOL    HW218429   4.054   2.896   6.685  0.0109 -0.8731 -1.1055
 2323SOL     OW18430   2.045   0.215   2.636  0.6366  0.0822 -0.0566
 2323SOL    HW118431   1.986   0.241   2.564 -0.0835  1.5234  1.0502
 2323SOL    HW218432   2.081   0.138   2.593  0.2750 -0.6845  1.0255
 2324SOL     OW18433   3.240   4.091   4.025  0.0784 -0.5365 -0.1040
 2324SOL    HW118434   3.222   4.167   3.968  0.6725  0.9382  1.6756
 2324SOL    HW218435   3.263   4.022   3.962  2.3636  0.1137  0.0003
 2325SOL     OW18436   0.946   1.248  10.698  1.0620 -0.2913  0.2795
 2325SOL    HW118437   0.977   1.194  10.625 -3.0417 -0.6185 -1.2103
 2325SOL    HW218438   0.906   1.192  10.765 -2.4503  0.2046 -1.3741
 2326SOL     OW18439   4.262   3.724   2.945 -0.1003  0.2002 -0.1525
 2326SOL    HW118440   4.168   3.730   2.928 -0.4484  1.9183  2.4078
 2326SOL    HW218441   4.285   3.688   2.860  0.9976  0.1740  0.1595
 2327SOL     OW18442   0.331   1.058   2.851 -0.1534 -0.0478 -0.1935
 2327SOL    HW118443   0.279   1.098   2.781  0.2691  1.0670  0.1329
 2327SOL    HW218444   0.310   1.122   2.918  0.7378  0.8422 -0.7665
 2328SOL     OW18445   0.173   3.522   6.354 -0.2745 -0.2107 -0.2238
 2328SOL    HW118446   0.088   3.480   6.342 -0.1031 -0.5604 -0.2050
 2328SOL    HW218447   0.159   3.610   6.319 -1.8041 -0.6040 -0.6086
 2329SOL     OW18448   1.759   1.849   2.686 -0.3744 -0.1221  0.0631
 2329SOL    HW118449   1.737   1.848   2.779 -0.0710  4.2663  0.1662
 2329SOL    HW218450   1.692   1.898   2.639 -0.3238  0.2582  0.3918
 2330SOL     OW18451   2.746   1.502   2.992 -0.4215  0.5141 -0.6379
 2330SOL    HW118452   2.668   1.535   3.036 -0.0693  1.6246 -0.8443
 2330SOL    HW218453   2.753   1.420   3.040  0.4229 -1.0977 -3.5485
 2331SOL     OW18454   0.269   0.396   4.657  0.0863  0.0670 -0.5896
 2331SOL    HW118455   0.264   0.461   4.586 -0.4100  0.1159 -0.5083
 2331SOL    HW218456   0.211   0.431   4.725 -0.0182 -0.3913 -0.4446
 2332SOL     OW18457   0.338   1.351  16.698  0.0069 -0.6727  0.5357
 2332SOL    HW118458   0.257   1.307  16.724 -0.0681 -2.1793 -2.2034
 2332SOL    HW218459   0.309   1.378  16.611  1.7910  1.9965  0.7798
 2333SOL     OW18460   3.163   0.167  14.530  0.5833 -0.5166 -0.0067
 2333SOL    HW118461   3.197   0.182  14.619 -0.3326  1.9227 -0.0685
 2333SOL    HW218462   3.137   0.075  14.537 -0.7381  0.1331  3.5835
 2334SOL     OW18463   2.276   2.693   4.071 -0.4781 -0.0314  0.3566
 2334SOL    HW118464   2.341   2.623   4.080 -0.0912  0.1431 -1.0868
 2334SOL    HW218465   2.335   2.766   4.091 -0.3871 -0.1350  0.4696
 2335SOL     OW18466   3.253   2.482   0.747  0.7971  0.0643 -0.4295
 2335SOL    HW118467   3.275   2.547   0.814 -0.2595  0.5747 -0.5818
 2335SOL    HW218468   3.338   2.442   0.728  0.4453 -1.6298  1.5248
 2336SOL     OW18469   2.395   4.317   8.423  0.7649 -0.3829  0.3132
 2336SOL    HW118470   2.404   4.361   8.339  1.6503 -0.4201  0.3912
 2336SOL    HW218471   2.484   4.314   8.456  0.8216  1.7751  0.3058
 2337SOL     OW18472   0.263   0.821   2.611  0.6228  0.3829  0.2614
 2337SOL    HW118473   0.207   0.889   2.574  2.3273  1.7770  0.2632
 2337SOL    HW218474   0.306   0.783   2.535 -0.7416  3.0015 -1.8152
 2338SOL     OW18475   1.274   4.243   1.062 -0.1851 -0.0932  0.3641
 2338SOL    HW118476   1.226   4.326   1.067  0.8380  0.5309 -0.1876
 2338SOL    HW218477   1.351   4.264   1.115 -0.2314  0.7648  0.0941
 2339SOL     OW18478   0.903   0.666   2.868  0.1421  0.1690  0.1001
 2339SOL    HW118479   0.913   0.571   2.873 -1.3578 -0.0734 -1.1557
 2339SOL    HW218480   0.871   0.671   2.778  0.0354 -0.8217  0.0764
 2340SOL     OW18481   4.013   0.180   0.408 -0.2704  0.4171  0.0696
 2340SOL    HW118482   4.066   0.103   0.389 -0.8106 -0.0648  0.5188
 2340SOL    HW218483   3.968   0.197   0.325  0.6304  2.3303 -0.0168
 2341SOL     OW18484   3.776   2.965  14.321 -0.0155  0.0908 -0.3417
 2341SOL    HW118485   3.835   2.992  14.251  0.5524 -1.2966 -0.3957
 2341SOL    HW218486   3.834   2.946  14.395  1.4081 -2.6813 -2.1569
 2342SOL     OW18487   1.594   4.361   3.875 -0.0510  0.1943  0.4495
 2342SOL    HW118488   1.501   4.383   3.880 -0.5030 -1.6281  0.2709
 2342SOL    HW218489   1.627   4.385   3.789  0.4809  3.4569  1.5584
 2343SOL     OW18490   0.511   2.595   2.007  0.8673  0.2222  0.5515
 2343SOL    HW118491   0.447   2.595   1.936  3.5706  0.5278 -1.8895
 2343SOL    HW218492   0.497   2.509   2.046  0.1893 -0.3828 -1.0147
 2344SOL     OW18493   2.563   3.403   8.066  0.1994 -0.2486  0.1015
 2344SOL    HW118494   2.501   3.434   8.000 -2.0631 -2.1627  1.3353
 2344SOL    HW218495   2.564   3.313   8.036  0.7890  0.7378 -2.8247
 2345SOL     OW18496   1.530   0.865   2.419 -0.4033  0.7211 -0.1367
 2345SOL    HW118497   1.490   0.910   2.493  1.8879  2.3245  0.1403
 2345SOL    HW218498   1.451   0.847   2.368 -0.4875 -1.1979  0.6783
 2346SOL     OW18499   0.116   2.576   7.817 -0.5813  0.0973 -0.0483
 2346SOL    HW118500   0.107   2.481   7.829  3.9492 -0.3830 -0.4663
 2346SOL    HW218501   0.206   2.575   7.786 -0.4624 -1.6591  0.3241
 2347SOL     OW18502   3.620   2.442  14.825  0.8539  0.0581 -0.0382
 2347SOL    HW118503   3.611   2.361  14.875  0.4578  0.6012  0.7584
 2347SOL    HW218504   3.623   2.510  14.892  2.1895  2.5316 -2.5887
 2348SOL     OW18505   1.792   4.212   8.037  0.0945  0.2093 -0.0961
 2348SOL    HW118506   1.846   4.134   8.052  1.1015  0.8785 -0.2091
 2348SOL    HW218507   1.714   4.186   7.989  0.0706 -2.6762  1.5322
 2349SOL     OW18508   4.267   0.342   5.294 -0.0790  0.2260 -0.3886
 2349SOL    HW118509   4.305   0.409   5.237  0.8552  1.5298  1.7970
 2349SOL    HW218510   4.201   0.314   5.230 -1.4451  0.2385  1.0080
 2350SOL     OW18511   1.622   3.424  16.124 -0.1806 -0.2001  0.4630
 2350SOL    HW118512   1.533   3.403  16.095  0.1766 -0.8476 -0.1717
 2350SOL    HW218513   1.608   3.518  16.136 -0.5354  0.2055 -3.1109
 2351SOL     OW18514   0.115   2.598   3.610 -0.8078 -0.3532  0.7470
 2351SOL    HW118515   0.091   2.687   3.638 -1.5522 -1.9256  4.9695
 2351SOL    HW218516   0.207   2.603   3.634 -0.6737 -0.8794  0.3503
 2352SOL     OW18517   2.252   1.108   0.690 -0.5031  0.3574 -0.5276
 2352SOL    HW118518   2.321   1.041   0.690  0.6786  1.5653  1.0767
 2352SOL    HW218519   2.182   1.063   0.644  0.1013  1.6530 -2.7098
 2353SOL     OW18520   3.332   1.348   6.071 -0.3555 -0.2520 -0.0064
 2353SOL    HW118521   3.370   1.261   6.084  1.1969  0.3020 -0.9673
 2353SOL    HW218522   3.272   1.356   6.146 -0.2151 -1.0059  0.1894
 2354SOL     OW18523   2.985   4.011   3.451  0.6093 -0.2241  0.3099
 2354SOL    HW118524   2.953   4.092   3.491  1.8446 -1.2407  3.3086
 2354SOL    HW218525   2.900   3.969   3.437  1.1233 -0.6639 -1.5543
 2355SOL     OW18526   2.134   0.580   8.877 -0.4665 -0.9948 -0.1888
 2355SOL    HW118527   2.187   0.523   8.821 -0.6178 -0.2323 -1.1214
 2355SOL    HW218528   2.103   0.650   8.820 -1.2515 -1.2872 -0.1143
 2356SOL     OW18529   1.394   4.634   4.789 -0.3884  0.4132  0.2747
 2356SOL    HW118530   1.467   4.673   4.836 -0.9224  0.1748  1.2883
 2356SOL    HW218531   1.336   4.710   4.790 -0.7463  0.1464 -0.2114
 2357SOL     OW18532   0.977   1.574   8.539 -0.1800  0.8417  0.9597
 2357SOL    HW118533   0.924   1.498   8.562 -2.4548  1.9027 -0.8377
 2357SOL    HW218534   1.060   1.526   8.530 -0.5917 -0.2314  2.9776
 2358SOL     OW18535   2.148   1.675   8.794  0.3878 -0.5174  0.0831
 2358SOL    HW118536   2.105   1.622   8.727  1.5461  1.5547 -2.2756
 2358SOL    HW218537   2.122   1.639   8.879 -1.3787  1.3760  0.3567
 2359SOL     OW18538   2.518   1.311   7.980  0.2394 -0.7293 -0.4757
 2359SOL    HW118539   2.468   1.352   7.909 -0.5579 -0.4567  0.2399
 2359SOL    HW218540   2.608   1.304   7.949  0.5412  1.4271 -0.1026
 2360SOL     OW18541   2.411   1.427   8.509  0.1585  0.1533 -0.3886
 2360SOL    HW118542   2.380   1.346   8.551 -0.6066  0.6984  0.0788
 2360SOL    HW218543   2.425   1.396   8.419 -2.3965 -1.5172 -0.2135
 2361SOL     OW18544   1.591   3.691  16.075 -0.4174  0.4963  0.0357
 2361SOL    HW118545   1.595   3.782  16.102  1.2177  0.9438 -1.6769
 2361SOL    HW218546   1.613   3.702  15.982 -1.2339 -0.3776 -0.2626
 2362SOL     OW18547   4.304   3.860  17.415 -0.3472 -0.2898 -0.3541
 2362SOL    HW118548   4.342   3.880  17.330  1.1719 -2.1550 -0.1196
 2362SOL    HW218549   4.283   3.769  17.393 -1.4692 -0.0171 -0.4080
 2363SOL     OW18550   0.365   0.820   5.042  0.7020  0.3499  0.1238
 2363SOL    HW118551   0.460   0.809   5.048  0.7207 -1.0328 -2.2757
 2363SOL    HW218552   0.339   0.785   5.127 -0.0087 -0.8073 -0.5612
 2364SOL     OW18553   1.489   0.655  11.574 -0.5853 -0.0412  0.6316
 2364SOL    HW118554   1.415   0.675  11.631 -1.5683 -2.8067  0.3174
 2364SOL    HW218555   1.553   0.725  11.587 -2.8328  1.9481  0.9775
 2365SOL     OW18556   3.741   4.463  13.076 -0.5386 -0.0169  0.2774
 2365SOL    HW118557   3.699   4.383  13.108  0.2147 -0.8626 -0.8208
 2365SOL    HW218558   3.730   4.450  12.982  1.4708  0.7504 -0.0522
 2366SOL     OW18559   3.059   3.963   5.904  0.4364  0.1627  0.9766
 2366SOL    HW118560   3.070   3.891   5.966 -0.2306 -1.3386 -0.6725
 2366SOL    HW218561   2.972   3.986   5.936 -0.7866 -1.8412 -0.9745
 2367SOL     OW18562   4.479   2.904   2.873  0.0612  0.2116 -0.3453
 2367SOL    HW118563   4.520   2.859   2.799  2.6037  1.1761  0.4783
 2367SOL    HW218564   4.414   2.954   2.822  0.0833  0.5743 -0.0162
 2368SOL     OW18565   0.209   1.352  16.125 -0.0154  0.1158 -0.1079
 2368SOL    HW118566   0.128   1.392  16.158  0.3649  0.3408  0.5443
 2368SOL    HW218567   0.269   1.372  16.196 -0.8346 -0.6526  0.7898
 2369SOL     OW18568   2.044   1.049   8.862 -0.1302 -0.2970  0.2711
 2369SOL    HW118569   1.976   1.063   8.928  1.5481  0.7467  1.7839
 2369SOL    HW218570   2.002   1.111   8.802  0.8490 -0.4321 -0.5600
 2370SOL     OW18571   1.901   1.036  10.257 -0.4027 -0.1751 -0.0926
 2370SOL    HW118572   1.942   1.111  10.300 -0.9401 -1.8722  3.4058
 2370SOL    HW218573   1.960   0.962  10.274 -0.9182 -0.8826 -1.3905
 2371SOL     OW18574   3.088   3.023   6.552 -0.1585  0.3267  0.5484
 2371SOL    HW118575   3.005   3.013   6.505 -0.1490  1.0492  0.3770
 2371SOL    HW218576   3.067   2.980   6.635  0.7092 -0.4707  0.3559
 2372SOL     OW18577   0.961   1.162  14.217  0.0903 -0.1245 -0.5264
 2372SOL    HW118578   0.907   1.212  14.155  0.0769  0.7313  0.1660
 2372SOL    HW218579   1.028   1.155  14.149  1.6161 -0.6750  1.0242
 2373SOL     OW18580   3.587   2.789  16.375 -0.2225  0.6836  0.2123
 2373SOL    HW118581   3.549   2.766  16.290  0.6995 -2.2906  0.6149
 2373SOL    HW218582   3.595   2.703  16.416 -0.2709  0.8955  0.6579
 2374SOL     OW18583   2.598   0.460   8.007 -0.7159  0.0794 -0.1248
 2374SOL    HW118584   2.635   0.485   8.092 -2.6371 -0.7096  0.9518
 2374SOL    HW218585   2.587   0.365   8.020 -0.5818  0.1518  0.5317
 2375SOL     OW18586   4.109   4.543   4.178 -0.6187 -0.1712 -0.0353
 2375SOL    HW118587   4.198   4.530   4.146 -0.1053  1.7454  0.6231
 2375SOL    HW218588   4.093   4.463   4.229 -0.6953 -0.1177  0.0238
 2376SOL     OW18589   3.673   4.564  14.174  0.7199  0.0999  0.0436
 2376SOL    HW118590   3.590   4.515  14.171  0.6953  0.1265  0.2384
 2376SOL    HW218591   3.724   4.499  14.127 -0.0138 -0.1910 -0.3461
 2377SOL     OW18592   2.280   0.870   8.322  0.0410 -0.6523 -0.0699
 2377SOL    HW118593   2.355   0.914   8.283  0.5270 -0.5345  0.9950
 2377SOL    HW218594   2.293   0.788   8.274  0.8081 -0.3281 -0.4112
 2378SOL     OW18595   1.676   1.162   7.774  0.4597  0.5874  0.1202
 2378SOL    HW118596   1.752   1.200   7.730  0.6556 -1.8209 -1.6122
 2378SOL    HW218597   1.672   1.217   7.852  1.3917  1.9079 -0.7568
 2379SOL     OW18598   3.813   2.636   4.552  0.0057 -0.2563  0.4483
 2379SOL    HW118599   3.827   2.607   4.642  2.1930 -0.0943  0.1498
 2379SOL    HW218600   3.774   2.553   4.523 -0.7179  0.0922  0.4357
 2380SOL     OW18601   3.689   0.388   1.702  0.3936 -0.3768 -0.1557
 2380SOL    HW118602   3.720   0.467   1.745 -1.6410  0.2515  0.1806
 2380SOL    HW218603   3.594   0.396   1.715  0.2668  2.0121 -2.6342
 2381SOL     OW18604   2.839   2.771   1.320  0.0037  0.8278  0.2517
 2381SOL    HW118605   2.762   2.794   1.269  0.0117 -1.2820 -0.7261
 2381SOL    HW218606   2.813   2.679   1.331 -0.0466  0.7941 -0.1344
 2382SOL     OW18607   2.238   2.794   7.993  0.5884 -0.3667 -0.0970
 2382SOL    HW118608   2.144   2.773   7.991  0.6861 -0.9734  1.4793
 2382SOL    HW218609   2.262   2.763   7.905  3.0220 -0.7197  0.6939
 2383SOL     OW18610   1.834   0.393   5.678 -0.6299 -0.0405  0.5367
 2383SOL    HW118611   1.821   0.303   5.646 -2.2012  1.2669 -2.4726
 2383SOL    HW218612   1.761   0.396   5.739 -1.1306 -0.3202 -0.0525
 2384SOL     OW18613   0.084   4.362   6.968 -0.0752  0.9798 -0.1483
 2384SOL    HW118614   0.147   4.328   6.905 -0.1172  0.6293  0.0018
 2384SOL    HW218615   0.127   4.387   7.050  0.2784  1.3466 -0.4466
 2385SOL     OW18616   1.126   2.531   7.479  0.6460  0.2348  0.5731
 2385SOL    HW118617   1.138   2.500   7.568  0.4406  1.6023  1.0814
 2385SOL    HW218618   1.201   2.487   7.440 -1.2737 -0.0645 -2.7849
 2386SOL     OW18619   4.670   0.590   9.875  0.2878 -0.0781  0.4814
 2386SOL    HW118620   4.639   0.511   9.830 -0.4850  1.1500 -1.1115
 2386SOL    HW218621   4.716   0.541   9.944 -1.7222 -0.0373  1.8267
 2387SOL     OW18622   3.013   3.859  10.647  0.2136 -0.3718  0.2685
 2387SOL    HW118623   2.992   3.880  10.738 -0.0091  0.4469  0.0346
 2387SOL    HW218624   3.109   3.855  10.647  0.2412  0.2435  0.7305
 2388SOL     OW18625   2.100   2.008   8.974 -0.4563  0.7201  0.4661
 2388SOL    HW118626   2.063   1.921   8.988 -0.6317  1.1520  2.6886
 2388SOL    HW218627   2.088   2.006   8.879 -2.5709  2.4506  0.6965
 2389SOL     OW18628   2.879   2.475   1.330 -0.1132  0.0383  0.0019
 2389SOL    HW118629   2.894   2.486   1.236 -0.7941  3.8947  0.3746
 2389SOL    HW218630   2.962   2.439   1.360  0.7950  0.9134 -1.4667
 2390SOL     OW18631   2.935   0.119   8.768  0.5265 -0.2303  0.4213
 2390SOL    HW118632   2.999   0.053   8.738 -1.5878 -2.7245  1.4286
 2390SOL    HW218633   2.925   0.084   8.856 -1.4248  1.6737  0.9431
 2391SOL     OW18634   3.114   0.007   9.414  0.3321 -0.5172 -0.1660
 2391SOL    HW118635   3.203   4.717   9.381  0.1015  0.0936 -1.0277
 2391SOL    HW218636   3.131   0.081   9.473  0.1032 -0.5729 -0.0310
 2392SOL     OW18637   2.389   4.471   6.427 -0.0139 -0.0352 -0.7571
 2392SOL    HW118638   2.351   4.559   6.424 -0.8457 -0.3898 -0.5853
 2392SOL    HW218639   2.441   4.465   6.348  0.1239 -0.4475 -0.6314
 2393SOL     OW18640   3.315   4.231   6.524 -0.4575 -0.3027 -0.0409
 2393SOL    HW118641   3.404   4.248   6.555 -0.3140 -0.0780 -0.5827
 2393SOL    HW218642   3.276   4.318   6.529  1.6407  0.4746  2.7304
 2394SOL     OW18643   4.677   0.463   0.784 -0.0947 -0.6112 -0.2981
 2394SOL    HW118644   4.620   0.494   0.714 -0.7446 -2.0734 -0.4302
 2394SOL    HW218645   4.618   0.408   0.837 -1.0785 -0.5948 -1.3781
 2395SOL     OW18646   1.778   0.961  12.641  0.1855  0.6034  0.2450
 2395SOL    HW118647   1.814   0.934  12.726 -0.1277 -0.3834  0.0685
 2395SOL    HW218648   1.851   0.942  12.581  0.9984  1.1226  1.0739
 2396SOL     OW18649   3.257   2.686  10.775  0.0881  0.2957  0.0543
 2396SOL    HW118650   3.176   2.658  10.816 -0.3424 -0.6932 -1.4492
 2396SOL    HW218651   3.262   2.632  10.696  1.7307  2.3587 -1.2640
 2397SOL     OW18652   4.444   3.303   6.755 -0.0215 -0.6003  0.1329
 2397SOL    HW118653   4.446   3.249   6.676 -0.8218 -0.0291 -0.2800
 2397SOL    HW218654   4.440   3.394   6.724 -0.2773 -0.5394  0.3407
 2398SOL     OW18655   0.648   2.309   5.650  0.1520 -0.2199 -0.4516
 2398SOL    HW118656   0.676   2.400   5.642  1.2347 -0.6010 -1.0458
 2398SOL    HW218657   0.725   2.252   5.648  0.3689  0.0452  0.4284
 2399SOL     OW18658   0.886   3.955  11.745 -0.2963 -0.3432  0.1433
 2399SOL    HW118659   0.916   3.886  11.804 -0.8607 -0.0969  0.7242
 2399SOL    HW218660   0.802   3.965  11.791  0.3082  1.7301  0.7949
 2400SOL     OW18661   3.561   1.686   1.114  0.4616 -0.3798 -0.5652
 2400SOL    HW118662   3.505   1.636   1.174  0.5184  0.7391  0.4277
 2400SOL    HW218663   3.632   1.717   1.170  0.7672 -1.6103 -0.2732
 2401SOL     OW18664   0.037   4.057   6.952 -0.6037  0.1389  0.0252
 2401SOL    HW118665   0.071   4.127   6.896  0.2264  1.0976  1.7389
 2401SOL    HW218666   0.116   4.006   6.968  0.7111  1.7727 -1.3115
 2402SOL     OW18667   3.774   3.617   4.759 -0.4614 -0.3450  0.5712
 2402SOL    HW118668   3.842   3.565   4.717  1.4917  1.9432  0.9156
 2402SOL    HW218669   3.801   3.706   4.737 -4.6512  0.9468  0.5486
 2403SOL     OW18670   1.111   3.786   3.526  0.6729  0.3452  0.7262
 2403SOL    HW118671   1.049   3.858   3.513 -2.9074 -3.0716 -1.1455
 2403SOL    HW218672   1.194   3.830   3.545 -0.1991  2.1708  0.3254
 2404SOL     OW18673   3.578   0.053  14.298 -0.4590  0.1842 -0.1891
 2404SOL    HW118674   3.599   0.024  14.387 -2.0205  1.5493  0.6174
 2404SOL    HW218675   3.623   4.709  14.245  0.9981  2.9085 -2.3544
 2405SOL     OW18676   0.325   0.825   9.347 -0.2340 -0.3712  0.3471
 2405SOL    HW118677   0.299   0.877   9.424 -1.0779 -1.4428  0.7707
 2405SOL    HW218678   0.344   0.741   9.388  0.0778 -0.7300 -0.5386
 2406SOL     OW18679   4.232   2.334   0.805 -0.2860 -0.4351 -0.6395
 2406SOL    HW118680   4.167   2.343   0.734 -0.2503  1.0478 -0.5006
 2406SOL    HW218681   4.305   2.312   0.748  0.9174  0.3780  0.5770
 2407SOL     OW18682   4.096   0.017   8.217 -0.2323 -0.7688  0.3437
 2407SOL    HW118683   4.094   0.085   8.150  0.4526 -2.9575 -1.8715
 2407SOL    HW218684   4.118   0.076   8.289 -0.7948 -1.0424  0.7379
 2408SOL     OW18685   2.701   3.272   9.247 -0.1357 -0.3835 -0.2091
 2408SOL    HW118686   2.634   3.334   9.277 -2.6380 -2.4680 -1.4527
 2408SOL    HW218687   2.699   3.292   9.154  1.5140  0.5837 -0.0249
 2409SOL     OW18688   2.236   3.261  12.319  0.5343  1.2348  0.0550
 2409SOL    HW118689   2.318   3.211  12.317 -0.4421 -0.4376  1.4892
 2409SOL    HW218690   2.167   3.195  12.306  0.8557  0.9349 -0.1439
 2410SOL     OW18691   2.168   0.396  13.702 -0.0466 -0.0754 -0.1985
 2410SOL    HW118692   2.146   0.374  13.611 -1.1274  0.6392 -0.1100
 2410SOL    HW218693   2.082   0.421  13.735  0.5088 -0.0450  1.2052
 2411SOL     OW18694   1.617   4.166   2.210  0.1707  0.1893  0.2549
 2411SOL    HW118695   1.698   4.196   2.252  1.2272 -0.7450 -1.1325
 2411SOL    HW218696   1.580   4.254   2.200  0.7134  0.3648 -0.1803
 2412SOL     OW18697   3.014   1.619   0.266  0.0994 -0.2304  0.2715
 2412SOL    HW118698   3.085   1.560   0.291 -0.7204 -1.2056  0.2628
 2412SOL    HW218699   3.050   1.667   0.192 -0.4069 -0.0386  0.1494
 2413SOL     OW18700   2.950   3.802   4.221  0.0419  0.1748 -0.8449
 2413SOL    HW118701   2.886   3.830   4.286  0.2729  0.0878 -0.5809
 2413SOL    HW218702   3.006   3.879   4.214  3.6264 -2.2191  1.7814
 2414SOL     OW18703   3.169   0.258   7.745  0.1609  0.1409  0.3211
 2414SOL    HW118704   3.099   0.275   7.807 -1.2001 -1.6366 -0.7422
 2414SOL    HW218705   3.216   0.183   7.781 -1.9263 -1.0643  0.4886
 2415SOL     OW18706   0.008   3.288   0.339 -0.0666  0.6100  0.2880
 2415SOL    HW118707   4.640   3.269   0.365  0.2613  0.9939  1.6979
 2415SOL    HW218708   0.058   3.224   0.389 -1.9674 -0.6098  0.5786
 2416SOL     OW18709   2.034   1.166   4.393  0.1523 -0.0588  0.2965
 2416SOL    HW118710   1.975   1.164   4.468  1.3876  2.0957  1.3079
 2416SOL    HW218711   2.031   1.078   4.355  0.3443 -0.6736  1.7172
 2417SOL     OW18712   3.007   3.072   2.873 -0.5215  0.0144  0.5485
 2417SOL    HW118713   3.081   3.116   2.831 -0.5766 -0.3070  0.1201
 2417SOL    HW218714   2.978   3.018   2.799  1.6499  0.4534 -0.6221
 2418SOL     OW18715   1.551   3.334   5.643 -0.0390  0.7618  0.3271
 2418SOL    HW118716   1.584   3.254   5.683  0.0322  0.6581  0.0656
 2418SOL    HW218717   1.456   3.329   5.641  0.1059 -1.5448 -1.2860
 2419SOL     OW18718   0.447   0.411   5.055  0.2487  0.0367 -0.8246
 2419SOL    HW118719   0.443   0.359   4.975  2.3547 -0.4673 -0.6226
 2419SOL    HW218720   0.491   0.494   5.038 -0.8090  1.1740  1.9957
 2420SOL     OW18721   3.470   4.539   8.586  0.0530 -0.3362 -0.0634
 2420SOL    HW118722   3.526   4.468   8.559  1.4876  0.6661  0.2787
 2420SOL    HW218723   3.395   4.528   8.528 -0.0945 -0.5036  0.1574
 2421SOL     OW18724   1.790   2.628  12.891  0.0537  0.3409 -0.1300
 2421SOL    HW118725   1.817   2.713  12.927 -0.0841  0.4540 -0.2946
 2421SOL    HW218726   1.852   2.566  12.928  0.6487  1.1227  0.1789
 2422SOL     OW18727   2.137   1.896   7.106  0.3078  0.1928 -0.2336
 2422SOL    HW118728   2.083   1.870   7.181 -0.6439  1.5903 -0.4288
 2422SOL    HW218729   2.222   1.913   7.145  0.0351 -0.7938  0.7879
 2423SOL     OW18730   4.080   0.579   9.650  0.1510 -0.5127  0.2488
 2423SOL    HW118731   4.098   0.643   9.718  0.4246 -1.6938  1.2941
 2423SOL    HW218732   3.986   0.593   9.643  0.0301 -1.4558 -0.0567
 2424SOL     OW18733   2.303   1.663   8.112 -0.5004  0.1148 -0.2756
 2424SOL    HW118734   2.219   1.694   8.080  0.3589  2.6246 -0.1007
 2424SOL    HW218735   2.329   1.739   8.165 -1.2629  0.8234 -0.9172
 2425SOL     OW18736   3.955   2.142   2.860 -0.6750 -0.1689  0.3664
 2425SOL    HW118737   3.916   2.088   2.791 -0.2110 -0.3171  0.2175
 2425SOL    HW218738   3.977   2.080   2.930  3.4234 -1.3578 -1.9845
 2426SOL     OW18739   1.309   0.702   8.046  0.1465  0.3706  0.1693
 2426SOL    HW118740   1.330   0.678   7.956  0.6690  1.3019  0.0376
 2426SOL    HW218741   1.352   0.640   8.105 -0.9449  0.4563  1.0378
 2427SOL     OW18742   4.134   3.840  16.359  0.3423  0.4650 -0.0330
 2427SOL    HW118743   4.122   3.838  16.264  3.1049  1.7448 -0.4061
 2427SOL    HW218744   4.044   3.823  16.387  0.1683  1.6033  0.1057
 2428SOL     OW18745   4.075   1.924   2.530 -0.3708  0.6188 -0.1703
 2428SOL    HW118746   3.996   1.894   2.486 -0.7778  0.2388  0.8146
 2428SOL    HW218747   4.112   1.993   2.475 -1.7505  1.7937  0.3903
 2429SOL     OW18748   0.675   1.443   3.409 -0.0195 -0.4224  0.2421
 2429SOL    HW118749   0.758   1.404   3.379  1.6202  0.0904  4.1067
 2429SOL    HW218750   0.617   1.418   3.337  2.4941 -0.0046 -1.9217
 2430SOL     OW18751   4.473   3.387   7.042 -0.1758 -0.3095 -0.2756
 2430SOL    HW118752   4.454   3.364   6.951  0.4723 -0.9999 -0.2351
 2430SOL    HW218753   4.399   3.345   7.086 -0.0057  0.0163  0.3177
 2431SOL     OW18754   3.973   1.514   3.477 -0.1958 -0.8613 -0.0316
 2431SOL    HW118755   3.953   1.479   3.390  0.5227  0.6559 -0.8144
 2431SOL    HW218756   3.917   1.592   3.474 -0.0686 -0.9095 -3.5721
 2432SOL     OW18757   0.306   3.873   4.129 -0.1935  0.1464  0.2908
 2432SOL    HW118758   0.272   3.836   4.210  0.9199 -1.8209 -0.1436
 2432SOL    HW218759   0.275   3.811   4.063  1.2417 -0.4445  0.1718
 2433SOL     OW18760   1.344   0.092   3.687 -0.4609 -0.2070 -0.4507
 2433SOL    HW118761   1.383   0.097   3.600 -1.5628  3.7258 -0.7069
 2433SOL    HW218762   1.420   0.054   3.731  0.0587 -0.4596 -1.5609
 2434SOL     OW18763   3.223   2.065   4.600  0.1951  0.1860 -0.2205
 2434SOL    HW118764   3.170   2.126   4.651  0.8195 -0.9271  1.7428
 2434SOL    HW218765   3.175   2.076   4.518  1.0014  0.3549 -0.6688
 2435SOL     OW18766   1.222   1.431   8.584 -0.1449  0.6697  0.4750
 2435SOL    HW118767   1.200   1.380   8.662  1.0522 -1.1632 -0.4011
 2435SOL    HW218768   1.271   1.504   8.620  1.6474 -2.2149  3.8447
 2436SOL     OW18769   4.153   1.838   2.799 -0.8430  0.2040 -0.1423
 2436SOL    HW118770   4.231   1.876   2.840 -1.0121  1.1955 -0.7421
 2436SOL    HW218771   4.147   1.884   2.715  2.3837  0.5120 -0.2205
 2437SOL     OW18772   3.960   0.051   6.528 -0.1687 -0.1651  0.1001
 2437SOL    HW118773   3.940   4.687   6.492  0.1172  0.2007 -0.9294
 2437SOL    HW218774   3.901   0.050   6.603  0.6159 -2.8870  0.6718
 2438SOL     OW18775   4.137   3.343  13.711 -0.3355  0.0510 -0.3067
 2438SOL    HW118776   4.221   3.297  13.703 -0.6009 -0.1565 -1.8778
 2438SOL    HW218777   4.155   3.418  13.655  1.4197 -0.7645 -0.8411
 2439SOL     OW18778   3.477   1.349   7.696 -0.1332 -0.6384  0.7123
 2439SOL    HW118779   3.457   1.339   7.603  0.9143 -1.8370  0.6197
 2439SOL    HW218780   3.572   1.342   7.692 -0.2120 -1.3713  0.0730
 2440SOL     OW18781   3.967   1.263   8.164 -0.2552  0.1452  0.1619
 2440SOL    HW118782   4.024   1.262   8.087  0.1702  2.3681  0.4460
 2440SOL    HW218783   3.984   1.180   8.209 -2.7101  0.5775  1.8573
 2441SOL     OW18784   0.777   2.098   7.856  0.0356  0.2472 -0.2385
 2441SOL    HW118785   0.808   2.106   7.765 -0.8126 -3.7362 -0.8692
 2441SOL    HW218786   0.839   2.158   7.897 -0.6075  0.8840 -0.2111
 2442SOL     OW18787   1.763   1.170   1.057 -0.5236 -0.5417 -0.3115
 2442SOL    HW118788   1.748   1.259   1.089  0.0537 -0.3987 -0.4360
 2442SOL    HW218789   1.811   1.132   1.131 -0.6391 -1.1057 -0.5228
 2443SOL     OW18790   2.881   2.567   8.642  0.4948 -0.3860  0.6847
 2443SOL    HW118791   2.856   2.491   8.696  1.1685 -0.4904  0.8458
 2443SOL    HW218792   2.847   2.641   8.693 -1.0404 -0.5884 -0.0262
 2444SOL     OW18793   0.343   0.710  10.847 -0.5638 -0.8805  0.1034
 2444SOL    HW118794   0.323   0.645  10.780 -0.3226 -1.6472  0.7797
 2444SOL    HW218795   0.275   0.775  10.828 -0.8881 -1.5531 -1.0516
 2445SOL     OW18796   1.878   4.576   4.893  0.0206 -0.0332  0.1416
 2445SOL    HW118797   1.872   4.672   4.890  1.0755  0.0871  1.8588
 2445SOL    HW218798   1.891   4.577   4.988  1.1280  0.9397 -0.0154
 2446SOL     OW18799   1.202   1.591   0.478  0.2764  0.0026  0.0180
 2446SOL    HW118800   1.258   1.627   0.547 -1.2840  2.1133  0.2089
 2446SOL    HW218801   1.261   1.533   0.431 -1.3312 -0.9402 -0.8415
 2447SOL     OW18802   3.055   1.734   1.975 -0.0175 -0.3410  0.3380
 2447SOL    HW118803   3.020   1.648   1.953 -1.0638 -0.2179  1.5018
 2447SOL    HW218804   3.084   1.769   1.891  0.3339 -1.1163  0.1319
 2448SOL     OW18805   4.070   1.682   5.780  0.0681 -0.4512  0.3047
 2448SOL    HW118806   4.001   1.682   5.845 -1.1810  1.2499 -1.0230
 2448SOL    HW218807   4.147   1.692   5.837 -0.6357  0.4750  1.0827
 2449SOL     OW18808   2.206   0.517   2.886  0.4522 -0.2019  0.3183
 2449SOL    HW118809   2.281   0.573   2.870 -0.0857  0.4146 -0.0413
 2449SOL    HW218810   2.239   0.437   2.846 -0.2147 -0.9296  1.2098
 2450SOL     OW18811   2.423   0.350  13.310  0.1659  0.1695  0.1921
 2450SOL    HW118812   2.488   0.386  13.370 -0.8890 -1.8336  2.4905
 2450SOL    HW218813   2.366   0.426  13.294  0.5804  0.2358 -1.0161
 2451SOL     OW18814   4.692   1.346  13.275 -0.0845  0.7640 -0.3370
 2451SOL    HW118815   0.062   1.321  13.282 -0.7040 -1.4272  0.0474
 2451SOL    HW218816   4.705   1.441  13.269 -1.1032  0.9850  1.0907
 2452SOL     OW18817   0.482   4.331   5.912  0.0735  0.0814  0.1811
 2452SOL    HW118818   0.392   4.363   5.903  0.4586  2.0908  3.3240
 2452SOL    HW218819   0.487   4.275   5.834 -0.4839  0.3728 -0.0648
 2453SOL     OW18820   0.565   4.575  12.233 -0.1615  0.4375  0.1336
 2453SOL    HW118821   0.477   4.608  12.220 -1.1405 -2.4511 -0.5245
 2453SOL    HW218822   0.618   4.585  12.153  0.8185  2.0831  0.9716
 2454SOL     OW18823   4.206   2.638  13.985  0.2699 -0.7255 -0.1473
 2454SOL    HW118824   4.266   2.584  14.036  0.6211  1.2764  1.6039
 2454SOL    HW218825   4.165   2.687  14.057  0.5672 -0.9565  0.1822
 2455SOL     OW18826   4.567   0.351  15.617 -0.0064 -0.3905 -0.2922
 2455SOL    HW118827   4.558   0.329  15.525 -1.5660  0.5901 -0.3661
 2455SOL    HW218828   4.501   0.297  15.660 -1.6921  1.8364 -0.1143
 2456SOL     OW18829   0.866   3.870   9.227 -0.2720 -0.1152 -0.2422
 2456SOL    HW118830   0.952   3.910   9.242  0.8635 -2.7315  0.0998
 2456SOL    HW218831   0.853   3.888   9.134  3.2253  1.5242 -0.4403
 2457SOL     OW18832   0.562   0.037  17.209  0.0769 -0.0684 -0.8464
 2457SOL    HW118833   0.646   0.003  17.179  0.1938 -0.8044  0.3222
 2457SOL    HW218834   0.569   0.080  17.294 -0.5736 -1.2866 -0.1705
 2458SOL     OW18835   2.842   3.830   7.228  0.1304 -0.9873 -0.0986
 2458SOL    HW118836   2.826   3.904   7.287  0.2747 -3.2253  2.7619
 2458SOL    HW218837   2.936   3.829   7.211 -0.0632 -0.6469 -1.1271
 2459SOL     OW18838   4.347   3.806   0.700 -0.2325  0.0799  0.3381
 2459SOL    HW118839   4.380   3.736   0.757  0.4078  0.6876  0.7038
 2459SOL    HW218840   4.418   3.834   0.643 -0.9596  0.9376 -0.1390
 2460SOL     OW18841   1.925   3.808   4.062  0.5764  0.9934  0.3519
 2460SOL    HW118842   1.890   3.719   4.061 -0.4182  1.4619 -4.6084
 2460SOL    HW218843   2.009   3.781   4.024 -0.0992 -0.5119 -0.0725
 2461SOL     OW18844   1.896   3.498   2.926 -0.0526  0.0832  0.0875
 2461SOL    HW118845   1.851   3.460   2.851 -0.2834 -0.5101  0.5303
 2461SOL    HW218846   1.831   3.505   2.995 -0.6413  0.5209 -0.5152
 2462SOL     OW18847   4.041   2.220   8.756  0.1293 -0.1693 -0.3422
 2462SOL    HW118848   4.105   2.149   8.766  1.2213  0.4998 -2.3828
 2462SOL    HW218849   4.040   2.219   8.660  2.9815  0.5330 -0.3955
 2463SOL     OW18850   2.679   2.808   8.358 -0.4392  0.4838 -0.3906
 2463SOL    HW118851   2.701   2.717   8.380 -0.0872  0.8059  0.5528
 2463SOL    HW218852   2.704   2.852   8.439 -0.6245 -1.0347  0.4857
 2464SOL     OW18853   4.543   4.181  10.809  0.2424  0.4966 -0.0613
 2464SOL    HW118854   4.554   4.114  10.741 -0.0094 -0.7897  1.1560
 2464SOL    HW218855   4.600   4.135  10.871 -1.6224 -2.4882 -0.5471
 2465SOL     OW18856   2.592   3.347   3.271  0.0667 -0.3539 -0.5515
 2465SOL    HW118857   2.545   3.370   3.351 -0.6127  2.2700 -1.6904
 2465SOL    HW218858   2.672   3.400   3.273  0.3985 -0.8913  0.3688
 2466SOL     OW18859   2.616   2.501   6.526  0.7587 -0.0944  0.2448
 2466SOL    HW118860   2.595   2.463   6.440  1.4506 -0.9889  0.4768
 2466SOL    HW218861   2.648   2.431   6.582  3.6735  0.9958 -0.0403
 2467SOL     OW18862   2.475   1.992  11.950  0.5247 -0.0506 -0.0859
 2467SOL    HW118863   2.458   2.012  11.857  3.2150  0.3029 -0.4984
 2467SOL    HW218864   2.507   2.074  11.988 -0.4807  0.3130 -0.0148
 2468SOL     OW18865   3.475   1.176   6.255 -0.4622  0.0530  0.0632
 2468SOL    HW118866   3.559   1.200   6.218 -1.6861  1.5250 -1.7308
 2468SOL    HW218867   3.507   1.174   6.345 -2.5767 -1.8066  0.7965
 2469SOL     OW18868   0.485   4.716  11.766  0.1272 -0.2456  0.0274
 2469SOL    HW118869   0.456   4.691  11.854  0.5488 -0.7858  0.0096
 2469SOL    HW218870   0.519   0.082  11.786  1.1169 -0.6405  0.1160
 2470SOL     OW18871   3.631   3.522   3.533  0.4814  0.5583  0.9727
 2470SOL    HW118872   3.567   3.590   3.513 -1.0242 -1.3025 -0.5931
 2470SOL    HW218873   3.584   3.476   3.603  1.0144 -0.8453  0.4095
 2471SOL     OW18874   3.879   2.117  11.836  0.3952  0.4066 -0.1951
 2471SOL    HW118875   3.821   2.064  11.891 -0.1983  1.4689  0.1999
 2471SOL    HW218876   3.942   2.153  11.898  0.1019 -0.2302  0.4739
 2472SOL     OW18877   4.433   2.061  17.399  0.2472 -0.3557  0.0057
 2472SOL    HW118878   4.470   2.130  17.344  0.4120 -0.8625 -0.5224
 2472SOL    HW218879   4.446   2.094  17.488 -0.7089  2.7991 -1.0320
 2473SOL     OW18880   1.832   1.634  11.210 -0.1848  0.2499 -0.5072
 2473SOL    HW118881   1.910   1.620  11.263  0.0372  2.8784 -0.1623
 2473SOL    HW218882   1.854   1.723  11.182  0.7561 -0.0796 -0.8090
 2474SOL     OW18883   0.273   3.496   5.267  0.3984  0.0412 -0.1648
 2474SOL    HW118884   0.221   3.450   5.201  0.5220  0.8600 -0.8269
 2474SOL    HW218885   0.218   3.480   5.344 -1.0227  2.3103 -0.7268
 2475SOL     OW18886   1.267   4.342   9.026 -0.2722 -0.8823 -0.0767
 2475SOL    HW118887   1.184   4.382   9.001 -0.0117 -1.4754 -1.9289
 2475SOL    HW218888   1.274   4.373   9.116 -0.4960  0.9248 -0.6840
 2476SOL     OW18889   2.879   1.884  17.096  0.4440 -0.0485  0.0975
 2476SOL    HW118890   2.939   1.871  17.023 -0.0723 -2.1917  0.0578
 2476SOL    HW218891   2.937   1.927  17.158  0.6844  0.7160 -0.6611
 2477SOL     OW18892   0.121   4.612   1.932  0.4115  0.3211 -0.0449
 2477SOL    HW118893   0.126   4.705   1.955  1.2802 -0.2351  2.0175
 2477SOL    HW218894   0.132   4.614   1.837 -0.4758  1.0477 -0.1365
 2478SOL     OW18895   0.472   1.395   7.801 -0.4423 -0.5345  0.0991
 2478SOL    HW118896   0.538   1.445   7.847  0.0376 -1.7281  0.7158
 2478SOL    HW218897   0.458   1.319   7.859 -1.2482 -1.2471 -1.0251
 2479SOL     OW18898   0.921   2.203   4.510  0.2090  0.1381 -0.0735
 2479SOL    HW118899   0.970   2.240   4.583 -1.1771 -0.5193  1.1767
 2479SOL    HW218900   0.919   2.109   4.522 -2.9240  0.0123 -1.4027
 2480SOL     OW18901   4.245   1.398  13.500  0.3650 -0.0763  0.4489
 2480SOL    HW118902   4.314   1.338  13.525  0.0403  0.0002  1.5024
 2480SOL    HW218903   4.300   1.476  13.512 -0.3380  0.1933  1.8665
 2481SOL     OW18904   3.152   0.536   2.651 -0.2350 -0.0664  0.0157
 2481SOL    HW118905   3.150   0.608   2.587 -1.7164  0.5536  0.7506
 2481SOL    HW218906   3.123   0.461   2.600 -1.1907  0.2638  0.0675
 2482SOL     OW18907   0.932   4.385  12.106  0.2932  0.2138 -0.1432
 2482SOL    HW118908   0.941   4.305  12.054 -1.5099  0.8825 -1.4877
 2482SOL    HW218909   0.855   4.425  12.064 -0.7659 -0.0692  1.5240
 2483SOL     OW18910   3.626   3.807   8.460  0.4148 -0.0230  0.1441
 2483SOL    HW118911   3.544   3.857   8.455  0.3123 -0.3355 -1.2925
 2483SOL    HW218912   3.645   3.791   8.552 -0.3443  0.8393  0.4579
 2484SOL     OW18913   2.526   0.839   1.398 -0.5036 -0.5414  0.4040
 2484SOL    HW118914   2.555   0.916   1.350  0.6488 -1.4142 -0.2865
 2484SOL    HW218915   2.443   0.813   1.358 -1.5309 -1.0603  2.8531
 2485SOL     OW18916   3.874   4.393   4.606  0.4566  0.1599 -0.4971
 2485SOL    HW118917   3.947   4.427   4.555  1.8084 -1.1633  0.5456
 2485SOL    HW218918   3.812   4.461   4.579 -1.4294 -1.2696  0.2222
 2486SOL     OW18919   0.465   2.684  11.625 -0.3429 -0.5919 -0.0849
 2486SOL    HW118920   0.503   2.768  11.652 -0.6630 -0.2403 -0.7112
 2486SOL    HW218921   0.498   2.631  11.698 -0.3179 -0.5388 -0.0574
 2487SOL     OW18922   0.884   4.321  16.189 -0.3534 -0.2573  0.1834
 2487SOL    HW118923   0.797   4.360  16.192  0.1146  0.6523  2.7946
 2487SOL    HW218924   0.863   4.228  16.187  3.1071 -0.9982 -2.2042
 2488SOL     OW18925   2.898   4.203  10.725  0.1251 -0.5158  0.4610
 2488SOL    HW118926   2.925   4.152  10.648 -0.8954 -1.1470  0.5134
 2488SOL    HW218927   2.824   4.146  10.746 -0.5355  0.0815 -0.2704
 2489SOL     OW18928   0.839   1.357   0.146 -0.6990  0.4030 -0.7746
 2489SOL    HW118929   0.873   1.295   0.082  0.6625  0.8662 -0.4938
 2489SOL    HW218930   0.850   1.308   0.228 -2.7582  1.8396  0.3560
 2490SOL     OW18931   0.626   2.086  13.489 -0.3149  0.2965 -0.3566
 2490SOL    HW118932   0.665   2.000  13.474  0.2016  0.7119 -1.3855
 2490SOL    HW218933   0.673   2.155  13.442  1.4038 -0.8720 -0.3821
 2491SOL     OW18934   1.081   3.143   8.077 -0.1624  0.0510  0.6896
 2491SOL    HW118935   1.064   3.113   7.988 -0.3848  1.4887  0.2391
 2491SOL    HW218936   1.058   3.235   8.062 -1.0352 -0.0684  1.2836
 2492SOL     OW18937   1.711   0.629   3.619  0.7731 -0.2062  0.2203
 2492SOL    HW118938   1.791   0.674   3.594  1.6326 -1.6869  0.3021
 2492SOL    HW218939   1.729   0.538   3.643 -1.7017 -0.8215 -0.1994
 2493SOL     OW18940   0.291   1.998   4.167  0.0416 -0.7420  0.1357
 2493SOL    HW118941   0.325   1.955   4.089  0.9448 -0.6248  0.4644
 2493SOL    HW218942   0.325   2.085   4.144 -2.5108  0.1684 -0.1993
 2494SOL     OW18943   0.250   0.834   3.461 -0.4487  0.6806 -0.1551
 2494SOL    HW118944   0.170   0.886   3.456  0.4593  1.8074 -2.7204
 2494SOL    HW218945   0.303   0.885   3.400  2.1404 -1.2167  0.4997
 2495SOL     OW18946   1.357   4.644   2.144 -0.3103 -0.1238  0.3559
 2495SOL    HW118947   1.378   4.695   2.223  1.1115  0.4511 -0.3785
 2495SOL    HW218948   1.375   4.716   2.083  2.2625  0.0178  1.2725
 2496SOL     OW18949   3.889   4.237   9.509  0.6496  0.4665 -0.5410
 2496SOL    HW118950   3.910   4.325   9.541  2.0862 -0.7623  1.8708
 2496SOL    HW218951   3.797   4.238   9.482  0.6024 -0.5172 -0.4016
 2497SOL     OW18952   2.285   0.372   7.419 -0.0246  0.4705  0.3344
 2497SOL    HW118953   2.365   0.319   7.423  1.5752  2.8443  0.0345
 2497SOL    HW218954   2.280   0.405   7.509 -0.3732 -0.5262  0.6820
 2498SOL     OW18955   2.848   3.911   6.481  0.3516  0.0351  0.6380
 2498SOL    HW118956   2.878   3.961   6.405  2.0191 -0.7627  0.7737
 2498SOL    HW218957   2.933   3.888   6.518  0.3172 -1.6792 -0.3220
 2499SOL     OW18958   3.223   4.373  10.170  0.0544 -0.1971 -0.3653
 2499SOL    HW118959   3.219   4.467  10.186 -2.1539 -0.4117  0.2808
 2499SOL    HW218960   3.318   4.358  10.177  0.2266 -0.1182 -2.5266
 2500SOL     OW18961   2.716   4.582   3.673  0.1215 -0.1493 -0.2820
 2500SOL    HW118962   2.690   4.585   3.581 -0.9434 -0.0706  0.0249
 2500SOL    HW218963   2.803   4.622   3.669 -0.6374  1.3788 -1.0290
 2501SOL     OW18964   3.907   0.309  13.667 -0.3104 -0.1809  0.1948
 2501SOL    HW118965   3.864   0.250  13.729 -1.0246  0.1187 -0.0153
 2501SOL    HW218966   3.969   0.256  13.617  0.3683  0.6658  0.1482
 2502SOL     OW18967   0.122   3.513   0.647 -0.1931  0.2813  0.2571
 2502SOL    HW118968   0.172   3.432   0.647 -2.6871 -1.2323  0.1334
 2502SOL    HW218969   0.178   3.575   0.599 -1.8027  0.3547 -1.5205
 2503SOL     OW18970   0.847   1.085  15.819  0.0562  0.1340 -0.0551
 2503SOL    HW118971   0.899   1.163  15.835 -0.5506  0.8774 -1.7586
 2503SOL    HW218972   0.923   1.038  15.786 -0.6010 -0.1232 -1.2166
 2504SOL     OW18973   3.681   4.480   6.767 -0.0955  0.1333  0.0339
 2504SOL    HW118974   3.661   4.567   6.801 -1.2225 -0.1893  0.2221
 2504SOL    HW218975   3.771   4.469   6.798 -0.8495 -1.3377  1.7349
 2505SOL     OW18976   0.868   0.312   3.948 -0.0734  0.1375  0.0976
 2505SOL    HW118977   0.940   0.275   4.000  0.1835  0.6493  0.1068
 2505SOL    HW218978   0.838   0.233   3.903  2.1481 -1.2834  1.0822
 2506SOL     OW18979   1.025   3.044   5.527  0.1401 -0.5894  0.1394
 2506SOL    HW118980   0.941   3.088   5.543  0.6236  0.2805  0.2598
 2506SOL    HW218981   1.000   2.994   5.448 -1.7683  1.5333 -0.6217
 2507SOL     OW18982   1.370   4.347   8.422  0.1728 -0.3279  0.0935
 2507SOL    HW118983   1.299   4.287   8.403 -2.6559  2.0408  3.1948
 2507SOL    HW218984   1.431   4.288   8.466 -0.2780 -0.4426  0.5592
 2508SOL     OW18985   2.063   4.064   2.283  0.0994  0.4849 -0.2464
 2508SOL    HW118986   2.113   4.133   2.326  0.4543  0.7237 -1.0499
 2508SOL    HW218987   2.111   4.047   2.202  0.3311 -0.1920  0.0357
 2509SOL     OW18988   0.449   2.563   5.533 -0.6584  0.0183  0.2639
 2509SOL    HW118989   0.428   2.558   5.626  1.1194 -0.2641  0.6423
 2509SOL    HW218990   0.535   2.604   5.542 -0.3679 -0.3855 -0.6654
 2510SOL     OW18991   1.556   4.533   2.541 -0.2462  0.1355 -0.2174
 2510SOL    HW118992   1.551   4.441   2.567 -1.0259  0.1262 -0.3979
 2510SOL    HW218993   1.577   4.589   2.616 -0.8734 -1.9888  1.5328
 2511SOL     OW18994   3.229   1.943   2.216 -0.3657 -0.5118  0.7795
 2511SOL    HW118995   3.186   2.020   2.253 -2.6078 -1.4178  0.0164
 2511SOL    HW218996   3.301   1.982   2.166 -0.7993 -3.0883 -1.8478
 2512SOL     OW18997   0.776   4.113  16.530 -0.3417 -0.0015  0.4156
 2512SOL    HW118998   0.764   4.061  16.610 -0.7560 -1.2324 -0.4366
 2512SOL    HW218999   0.824   4.052  16.474 -1.5464 -0.2257 -0.3624
 2513SOL     OW19000   3.065   3.458   4.073 -0.1794  0.4350 -0.5534
 2513SOL    HW119001   3.095   3.405   3.999 -3.6331  0.4762 -1.9773
 2513SOL    HW219002   3.145   3.455   4.125  0.3196  1.1096 -1.2766
 2514SOL     OW19003   0.186   1.746  13.000  0.2804  0.2262  0.0322
 2514SOL    HW119004   0.271   1.751  13.044 -0.5530 -1.5190  1.8716
 2514SOL    HW219005   0.204   1.702  12.917  0.3025  0.5095 -0.1122
 2515SOL     OW19006   0.369   0.358   8.973  0.4499 -0.7026 -0.2407
 2515SOL    HW119007   0.463   0.368   8.987  0.2359  2.0180 -0.8226
 2515SOL    HW219008   0.352   0.281   8.919 -1.5947  0.1929 -0.8941
 2516SOL     OW19009   2.524   0.942   8.510  0.5640  0.2226  0.0703
 2516SOL    HW119010   2.551   1.034   8.511  0.0926  0.3585  0.3060
 2516SOL    HW219011   2.514   0.927   8.416  2.5809  0.1653 -0.1312
 2517SOL     OW19012   4.618   3.210   8.573  0.2659  0.1002 -0.1834
 2517SOL    HW119013   4.662   3.151   8.513 -2.2300  0.1659 -2.0820
 2517SOL    HW219014   4.554   3.150   8.610 -1.2275  1.0493 -1.1781
 2518SOL     OW19015   4.267   0.815   1.440  0.0623  0.1455 -0.5812
 2518SOL    HW119016   4.296   0.727   1.466  1.2671  0.6858 -0.0560
 2518SOL    HW219017   4.172   0.820   1.432  0.2098 -1.3438 -3.4853
 2519SOL     OW19018   3.180   2.855  11.992  0.5162 -0.1018 -0.3764
 2519SOL    HW119019   3.119   2.821  12.057  1.5419 -0.7700  0.2325
 2519SOL    HW219020   3.242   2.900  12.049 -0.3572 -0.2904  0.7210
 2520SOL     OW19021   0.600   3.948  16.342 -0.2055  0.6624 -0.4155
 2520SOL    HW119022   0.579   4.041  16.347  2.0528  1.0895  1.6888
 2520SOL    HW219023   0.694   3.959  16.324 -0.4684  1.5325 -1.2603
 2521SOL     OW19024   1.426   0.637   8.526 -0.2016 -0.1764  0.0793
 2521SOL    HW119025   1.447   0.703   8.459 -0.2213  0.2780  0.5224
 2521SOL    HW219026   1.514   0.605   8.545 -0.4984 -1.2133 -0.2574
 2522SOL     OW19027   3.783   4.136  10.840 -0.1079  0.1037 -0.4805
 2522SOL    HW119028   3.793   4.194  10.765  1.1684 -1.9899 -1.9276
 2522SOL    HW219029   3.838   4.066  10.806 -2.8259 -2.7657  1.0414
 2523SOL     OW19030   1.423   4.430   9.761 -0.4708 -0.2013  0.0089
 2523SOL    HW119031   1.433   4.388   9.676 -0.6235 -0.2675  0.0244
 2523SOL    HW219032   1.335   4.402   9.788 -0.1638 -1.4284 -0.2568
 2524SOL     OW19033   1.627   3.145   6.325  0.1968  0.2777  0.0365
 2524SOL    HW119034   1.605   3.230   6.363  1.5882  0.6235  0.0454
 2524SOL    HW219035   1.687   3.109   6.390  2.1866  1.2439 -1.2485
 2525SOL     OW19036   1.832   4.279   2.928  0.0934  0.4548  0.1536
 2525SOL    HW119037   1.898   4.347   2.935  0.3373  0.1772  0.5223
 2525SOL    HW219038   1.751   4.329   2.944 -0.4225 -0.1714 -0.5114
 2526SOL     OW19039   1.626   1.721   2.399 -0.0702 -0.1756 -0.0597
 2526SOL    HW119040   1.719   1.741   2.409 -0.2104 -0.2430  1.4466
 2526SOL    HW219041   1.596   1.811   2.390  0.1283 -0.2615 -1.5434
 2527SOL     OW19042   0.372   2.310   1.890  0.3739 -0.4272  0.1638
 2527SOL    HW119043   0.319   2.368   1.835 -0.2099  0.0059  1.1715
 2527SOL    HW219044   0.319   2.316   1.969  0.1370  0.0597 -0.0320
 2528SOL     OW19045   4.088   0.412  15.067  0.6032 -0.2887  0.0020
 2528SOL    HW119046   4.145   0.437  14.995  1.0941  0.1020  0.5256
 2528SOL    HW219047   4.075   0.488  15.123 -2.2578 -0.2271 -0.7308
 2529SOL     OW19048   3.080   2.037   1.437  0.3477  0.2998 -0.5275
 2529SOL    HW119049   3.151   2.038   1.372  1.3588 -2.0647  0.5066
 2529SOL    HW219050   3.021   1.969   1.405  0.4877  0.3527 -0.8970
 2530SOL     OW19051   3.038   4.510  16.335  0.0664 -0.1637 -0.3499
 2530SOL    HW119052   3.030   4.559  16.418  1.2719 -0.1487 -0.2476
 2530SOL    HW219053   3.046   4.584  16.275  4.1306 -2.5291 -2.6352
 2531SOL     OW19054   3.158   3.712   2.213 -0.1709 -0.0265  0.1611
 2531SOL    HW119055   3.165   3.802   2.245 -0.3898 -0.3123  0.9920
 2531SOL    HW219056   3.175   3.664   2.294 -1.5578  0.6633  0.8590
 2532SOL     OW19057   0.881   2.318  14.662  0.4427 -1.0004 -0.4658
 2532SOL    HW119058   0.938   2.344  14.735 -0.0328 -2.1901  0.3425
 2532SOL    HW219059   0.936   2.251  14.621  0.8988 -2.1630  2.0401
 2533SOL     OW19060   2.224   1.236  10.456  0.4633 -0.2887  0.6248
 2533SOL    HW119061   2.184   1.177  10.520 -1.4306 -0.2489 -0.4974
 2533SOL    HW219062   2.143   1.256  10.408 -0.3039  0.8503  2.4070
 2534SOL     OW19063   2.023   0.110   6.449  0.0294  0.1429  0.3636
 2534SOL    HW119064   2.003   0.178   6.513  1.0238 -0.4462  1.3011
 2534SOL    HW219065   1.959   0.044   6.476  1.0615 -0.6907  0.7429
 2535SOL     OW19066   1.557   4.609   9.444 -0.3033  0.4249  0.6153
 2535SOL    HW119067   1.535   4.632   9.534 -0.3445  1.2768  0.3847
 2535SOL    HW219068   1.468   4.615   9.410  1.0702 -0.6023 -3.1759
 2536SOL     OW19069   3.594   3.724   8.149  0.3894 -0.4695  0.3081
 2536SOL    HW119070   3.675   3.771   8.169  1.7319 -1.0105 -3.7247
 2536SOL    HW219071   3.575   3.700   8.239  1.4869  1.8834  1.1576
 2537SOL     OW19072   1.353   0.885   3.244 -0.3729 -0.1707 -0.4118
 2537SOL    HW119073   1.369   0.804   3.196  1.4220 -1.0534  1.6461
 2537SOL    HW219074   1.439   0.917   3.271 -0.5745 -0.7902  0.9413
 2538SOL     OW19075   2.807   2.044   6.580 -0.2232 -0.0423  0.2814
 2538SOL    HW119076   2.795   2.040   6.675  0.2857 -1.2187  0.3005
 2538SOL    HW219077   2.865   1.969   6.566 -0.1481 -0.3770  2.4326
 2539SOL     OW19078   4.534   1.268  10.809 -0.2207 -0.1193  0.4023
 2539SOL    HW119079   4.463   1.230  10.861 -1.0351  0.5259 -0.2135
 2539SOL    HW219080   4.585   1.188  10.805  1.4445  0.9838 -0.2719
 2540SOL     OW19081   2.254   4.186   5.564  0.1721 -0.0759  0.3480
 2540SOL    HW119082   2.318   4.155   5.627 -1.5001  0.8749  2.5123
 2540SOL    HW219083   2.196   4.110   5.555  2.5777 -1.7742 -0.7582
 2541SOL     OW19084   3.800   1.610   4.119  0.1322 -0.7812 -0.5045
 2541SOL    HW119085   3.781   1.517   4.134  1.1627 -0.9079  0.0686
 2541SOL    HW219086   3.735   1.661   4.167  2.4239  2.2478 -0.6075
 2542SOL     OW19087   2.995   4.122  16.198  0.0616 -0.0099 -0.2943
 2542SOL    HW119088   2.912   4.094  16.159 -1.2647  2.9532  0.4035
 2542SOL    HW219089   3.044   4.041  16.208  0.7646  0.2196 -1.8738
 2543SOL     OW19090   1.580   0.734   8.761 -0.5466  0.0423 -0.4236
 2543SOL    HW119091   1.665   0.711   8.722  0.4719  2.1674  0.4830
 2543SOL    HW219092   1.541   0.649   8.780  0.3792  0.1183  1.8357
 2544SOL     OW19093   0.725   1.964   8.636 -0.5450  0.0257 -0.5826
 2544SOL    HW119094   0.658   1.941   8.573  2.0643 -1.9712 -2.6421
 2544SOL    HW219095   0.757   2.046   8.600  2.6274 -1.2355 -0.6937
 2545SOL     OW19096   1.295   1.985   2.214 -0.0528  0.6333  0.1487
 2545SOL    HW119097   1.282   2.034   2.295 -1.1779  2.1034 -0.8996
 2545SOL    HW219098   1.255   2.045   2.150 -1.2411 -0.5409 -0.1957
 2546SOL     OW19099   0.396   4.148   6.299  0.0234 -0.0008 -0.0658
 2546SOL    HW119100   0.383   4.054   6.312 -0.3595  0.2388  1.2961
 2546SOL    HW219101   0.475   4.142   6.246  0.8903  0.3429  1.1958
 2547SOL     OW19102   1.474   3.598   7.959  0.3401  0.2789 -0.4525
 2547SOL    HW119103   1.507   3.608   7.869  1.6717 -1.2596 -0.1472
 2547SOL    HW219104   1.413   3.525   7.943 -0.3752  1.3119 -2.4492
 2548SOL     OW19105   2.042   4.151   7.369  0.2855  0.1538  0.0506
 2548SOL    HW119106   2.108   4.137   7.437 -0.2570 -3.4738 -0.1513
 2548SOL    HW219107   1.964   4.149   7.423  0.6334  0.2142  0.5555
 2549SOL     OW19108   3.949   1.702   7.063  0.6979 -0.2353 -0.2370
 2549SOL    HW119109   3.953   1.736   7.152 -2.4870  1.3608 -0.7009
 2549SOL    HW219110   3.856   1.681   7.065  0.4471  0.9171 -0.2111
 2550SOL     OW19111   3.751   3.091   1.662 -0.3820 -0.2664  0.6099
 2550SOL    HW119112   3.761   3.008   1.617  0.5506 -0.9799  2.1485
 2550SOL    HW219113   3.836   3.128   1.640  0.1699 -0.6736  2.0653
 2551SOL     OW19114   3.618   3.101   2.200 -0.2902 -0.0326  0.1466
 2551SOL    HW119115   3.631   3.123   2.108  0.3880  0.1878  0.3009
 2551SOL    HW219116   3.602   3.007   2.193  1.3405 -0.3658  1.0564
 2552SOL     OW19117   3.138   1.255   2.599  0.0892  0.4072 -0.0196
 2552SOL    HW119118   3.188   1.320   2.648  1.0264  0.1678 -0.6693
 2552SOL    HW219119   3.125   1.299   2.516 -0.6472  0.1580 -0.0399
 2553SOL     OW19120   2.708   0.999  10.390  0.8760 -0.1208  0.2061
 2553SOL    HW119121   2.615   1.015  10.374  1.2678 -0.9020 -2.8484
 2553SOL    HW219122   2.736   1.078  10.436 -1.5201 -0.8107  2.7934
 2554SOL     OW19123   0.474   3.860  10.166  0.1730  0.3111 -0.0302
 2554SOL    HW119124   0.545   3.902  10.118  1.5327 -0.6891  1.1083
 2554SOL    HW219125   0.447   3.793  10.103 -1.0002  1.1897 -0.4583
 2555SOL     OW19126   2.764   3.809   8.335  0.0340  0.0076  0.1417
 2555SOL    HW119127   2.750   3.783   8.244 -1.7674  1.0625  0.1096
 2555SOL    HW219128   2.712   3.742   8.380 -0.7137  0.9864  0.7439
 2556SOL     OW19129   4.656   0.101   7.327 -0.0021 -0.2054 -0.1525
 2556SOL    HW119130   4.595   0.082   7.255 -0.0576  0.6779 -0.3457
 2556SOL    HW219131   0.001   0.041   7.295  0.8948  0.8514 -0.2656
 2557SOL     OW19132   2.545   2.832   6.357 -0.2189 -0.1701 -0.2585
 2557SOL    HW119133   2.495   2.834   6.438  0.3772  3.4929  0.0316
 2557SOL    HW219134   2.579   2.921   6.343 -1.5594 -0.2666 -4.1281
 2558SOL     OW19135   1.560   3.303   1.310 -0.6739 -0.0938 -0.3682
 2558SOL    HW119136   1.522   3.390   1.295 -1.5983 -0.4909 -0.3230
 2558SOL    HW219137   1.535   3.254   1.232 -1.4988 -2.1528  1.1776
 2559SOL     OW19138   3.704   0.847   8.850  0.1422  0.2371 -0.4873
 2559SOL    HW119139   3.707   0.784   8.778  2.3497 -0.7019  0.4312
 2559SOL    HW219140   3.720   0.934   8.813  0.0885  0.1269 -0.7695
 2560SOL     OW19141   2.041   0.334   7.125  0.2304  0.3886 -0.0058
 2560SOL    HW119142   1.948   0.313   7.130  0.5524 -1.0538  0.1517
 2560SOL    HW219143   2.073   0.302   7.209 -0.0132  2.6035  0.9312
 2561SOL     OW19144   0.434   4.267   7.332  0.2187  0.0403 -0.0055
 2561SOL    HW119145   0.360   4.207   7.321 -0.2495  0.2202  2.2120
 2561SOL    HW219146   0.417   4.334   7.266  1.9546 -0.0329 -0.5314
 2562SOL     OW19147   2.371   4.073   8.922  0.3181 -0.2538  0.3246
 2562SOL    HW119148   2.295   4.131   8.923  0.8556  0.3942  2.7149
 2562SOL    HW219149   2.423   4.110   8.994 -0.3266 -2.4746  1.9339
 2563SOL     OW19150   4.251   0.423   1.052  0.0831 -0.4853 -0.6094
 2563SOL    HW119151   4.199   0.500   1.077  1.2826 -0.6518  2.4077
 2563SOL    HW219152   4.213   0.355   1.107  0.8899 -0.8229 -0.4774
 2564SOL     OW19153   2.997   0.482   2.002  0.2569  0.2695  0.3217
 2564SOL    HW119154   2.923   0.425   1.979  0.5052  1.0065 -2.2464
 2564SOL    HW219155   2.965   0.516   2.086 -0.2601  0.2852  0.1213
 2565SOL     OW19156   0.551   1.509  11.215 -0.0448 -0.0240  0.3271
 2565SOL    HW119157   0.570   1.540  11.126  2.3157  0.4791  0.9974
 2565SOL    HW219158   0.634   1.513  11.263  0.5829  0.4178 -0.7847
 2566SOL     OW19159   4.597   2.168   4.764 -0.3121  0.1903 -1.0053
 2566SOL    HW119160   4.533   2.102   4.736 -1.0947  0.0136  1.2373
 2566SOL    HW219161   4.679   2.124   4.740 -0.0457 -0.3618  0.9791
 2567SOL     OW19162   1.823   0.591   3.186 -0.1453  0.0809  0.1859
 2567SOL    HW119163   1.805   0.685   3.189 -2.8875 -0.5732  3.0593
 2567SOL    HW219164   1.915   0.593   3.160 -0.1091 -0.0533  0.3037
 2568SOL     OW19165   0.208   4.466   1.569 -0.2287 -0.2694  0.0760
 2568SOL    HW119166   0.271   4.521   1.615 -0.5834 -0.3460  0.6544
 2568SOL    HW219167   0.251   4.428   1.493  0.0452  0.0447  0.0728
 2569SOL     OW19168   3.559   3.212  13.010 -0.3575  0.0691 -0.2897
 2569SOL    HW119169   3.616   3.194  13.085  0.3666  0.1643 -0.8108
 2569SOL    HW219170   3.601   3.158  12.944  1.0489  1.4884 -0.5665
 2570SOL     OW19171   1.205   3.227   5.613 -0.4117  0.4788  0.3777
 2570SOL    HW119172   1.141   3.268   5.670 -0.0598 -0.8755  1.7526
 2570SOL    HW219173   1.149   3.151   5.597  1.6500 -1.0061  0.2086
 2571SOL     OW19174   2.085   0.875   7.950  0.4209  0.3878  0.0683
 2571SOL    HW119175   2.057   0.852   7.862  0.6152  0.7277 -0.0834
 2571SOL    HW219176   2.166   0.825   7.960  1.4837  2.0674 -0.0191
 2572SOL     OW19177   2.220   2.629   6.977  0.6244  0.1250  0.0330
 2572SOL    HW119178   2.213   2.557   7.039 -2.0927  0.5760  0.2478
 2572SOL    HW219179   2.131   2.663   6.984  0.1157 -1.2809  0.2629
 2573SOL     OW19180   1.360   1.736   0.626 -0.1887 -0.3519  0.2859
 2573SOL    HW119181   1.420   1.785   0.570  0.4400 -2.1532 -0.6221
 2573SOL    HW219182   1.300   1.805   0.656  1.0248  1.1962 -0.8457
 2574SOL     OW19183   2.274   2.533  17.412  0.1452  0.0382 -0.2617
 2574SOL    HW119184   2.190   2.501  17.447 -1.2050  2.4043 -1.3347
 2574SOL    HW219185   2.260   2.508  17.321  0.5919  0.0111 -0.3189
 2575SOL     OW19186   3.434   0.667   8.327  0.0690 -0.2751 -0.5890
 2575SOL    HW119187   3.443   0.613   8.405  0.5336  1.4419  0.5297
 2575SOL    HW219188   3.362   0.721   8.359  2.5643  1.9515  1.1884
 2576SOL     OW19189   2.353   2.322   6.769  0.0300 -0.6668 -0.0112
 2576SOL    HW119190   2.274   2.292   6.722  0.4374  0.2804 -1.3176
 2576SOL    HW219191   2.415   2.254   6.745 -1.6930 -0.6891 -4.4961
 2577SOL     OW19192   1.868   0.961   9.971  0.2927  0.2336 -0.1291
 2577SOL    HW119193   1.898   1.018  10.042  0.2278  0.9809 -0.7049
 2577SOL    HW219194   1.854   0.881  10.022 -1.4723  0.8237  0.3161
 2578SOL     OW19195   0.649   1.288   6.752  0.0301  0.4267  0.3560
 2578SOL    HW119196   0.730   1.302   6.703  0.6155 -0.8599  0.9316
 2578SOL    HW219197   0.616   1.377   6.751  0.1360  0.4924  2.1590
 2579SOL     OW19198   2.705   1.784   4.775  0.3035 -0.0772 -0.0647
 2579SOL    HW119199   2.658   1.701   4.779  2.1056 -1.1449 -1.4177
 2579SOL    HW219200   2.775   1.762   4.836  1.2865  0.6768 -0.9415
 2580SOL     OW19201   3.589   4.280   2.387 -0.1094  0.4782  0.3410
 2580SOL    HW119202   3.632   4.219   2.447  1.6698  0.3760 -1.0594
 2580SOL    HW219203   3.575   4.360   2.438 -1.0931  1.8048 -1.9923
 2581SOL     OW19204   4.082   0.916   4.854  0.1119 -0.2520 -0.3327
 2581SOL    HW119205   4.088   0.820   4.850  1.5280 -0.1315 -1.2934
 2581SOL    HW219206   4.161   0.941   4.902 -1.5225  0.0411  2.1488
 2582SOL     OW19207   2.175   1.368   5.830  0.7161  0.4090 -0.4276
 2582SOL    HW119208   2.133   1.449   5.801 -1.2217 -0.3718  0.2080
 2582SOL    HW219209   2.187   1.331   5.743 -1.1823  1.4660 -1.1319
 2583SOL     OW19210   2.004   3.950  11.717  0.3639 -0.0880  0.4947
 2583SOL    HW119211   2.099   3.963  11.707 -0.0556  2.0584 -0.6276
 2583SOL    HW219212   1.987   3.896  11.640  2.2404 -0.2587  0.1940
 2584SOL     OW19213   4.628   0.733   9.583  0.1197  0.3594  0.1980
 2584SOL    HW119214   4.618   0.737   9.678 -0.0513 -0.8651  0.2374
 2584SOL    HW219215   4.657   0.821   9.560  1.2460  0.2398  1.1307
 2585SOL     OW19216   4.421   3.846   4.334 -0.2080  0.3102 -0.1392
 2585SOL    HW119217   4.398   3.918   4.393  1.5344  0.5672  0.2208
 2585SOL    HW219218   4.335   3.804   4.337 -1.2556  2.3270 -1.4546
 2586SOL     OW19219   1.641   3.379   8.851  0.1435 -0.3814 -0.1929
 2586SOL    HW119220   1.564   3.402   8.903 -1.3534 -1.5695 -1.8460
 2586SOL    HW219221   1.604   3.335   8.774  1.6389 -2.3055  0.2002
 2587SOL     OW19222   3.668   2.747   7.100 -0.3279 -0.0985 -0.0697
 2587SOL    HW119223   3.703   2.828   7.136 -3.1139  1.3370 -0.6505
 2587SOL    HW219224   3.686   2.685   7.171 -0.7102 -0.5068 -0.3242
 2588SOL     OW19225   2.729   4.336   7.837 -0.2648 -0.5516  0.1799
 2588SOL    HW119226   2.768   4.407   7.888 -1.4919 -0.3901  0.9087
 2588SOL    HW219227   2.805   4.279   7.831  0.6482  0.7101 -0.3931
 2589SOL     OW19228   1.336   3.643  16.187 -0.5823  0.4764 -0.3712
 2589SOL    HW119229   1.411   3.691  16.150 -0.9229  1.4265  0.1663
 2589SOL    HW219230   1.324   3.580  16.116  1.0971 -0.2304 -0.0360
 2590SOL     OW19231   4.313   1.746   2.426  0.4135  0.2803  0.2342
 2590SOL    HW119232   4.288   1.752   2.334 -0.2470  0.8512  0.4448
 2590SOL    HW219233   4.263   1.672   2.461  0.8014  0.4602  1.1769
 2591SOL     OW19234   1.886   3.269   9.597  0.4513  0.0432  0.3320
 2591SOL    HW119235   1.902   3.302   9.685 -0.9901  0.1056  0.5649
 2591SOL    HW219236   1.885   3.349   9.545  0.6367  1.8312  3.0972
 2592SOL     OW19237   2.834   3.179  16.437 -0.0479  0.2846  0.7116
 2592SOL    HW119238   2.866   3.195  16.348 -1.0739  1.8483  0.6369
 2592SOL    HW219239   2.746   3.145  16.420 -0.4995  1.6615  0.2994
 2593SOL     OW19240   0.162   1.719   5.648 -0.1661  0.2684 -0.3247
 2593SOL    HW119241   0.247   1.683   5.675 -0.7285  0.3241  1.5341
 2593SOL    HW219242   0.131   1.753   5.732  4.5442  2.7589  0.3808
 2594SOL     OW19243   1.054   2.822   7.524  0.3302 -0.0636  0.7799
 2594SOL    HW119244   1.080   2.730   7.525  0.4157 -0.0327  1.6855
 2594SOL    HW219245   0.961   2.819   7.503  0.5181  0.5522 -0.1380
 2595SOL     OW19246   0.458   0.647   3.883  0.2363 -1.0696  0.4859
 2595SOL    HW119247   0.430   0.729   3.843  0.8654 -0.2984  1.6397
 2595SOL    HW219248   0.402   0.576   3.850 -2.2812  1.7584 -1.3007
 2596SOL     OW19249   4.687   2.326   3.161 -0.4517  0.4586 -0.0810
 2596SOL    HW119250   4.720   2.403   3.206 -1.6332  0.5730  0.6035
 2596SOL    HW219251   0.034   2.311   3.096  1.2591 -1.1669  2.1328
 2597SOL     OW19252   2.382   4.519   3.249  0.4878 -0.4893 -0.2772
 2597SOL    HW119253   2.370   4.437   3.296 -2.0587  0.8676  1.4816
 2597SOL    HW219254   2.292   4.538   3.222  0.4123  0.0742  0.3585
 2598SOL     OW19255   2.418   1.666   5.021  0.2733 -0.7386  0.1719
 2598SOL    HW119256   2.493   1.635   5.072 -1.2851 -1.0967  2.2354
 2598SOL    HW219257   2.467   1.662   4.939  1.3261  2.9385  0.6258
 2599SOL     OW19258   2.041   3.843   3.210 -0.4492  0.0884 -0.5625
 2599SOL    HW119259   2.012   3.934   3.223  3.4976  0.9973  1.8549
 2599SOL    HW219260   1.960   3.799   3.236 -1.6250  1.4433 -1.9087
 2600SOL     OW19261   3.405   1.649  10.988  0.3384 -0.8850 -0.4666
 2600SOL    HW119262   3.393   1.592  11.064 -1.1766  1.4126  1.0097
 2600SOL    HW219263   3.478   1.613  10.937 -0.0701 -3.0313  0.4321
 2601SOL     OW19264   3.583   2.258   4.096  0.7984 -0.0533 -0.4223
 2601SOL    HW119265   3.620   2.225   4.014  2.5894  0.6835  0.1030
 2601SOL    HW219266   3.549   2.179   4.138  0.2772 -1.1262 -2.8203
 2602SOL     OW19267   2.331   3.234   6.277  0.4516  0.6159 -0.1545
 2602SOL    HW119268   2.263   3.193   6.330 -0.1979 -0.9903 -2.2472
 2602SOL    HW219269   2.340   3.176   6.202 -0.6544 -0.1779  0.3222
 2603SOL     OW19270   3.843   0.303   5.845  0.1871  0.2733  0.3319
 2603SOL    HW119271   3.789   0.311   5.766 -0.3922  2.9205  0.9901
 2603SOL    HW219272   3.780   0.256   5.901  1.1087 -0.9728  0.3234
 2604SOL     OW19273   1.260   3.738  12.170  0.2459 -0.2852 -0.0139
 2604SOL    HW119274   1.254   3.733  12.266 -1.1213  0.2506 -0.0830
 2604SOL    HW219275   1.232   3.651  12.141 -0.3571 -0.0811 -0.0283
 2605SOL     OW19276   2.543   2.661   2.524 -0.1579  0.3280  0.2311
 2605SOL    HW119277   2.621   2.617   2.490  0.0721  1.7615 -1.0787
 2605SOL    HW219278   2.541   2.639   2.617  1.9529 -0.5192  0.0659
 2606SOL     OW19279   3.707   0.546   4.041  0.5695 -0.1547 -0.1116
 2606SOL    HW119280   3.721   0.559   3.947  0.6417 -1.0649 -0.2258
 2606SOL    HW219281   3.798   0.556   4.071  0.4837 -0.0737  0.1228
 2607SOL     OW19282   2.537   0.536   6.552  0.4877  0.1806 -0.5151
 2607SOL    HW119283   2.502   0.613   6.506 -0.5137 -0.9794 -1.6948
 2607SOL    HW219284   2.510   0.468   6.490  0.1722 -1.7648  1.7630
 2608SOL     OW19285   1.256   0.367   5.011 -0.0737  0.5153 -0.4814
 2608SOL    HW119286   1.197   0.411   5.072 -0.3057  0.2334 -0.5018
 2608SOL    HW219287   1.210   0.386   4.929  1.8593 -1.2591 -1.9658
 2609SOL     OW19288   1.352   2.820   7.956  0.9342 -0.1664  0.0896
 2609SOL    HW119289   1.327   2.848   7.868 -1.3555 -1.3678  0.3461
 2609SOL    HW219290   1.403   2.892   7.992 -0.2820  0.7157  0.0540
 2610SOL     OW19291   4.696   2.775   8.584 -0.2771  0.0188 -0.2794
 2610SOL    HW119292   4.613   2.727   8.581  0.1938 -0.8408  0.2743
 2610SOL    HW219293   4.721   2.760   8.676 -0.3693  0.2498 -0.2161
 2611SOL     OW19294   0.170   3.304   7.465  0.7700 -0.0049  0.1342
 2611SOL    HW119295   0.232   3.277   7.532  0.6722 -0.4096  0.0573
 2611SOL    HW219296   0.156   3.397   7.485  1.4020 -0.0650  0.8307
 2612SOL     OW19297   3.608   1.916   7.342  0.1295  0.1363 -0.2444
 2612SOL    HW119298   3.520   1.905   7.306 -0.2007 -0.3879  0.7174
 2612SOL    HW219299   3.649   1.831   7.352 -2.7607 -1.3207 -0.9299
 2613SOL     OW19300   2.393   0.108  13.901 -0.2933  0.3034  0.1200
 2613SOL    HW119301   2.333   0.033  13.894 -0.7015  0.5451  1.1137
 2613SOL    HW219302   2.477   0.062  13.894 -0.6663 -0.5678  1.3966
 2614SOL     OW19303   3.518   2.977   4.007 -0.0180 -0.1340  0.4335
 2614SOL    HW119304   3.552   3.033   3.937 -0.8243 -1.1498 -0.7947
 2614SOL    HW219305   3.426   2.969   3.981  0.4041  1.5978 -1.6085
 2615SOL     OW19306   3.944   2.100   8.990  0.3512  0.6386  0.2037
 2615SOL    HW119307   3.977   2.159   8.922  0.1205 -0.0650 -0.5152
 2615SOL    HW219308   4.022   2.106   9.045  0.0801  2.9531  0.3691
 2616SOL     OW19309   2.524   1.962   8.958  0.8159 -0.0454  0.0357
 2616SOL    HW119310   2.472   1.911   8.896 -0.8015  2.2218 -0.4679
 2616SOL    HW219311   2.456   1.974   9.024 -0.6253 -0.7804 -1.3237
 2617SOL     OW19312   0.740   3.258   5.276  0.5508 -0.4427 -0.4837
 2617SOL    HW119313   0.743   3.164   5.258 -0.0966 -0.8185  1.4401
 2617SOL    HW219314   0.778   3.296   5.197 -1.6080  1.5371 -0.5718
 2618SOL     OW19315   2.451   1.030   4.197  0.1299 -0.9969 -0.1273
 2618SOL    HW119316   2.483   0.997   4.113  2.7353 -0.7017  0.7503
 2618SOL    HW219317   2.365   0.989   4.198  0.0145 -0.7374  0.4367
 2619SOL     OW19318   2.091   0.079  17.258 -0.0868  0.2476 -0.2128
 2619SOL    HW119319   2.149   0.146  17.221 -2.1959  1.2461 -1.6869
 2619SOL    HW219320   2.084   0.109  17.349 -0.1311  2.4306 -0.9409
 2620SOL     OW19321   1.958   0.674  10.300  0.2596  0.6397 -0.7367
 2620SOL    HW119322   1.965   0.582  10.274  1.8562  0.6245 -0.1986
 2620SOL    HW219323   2.041   0.688  10.345 -0.0118  2.0044 -0.6666
 2621SOL     OW19324   0.834   2.809  10.263  0.1002 -0.1515  0.4008
 2621SOL    HW119325   0.921   2.787  10.295 -0.0167  0.5510  1.1922
 2621SOL    HW219326   0.781   2.808  10.343  0.4952  1.1559  0.6903
 2622SOL     OW19327   4.079   2.484   3.515  0.3944 -0.2297  0.4806
 2622SOL    HW119328   4.136   2.462   3.441 -0.3952  0.0018 -0.1887
 2622SOL    HW219329   4.145   2.491   3.584 -0.1476  2.6663  0.7381
 2623SOL     OW19330   3.441   3.276   8.178 -0.0143  0.0465 -0.3547
 2623SOL    HW119331   3.352   3.311   8.169 -1.0127 -2.2519  0.4326
 2623SOL    HW219332   3.473   3.321   8.100 -1.5343 -0.1358 -1.0890
 2624SOL     OW19333   1.723   1.116   6.381  0.0956 -0.4054 -0.0036
 2624SOL    HW119334   1.727   1.203   6.342  0.5722 -0.3326  0.2126
 2624SOL    HW219335   1.810   1.109   6.419  0.8424 -1.0231 -1.8394
 2625SOL     OW19336   1.138   3.113  17.070  0.2149 -0.4815 -0.9529
 2625SOL    HW119337   1.232   3.112  17.087  0.1942  3.8604 -0.5519
 2625SOL    HW219338   1.116   3.165  17.147 -0.6617 -0.6480 -1.0941
 2626SOL     OW19339   0.400   0.851  17.280  0.0349 -0.5018 -0.0382
 2626SOL    HW119340   0.379   0.758  17.272  2.1126 -0.9953  0.2481
 2626SOL    HW219341   0.345   0.881  17.207 -1.1230 -0.9471  0.6496
 2627SOL     OW19342   0.348   4.368  16.574 -0.2157  0.4099 -0.1480
 2627SOL    HW119343   0.331   4.427  16.501  1.2645 -0.1257 -0.9169
 2627SOL    HW219344   0.268   4.315  16.571  0.6670 -0.8017 -2.1359
 2628SOL     OW19345   2.287   1.452   3.391 -0.0256  0.2239 -0.6608
 2628SOL    HW119346   2.193   1.468   3.397  0.1487  0.1756  2.0851
 2628SOL    HW219347   2.290   1.401   3.310  0.8194 -0.6979 -0.0472
 2629SOL     OW19348   4.193   0.137   8.901 -0.1928  0.0980 -0.5397
 2629SOL    HW119349   4.129   0.205   8.879 -0.6549 -0.2275 -0.1919
 2629SOL    HW219350   4.184   0.067   8.836 -2.3135  0.2759 -0.4188
 2630SOL     OW19351   1.963   1.534   7.705 -0.6779 -0.3248 -0.0551
 2630SOL    HW119352   2.035   1.583   7.666  0.6634 -0.2225  2.5674
 2630SOL    HW219353   1.897   1.594   7.741  1.6665  0.6203  2.6307
 2631SOL     OW19354   1.154   3.281   5.247 -0.6680  0.1830 -0.1886
 2631SOL    HW119355   1.064   3.285   5.215 -0.0251  0.0592 -1.9907
 2631SOL    HW219356   1.187   3.343   5.182 -0.8017  0.0479 -0.3840
 2632SOL     OW19357   3.994   2.538   5.016  0.2367  0.0857 -0.2858
 2632SOL    HW119358   4.088   2.523   5.005  0.2619  0.1239 -0.1229
 2632SOL    HW219359   3.956   2.528   4.929 -2.0129  0.0117  0.7260
 2633SOL     OW19360   4.697   0.664   5.214 -0.2280  0.6697  0.0440
 2633SOL    HW119361   0.044   0.729   5.210 -0.6485  1.0928 -0.3952
 2633SOL    HW219362   4.624   0.693   5.269  1.9262  2.3696  1.9719
 2634SOL     OW19363   1.753   2.484   4.260  0.4253  0.1551  0.1932
 2634SOL    HW119364   1.791   2.469   4.347  0.2615  0.8561  0.3793
 2634SOL    HW219365   1.832   2.489   4.206 -0.2827  0.7217 -0.7819
 2635SOL     OW19366   2.410   0.301   3.087  0.4177  0.4743  0.6597
 2635SOL    HW119367   2.434   0.267   3.001 -0.2943  0.3850  0.4926
 2635SOL    HW219368   2.438   0.392   3.087 -0.3008  0.6942 -0.6325
 2636SOL     OW19369   3.545   1.342  11.735 -0.1289  0.0451 -0.4472
 2636SOL    HW119370   3.461   1.358  11.692 -1.3129  0.4685  2.0545
 2636SOL    HW219371   3.520   1.268  11.790  1.8978  0.7493  1.4034
 2637SOL     OW19372   2.292   0.301   2.747  0.5571  0.1624 -0.1231
 2637SOL    HW119373   2.347   0.223   2.756  0.1458 -0.1826 -0.5990
 2637SOL    HW219374   2.204   0.272   2.722  1.0414  1.7317 -3.6921
 2638SOL     OW19375   4.604   3.923   7.286 -0.5488  0.3593  0.0633
 2638SOL    HW119376   4.516   3.908   7.251  0.8647 -0.3040 -3.2169
 2638SOL    HW219377   4.605   4.016   7.263 -2.6212  0.3670 -0.0050
 2639SOL     OW19378   0.073   0.020  15.821 -0.6691  0.0576 -0.2650
 2639SOL    HW119379   0.059   0.068  15.903 -0.5447  0.2526 -0.3583
 2639SOL    HW219380   0.125   0.089  15.780  0.6171 -1.4409 -1.1084
 2640SOL     OW19381   0.437   1.290   0.444 -0.3274  0.2682  0.8374
 2640SOL    HW119382   0.411   1.234   0.371 -0.5027 -0.0124  1.1156
 2640SOL    HW219383   0.532   1.280   0.439 -0.7503 -3.6721  0.4011
 2641SOL     OW19384   0.242   2.447  11.617  0.5801  0.1622  0.5459
 2641SOL    HW119385   0.281   2.388  11.682 -0.1530 -0.2995  0.5694
 2641SOL    HW219386   0.294   2.527  11.621  1.5254 -0.5197  1.7808
 2642SOL     OW19387   3.537   0.518   0.163  0.1105  0.3279  0.0149
 2642SOL    HW119388   3.608   0.487   0.107 -0.1560 -1.0937  0.4692
 2642SOL    HW219389   3.477   0.445   0.177  1.5550 -0.8788 -0.0952
 2643SOL     OW19390   2.239   1.244   9.161  0.3579 -0.2225  0.2218
 2643SOL    HW119391   2.144   1.252   9.150  0.1381 -1.7814  1.0173
 2643SOL    HW219392   2.270   1.312   9.101 -3.1881  0.2545 -1.0958
 2644SOL     OW19393   3.889   4.453   7.212 -0.7753  0.3514  0.0148
 2644SOL    HW119394   3.869   4.376   7.265  0.0851 -0.9850 -1.5673
 2644SOL    HW219395   3.814   4.508   7.234 -0.2970  2.1623 -2.8215
 2645SOL     OW19396   2.976   1.668   5.872  0.1023  0.0876 -0.1998
 2645SOL    HW119397   2.903   1.647   5.813  0.3709 -1.6602  0.0904
 2645SOL    HW219398   3.029   1.730   5.822 -0.6268  1.4216  0.6454
 2646SOL     OW19399   1.822   0.371   1.356  0.2033  0.0627  0.0140
 2646SOL    HW119400   1.745   0.316   1.371 -0.3701  1.0649  0.8123
 2646SOL    HW219401   1.790   0.451   1.398 -0.9032  0.2579 -1.1849
 2647SOL     OW19402   1.360   0.095   8.251 -0.0433 -0.5220  0.0048
 2647SOL    HW119403   1.324   0.087   8.339 -1.2715  1.8656 -0.2831
 2647SOL    HW219404   1.280   0.122   8.206  0.1061 -0.3771 -0.1728
 2648SOL     OW19405   1.261   0.155   4.803  0.6319  0.0357 -0.7655
 2648SOL    HW119406   1.267   0.204   4.885 -1.5357 -1.7678  0.4680
 2648SOL    HW219407   1.213   0.225   4.759  1.7292 -0.6850 -3.1052
 2649SOL     OW19408   4.433   4.662   7.065 -0.0378 -0.6770  0.2522
 2649SOL    HW119409   4.344   4.627   7.061  0.4777 -1.8851 -0.6465
 2649SOL    HW219410   4.428   0.036   7.064  1.3306 -0.5993  0.6152
 2650SOL     OW19411   3.130   4.351   6.154 -0.1376  0.1562 -0.1228
 2650SOL    HW119412   3.137   4.269   6.202 -0.8499  1.0999  1.5796
 2650SOL    HW219413   3.049   4.343   6.104 -0.0750  0.3442 -0.2594
 2651SOL     OW19414   2.562   0.953   5.322  0.2849 -0.1678  0.0185
 2651SOL    HW119415   2.635   0.946   5.261  2.0747  0.0580  2.1106
 2651SOL    HW219416   2.590   0.889   5.388  0.2940 -0.3887 -0.2028
 2652SOL     OW19417   4.320   2.945   4.006  0.7583 -0.7187 -0.7657
 2652SOL    HW119418   4.318   2.865   3.955 -0.3797 -1.2346  0.0958
 2652SOL    HW219419   4.241   2.941   4.061 -0.0960  0.3997 -1.9052
 2653SOL     OW19420   2.531   2.423   1.763  0.0834 -0.4099 -0.2503
 2653SOL    HW119421   2.572   2.483   1.701 -0.3770  0.9286  0.7255
 2653SOL    HW219422   2.580   2.345   1.736 -0.0117 -0.9024  1.0017
 2654SOL     OW19423   2.352   3.568  15.329  0.2221 -0.7770  0.1601
 2654SOL    HW119424   2.374   3.595  15.240  0.0030  1.2653  0.7308
 2654SOL    HW219425   2.391   3.481  15.320 -3.1209 -1.6898 -5.7811
 2655SOL     OW19426   2.164   4.707   7.336 -0.8179  0.0043 -0.6467
 2655SOL    HW119427   2.245   0.004   7.289 -1.8682  2.8174 -1.3146
 2655SOL    HW219428   2.170   4.612   7.347  0.0212 -0.1959 -2.9626
 2656SOL     OW19429   3.841   2.340  14.704 -0.2879 -0.0970 -0.0625
 2656SOL    HW119430   3.830   2.247  14.725 -0.2676  0.4015  2.1332
 2656SOL    HW219431   3.769   2.381  14.751 -1.4212 -0.6770 -1.2758
 2657SOL     OW19432   0.230   1.586   3.767  0.5032  0.3793 -0.0307
 2657SOL    HW119433   0.153   1.528   3.768  1.0064 -0.3036 -1.9542
 2657SOL    HW219434   0.298   1.519   3.767 -0.3038 -0.4302 -1.7686
 2658SOL     OW19435   2.566   0.202  14.084  0.3060  0.3935  0.0087
 2658SOL    HW119436   2.502   0.183  14.016  0.6263  0.2431 -0.2518
 2658SOL    HW219437   2.541   0.288  14.118 -0.3492 -0.1164  0.7879
 2659SOL     OW19438   0.805   0.115   2.989 -0.0466  0.2377 -0.5679
 2659SOL    HW119439   0.863   0.040   2.970  1.0436  0.2894  2.6276
 2659SOL    HW219440   0.835   0.138   3.077 -0.8831 -0.8955  0.0103
 2660SOL     OW19441   4.713   0.348   4.811  0.1823  0.2602  0.2248
 2660SOL    HW119442   0.033   0.418   4.860 -0.1962  0.1639  0.6876
 2660SOL    HW219443   4.654   0.401   4.759  2.0189 -0.1607 -2.2908
 2661SOL     OW19444   0.577   0.349   1.811  0.1776  0.3711 -0.5043
 2661SOL    HW119445   0.523   0.350   1.732 -1.7405 -0.0857  0.8200
 2661SOL    HW219446   0.528   0.289   1.866 -0.8306  0.1786 -1.5982
 2662SOL     OW19447   3.844   4.281  11.703  0.1641  0.4499 -0.2160
 2662SOL    HW119448   3.814   4.333  11.629 -0.2404  0.4225 -0.0718
 2662SOL    HW219449   3.895   4.346  11.752  1.6891 -1.5815  0.8844
 2663SOL     OW19450   3.271   4.040   0.839 -0.4167  0.0846  0.2298
 2663SOL    HW119451   3.214   4.085   0.902  0.3969  0.9781  0.3205
 2663SOL    HW219452   3.211   3.971   0.810  1.3813 -0.7734 -1.3903
 2664SOL     OW19453   4.678   3.251   7.957  0.6255 -0.2148 -0.4070
 2664SOL    HW119454   0.033   3.293   7.996  1.4659 -0.0167 -2.2717
 2664SOL    HW219455   4.628   3.321   7.914  0.3392 -0.7061 -0.8735
 2665SOL     OW19456   4.312   2.654   6.714 -0.0790 -0.5056  0.3052
 2665SOL    HW119457   4.266   2.737   6.707  2.6518  1.1580  2.1205
 2665SOL    HW219458   4.315   2.643   6.809  0.2171  1.7186  0.5387
 2666SOL     OW19459   4.715   4.146   1.828 -0.1732 -0.0893  0.8234
 2666SOL    HW119460   4.680   4.070   1.874  0.2698 -1.2225 -0.6885
 2666SOL    HW219461   4.692   4.129   1.737  1.1521  1.5478  0.1782
 2667SOL     OW19462   0.067   3.851  10.405 -0.2437 -0.4405 -0.9295
 2667SOL    HW119463   0.027   3.766  10.390 -1.9676  0.3074 -0.6365
 2667SOL    HW219464   0.044   3.894  10.322 -0.3567  0.9102 -0.2079
 2668SOL     OW19465   3.071   3.028   8.769  0.0605 -0.0534 -0.3807
 2668SOL    HW119466   3.130   3.101   8.784 -1.2637  1.3695 -2.0697
 2668SOL    HW219467   3.022   3.030   8.851 -1.1463 -1.6474 -1.0561
 2669SOL     OW19468   1.643   0.857   6.438 -0.9698  0.7420  0.0296
 2669SOL    HW119469   1.679   0.945   6.425 -1.0071  0.8458  0.6200
 2669SOL    HW219470   1.724   0.810   6.457 -1.5459 -0.4429 -0.4660
 2670SOL     OW19471   2.018   4.000   6.714 -0.3118  0.0112 -0.4000
 2670SOL    HW119472   2.047   3.926   6.660  1.9564 -0.0785  0.9342
 2670SOL    HW219473   2.101   4.012   6.760  0.1314  0.8675 -1.4418
 2671SOL     OW19474   2.253   2.382   7.724 -0.1710  0.2237  0.0301
 2671SOL    HW119475   2.167   2.380   7.766  0.4176 -1.9375  1.1242
 2671SOL    HW219476   2.298   2.315   7.775  0.4094  1.0722  0.6310
 2672SOL     OW19477   3.690   0.747   6.469 -0.0992 -0.0579  0.4167
 2672SOL    HW119478   3.667   0.790   6.552 -0.6076  1.2598 -0.4096
 2672SOL    HW219479   3.778   0.714   6.485 -0.6635 -2.7043 -2.0746
 2673SOL     OW19480   3.517   0.356   4.572 -0.2606  0.7127 -0.4193
 2673SOL    HW119481   3.477   0.333   4.489  1.1355 -1.4042 -0.4970
 2673SOL    HW219482   3.441   0.348   4.629 -1.3994 -1.3026 -2.2256
 2674SOL     OW19483   3.080   4.376  12.029  0.2765 -0.1605  0.2941
 2674SOL    HW119484   3.039   4.378  12.115  1.0223 -0.2972  0.6549
 2674SOL    HW219485   3.112   4.465  12.019  0.0520 -0.2108 -0.8780
 2675SOL     OW19486   0.761   4.235   8.909 -0.2498 -0.0601  0.3834
 2675SOL    HW119487   0.769   4.155   8.856 -1.3679  1.2337 -1.7558
 2675SOL    HW219488   0.677   4.227   8.953  0.0827 -1.0834  0.8334
 2676SOL     OW19489   0.101   4.386   3.905 -0.1369  0.3670 -0.2321
 2676SOL    HW119490   0.154   4.329   3.961 -0.1593  0.4531 -0.1248
 2676SOL    HW219491   0.104   4.343   3.819  1.2330  0.8041 -0.4060
 2677SOL     OW19492   1.672   3.216   4.928 -0.2913 -0.0118  0.7360
 2677SOL    HW119493   1.752   3.180   4.889 -0.6583 -1.4206  1.3012
 2677SOL    HW219494   1.608   3.177   4.869 -0.0940  1.6017 -0.5554
 2678SOL     OW19495   0.659   3.545  15.965 -0.1348 -0.5633 -1.2238
 2678SOL    HW119496   0.597   3.557  16.036 -0.1773  1.0135 -1.5306
 2678SOL    HW219497   0.649   3.453  15.938 -2.4514 -0.5778 -0.3035
 2679SOL     OW19498   1.362   3.675   4.918  0.2982 -0.8301 -0.2660
 2679SOL    HW119499   1.456   3.666   4.907  0.7982  2.4974  1.3008
 2679SOL    HW219500   1.359   3.745   4.983 -0.8479 -0.8740 -0.2655
 2680SOL     OW19501   2.083   3.031   9.147  0.5031  0.0132  0.5250
 2680SOL    HW119502   2.059   3.116   9.183 -0.7629 -0.5421  1.0085
 2680SOL    HW219503   2.178   3.038   9.137  0.3986  0.2015 -0.3825
 2681SOL     OW19504   2.390   1.983   7.533 -0.3612  0.7432  0.2953
 2681SOL    HW119505   2.438   1.912   7.575 -0.3265  0.5206 -0.1174
 2681SOL    HW219506   2.405   2.046   7.603 -1.7353  1.3453  0.0475
 2682SOL     OW19507   0.211   4.693   7.795 -0.5637  0.0669  0.6360
 2682SOL    HW119508   0.277   4.721   7.732 -1.1616  0.9573  0.3996
 2682SOL    HW219509   0.191   0.054   7.840 -0.0710  0.8623 -0.6033
 2683SOL     OW19510   2.791   4.512   5.645 -0.0543 -0.1225 -0.3771
 2683SOL    HW119511   2.789   4.429   5.597  1.2962  0.0458 -0.7235
 2683SOL    HW219512   2.772   4.584   5.584 -2.8567 -1.7649 -1.4351
 2684SOL     OW19513   4.215   4.416  16.409 -0.0960 -1.0695  0.2250
 2684SOL    HW119514   4.215   4.390  16.317  0.4743 -0.1957 -0.0200
 2684SOL    HW219515   4.306   4.442  16.425  0.4035 -1.2510 -2.4018
 2685SOL     OW19516   2.250   2.875   0.193 -0.2843  0.0275 -0.2228
 2685SOL    HW119517   2.171   2.891   0.141 -0.4754  1.5434  0.5394
 2685SOL    HW219518   2.258   2.964   0.227 -0.8049  0.2105 -0.5711
 2686SOL     OW19519   2.515   3.797  16.899 -0.0426 -0.5132 -0.2478
 2686SOL    HW119520   2.607   3.791  16.925  0.3004  2.2775 -0.8777
 2686SOL    HW219521   2.481   3.841  16.977  1.9801 -0.6389  0.7147
 2687SOL     OW19522   0.550   1.535   6.435 -0.2379  0.0302  0.4471
 2687SOL    HW119523   0.610   1.491   6.495 -0.6802  0.4651  1.1991
 2687SOL    HW219524   0.609   1.610   6.424  0.0594 -0.2321  0.2184
 2688SOL     OW19525   3.059   0.537   4.336  0.8665  0.2729 -0.4170
 2688SOL    HW119526   2.965   0.552   4.325  0.8174  1.8213  2.1189
 2688SOL    HW219527   3.082   0.506   4.248  0.6219  2.4269 -1.2550
 2689SOL     OW19528   4.347   0.344   8.548 -0.6128  0.3557 -0.2861
 2689SOL    HW119529   4.295   0.335   8.628  0.8231 -0.4749  0.5611
 2689SOL    HW219530   4.422   0.287   8.564 -2.3520 -1.5320  1.0877
 2690SOL     OW19531   2.891   2.799   2.394  0.4095  0.4333  0.4442
 2690SOL    HW119532   2.844   2.717   2.407 -0.7641  0.9141 -0.8265
 2690SOL    HW219533   2.968   2.763   2.349 -0.8320  2.0284 -2.9258
 2691SOL     OW19534   4.007   1.998   3.684  0.1183 -0.1702  0.4322
 2691SOL    HW119535   4.075   1.984   3.618 -1.1086  0.5664 -0.9899
 2691SOL    HW219536   4.010   1.919   3.738 -3.3753  0.0475  0.9239
 2692SOL     OW19537   1.761   2.926   5.561 -0.1383 -0.1522 -0.1372
 2692SOL    HW119538   1.767   2.836   5.527 -2.6956 -0.4312  0.0806
 2692SOL    HW219539   1.666   2.937   5.554  0.0238  1.6100  0.5889
 2693SOL     OW19540   4.511   1.466   5.255  0.4763  0.0451 -0.1909
 2693SOL    HW119541   4.514   1.406   5.330  1.1992  1.9576  1.2935
 2693SOL    HW219542   4.585   1.444   5.198 -0.5263  0.2678 -1.5752
 2694SOL     OW19543   1.632   2.165   3.719  0.5131 -0.1275  0.4670
 2694SOL    HW119544   1.667   2.203   3.800  2.7215  1.6616 -1.3255
 2694SOL    HW219545   1.711   2.165   3.665 -0.1295 -1.3469 -0.4525
 2695SOL     OW19546   0.752   2.188   0.228 -0.2575 -0.5585 -0.3575
 2695SOL    HW119547   0.663   2.222   0.241  0.1023  1.1320 -2.3229
 2695SOL    HW219548   0.767   2.143   0.311  2.5193  1.2827  0.1617
 2696SOL     OW19549   2.312   1.545   1.300  0.0387 -0.2572 -0.2951
 2696SOL    HW119550   2.299   1.585   1.385 -0.2929  0.5181 -0.7114
 2696SOL    HW219551   2.274   1.608   1.239 -1.2964 -2.0043 -1.2914
 2697SOL     OW19552   3.983   0.874   1.924 -0.1575 -0.1533 -0.2358
 2697SOL    HW119553   4.033   0.817   1.865  0.4525  0.1531 -0.0077
 2697SOL    HW219554   4.047   0.943   1.941  0.6855 -0.5678 -1.6714
 2698SOL     OW19555   4.162   2.184   9.165 -0.2710  0.4843  0.3144
 2698SOL    HW119556   4.240   2.131   9.150 -0.3870  0.4142 -0.0279
 2698SOL    HW219557   4.187   2.272   9.138  0.0166  0.6834  1.2024
 2699SOL     OW19558   0.921   1.846   5.802 -0.2912 -0.1303 -0.6132
 2699SOL    HW119559   0.892   1.806   5.720 -0.6822  1.4899 -1.2600
 2699SOL    HW219560   0.885   1.932   5.781  1.3359  1.0508  1.4576
 2700SOL     OW19561   3.610   2.928   5.837  0.2490  0.3103 -0.2262
 2700SOL    HW119562   3.686   2.949   5.783  0.1774  2.7645  0.6085
 2700SOL    HW219563   3.644   2.947   5.924 -0.5858  0.3558  0.0852
 2701SOL     OW19564   3.981   3.604  10.949 -0.2775  0.0393  0.1554
 2701SOL    HW119565   3.976   3.511  10.931  0.6892  0.1054 -0.4205
 2701SOL    HW219566   3.962   3.618  11.042  0.7915 -0.1202  0.3921
 2702SOL     OW19567   1.714   3.450   7.749  0.0025 -0.7514  0.2327
 2702SOL    HW119568   1.805   3.435   7.722  0.2704 -0.6115  1.0472
 2702SOL    HW219569   1.664   3.377   7.713  0.7888  0.3177 -3.0331
 2703SOL     OW19570   0.167   1.861   7.745  0.0926 -0.1556 -0.7564
 2703SOL    HW119571   0.074   1.838   7.748 -0.0955  0.6920  0.0647
 2703SOL    HW219572   0.197   1.834   7.832  0.3107  1.1993 -0.4124
 2704SOL     OW19573   1.178   1.227   0.912 -0.0701 -0.5660 -0.4087
 2704SOL    HW119574   1.104   1.261   0.963  0.7335  1.1090 -0.3802
 2704SOL    HW219575   1.188   1.292   0.843  0.5325 -0.3999 -0.1658
 2705SOL     OW19576   4.608   3.582   6.880 -0.0652 -0.4045  0.6287
 2705SOL    HW119577   4.590   3.558   6.971 -0.6807 -2.4881 -0.0467
 2705SOL    HW219578   4.524   3.562   6.838 -0.8135  0.6458  1.6211
 2706SOL     OW19579   0.152   1.020   7.060 -0.2104 -0.2563  0.1528
 2706SOL    HW119580   0.061   1.012   7.032 -0.9901  2.1552  1.9625
 2706SOL    HW219581   0.143   1.044   7.153  1.4469 -2.1364  0.7989
 2707SOL     OW19582   2.835   0.121   2.363  0.6361 -0.2174 -0.5446
 2707SOL    HW119583   2.878   0.116   2.277  0.3290  2.1116 -0.8105
 2707SOL    HW219584   2.780   0.198   2.372  1.6145  0.5675 -1.3544
 2708SOL     OW19585   1.685   0.457   4.496 -0.1143 -0.0185  0.0250
 2708SOL    HW119586   1.606   0.425   4.452 -0.9265  1.5327  0.3724
 2708SOL    HW219587   1.756   0.426   4.440  0.2658 -0.6640  0.8600
 2709SOL     OW19588   0.496   1.614   1.417 -0.8065  0.1643 -0.3751
 2709SOL    HW119589   0.540   1.696   1.441  1.0870 -0.4566 -1.6848
 2709SOL    HW219590   0.407   1.649   1.420 -1.2497 -0.8975 -1.0841
 2710SOL     OW19591   1.359   2.336   7.062 -0.0201 -0.3659  0.0027
 2710SOL    HW119592   1.387   2.415   7.016  3.0869 -0.2919  2.0572
 2710SOL    HW219593   1.442   2.302   7.095  0.4687  0.5667 -0.2669
 2711SOL     OW19594   3.370   1.382   8.707  0.3224 -0.5025  0.1472
 2711SOL    HW119595   3.366   1.409   8.798 -2.4723  0.4956 -0.2771
 2711SOL    HW219596   3.310   1.307   8.707 -0.0247 -0.2212  0.8008
 2712SOL     OW19597   2.581   0.600   6.985  0.1727  0.0005 -0.0259
 2712SOL    HW119598   2.521   0.581   7.058  1.5341  1.8544  1.5660
 2712SOL    HW219599   2.537   0.539   6.925 -1.4528  1.3362 -0.2033
 2713SOL     OW19600   2.225   3.415   2.081  0.4288  0.5187  0.0978
 2713SOL    HW119601   2.226   3.422   2.176  0.2795  0.5311  0.0989
 2713SOL    HW219602   2.143   3.454   2.051 -0.1177 -0.6380  0.0944
 2714SOL     OW19603   4.551   4.490   4.552 -0.2958  0.5907  0.5591
 2714SOL    HW119604   4.601   4.415   4.523  0.6592  0.4350  2.6376
 2714SOL    HW219605   4.608   4.564   4.532  0.2303  0.0400  0.0755
 2715SOL     OW19606   3.307   3.998   7.253  0.8225  0.4018  0.0837
 2715SOL    HW119607   3.305   4.081   7.302 -0.9004  1.0103 -0.9992
 2715SOL    HW219608   3.386   3.956   7.287  0.0662  0.2123  1.6244
 2716SOL     OW19609   2.694   2.256   5.582 -0.5131 -0.1926  0.6756
 2716SOL    HW119610   2.744   2.278   5.503  0.1101  0.6087  1.2956
 2716SOL    HW219611   2.621   2.202   5.551 -1.0533  0.1986  1.2630
 2717SOL     OW19612   4.195   4.226   6.272 -0.0113  0.1355  0.3305
 2717SOL    HW119613   4.278   4.235   6.320  0.1996 -1.3943  0.2446
 2717SOL    HW219614   4.143   4.195   6.346  0.4908  1.2708  1.1553
 2718SOL     OW19615   2.762   0.907   7.054  0.2148 -0.6800 -0.0018
 2718SOL    HW119616   2.850   0.887   7.023 -0.0718 -0.9097 -0.6755
 2718SOL    HW219617   2.707   0.865   6.988  1.4859  0.7512 -1.9765
 2719SOL     OW19618   3.419   4.088   4.225 -0.2053  0.0252 -0.4595
 2719SOL    HW119619   3.359   4.079   4.151 -0.8788  0.5990  0.0245
 2719SOL    HW219620   3.474   4.009   4.223 -1.2249 -0.7232  1.3530
 2720SOL     OW19621   3.930   0.581  16.863  0.1401 -0.4095 -0.0390
 2720SOL    HW119622   3.862   0.633  16.906 -0.5947 -0.2790 -1.3449
 2720SOL    HW219623   3.903   0.492  16.887 -1.2239 -0.4676 -1.7667
 2721SOL     OW19624   1.171   0.874   9.091 -0.4198 -0.1756  0.2777
 2721SOL    HW119625   1.193   0.898   9.001  0.7338 -3.3073 -0.2754
 2721SOL    HW219626   1.160   0.966   9.114 -1.3885 -0.0425 -0.7386
 2722SOL     OW19627   2.175   0.935  16.079  0.3520  0.3010 -0.2078
 2722SOL    HW119628   2.141   0.971  16.161  0.0109 -0.7940  0.1259
 2722SOL    HW219629   2.144   0.994  16.010  3.1782  1.2295 -0.6859
 2723SOL     OW19630   1.912   4.196  12.166  0.3997 -0.1979 -0.1394
 2723SOL    HW119631   1.881   4.147  12.090 -2.4985 -1.5633  1.9407
 2723SOL    HW219632   1.976   4.130  12.191 -0.5336 -1.0343  0.0137
 2724SOL     OW19633   4.005   4.282   7.976 -0.0352 -0.0358  0.1049
 2724SOL    HW119634   4.061   4.217   7.933  0.9563  1.2214 -0.4865
 2724SOL    HW219635   3.990   4.247   8.063  0.6621  0.5720  0.4629
 2725SOL     OW19636   1.757   2.666  14.850  0.5455  0.5769 -0.1759
 2725SOL    HW119637   1.677   2.705  14.886  0.3801  0.4673 -0.4224
 2725SOL    HW219638   1.732   2.642  14.761 -0.2471 -1.3529  0.5846
 2726SOL     OW19639   2.335   2.105   6.005 -0.4196 -0.1600  0.8660
 2726SOL    HW119640   2.343   2.152   6.088  2.4243 -0.9951  1.0764
 2726SOL    HW219641   2.350   2.177   5.944  3.2047 -0.7718  1.0388
 2727SOL     OW19642   0.136   0.744  15.918 -0.2646 -0.1242 -0.4644
 2727SOL    HW119643   0.067   0.793  15.962  1.2711  0.2825  1.5073
 2727SOL    HW219644   0.169   0.811  15.858 -1.3105  0.3296 -0.5310
 2728SOL     OW19645   1.189   3.598  11.227  0.0185 -0.0320  0.7624
 2728SOL    HW119646   1.100   3.565  11.217 -1.3111  3.8176 -0.2902
 2728SOL    HW219647   1.239   3.524  11.260  1.2684  0.9336  1.0322
 2729SOL     OW19648   3.431   1.334   3.224 -0.4877 -0.0427 -0.3254
 2729SOL    HW119649   3.341   1.341   3.193  0.0389 -0.2075 -1.8858
 2729SOL    HW219650   3.454   1.427   3.222  0.8800 -0.4039 -1.8660
 2730SOL     OW19651   1.592   4.444   2.876 -0.0737 -0.4560  0.1567
 2730SOL    HW119652   1.569   4.404   2.792  1.5586 -2.9533  0.8907
 2730SOL    HW219653   1.593   4.536   2.849 -0.0969 -1.1767 -2.3068
 2731SOL     OW19654   0.488   2.333   5.409  0.3565 -0.0735  0.0073
 2731SOL    HW119655   0.519   2.317   5.498  2.4372 -1.0250 -0.8990
 2731SOL    HW219656   0.477   2.428   5.417 -1.2752 -0.2323 -0.2473
 2732SOL     OW19657   4.647   0.422   0.339 -0.1471 -0.3160 -0.2976
 2732SOL    HW119658   4.683   0.506   0.369  2.6008 -1.6547  0.1919
 2732SOL    HW219659   4.696   0.412   0.258 -0.5528  0.2486 -0.6061
 2733SOL     OW19660   2.373   4.331  17.162 -0.0597  0.0379  0.1995
 2733SOL    HW119661   2.349   4.349  17.071  0.7102  0.3673  0.0656
 2733SOL    HW219662   2.408   4.413  17.196 -2.0506  0.4691  1.2789
 2734SOL     OW19663   0.156   2.267   7.883  0.8423  0.3723  0.3670
 2734SOL    HW119664   0.249   2.251   7.896  0.3896 -1.3050  1.4976
 2734SOL    HW219665   0.138   2.230   7.796  1.2571  2.7473 -0.7247
 2735SOL     OW19666   2.930   1.798   6.538  0.7437 -0.3049 -0.0194
 2735SOL    HW119667   2.972   1.736   6.598  1.8723  2.6330  2.1928
 2735SOL    HW219668   2.901   1.736   6.471  0.6583  1.4722 -1.6095
 2736SOL     OW19669   0.543   1.415   3.162  0.0390 -0.1242 -0.1711
 2736SOL    HW119670   0.467   1.461   3.126 -1.1853 -0.4953  1.9029
 2736SOL    HW219671   0.616   1.457   3.118  0.3146 -1.4487 -0.9823
 2737SOL     OW19672   0.291   0.928  17.054 -0.1189 -0.1811 -0.5877
 2737SOL    HW119673   0.360   0.983  17.015  0.3667  1.0426  1.9982
 2737SOL    HW219674   0.277   0.869  16.980 -0.9405  2.3452 -2.4484
 2738SOL     OW19675   1.945   1.134   6.084 -0.6128 -0.0248 -0.0754
 2738SOL    HW119676   1.907   1.217   6.112 -1.8080 -1.1696  1.7712
 2738SOL    HW219677   1.910   1.072   6.149  1.5455  0.9082  1.9460
 2739SOL     OW19678   3.206   4.480   1.628 -0.0876  0.4474 -0.8340
 2739SOL    HW119679   3.179   4.571   1.617  0.6192  0.6849 -0.6171
 2739SOL    HW219680   3.174   4.433   1.551 -0.9851 -0.0997 -0.1393
 2740SOL     OW19681   2.100   3.831   1.283 -0.4542 -0.2877  0.3536
 2740SOL    HW119682   2.021   3.784   1.258 -0.8173  1.2428 -1.3634
 2740SOL    HW219683   2.105   3.904   1.221 -4.6677  0.4688  0.9511
 2741SOL     OW19684   2.091   3.059   8.857 -0.0313  0.5081 -0.1530
 2741SOL    HW119685   2.063   3.078   8.947 -1.5290 -0.9721 -0.3087
 2741SOL    HW219686   2.187   3.063   8.862  0.0707 -0.4730 -1.2264
 2742SOL     OW19687   3.961   0.003   0.111 -0.0059  0.0118  0.1554
 2742SOL    HW119688   3.887   4.665   0.115  0.1639 -0.1364  1.1057
 2742SOL    HW219689   4.040   4.675   0.089 -1.0557 -1.7358  0.3448
 2743SOL     OW19690   2.940   1.928  17.373 -0.2559  0.0786  0.0376
 2743SOL    HW119691   2.920   1.858  17.435 -0.5464  0.8587  0.8016
 2743SOL    HW219692   2.926   2.009  17.421  0.9043  0.9576 -1.0955
 2744SOL     OW19693   4.324   4.195   3.026  0.0509  0.0770  0.1511
 2744SOL    HW119694   4.324   4.283   2.989 -2.4617 -0.3407 -0.8759
 2744SOL    HW219695   4.318   4.146   2.944 -0.2600 -2.2646  1.5757
 2745SOL     OW19696   1.712   1.208  11.592  0.1634  0.5454  0.1773
 2745SOL    HW119697   1.711   1.286  11.536  1.4335  0.0351 -0.5392
 2745SOL    HW219698   1.789   1.231  11.645  0.7577  0.0282 -0.4709
 2746SOL     OW19699   2.367   3.510  17.617  0.0740 -0.1772 -0.2231
 2746SOL    HW119700   2.380   3.480  17.527 -0.0812 -0.0289 -0.2960
 2746SOL    HW219701   2.305   3.580  17.597 -1.7694 -1.3454  1.3679
 2747SOL     OW19702   3.818   2.635  10.011  0.0510 -0.9198  0.3477
 2747SOL    HW119703   3.742   2.599   9.965 -0.4864  0.8392 -0.1391
 2747SOL    HW219704   3.878   2.562  10.018  1.8636  0.8119  2.9880
 2748SOL     OW19705   0.128   0.360   5.226  0.2814  0.1789 -0.1489
 2748SOL    HW119706   0.182   0.419   5.277  0.2346 -1.4643  1.7874
 2748SOL    HW219707   0.193   0.294   5.203  0.2094 -0.2980  0.9984
 2749SOL     OW19708   3.964   0.006  11.874  0.2389  0.2430 -0.3168
 2749SOL    HW119709   3.900   0.034  11.809  1.1643 -1.0025 -1.7618
 2749SOL    HW219710   4.031   0.075  11.867 -0.1569  1.0336  3.5465
 2750SOL     OW19711   0.624   4.342   5.218  0.6437 -0.5591 -0.2530
 2750SOL    HW119712   0.581   4.329   5.302 -2.5243 -0.7352 -1.8801
 2750SOL    HW219713   0.712   4.375   5.238  0.7134 -0.5617 -0.5492
 2751SOL     OW19714   1.483   0.431   6.217 -0.2499 -0.0078 -0.2148
 2751SOL    HW119715   1.537   0.359   6.249 -0.3377 -0.8334 -1.8780
 2751SOL    HW219716   1.445   0.469   6.296 -1.2179  0.9176 -1.1219
 2752SOL     OW19717   2.506   0.728   3.411 -0.2446  0.8525 -0.4794
 2752SOL    HW119718   2.556   0.782   3.473 -0.8137  1.9783 -1.0069
 2752SOL    HW219719   2.546   0.756   3.329 -1.6794 -1.3282 -1.9070
 2753SOL     OW19720   2.540   3.338   8.413 -0.6601 -0.4198 -0.0246
 2753SOL    HW119721   2.595   3.290   8.352  1.1547  1.8700 -0.2067
 2753SOL    HW219722   2.507   3.403   8.351 -1.2457 -1.7927 -1.1486
 2754SOL     OW19723   1.166   4.237   8.738 -0.0482  0.0825 -0.3152
 2754SOL    HW119724   1.222   4.306   8.774  1.1637 -0.6942 -0.7341
 2754SOL    HW219725   1.125   4.210   8.821 -0.0646  1.9601  0.3003
 2755SOL     OW19726   4.692   0.756   6.066  0.5061  1.0404  0.0863
 2755SOL    HW119727   4.615   0.768   6.010  1.5241 -0.4133 -1.6306
 2755SOL    HW219728   0.006   0.845   6.071  0.5597  1.0273 -0.0504
 2756SOL     OW19729   4.179   3.946   8.732  0.0660 -0.1663  0.3112
 2756SOL    HW119730   4.253   3.976   8.679  1.4158  1.0649  2.8490
 2756SOL    HW219731   4.223   3.890   8.796 -1.3231 -0.9435  0.5800
 2757SOL     OW19732   0.803   4.260   2.650 -0.0626  0.0671  0.4574
 2757SOL    HW119733   0.723   4.312   2.655 -0.4182 -0.5084  0.6920
 2757SOL    HW219734   0.777   4.171   2.674 -2.9457  0.2877 -1.8551
 2758SOL     OW19735   3.770   0.781   5.904 -0.0008 -0.3644  0.5782
 2758SOL    HW119736   3.704   0.744   5.845  0.1121 -1.7360  1.3150
 2758SOL    HW219737   3.784   0.702   5.956 -0.4048  1.5799  3.6710
 2759SOL     OW19738   1.326   2.459  11.693 -0.4251  0.2769  0.0249
 2759SOL    HW119739   1.326   2.409  11.611  0.0095  0.3101  0.0007
 2759SOL    HW219740   1.325   2.543  11.648 -0.0713  1.4246  2.1995
 2760SOL     OW19741   0.025   2.173   9.373  0.4413  0.0857 -0.3414
 2760SOL    HW119742   4.700   2.196   9.294 -1.8983 -0.1611  0.9872
 2760SOL    HW219743   0.073   2.091   9.362  0.9981  0.5469 -1.2818
 2761SOL     OW19744   0.456   3.364   8.506  0.4598  0.3954  0.9128
 2761SOL    HW119745   0.550   3.383   8.508  0.9872 -2.3355  1.6543
 2761SOL    HW219746   0.411   3.430   8.560 -1.4183 -0.1298 -0.0083
 2762SOL     OW19747   2.015   2.388  15.042 -0.4310 -0.0938  0.0101
 2762SOL    HW119748   2.096   2.337  15.037 -0.2820  0.5185 -3.7697
 2762SOL    HW219749   2.017   2.405  15.136  0.7344 -0.7050  0.0943
 2763SOL     OW19750   0.701   4.456   3.402 -0.0268  0.2533  0.0979
 2763SOL    HW119751   0.635   4.418   3.460  0.3276 -2.5723 -1.3738
 2763SOL    HW219752   0.665   4.440   3.315  0.5303 -0.1889 -0.0502
 2764SOL     OW19753   1.207   1.538   8.864 -0.3081 -0.1883 -0.4903
 2764SOL    HW119754   1.224   1.611   8.805  0.8919  1.3238  1.7384
 2764SOL    HW219755   1.243   1.570   8.946  2.3262  2.8439 -2.7989
 2765SOL     OW19756   3.237   4.709   2.076  0.5419 -0.4467 -0.0904
 2765SOL    HW119757   3.260   0.080   2.065 -2.1051  0.0155 -1.7122
 2765SOL    HW219758   3.176   4.690   2.005  0.1789  1.5760 -0.3197
 2766SOL     OW19759   3.786   1.525   0.443 -0.5987 -0.1754  0.7435
 2766SOL    HW119760   3.866   1.513   0.494 -1.4761  0.9062  2.3683
 2766SOL    HW219761   3.786   1.620   0.436  0.8873 -0.1173  1.4188
 2767SOL     OW19762   3.924   4.648   2.889 -0.1106 -0.0789  0.5190
 2767SOL    HW119763   3.974   4.706   2.946 -0.8123  0.5118  0.5288
 2767SOL    HW219764   3.863   4.593   2.937 -0.1289 -2.1818 -1.8684
 2768SOL     OW19765   2.936   4.302  13.445 -0.0802 -0.4285  0.1940
 2768SOL    HW119766   2.850   4.342  13.431  0.8448  1.3340 -0.5154
 2768SOL    HW219767   2.976   4.319  13.359  1.0283  0.8871  0.9656
 2769SOL     OW19768   2.341   4.055   9.285  0.2943 -0.3707 -0.4801
 2769SOL    HW119769   2.380   4.126   9.235  0.3894  0.4102  0.7178
 2769SOL    HW219770   2.276   4.106   9.334  2.1114  3.2154 -1.8222
 2770SOL     OW19771   0.790   1.732  14.287  0.2457 -0.0300  0.8025
 2770SOL    HW119772   0.845   1.660  14.318 -0.5084 -0.7322  0.5054
 2770SOL    HW219773   0.774   1.721  14.194 -0.4577  0.3482  0.8786
 2771SOL     OW19774   3.844   0.292   3.942  0.2263 -0.1288  0.1796
 2771SOL    HW119775   3.859   0.346   3.865 -2.6055  2.6547  1.5948
 2771SOL    HW219776   3.814   0.210   3.902  1.3089 -1.0866  1.3007
 2772SOL     OW19777   4.117   4.317   4.790 -0.4829 -0.1939 -0.2320
 2772SOL    HW119778   4.205   4.354   4.784 -1.4944  2.4310  1.0576
 2772SOL    HW219779   4.071   4.359   4.717 -2.0838  0.2288  1.0225
 2773SOL     OW19780   0.592   3.906  15.060  0.4448  0.1183 -0.0463
 2773SOL    HW119781   0.505   3.887  15.095  0.3306  3.3965  1.4061
 2773SOL    HW219782   0.600   3.856  14.978  1.1656 -1.9556  1.2993
 2774SOL     OW19783   0.837   2.881   7.120  0.1394 -0.0407 -0.7535
 2774SOL    HW119784   0.876   2.942   7.183 -1.1654  0.7999 -0.7602
 2774SOL    HW219785   0.773   2.943   7.084 -0.1772 -0.7111 -1.3381
 2775SOL     OW19786   0.922   0.253  16.877 -0.1172  0.1627 -0.2851
 2775SOL    HW119787   0.897   0.229  16.788  2.1618  0.5656 -1.0414
 2775SOL    HW219788   1.012   0.285  16.865  2.6378 -5.8309  3.9434
 2776SOL     OW19789   1.683   0.943  11.732  0.9019 -0.5886 -0.4838
 2776SOL    HW119790   1.715   0.876  11.671 -0.3523  0.1258 -1.9223
 2776SOL    HW219791   1.680   1.021  11.676 -2.0171 -0.1161  0.3564
 2777SOL     OW19792   0.881   3.149  12.147 -0.4949 -0.0550 -0.3357
 2777SOL    HW119793   0.868   3.166  12.054 -2.4840  1.6902  0.2737
 2777SOL    HW219794   0.949   3.081  12.150  0.6051  0.9325 -3.1106
 2778SOL     OW19795   2.090   2.876   5.088  0.2791 -0.0039  0.0438
 2778SOL    HW119796   2.144   2.934   5.035 -1.4534  0.6823 -1.0008
 2778SOL    HW219797   2.079   2.932   5.164 -1.0339  0.5936 -0.5871
 2779SOL     OW19798   2.498   3.048   2.467  0.3214 -0.0545 -0.0525
 2779SOL    HW119799   2.491   2.970   2.411  0.6173  1.1348 -1.7303
 2779SOL    HW219800   2.551   3.025   2.543  1.6653  0.8481 -0.7327
 2780SOL     OW19801   2.528   2.632   3.908  0.0063  0.0863 -0.1245
 2780SOL    HW119802   2.608   2.610   3.860  1.0296  1.5906  0.8961
 2780SOL    HW219803   2.480   2.554   3.881 -0.5956  0.4993 -0.2375
 2781SOL     OW19804   2.180   0.787  10.407 -0.2625  0.0040 -0.5736
 2781SOL    HW119805   2.259   0.799  10.459 -0.8382  0.2960  0.2412
 2781SOL    HW219806   2.201   0.838  10.329  1.5203 -1.1482 -0.8375
 2782SOL     OW19807   4.555   2.278  11.572  0.2408  0.0519 -0.1309
 2782SOL    HW119808   4.566   2.245  11.483  0.2808 -4.1817  1.4437
 2782SOL    HW219809   4.589   2.202  11.620  2.0287  1.6645  1.1280
 2783SOL     OW19810   4.138   3.799  16.081 -0.1966 -0.0031  0.6539
 2783SOL    HW119811   4.209   3.863  16.086  0.0376 -0.3534  1.8145
 2783SOL    HW219812   4.139   3.781  15.987 -0.3903 -0.3760  0.7257
 2784SOL     OW19813   3.672   2.646   9.332  0.1467 -0.2195 -0.0898
 2784SOL    HW119814   3.741   2.647   9.265  0.4821 -0.1240  0.2585
 2784SOL    HW219815   3.594   2.671   9.283  0.2735 -0.9834 -0.6840
 2785SOL     OW19816   0.869   4.183   5.431 -0.1270  0.2082 -0.2908
 2785SOL    HW119817   0.819   4.103   5.416  0.0491  0.0396  0.0229
 2785SOL    HW219818   0.923   4.154   5.504 -2.3722 -0.6386  1.0567
 2786SOL     OW19819   2.307   2.987   7.705  0.1748  0.3758  0.5960
 2786SOL    HW119820   2.304   2.923   7.634  0.2902 -0.5179  1.3991
 2786SOL    HW219821   2.373   2.950   7.763  1.3721  0.3442 -0.8033
 2787SOL     OW19822   2.745   4.613   5.928 -0.3742  0.0402  0.7489
 2787SOL    HW119823   2.826   4.616   5.979 -0.4840  0.0697  0.9228
 2787SOL    HW219824   2.761   4.553   5.855 -0.6252  1.2457 -0.2908
 2788SOL     OW19825   1.581   3.712   8.841  0.1199  0.0475 -0.7864
 2788SOL    HW119826   1.634   3.778   8.797  0.8030  0.5342  0.7539
 2788SOL    HW219827   1.504   3.707   8.785  0.4776 -1.0843 -1.1886
 2789SOL     OW19828   0.343   4.171   8.033  0.0071 -0.0734  0.5291
 2789SOL    HW119829   0.278   4.219   8.084 -0.1523  0.4676 -0.1799
 2789SOL    HW219830   0.384   4.243   7.985 -1.1836 -1.5188 -2.7283
 2790SOL     OW19831   4.666   1.345   4.128  0.2649  0.0894  0.4272
 2790SOL    HW119832   4.643   1.305   4.044  0.9803 -0.3513  0.4405
 2790SOL    HW219833   4.604   1.295   4.182  0.9145 -3.1245 -1.7528
 2791SOL     OW19834   4.592   4.288  13.942  0.4097 -0.3682 -0.3761
 2791SOL    HW119835   4.654   4.350  13.980  0.3993  0.2894 -1.4342
 2791SOL    HW219836   4.590   4.310  13.849 -3.3179  0.8137 -0.0240
 2792SOL     OW19837   3.948   4.462   2.271  0.0802  0.0281 -0.2987
 2792SOL    HW119838   4.007   4.511   2.214 -1.0020 -0.9961 -2.2830
 2792SOL    HW219839   3.859   4.485   2.244 -0.1344 -1.2472 -0.6769
 2793SOL     OW19840   0.061   1.308   1.652  0.3248 -0.2766  0.1997
 2793SOL    HW119841   0.108   1.322   1.570  0.4130  0.7933  0.4356
 2793SOL    HW219842   0.062   1.212   1.659  0.2050 -0.1386  1.9594
 2794SOL     OW19843   1.383   0.492  16.666 -0.4959 -0.2613 -0.9150
 2794SOL    HW119844   1.303   0.514  16.618  0.4834  0.8581 -2.0489
 2794SOL    HW219845   1.430   0.459  16.589  0.2466  1.7331 -1.3312
 2795SOL     OW19846   4.424   3.228   5.511 -0.6945 -0.3746  0.0813
 2795SOL    HW119847   4.394   3.309   5.552 -1.4915 -1.3587  1.4656
 2795SOL    HW219848   4.506   3.256   5.471 -0.0467 -0.2128  1.5219
 2796SOL     OW19849   4.538   0.890  16.841 -0.0485  0.2425  0.5074
 2796SOL    HW119850   4.497   0.811  16.877 -0.6563 -0.3714 -1.5658
 2796SOL    HW219851   4.587   0.861  16.764 -2.2533 -0.8438 -0.4755
 2797SOL     OW19852   0.418   0.400   5.346  0.1360  0.1219 -0.1542
 2797SOL    HW119853   0.420   0.379   5.252  2.6469 -1.6656  0.2948
 2797SOL    HW219854   0.499   0.449   5.363  0.8932 -0.8715 -0.8427
 2798SOL     OW19855   2.252   3.280  12.870  0.2594 -0.3590 -0.1445
 2798SOL    HW119856   2.286   3.290  12.781 -0.9897  0.8692 -0.4826
 2798SOL    HW219857   2.162   3.254  12.852  0.0614  0.5305 -0.4074
 2799SOL     OW19858   3.675   2.389   4.483  0.1561  0.3232  0.4768
 2799SOL    HW119859   3.584   2.400   4.456 -0.3913 -0.1428  2.1357
 2799SOL    HW219860   3.678   2.297   4.509  0.1965 -0.0723 -0.9446
 2800SOL     OW19861   0.640   0.100   6.400 -0.0245 -0.2016  0.6070
 2800SOL    HW119862   0.584   0.078   6.474  0.4625 -0.8435  0.7778
 2800SOL    HW219863   0.703   0.162   6.437  0.3933 -1.4523  1.9843
 2801SOL     OW19864   2.983   4.668   3.551 -0.3691 -0.6810 -0.1974
 2801SOL    HW119865   2.936   4.659   3.468 -1.0327  0.0323  0.0958
 2801SOL    HW219866   3.027   4.584   3.538 -0.3590 -0.6339 -0.4819
 2802SOL     OW19867   0.927   2.177   1.846 -0.4341 -0.0621 -0.4459
 2802SOL    HW119868   0.929   2.231   1.926  1.3797 -0.9883  0.1501
 2802SOL    HW219869   0.914   2.093   1.890 -0.4107  0.1198 -0.0917
 2803SOL     OW19870   2.260   3.848   8.827 -0.1535 -0.0128  0.4482
 2803SOL    HW119871   2.312   3.921   8.859 -1.6965  1.6905 -0.9499
 2803SOL    HW219872   2.297   3.775   8.877  0.1505  0.4670  0.9148
 2804SOL     OW19873   0.299   1.812   0.117  0.5348  0.7832  0.6333
 2804SOL    HW119874   0.333   1.728   0.147  0.4788  0.2779 -0.7310
 2804SOL    HW219875   0.373   1.870   0.136  1.6683 -0.2593 -0.6254
 2805SOL     OW19876   3.420   3.739   5.583  0.1855 -0.4773  0.3203
 2805SOL    HW119877   3.391   3.827   5.561  1.2663 -0.9100 -2.8557
 2805SOL    HW219878   3.446   3.748   5.675 -0.5661  0.1227  0.4755
 2806SOL     OW19879   3.032   2.525   6.627  0.4194 -0.1581 -0.1800
 2806SOL    HW119880   3.012   2.444   6.580  0.5260 -0.5745  0.4964
 2806SOL    HW219881   2.972   2.585   6.582  0.3895  0.2887  0.4675
 2807SOL     OW19882   1.369   3.147   5.372  0.2970 -0.3078 -0.3936
 2807SOL    HW119883   1.350   3.188   5.456 -0.2243 -1.7066  0.1663
 2807SOL    HW219884   1.294   3.182   5.324  0.6013 -0.7785 -1.2096
 2808SOL     OW19885   3.887   3.435   8.224  0.2037  0.4370 -0.3924
 2808SOL    HW119886   3.843   3.465   8.303 -0.8890 -2.5480  0.1308
 2808SOL    HW219887   3.818   3.427   8.158 -1.0502  2.3772  0.7023
 2809SOL     OW19888   0.112   0.391  11.199  0.0286 -0.0350 -0.3598
 2809SOL    HW119889   0.098   0.297  11.206 -0.1580 -0.0808 -1.3061
 2809SOL    HW219890   0.024   0.424  11.220 -0.4694 -1.6504  0.0845
 2810SOL     OW19891   0.355   1.277  17.292  0.2179  0.8233  0.3839
 2810SOL    HW119892   0.324   1.203  17.344 -2.7603  1.8304 -0.0009
 2810SOL    HW219893   0.312   1.349  17.337  1.2003  1.0179  1.0182
 2811SOL     OW19894   3.879   2.189   7.537 -0.1403 -0.6301  0.1244
 2811SOL    HW119895   3.970   2.171   7.560  0.8743  0.8920 -2.7460
 2811SOL    HW219896   3.898   2.255   7.471  0.6457 -1.6067 -0.6346
 2812SOL     OW19897   4.214   0.177   7.847 -0.2487 -0.2979  0.2773
 2812SOL    HW119898   4.223   0.188   7.941  1.6360  1.7473 -0.1467
 2812SOL    HW219899   4.282   0.114   7.821  0.7619  0.0526  2.1329
 2813SOL     OW19900   3.188   0.271  14.240 -0.0645  0.0671 -0.8865
 2813SOL    HW119901   3.251   0.289  14.310 -2.0176  1.7694  0.4200
 2813SOL    HW219902   3.217   0.182  14.220 -1.7062 -1.0159  1.4785
 2814SOL     OW19903   1.063   1.747  11.592  0.0762  0.4147  0.7959
 2814SOL    HW119904   1.124   1.691  11.544  0.0182  0.4497  0.6827
 2814SOL    HW219905   1.003   1.791  11.533 -1.5071  0.0510  2.1351
 2815SOL     OW19906   0.688   3.543   0.915  0.3615  0.0349 -0.3911
 2815SOL    HW119907   0.651   3.608   0.975 -1.1522  0.2605 -1.5560
 2815SOL    HW219908   0.735   3.485   0.974 -0.6076  0.5136  0.8602
 2816SOL     OW19909   1.039   1.206   6.343  0.2764 -0.5550 -0.1633
 2816SOL    HW119910   1.016   1.220   6.251 -0.3463  1.3372  0.2831
 2816SOL    HW219911   0.986   1.128   6.360  0.1754 -0.2808  0.8025
 2817SOL     OW19912   2.057   0.009   3.211 -0.3659  0.3903  0.3652
 2817SOL    HW119913   2.140   0.009   3.163  0.5217  1.5668  1.9229
 2817SOL    HW219914   2.049   0.098   3.246  1.8671  0.6676  0.1663
 2818SOL     OW19915   4.107   4.005  10.753 -0.5341  0.0688  0.3551
 2818SOL    HW119916   4.134   4.070  10.688 -2.3325  0.0625 -0.3992
 2818SOL    HW219917   4.185   4.014  10.808  0.0644 -2.0826 -0.1227
 2819SOL     OW19918   1.917   0.425   7.755 -0.2435 -0.0944  0.4248
 2819SOL    HW119919   1.862   0.383   7.821 -0.5415  0.4485  0.5198
 2819SOL    HW219920   1.868   0.389   7.681  2.3209 -2.8464  0.0505
 2820SOL     OW19921   1.871   1.244   2.924 -0.2214 -0.2523 -0.4678
 2820SOL    HW119922   1.966   1.257   2.915 -0.1603  0.3525  1.1810
 2820SOL    HW219923   1.862   1.325   2.874  0.2163  0.4598  0.6224
 2821SOL     OW19924   3.025   1.563   6.968 -0.1149  0.5460 -0.1207
 2821SOL    HW119925   3.100   1.505   6.953 -1.4800 -1.4925  1.0896
 2821SOL    HW219926   3.028   1.591   6.876 -1.0071  2.1459  0.3439
 2822SOL     OW19927   1.529   4.287   2.660 -0.1475  0.3903 -0.1139
 2822SOL    HW119928   1.602   4.226   2.671 -2.6469 -2.2236  1.9932
 2822SOL    HW219929   1.458   4.225   2.643 -0.9280  1.4460 -0.6936
 2823SOL     OW19930   2.834   4.213  15.668  0.4169  0.3585  0.4701
 2823SOL    HW119931   2.842   4.289  15.726  2.8184  0.2332  0.3166
 2823SOL    HW219932   2.919   4.174  15.687 -0.8210 -1.2337  2.8242
 2824SOL     OW19933   2.839   0.869   3.377  0.6591  0.1802 -0.2973
 2824SOL    HW119934   2.779   0.844   3.447  0.4955 -1.5023 -1.0513
 2824SOL    HW219935   2.889   0.788   3.378  0.9175  0.3193 -1.5411
 2825SOL     OW19936   0.114   1.687   2.138 -0.3786 -0.2330  0.0492
 2825SOL    HW119937   0.049   1.660   2.073 -1.6041  3.2280 -0.1458
 2825SOL    HW219938   0.154   1.762   2.094 -0.3718  0.2704  0.9020
 2826SOL     OW19939   4.152   4.625   2.158 -0.4521  0.1464  0.0160
 2826SOL    HW119940   4.160   4.610   2.064  1.2274 -0.5208  0.2636
 2826SOL    HW219941   4.209   4.697   2.187  0.4826  0.4449 -2.5583
 2827SOL     OW19942   2.479   2.627   5.462  0.0602  0.2356 -0.0910
 2827SOL    HW119943   2.427   2.705   5.444 -0.0780  0.5858  1.8650
 2827SOL    HW219944   2.552   2.667   5.510 -0.5894  1.7004 -0.3283
 2828SOL     OW19945   2.730   0.544   4.420 -0.9595  0.3041  0.2893
 2828SOL    HW119946   2.730   0.632   4.384 -0.5049  0.1880 -0.0018
 2828SOL    HW219947   2.736   0.561   4.514  1.5102 -0.1500  0.2121
 2829SOL     OW19948   0.678   3.992   6.106 -0.4932 -0.1185  0.8172
 2829SOL    HW119949   0.706   4.066   6.160 -0.2927  0.7528 -0.4798
 2829SOL    HW219950   0.717   3.920   6.155  0.9185 -0.7076 -1.1636
 2830SOL     OW19951   3.346   4.065   5.883  0.0515 -0.1095 -0.3216
 2830SOL    HW119952   3.348   4.153   5.921 -2.5735 -1.1089  2.0810
 2830SOL    HW219953   3.253   4.044   5.880 -0.0494  0.4582 -1.1971
 2831SOL     OW19954   0.783   3.575  17.623 -0.5227 -0.1590 -0.5059
 2831SOL    HW119955   0.838   3.625  17.684 -1.5838  1.0804 -0.5730
 2831SOL    HW219956   0.698   3.579  17.666 -0.2287  2.1701 -0.1351
 2832SOL     OW19957   3.945   2.423   3.016 -0.1521  0.6910  0.2935
 2832SOL    HW119958   3.993   2.395   3.094  1.5143  3.7069  0.3325
 2832SOL    HW219959   3.941   2.347   2.958  0.5049  0.3955  0.6323
 2833SOL     OW19960   3.098   1.187   7.593  0.2846 -0.5469 -0.1853
 2833SOL    HW119961   3.158   1.145   7.656 -2.3412 -1.0962  1.9560
 2833SOL    HW219962   3.151   1.180   7.514 -0.4674 -0.0464 -0.7317
 2834SOL     OW19963   4.358   2.772   8.296 -0.0359 -0.2129  0.4580
 2834SOL    HW119964   4.364   2.715   8.220  0.6737  0.5827 -0.0892
 2834SOL    HW219965   4.312   2.848   8.261  0.8151 -0.0490 -0.3342
 2835SOL     OW19966   0.295   3.038   2.444  0.2773  0.0532 -0.1296
 2835SOL    HW119967   0.360   3.093   2.399  0.9757  0.1886  1.0525
 2835SOL    HW219968   0.230   3.100   2.475 -1.5375 -2.3445  0.8060
 2836SOL     OW19969   0.260   4.497  16.353 -0.9276  0.4190 -0.4691
 2836SOL    HW119970   0.264   4.571  16.293  1.9656  0.4441 -0.2781
 2836SOL    HW219971   0.182   4.521  16.403 -0.2348  1.2775  0.1910
 2837SOL     OW19972   1.448   2.133   8.646 -1.0897  0.8631  0.1527
 2837SOL    HW119973   1.451   2.215   8.695  0.2154  1.3154 -0.6921
 2837SOL    HW219974   1.366   2.097   8.681 -0.5003 -1.1367 -0.5181
 2838SOL     OW19975   3.954   0.844  12.379 -0.2724  0.1209 -0.6592
 2838SOL    HW119976   3.864   0.823  12.354 -0.6189  0.5699  0.2011
 2838SOL    HW219977   3.963   0.939  12.366 -0.5318  0.4000  1.1509
 2839SOL     OW19978   4.129   2.491   6.042  0.2449 -0.3334 -0.0809
 2839SOL    HW119979   4.168   2.413   6.002 -0.7993  0.9847 -3.6643
 2839SOL    HW219980   4.157   2.563   5.986  2.8766  0.0498  1.7256
 2840SOL     OW19981   0.478   2.000   1.259 -0.0865  0.2751  0.0156
 2840SOL    HW119982   0.512   2.072   1.312 -0.6808  0.2669  0.4047
 2840SOL    HW219983   0.417   2.051   1.206  2.5045  2.0598 -1.2011
 2841SOL     OW19984   3.106   1.016   2.776  0.5375 -0.2041 -0.5328
 2841SOL    HW119985   3.141   0.929   2.795 -0.4580 -0.5564 -0.3458
 2841SOL    HW219986   3.026   0.990   2.730 -0.8056  1.5261  0.8337
 2842SOL     OW19987   4.627   4.160   7.160 -0.6548  0.2498 -0.0147
 2842SOL    HW119988   4.676   4.126   7.084 -3.8382 -0.1194 -1.9075
 2842SOL    HW219989   4.561   4.208   7.110 -2.6704 -0.9453  1.5320
 2843SOL     OW19990   1.202   4.159   4.067 -0.1324  0.6230 -0.5172
 2843SOL    HW119991   1.290   4.197   4.076  0.5215 -1.2454  1.1033
 2843SOL    HW219992   1.191   4.113   4.151 -3.1173  2.0238 -0.1525
 2844SOL     OW19993   2.129   2.519   5.608 -0.0940  0.2050 -0.4633
 2844SOL    HW119994   2.189   2.476   5.548  0.0485 -1.2180  0.6806
 2844SOL    HW219995   2.104   2.446   5.665 -0.1514  1.7091  1.4607
 2845SOL     OW19996   2.051   1.403   1.013  0.7872 -0.3534  0.2715
 2845SOL    HW119997   1.965   1.427   0.980 -0.5771 -2.6597  2.1220
 2845SOL    HW219998   2.036   1.401   1.107  0.8159 -1.8832  0.2352
 2846SOL     OW19999   4.521   2.443   8.821 -0.1173  0.0373 -0.1081
 2846SOL    HW120000   4.516   2.434   8.726 -0.5914  0.4929 -0.1276
 2846SOL    HW220001   4.559   2.356   8.837  1.9649  0.7273 -1.2761
 2847SOL     OW20002   4.360   1.607   5.062 -0.0241  0.5416  0.3235
 2847SOL    HW120003   4.414   1.589   5.139  1.0576  0.0147 -0.5531
 2847SOL    HW220004   4.430   1.618   4.997  0.8663  1.5608  1.4504
 2848SOL     OW20005   0.307   2.531   8.825  0.2498  0.0567 -0.0610
 2848SOL    HW120006   0.347   2.536   8.912 -0.9251  4.1131  0.2160
 2848SOL    HW220007   0.254   2.611   8.825 -0.9881 -0.7700 -0.3493
 2849SOL     OW20008   2.640   4.259   3.326 -0.0397  0.2298  0.5871
 2849SOL    HW120009   2.567   4.242   3.386 -0.8210 -2.9368 -1.2863
 2849SOL    HW220010   2.604   4.264   3.238  1.6542  1.2455 -0.0535
 2850SOL     OW20011   1.718   1.721   8.534  0.5648 -0.5427  0.4080
 2850SOL    HW120012   1.796   1.692   8.486  1.0185  0.9050  0.2896
 2850SOL    HW220013   1.715   1.815   8.521  1.4653 -0.4859  0.6188
 2851SOL     OW20014   1.920   1.508   8.631  1.3712 -0.0523 -0.0170
 2851SOL    HW120015   1.958   1.561   8.561  0.1082  1.4805  0.4729
 2851SOL    HW220016   1.829   1.537   8.627  1.1984 -0.1976  2.5396
 2852SOL     OW20017   1.327   2.867   2.845  0.0553 -0.1712 -0.2872
 2852SOL    HW120018   1.421   2.882   2.832 -0.2995 -0.5591 -3.3277
 2852SOL    HW220019   1.326   2.838   2.936  0.0637  0.2040 -0.1669
 2853SOL     OW20020   3.219   1.794   6.556 -0.7949 -0.0467  0.3497
 2853SOL    HW120021   3.243   1.882   6.584 -0.6778  0.0908 -0.1802
 2853SOL    HW220022   3.310   1.769   6.540  0.2686  2.9232  1.7453
 2854SOL     OW20023   1.175   2.459   4.506  0.2287  0.3286  0.3177
 2854SOL    HW120024   1.177   2.372   4.547 -0.2729  0.8508  1.4435
 2854SOL    HW220025   1.207   2.444   4.417 -1.8748  0.2065 -0.4283
 2855SOL     OW20026   2.374   1.531   2.971 -0.1128  0.4557 -0.3619
 2855SOL    HW120027   2.395   1.551   2.880  0.5190  1.7217  0.0470
 2855SOL    HW220028   2.292   1.578   2.988 -0.9232 -2.3767  3.5744
 2856SOL     OW20029   0.042   1.744   6.663 -0.0177 -0.0248  0.2050
 2856SOL    HW120030   0.085   1.827   6.683 -1.5645  0.7592  0.3006
 2856SOL    HW220031   0.090   1.689   6.725 -0.0407  0.2423  0.4575
 2857SOL     OW20032   3.003   3.420   8.927  0.5321 -0.2544  0.5278
 2857SOL    HW120033   3.042   3.336   8.952 -0.1131 -1.1662 -1.5135
 2857SOL    HW220034   3.072   3.461   8.875 -0.8091  1.8179  0.4249
 2858SOL     OW20035   0.055   0.452   5.870  0.1349 -0.3936  0.1779
 2858SOL    HW120036   0.071   0.438   5.963  0.8110  1.5743  0.3537
 2858SOL    HW220037   4.689   0.489   5.863  0.2756  0.1278  1.1895
 2859SOL     OW20038   2.917   2.852   9.694 -0.3334 -0.1261  0.0457
 2859SOL    HW120039   2.926   2.860   9.789 -2.1617  0.9395  0.1265
 2859SOL    HW220040   2.974   2.775   9.698 -0.1558 -0.1007 -1.9852
 2860SOL     OW20041   1.664   4.696   4.562  0.3933  0.1360  0.8599
 2860SOL    HW120042   1.637   4.605   4.575 -3.1218  1.3046  1.6892
 2860SOL    HW220043   1.617   0.014   4.635  1.4341  2.1980  0.3954
 2861SOL     OW20044   3.131   3.968   2.262  0.7118 -0.1877 -0.0451
 2861SOL    HW120045   3.169   4.054   2.281 -0.6799  0.4109  0.0328
 2861SOL    HW220046   3.042   4.001   2.248  1.7757  1.5908 -2.4972
 2862SOL     OW20047   0.455   3.484  14.617 -0.4566  0.3434 -0.4124
 2862SOL    HW120048   0.399   3.452  14.688  0.8477 -1.4701 -0.2143
 2862SOL    HW220049   0.487   3.404  14.577 -1.9185  0.9381 -2.8056
 2863SOL     OW20050   1.239   4.028   6.301  0.3095 -0.2856  0.5262
 2863SOL    HW120051   1.261   3.937   6.322  0.7631  0.1981  2.1734
 2863SOL    HW220052   1.189   4.014   6.221 -0.2654  1.5281  0.5839
 2864SOL     OW20053   3.983   3.837  10.516 -0.0793  0.0798 -0.9786
 2864SOL    HW120054   3.937   3.903  10.464 -0.2622  3.1236  2.9817
 2864SOL    HW220055   3.938   3.838  10.601  1.1383  0.0905 -0.3273
 2865SOL     OW20056   4.601   2.776   2.681  0.4236  0.2886 -0.3480
 2865SOL    HW120057   4.624   2.779   2.588  1.2513  0.3159 -0.1427
 2865SOL    HW220058   4.689   2.768   2.717 -0.6032  2.5973  2.6027
 2866SOL     OW20059   2.120   2.159   4.210  0.3374 -0.5828  0.3922
 2866SOL    HW120060   2.089   2.076   4.174 -1.3358 -0.3623  1.3392
 2866SOL    HW220061   2.135   2.209   4.130  0.5922 -1.1123  0.1090
 2867SOL     OW20062   2.271   3.340  10.715  0.4318  0.7367 -0.4704
 2867SOL    HW120063   2.234   3.324  10.628  0.4680 -0.3485 -0.2905
 2867SOL    HW220064   2.200   3.306  10.769  0.2522  0.9029 -0.6020
 2868SOL     OW20065   0.272   3.162   7.227 -0.2163  0.1982  0.6521
 2868SOL    HW120066   0.216   3.087   7.248  1.1601 -0.4497  2.0868
 2868SOL    HW220067   0.250   3.224   7.297  0.8709 -1.7796  2.7602
 2869SOL     OW20068   4.179   3.789   5.120  0.0554  0.1015 -0.0590
 2869SOL    HW120069   4.194   3.874   5.160 -0.8742 -0.0329  0.5781
 2869SOL    HW220070   4.091   3.799   5.085  0.0060  1.5203  0.4899
 2870SOL     OW20071   3.392   4.093   7.907 -0.0294  0.0777  0.1213
 2870SOL    HW120072   3.421   4.178   7.941  1.3466 -1.1528  1.9954
 2870SOL    HW220073   3.361   4.038   7.979  2.0368  0.5234  1.3608
 2871SOL     OW20074   0.688   0.172  10.840 -0.4364  0.7970  0.2395
 2871SOL    HW120075   0.655   0.114  10.771 -1.4376  0.8584  0.6639
 2871SOL    HW220076   0.616   0.234  10.854 -0.1983  1.1000  0.1006
 2872SOL     OW20077   4.479   3.597   3.676  0.8547  0.1548 -0.4457
 2872SOL    HW120078   4.415   3.669   3.670  1.4512  0.7728  0.5343
 2872SOL    HW220079   4.415   3.539   3.717  0.0089  0.0585 -1.8918
 2873SOL     OW20080   1.483   2.002  15.120 -1.2380 -0.4760  0.1823
 2873SOL    HW120081   1.551   2.026  15.184  0.5197 -1.3266 -1.3635
 2873SOL    HW220082   1.411   2.009  15.182 -0.4001 -0.7028  1.1854
 2874SOL     OW20083   2.851   2.449  15.297  0.2167  0.0832  0.1606
 2874SOL    HW120084   2.888   2.536  15.280 -0.4582  0.5344  0.9637
 2874SOL    HW220085   2.758   2.462  15.276  0.2796  0.3233  0.0174
 2875SOL     OW20086   1.077   0.185   5.169 -0.5288 -0.2459 -0.4039
 2875SOL    HW120087   1.045   0.274   5.183  1.4623  0.6784 -1.5411
 2875SOL    HW220088   1.001   0.149   5.123  0.2377  0.0263 -1.9166
 2876SOL     OW20089   1.882   4.451   5.852  0.4009  0.5433  0.1772
 2876SOL    HW120090   1.804   4.448   5.907 -0.8077  0.6531 -1.5135
 2876SOL    HW220091   1.942   4.492   5.915  2.5284 -0.9964 -0.8748
 2877SOL     OW20092   3.111   3.385  12.291 -0.0293  0.0515  0.0369
 2877SOL    HW120093   3.148   3.433  12.216  1.7375 -0.0268  0.8712
 2877SOL    HW220094   3.034   3.441  12.292  1.0520  1.4943  0.9908
 2878SOL     OW20095   0.404   2.675   1.152 -0.5735 -0.2829  0.2912
 2878SOL    HW120096   0.337   2.620   1.192 -1.7852  0.0787 -1.2418
 2878SOL    HW220097   0.351   2.742   1.109 -1.5407 -1.3791 -0.2122
 2879SOL     OW20098   2.678   1.112  16.003  0.3043  0.6298  0.0166
 2879SOL    HW120099   2.610   1.054  16.036 -0.5339  0.8742 -1.3299
 2879SOL    HW220100   2.760   1.067  16.026  0.4151  1.5939  1.5515
 2880SOL     OW20101   4.264   4.490   2.601 -0.0319  0.2204  0.4141
 2880SOL    HW120102   4.214   4.571   2.595  1.7192  1.2045 -0.7778
 2880SOL    HW220103   4.214   4.466   2.679  1.6452  1.6979  1.9382
 2881SOL     OW20104   3.193   1.906   2.671 -0.3049  0.2047 -0.2344
 2881SOL    HW120105   3.138   1.949   2.737 -1.0883 -1.5062  0.2390
 2881SOL    HW220106   3.152   1.821   2.658 -1.0660  0.2282  1.9455
 2882SOL     OW20107   0.601   0.899   0.033 -0.5736  0.1664 -0.5704
 2882SOL    HW120108   0.686   0.941   0.043 -0.1770 -1.1975  1.5956
 2882SOL    HW220109   0.557   0.970  17.677  1.3653  2.1119  0.5813
 2883SOL     OW20110   2.347   4.104   8.023  0.4058  0.2837 -0.6700
 2883SOL    HW120111   2.430   4.103   8.070  0.0600  0.8415 -0.0373
 2883SOL    HW220112   2.288   4.057   8.081 -1.5445  1.1344 -1.9533
 2884SOL     OW20113   4.087   2.744  14.480 -0.0315 -0.2930 -0.0130
 2884SOL    HW120114   4.049   2.826  14.511  0.9137 -0.2653  1.0559
 2884SOL    HW220115   4.181   2.761  14.482 -0.3724  1.5994  0.1480
 2885SOL     OW20116   2.270   0.573  13.254 -0.2446 -0.3629  0.2501
 2885SOL    HW120117   2.344   0.598  13.198  0.4309  0.0078  1.3186
 2885SOL    HW220118   2.236   0.657  13.285 -1.7481 -0.3670 -1.3701
 2886SOL     OW20119   0.334   4.341   5.630 -0.3785 -0.6040  0.0909
 2886SOL    HW120120   0.264   4.277   5.643  0.0251 -0.7160  1.7579
 2886SOL    HW220121   0.293   4.426   5.614 -0.2306 -0.5716 -0.1154
 2887SOL     OW20122   4.520   4.584   8.098  0.7359  0.0746  0.2494
 2887SOL    HW120123   4.524   4.679   8.103  2.1439 -0.0556  1.8847
 2887SOL    HW220124   4.597   4.555   8.049 -0.4258 -0.3155 -1.3416
 2888SOL     OW20125   0.046   0.973   7.440 -0.8855 -0.6635 -0.9090
 2888SOL    HW120126   0.122   0.996   7.387 -1.6953 -0.1441 -1.8564
 2888SOL    HW220127   0.045   0.878   7.437  2.3525 -0.7444  0.7735
 2889SOL     OW20128   4.177   1.951   7.199 -0.4597  0.2932  0.1954
 2889SOL    HW120129   4.142   2.030   7.158  0.4719  0.2863 -0.6351
 2889SOL    HW220130   4.097   1.912   7.233 -0.7648  1.3493  0.6891
 2890SOL     OW20131   3.497   3.381   0.929 -0.0311 -0.3591 -0.8270
 2890SOL    HW120132   3.474   3.453   0.988 -2.2042 -0.0531 -2.0820
 2890SOL    HW220133   3.516   3.316   0.997  0.3333  0.7398  0.1423
 2891SOL     OW20134   0.799   1.855   5.538 -0.0383 -0.0855  0.2006
 2891SOL    HW120135   0.722   1.892   5.496  1.0924  0.4798 -1.3843
 2891SOL    HW220136   0.833   1.802   5.465 -1.3223  2.2069 -2.0584
 2892SOL     OW20137   4.227   4.636  15.411  0.1992  0.1930 -0.8976
 2892SOL    HW120138   4.182   4.592  15.339 -0.4379  1.1190 -1.0518
 2892SOL    HW220139   4.259   4.715  15.367  0.1654  1.1661  0.8221
 2893SOL     OW20140   3.949   1.316   6.066  0.3190 -0.1740  0.6145
 2893SOL    HW120141   4.019   1.379   6.086  1.3887 -0.9133 -0.8527
 2893SOL    HW220142   3.971   1.301   5.975  0.2486 -1.4581  0.8134
 2894SOL     OW20143   1.735   2.368   4.819  0.0527  0.0592 -0.3519
 2894SOL    HW120144   1.807   2.310   4.844  0.6009  0.8662 -0.0609
 2894SOL    HW220145   1.679   2.305   4.774  1.4776 -0.5781 -1.2306
 2895SOL     OW20146   0.808   0.655   5.967  0.2602  0.2098 -0.0997
 2895SOL    HW120147   0.754   0.731   5.985  0.5377  0.5580 -0.7131
 2895SOL    HW220148   0.743   0.601   5.924 -1.3054  0.0435  2.5080
 2896SOL     OW20149   3.918   0.573  16.090 -0.8587 -0.1226  0.0108
 2896SOL    HW120150   4.004   0.591  16.127 -2.0473  3.3701  1.0919
 2896SOL    HW220151   3.867   0.647  16.123 -1.4249  0.3089 -1.8365
 2897SOL     OW20152   3.030   4.610   0.850 -0.2152 -0.6869 -0.6503
 2897SOL    HW120153   3.065   4.595   0.938  1.0590 -2.2087 -1.4243
 2897SOL    HW220154   3.042   4.527   0.805  0.1473  0.9629 -3.6026
 2898SOL     OW20155   3.435   1.061   1.641  0.1920 -0.0950 -0.1237
 2898SOL    HW120156   3.518   1.105   1.658  0.1439  0.0883 -0.3537
 2898SOL    HW220157   3.474   1.005   1.574  1.0539  0.3640 -0.0048
 2899SOL     OW20158   0.149   3.106   0.472  0.4961 -0.3386 -0.9078
 2899SOL    HW120159   0.198   3.031   0.507  1.9843  0.8909 -0.3500
 2899SOL    HW220160   0.185   3.176   0.527 -0.5840 -1.4345  1.2286
 2900SOL     OW20161   3.987   0.214   9.834 -0.3287 -0.4671 -0.1991
 2900SOL    HW120162   4.043   0.266   9.891 -1.0850 -1.6278  1.5876
 2900SOL    HW220163   3.951   0.153   9.898 -0.0009 -0.4707 -0.0223
 2901SOL     OW20164   4.303   2.272   0.454 -0.6892  0.1051 -0.2827
 2901SOL    HW120165   4.241   2.341   0.476 -0.5949 -0.0456  0.4705
 2901SOL    HW220166   4.351   2.270   0.538 -1.0547  1.0370 -0.0424
 2902SOL     OW20167   4.597   2.504   8.302 -0.0395 -0.5154  0.0765
 2902SOL    HW120168   4.546   2.579   8.332  0.7258  0.0642 -0.0639
 2902SOL    HW220169   4.569   2.498   8.211  0.4952 -1.0389 -0.0553
 2903SOL     OW20170   2.576   3.271   6.801 -0.1797 -0.5319 -0.0862
 2903SOL    HW120171   2.529   3.198   6.842  0.9206 -1.5112 -0.5675
 2903SOL    HW220172   2.629   3.305   6.873  0.1206 -1.6219  0.2141
 2904SOL     OW20173   4.457   4.313  13.448 -0.5560  0.3070  0.2829
 2904SOL    HW120174   4.449   4.231  13.399 -2.3232  0.4207  0.3910
 2904SOL    HW220175   4.448   4.280  13.537 -1.6178  1.9423  0.7793
 2905SOL     OW20176   1.660   1.072   2.872  0.1393  0.2077  0.0200
 2905SOL    HW120177   1.732   1.136   2.868 -0.1974  0.3607 -4.0122
 2905SOL    HW220178   1.606   1.101   2.945 -0.0044 -0.9955  0.3781
 2906SOL     OW20179   1.908   2.975   6.739 -0.7453  0.2387  0.1235
 2906SOL    HW120180   1.935   2.888   6.770 -1.3466  0.0176  0.0137
 2906SOL    HW220181   1.843   3.000   6.804  0.5520 -0.2875  1.6458
 2907SOL     OW20182   2.562   2.923   9.947 -0.0534  0.4477 -0.8757
 2907SOL    HW120183   2.470   2.932   9.968  0.7196 -1.9566  3.4945
 2907SOL    HW220184   2.573   2.881   9.861  0.4971 -0.8415 -0.1727
 2908SOL     OW20185   1.668   1.872   6.168 -0.0833 -0.5782 -0.3269
 2908SOL    HW120186   1.614   1.796   6.189  2.2276 -2.0882  0.1756
 2908SOL    HW220187   1.604   1.941   6.184  0.1219 -0.9952  2.1892
 2909SOL     OW20188   2.033   2.989   5.562 -0.3330 -0.2681 -0.4532
 2909SOL    HW120189   2.071   2.917   5.612  0.4698 -0.0899 -0.8006
 2909SOL    HW220190   1.937   2.983   5.565 -0.3710 -0.0767 -1.3377
 2910SOL     OW20191   3.096   2.164   6.802 -0.2054  0.2081 -0.4597
 2910SOL    HW120192   3.009   2.123   6.794  0.5481 -1.7616  1.3726
 2910SOL    HW220193   3.088   2.201   6.890 -2.7324 -1.4428  0.0365
 2911SOL     OW20194   2.446   2.083   6.508 -0.4069  0.0376 -0.3108
 2911SOL    HW120195   2.381   2.012   6.510  2.0502 -2.1608  0.6229
 2911SOL    HW220196   2.481   2.084   6.419 -0.1641  0.7030 -0.2084
 2912SOL     OW20197   3.074   0.316   9.411 -0.2108 -0.0703 -0.3002
 2912SOL    HW120198   3.128   0.334   9.488 -0.4469 -0.4228 -0.0545
 2912SOL    HW220199   3.064   0.401   9.369  1.9868  0.2185 -0.2271
 2913SOL     OW20200   1.151   2.171  14.678 -0.4048 -0.2490  0.1340
 2913SOL    HW120201   1.243   2.148  14.668 -0.3132 -0.9643  2.5557
 2913SOL    HW220202   1.110   2.110  14.617 -0.0857 -1.6457  1.3310
 2914SOL     OW20203   3.316   0.133   9.669 -0.1990  0.7675  0.0680
 2914SOL    HW120204   3.398   0.147   9.716  0.3848 -1.1316 -0.3936
 2914SOL    HW220205   3.259   0.208   9.686  0.5134  0.9057  1.8042
 2915SOL     OW20206   4.215   2.643  17.555  0.2550 -0.5565 -0.1015
 2915SOL    HW120207   4.264   2.715  17.516  0.5892 -1.0857 -0.6672
 2915SOL    HW220208   4.194   2.595  17.474  4.7235  1.4276 -2.4593
 2916SOL     OW20209   2.762   0.622   2.992  0.1052 -0.0313  0.1948
 2916SOL    HW120210   2.839   0.676   2.978 -1.2603  1.1817 -2.6486
 2916SOL    HW220211   2.696   0.655   2.931 -0.2302 -1.8853 -0.4552
 2917SOL     OW20212   1.432   3.836   5.414 -0.2496 -0.1104  0.2316
 2917SOL    HW120213   1.393   3.790   5.488 -0.5034  1.0365  0.8244
 2917SOL    HW220214   1.472   3.766   5.363  2.2409  1.6658 -0.2332
 2918SOL     OW20215   2.741   2.708   0.423 -0.2350 -0.0697  0.0308
 2918SOL    HW120216   2.670   2.772   0.432 -0.2516 -0.3949  2.1333
 2918SOL    HW220217   2.778   2.713   0.511  1.2104  0.5400 -0.6216
 2919SOL     OW20218   4.270   1.944  10.281 -0.3493  0.1453  0.0285
 2919SOL    HW120219   4.337   2.008  10.305  1.7004 -2.4080  1.1317
 2919SOL    HW220220   4.247   1.984  10.197  0.2332 -1.8672 -1.0741
 2920SOL     OW20221   4.600   1.736   8.553 -0.4822 -0.9233  0.6631
 2920SOL    HW120222   4.649   1.692   8.484 -1.7200  1.9001 -2.0498
 2920SOL    HW220223   4.557   1.665   8.601 -0.9149 -0.9728  0.2087
 2921SOL     OW20224   2.074   0.582  17.163  0.1690  0.2554  0.3490
 2921SOL    HW120225   2.001   0.545  17.214  0.7415 -0.2832  0.7825
 2921SOL    HW220226   2.093   0.652  17.226  1.0297  0.9586 -0.7113
 2922SOL     OW20227   4.021   3.309   9.933 -0.2644  0.3980  0.4489
 2922SOL    HW120228   4.008   3.214   9.929  2.5427  0.1107 -1.8880
 2922SOL    HW220229   3.931   3.342   9.937 -0.9897 -1.4031 -1.0228
 2923SOL     OW20230   0.082   2.017  10.261 -0.1977 -0.2501 -0.5458
 2923SOL    HW120231   0.008   2.067  10.227  1.1425  1.6373 -0.7027
 2923SOL    HW220232   0.038   1.932  10.269  1.0048 -0.7316  0.9486
 2924SOL     OW20233   2.393   1.086   4.482  0.3947  0.1154 -0.4018
 2924SOL    HW120234   2.426   0.996   4.485 -0.2858 -0.1577 -1.3651
 2924SOL    HW220235   2.387   1.102   4.388  0.1362 -0.3825 -0.4709
 2925SOL     OW20236   3.447   2.119   1.518  0.1047 -0.3745 -0.1025
 2925SOL    HW120237   3.422   2.070   1.597  0.0796  0.8478  0.6487
 2925SOL    HW220238   3.487   2.044   1.474  0.0719  0.2616 -1.2035
 2926SOL     OW20239   4.260   0.333   5.774 -0.3964  0.2006  0.1441
 2926SOL    HW120240   4.320   0.309   5.703  0.5144 -1.1629  1.3661
 2926SOL    HW220241   4.178   0.341   5.725 -0.3154  3.3310  0.5613
 2927SOL     OW20242   3.496   3.370   7.923 -0.0655  0.2710  0.2324
 2927SOL    HW120243   3.584   3.394   7.951  0.0220 -0.3661  0.5103
 2927SOL    HW220244   3.455   3.453   7.901 -1.3885 -0.7943 -1.4119
 2928SOL     OW20245   1.595   4.637  16.666  0.1632 -0.5184  0.6672
 2928SOL    HW120246   1.547   4.719  16.669  1.1976  0.1455 -0.8146
 2928SOL    HW220247   1.664   4.653  16.731 -0.6903  1.3456  1.1239
 2929SOL     OW20248   1.893   0.713  14.744 -0.1061 -0.0809 -0.4618
 2929SOL    HW120249   1.976   0.756  14.762  1.0302 -2.3821 -0.2032
 2929SOL    HW220250   1.913   0.624  14.714 -2.6806 -1.1670  1.0511
 2930SOL     OW20251   2.525   2.215   9.142 -0.5042  0.1886  0.1700
 2930SOL    HW120252   2.462   2.168   9.197 -0.3121 -1.9711 -1.4514
 2930SOL    HW220253   2.596   2.233   9.204  0.9708 -0.3651 -1.3782
 2931SOL     OW20254   3.716   4.480   4.987 -0.1097 -0.2253  0.0934
 2931SOL    HW120255   3.674   4.556   4.945  0.9493  0.9366  1.1385
 2931SOL    HW220256   3.637   4.436   5.018  0.3741 -1.0451  0.1615
 2932SOL     OW20257   1.090   0.902   4.444 -0.7737 -0.5304 -0.5087
 2932SOL    HW120258   1.131   0.989   4.453 -2.5235  0.5015 -2.6076
 2932SOL    HW220259   1.089   0.872   4.354  2.1565 -0.8060 -0.4533
 2933SOL     OW20260   3.839   2.344   8.117  0.4909 -0.3262 -0.1056
 2933SOL    HW120261   3.765   2.399   8.141 -0.9050 -2.7354  1.0989
 2933SOL    HW220262   3.911   2.407   8.109 -1.0825  1.5967  1.1291
 2934SOL     OW20263   0.643   3.660   6.117 -0.6432  0.4346 -0.1855
 2934SOL    HW120264   0.628   3.615   6.200  0.1667  0.5703  0.0357
 2934SOL    HW220265   0.606   3.600   6.052 -0.6701 -0.7676  0.9419
 2935SOL     OW20266   3.283   3.950   8.193  0.4122  0.1645 -0.6985
 2935SOL    HW120267   3.298   3.884   8.125 -1.5569  1.0811 -2.0097
 2935SOL    HW220268   3.208   3.995   8.155  0.6045  1.5110  0.5239
 2936SOL     OW20269   2.109   3.726   9.347 -0.2933  0.0743 -0.3413
 2936SOL    HW120270   2.183   3.738   9.287  0.9681  1.2035  1.4387
 2936SOL    HW220271   2.121   3.809   9.393  1.2972 -0.1898 -0.2797
 2937SOL     OW20272   3.941   1.448   3.873 -0.1369 -0.2682  0.4354
 2937SOL    HW120273   3.896   1.415   3.795 -1.4957  1.8765  0.2882
 2937SOL    HW220274   4.031   1.462   3.845  0.1884  0.7871  2.0378
 2938SOL     OW20275   4.098   2.817   8.684 -0.4151 -0.2922 -0.4039
 2938SOL    HW120276   4.143   2.893   8.646  1.2283 -0.8689  0.4056
 2938SOL    HW220277   4.099   2.842   8.777 -0.6691  2.4333 -1.1190
 2939SOL     OW20278   0.609   3.435   6.915 -0.1117  0.1940 -0.2915
 2939SOL    HW120279   0.685   3.394   6.956 -0.0415  2.1479  1.5203
 2939SOL    HW220280   0.547   3.374   6.955 -1.1781  1.0408 -0.6587
 2940SOL     OW20281   0.892   3.933   1.699  0.2395  0.0609 -0.0497
 2940SOL    HW120282   0.967   3.986   1.724  1.6540 -2.4298  0.9843
 2940SOL    HW220283   0.933   3.887   1.626 -0.4615  0.7798 -0.8925
 2941SOL     OW20284   2.998   0.597   0.431  0.5341 -0.4972  0.2297
 2941SOL    HW120285   2.962   0.521   0.477  0.4595 -0.4132  0.3081
 2941SOL    HW220286   2.917   0.622   0.386  1.3226 -1.1184 -1.5533
 2942SOL     OW20287   3.436   3.850   6.400 -0.1319 -0.3733  0.1808
 2942SOL    HW120288   3.404   3.770   6.440  1.4332 -0.8839  0.4243
 2942SOL    HW220289   3.382   3.860   6.321 -0.1638  0.6035  0.3306
 2943SOL     OW20290   0.062   0.493   5.529  0.0331  0.1816 -0.4554
 2943SOL    HW120291   4.708   0.472   5.474  0.4295  2.2614 -1.7837
 2943SOL    HW220292   0.013   0.540   5.597  0.6897 -2.1301  1.5933
 2944SOL     OW20293   3.052   0.275   6.318  0.1458 -0.4538  0.0483
 2944SOL    HW120294   3.084   0.186   6.298  0.5956  0.0585 -1.5171
 2944SOL    HW220295   2.982   0.260   6.382 -0.2770 -0.0105 -0.3148
 2945SOL     OW20296   3.994   4.262   8.911  0.7507  0.5199  0.2945
 2945SOL    HW120297   3.976   4.170   8.930  0.9186  0.6792  1.2219
 2945SOL    HW220298   4.001   4.306   8.996 -0.5532  2.7389 -0.7270
 2946SOL     OW20299   4.441   0.370  12.614 -0.1440  0.0671  0.1223
 2946SOL    HW120300   4.504   0.380  12.685 -2.1480  2.6481  1.5183
 2946SOL    HW220301   4.501   0.329  12.552 -0.5048  0.3543 -0.4112
 2947SOL     OW20302   1.281   4.575   4.547 -0.0778 -0.0106 -0.0570
 2947SOL    HW120303   1.189   4.552   4.561 -0.3519  0.0394 -1.7731
 2947SOL    HW220304   1.307   4.612   4.631  0.1476  0.5755 -0.3898
 2948SOL     OW20305   4.568   1.697   4.874  0.2027  0.1824 -0.2492
 2948SOL    HW120306   4.605   1.781   4.900  1.0535 -0.5835  1.0210
 2948SOL    HW220307   4.633   1.661   4.813  1.1629  3.0729 -0.9204
 2949SOL     OW20308   2.621   0.065  11.092  0.1570  0.0529  0.4583
 2949SOL    HW120309   2.669   0.051  11.174  2.5765 -0.2000 -0.9690
 2949SOL    HW220310   2.535   0.102  11.107 -0.2794 -0.4383 -0.7695
 2950SOL     OW20311   1.146   3.043   6.711 -0.3684 -0.3907  1.0461
 2950SOL    HW120312   1.133   2.975   6.777 -0.8544  0.0597  1.4136
 2950SOL    HW220313   1.150   3.113   6.776 -1.7761  0.6992 -0.0535
 2951SOL     OW20314   4.471   4.595   5.079 -0.0559 -0.0963  0.2928
 2951SOL    HW120315   4.566   4.601   5.089  0.0512 -1.9927  0.4281
 2951SOL    HW220316   4.459   4.653   5.004  1.8695  0.1391  0.1625
 2952SOL     OW20317   4.025   4.462   7.560 -0.4664  0.5634  0.3285
 2952SOL    HW120318   4.083   4.517   7.507  0.1713 -0.1332  0.2909
 2952SOL    HW220319   4.057   4.374   7.539 -0.5444  0.5408  0.3065
 2953SOL     OW20320   0.031   3.288  12.652  0.3742 -0.0869 -0.5386
 2953SOL    HW120321   0.086   3.238  12.712  0.2903  1.1316  0.5376
 2953SOL    HW220322   0.085   3.365  12.637 -1.0864  0.3654 -3.7253
 2954SOL     OW20323   3.430   2.875   8.830 -0.2577  0.6507 -0.1528
 2954SOL    HW120324   3.445   2.784   8.854  0.5301  0.9441  0.4828
 2954SOL    HW220325   3.406   2.914   8.914  0.2016  0.6375 -0.0184
 2955SOL     OW20326   3.596   3.527   6.680  0.0172 -0.0387  0.6838
 2955SOL    HW120327   3.518   3.579   6.661 -1.2014 -1.5952  1.4466
 2955SOL    HW220328   3.601   3.464   6.608 -1.5696  0.1025  0.4551
 2956SOL     OW20329   3.121   3.597   3.480  0.5707 -0.2112 -0.0769
 2956SOL    HW120330   3.035   3.638   3.486 -0.6949 -2.8236 -0.5952
 2956SOL    HW220331   3.153   3.634   3.397 -0.0011  3.0536  1.1522
 2957SOL     OW20332   1.645   0.755   4.550 -0.8007 -0.0477  0.2089
 2957SOL    HW120333   1.645   0.752   4.646 -0.5808 -2.3417  0.1339
 2957SOL    HW220334   1.601   0.675   4.523  0.0205 -0.7913  1.0796
 2958SOL     OW20335   4.133   4.257  10.213  0.0175 -0.0061  0.6501
 2958SOL    HW120336   4.199   4.188  10.202  0.3787  0.3157  0.7980
 2958SOL    HW220337   4.118   4.268  10.307 -2.1089 -0.9443  0.4141
 2959SOL     OW20338   2.816   4.581   9.513 -0.2157  0.2699 -0.3318
 2959SOL    HW120339   2.824   4.666   9.470 -0.5399  0.9595  0.9550
 2959SOL    HW220340   2.890   4.599   9.572 -0.9497 -1.9467  1.2377
 2960SOL     OW20341   3.037   0.565  12.389  0.1668 -0.0780  0.0788
 2960SOL    HW120342   3.082   0.521  12.462 -0.4524  1.2738  1.2748
 2960SOL    HW220343   2.978   0.499  12.353 -0.9007  1.5687 -1.2089
 2961SOL     OW20344   3.502   0.589  11.961  0.3283 -0.1247  0.1602
 2961SOL    HW120345   3.580   0.544  11.927  0.5183  1.0628 -0.9635
 2961SOL    HW220346   3.508   0.678  11.928  0.5135 -0.3243 -0.3484
 2962SOL     OW20347   1.356   2.429   6.506 -0.1540  0.0483 -0.4061
 2962SOL    HW120348   1.307   2.377   6.442  0.2915 -1.1034  0.1799
 2962SOL    HW220349   1.367   2.515   6.466  0.8898  0.2835  0.3900
 2963SOL     OW20350   0.496   4.550   9.393 -0.4431 -0.0262 -0.5850
 2963SOL    HW120351   0.504   4.577   9.484 -1.1973 -1.4851 -0.0887
 2963SOL    HW220352   0.470   4.632   9.351  1.0195  1.9722  2.4053
 2964SOL     OW20353   0.930   2.733   2.996  0.0343 -0.5861  0.4768
 2964SOL    HW120354   0.845   2.697   2.968 -0.3778 -0.0045  0.9808
 2964SOL    HW220355   0.920   2.826   2.974  0.4022 -0.8390 -0.7626
 2965SOL     OW20356   0.334   4.533   3.670 -0.5550 -0.7466  0.0025
 2965SOL    HW120357   0.312   4.593   3.599  0.0178  0.9938  1.3163
 2965SOL    HW220358   0.340   4.450   3.622 -0.4165 -0.0924 -1.0967
 2966SOL     OW20359   3.551   1.652   5.177 -0.1472  0.3589 -0.3927
 2966SOL    HW120360   3.568   1.745   5.187  1.0489  0.1022  0.0504
 2966SOL    HW220361   3.638   1.617   5.157  0.6507  2.4194 -0.5129
 2967SOL     OW20362   3.795   3.635   2.649 -0.5988 -0.1108 -0.2832
 2967SOL    HW120363   3.806   3.614   2.741  0.3002  1.5551 -0.0199
 2967SOL    HW220364   3.725   3.571   2.638  0.4919 -1.7171  2.1581
 2968SOL     OW20365   0.759   0.634   5.603 -0.3143 -0.4422  0.0595
 2968SOL    HW120366   0.748   0.686   5.523  0.6815 -1.4041 -0.6947
 2968SOL    HW220367   0.669   0.605   5.618 -0.4948 -0.2563 -0.6684
 2969SOL     OW20368   2.012   2.491  17.025 -0.2521  0.0393 -0.3465
 2969SOL    HW120369   1.997   2.528  16.938  0.2266 -0.7456 -0.7614
 2969SOL    HW220370   1.931   2.452  17.058  1.0743 -1.7366  0.8203
 2970SOL     OW20371   0.097   1.260   8.436  0.3535  0.2351 -0.5165
 2970SOL    HW120372   0.081   1.212   8.517  0.4602  1.3392  0.1637
 2970SOL    HW220373   0.016   1.241   8.389 -1.3128  1.8255  1.7948
 2971SOL     OW20374   1.483   1.615   2.781  0.3657  0.6596 -0.2213
 2971SOL    HW120375   1.405   1.603   2.834  0.9056  0.4824  0.5329
 2971SOL    HW220376   1.513   1.698   2.819  0.1912  1.3393 -1.5543
 2972SOL     OW20377   1.793   0.889   4.000 -0.1777  0.1401  0.2666
 2972SOL    HW120378   1.822   0.805   3.965  1.1451  0.8714 -0.4259
 2972SOL    HW220379   1.780   0.863   4.091  0.8137 -0.2633  0.2915
 2973SOL     OW20380   2.288   3.744   3.230  0.0004 -0.5929 -0.0079
 2973SOL    HW120381   2.330   3.829   3.242 -0.7243 -0.1283 -0.7359
 2973SOL    HW220382   2.197   3.765   3.212  0.1724  0.2631  0.0884
 2974SOL     OW20383   1.136   3.462  15.308 -0.0289  0.0403 -0.5725
 2974SOL    HW120384   1.069   3.514  15.352  0.6037  0.4029 -0.0226
 2974SOL    HW220385   1.196   3.531  15.280 -0.0473  0.7211  1.0235
 2975SOL     OW20386   2.708   2.103  13.549  0.3640  0.3447  0.4746
 2975SOL    HW120387   2.677   2.072  13.634 -0.7464 -1.2660 -0.5055
 2975SOL    HW220388   2.700   2.017  13.507  1.0599  0.5213 -0.0291
 2976SOL     OW20389   0.748   2.813   6.209  0.3559  0.0544  0.2950
 2976SOL    HW120390   0.670   2.857   6.175 -0.1282 -0.6816  0.4799
 2976SOL    HW220391   0.712   2.782   6.292 -0.7348 -0.2515 -0.2983
 2977SOL     OW20392   0.041   4.200   7.383  0.0474 -0.0097  0.0176
 2977SOL    HW120393   4.713   4.201   7.301  0.5301 -0.3393 -0.2815
 2977SOL    HW220394   4.705   4.148   7.439 -1.1298 -1.2316 -2.3180
 2978SOL     OW20395   1.296   0.650  12.847  0.2326 -0.1690 -0.4140
 2978SOL    HW120396   1.384   0.683  12.866  0.6911 -1.0506 -1.0080
 2978SOL    HW220397   1.267   0.705  12.775  1.4582 -0.7139 -1.3234
 2979SOL     OW20398   4.555   1.437   8.211 -0.3742  0.4283 -0.6716
 2979SOL    HW120399   4.520   1.357   8.250  1.1690  0.9438  1.7932
 2979SOL    HW220400   4.499   1.508   8.244  0.6896 -0.0916  2.2442
 2980SOL     OW20401   0.327   2.520  11.063  0.0556  0.1509  0.0881
 2980SOL    HW120402   0.266   2.569  11.118  1.3222  0.8576  0.8849
 2980SOL    HW220403   0.276   2.532  10.982  1.5928 -0.3752 -0.9680
 2981SOL     OW20404   3.774   1.377   1.743 -0.3253  0.5129  0.2590
 2981SOL    HW120405   3.832   1.376   1.819 -0.1750 -1.5646  0.1288
 2981SOL    HW220406   3.753   1.284   1.740 -1.3712  0.7563 -0.0638
 2982SOL     OW20407   2.997   2.207   8.878  0.4238  0.5732  0.2363
 2982SOL    HW120408   2.992   2.178   8.787 -1.1842  1.1245  0.1471
 2982SOL    HW220409   2.909   2.179   8.902  0.3317 -1.0834 -2.0913
 2983SOL     OW20410   4.459   2.299   0.670 -0.0496  0.6950  0.3841
 2983SOL    HW120411   4.510   2.238   0.724  1.0383  1.1178 -0.1651
 2983SOL    HW220412   4.520   2.372   0.661  0.8548  0.0272  1.0893
 2984SOL     OW20413   4.239   2.047   4.093  0.2650 -0.6777  0.1660
 2984SOL    HW120414   4.293   1.968   4.089  1.3961  0.0348  1.2390
 2984SOL    HW220415   4.151   2.011   4.088 -0.4126  0.9261  0.5622
 2985SOL     OW20416   1.423   2.557   1.444 -0.5123  0.3460 -0.6709
 2985SOL    HW120417   1.349   2.607   1.409 -1.0374  0.2149  0.2668
 2985SOL    HW220418   1.473   2.535   1.366 -1.7700 -0.5677 -1.2222
 2986SOL     OW20419   2.013   0.631   5.710  0.6570  0.0480 -0.1052
 2986SOL    HW120420   2.022   0.547   5.755 -1.0568 -1.0633 -1.8049
 2986SOL    HW220421   1.970   0.607   5.627  1.6078  0.8438 -0.8201
 2987SOL     OW20422   2.482   2.544  11.452  0.5655  0.1422  0.4723
 2987SOL    HW120423   2.545   2.559  11.382 -1.2818  1.3490 -0.9491
 2987SOL    HW220424   2.483   2.449  11.452  3.3720  0.1801  1.8826
 2988SOL     OW20425   1.594   2.040   1.422 -0.3300 -0.0539 -0.1985
 2988SOL    HW120426   1.596   1.956   1.377  0.0414 -0.8080  1.2315
 2988SOL    HW220427   1.535   2.010   1.491  1.1282 -1.8505  0.2755
 2989SOL     OW20428   1.346   2.582   8.649  0.1003 -0.4323  0.5572
 2989SOL    HW120429   1.321   2.654   8.708 -1.9758 -3.3991  3.3405
 2989SOL    HW220430   1.376   2.633   8.575 -0.1124  0.9969  1.4547
 2990SOL     OW20431   0.835   2.524  12.587 -0.1324 -0.6386  0.4842
 2990SOL    HW120432   0.820   2.617  12.605 -0.6232 -0.5161 -0.5938
 2990SOL    HW220433   0.930   2.517  12.572 -0.6231 -2.8767 -1.5825
 2991SOL     OW20434   4.412   2.890   3.292 -0.6167  0.1186 -0.0771
 2991SOL    HW120435   4.504   2.865   3.285 -0.4963  0.5058  0.1270
 2991SOL    HW220436   4.374   2.802   3.286 -0.8233  0.1868  0.1970
 2992SOL     OW20437   1.603   3.514   4.843  0.4817  0.0314  0.0918
 2992SOL    HW120438   1.514   3.483   4.828  0.6874 -0.3749 -0.2830
 2992SOL    HW220439   1.658   3.436   4.852  2.4228  1.5078  1.0038
 2993SOL     OW20440   4.654   1.366   5.062  0.2095 -0.3711  1.2369
 2993SOL    HW120441   4.704   1.288   5.085  1.8829  0.7684  1.4695
 2993SOL    HW220442   4.646   1.353   4.967 -1.1492  2.1960  0.9884
 2994SOL     OW20443   3.766   3.052   3.328  0.3212 -0.1980 -0.0819
 2994SOL    HW120444   3.758   2.990   3.256  4.9940 -0.4949 -0.3550
 2994SOL    HW220445   3.857   3.078   3.318  0.3634 -0.2936  0.0517
 2995SOL     OW20446   3.410   1.309   9.896 -0.1236  0.2015  0.3246
 2995SOL    HW120447   3.451   1.271   9.818  1.4046  1.8168  0.3525
 2995SOL    HW220448   3.487   1.353   9.932  0.6071 -2.6128  2.3046
 2996SOL     OW20449   1.722   4.451  15.541 -0.4363 -0.2615 -0.1925
 2996SOL    HW120450   1.728   4.529  15.597  0.0685  0.8019 -1.7143
 2996SOL    HW220451   1.788   4.481  15.478 -1.5993 -0.3378 -1.4468
 2997SOL     OW20452   0.939   0.606   8.115  0.4065  0.3808  0.1293
 2997SOL    HW120453   0.949   0.644   8.203  0.5503  2.0827 -0.6134
 2997SOL    HW220454   0.844   0.596   8.118  0.1827  1.9693 -1.4967
 2998SOL     OW20455   2.521   4.216   7.259 -0.0211  0.1275  0.5629
 2998SOL    HW120456   2.507   4.125   7.286 -0.0747  0.0544  0.2901
 2998SOL    HW220457   2.478   4.262   7.331  1.1433 -0.4003  1.6104
 2999SOL     OW20458   1.862   2.299   9.601  0.2897 -0.2794  0.2515
 2999SOL    HW120459   1.920   2.258   9.536  0.8392  1.4197 -0.3188
 2999SOL    HW220460   1.875   2.237   9.673  0.6435 -0.5276 -0.0217
 3000SOL     OW20461   0.860   2.885   9.770  0.9584  0.5146 -0.0885
 3000SOL    HW120462   0.849   2.822   9.842  0.5973 -0.6142 -1.1288
 3000SOL    HW220463   0.794   2.856   9.707  0.6287 -0.1976  0.5685
 3001SOL     OW20464   0.205   0.605   9.178 -0.5303 -0.3640  0.4813
 3001SOL    HW120465   0.282   0.661   9.174 -0.7836  0.1098  2.0184
 3001SOL    HW220466   0.208   0.579   9.270  1.5197 -1.2689  0.1580
 3002SOL     OW20467   0.752   0.984   6.658 -0.3148  0.1305 -0.6156
 3002SOL    HW120468   0.840   1.018   6.676 -1.0846  1.9334 -0.2953
 3002SOL    HW220469   0.732   1.032   6.577 -0.8134  1.5385  0.3469
 3003SOL     OW20470   1.613   1.274   8.692 -0.3347 -0.0732  0.5011
 3003SOL    HW120471   1.633   1.276   8.599  1.0384 -0.8553  0.7813
 3003SOL    HW220472   1.613   1.180   8.707  0.1806 -0.1255  0.1804
 3004SOL     OW20473   1.378   4.524  17.407  0.5774 -0.1039 -0.2723
 3004SOL    HW120474   1.404   4.594  17.347  1.0866 -1.7341 -1.9508
 3004SOL    HW220475   1.437   4.542  17.480 -2.5916  1.1747  1.9783
 3005SOL     OW20476   3.101   3.981   3.793 -0.7588 -0.8584 -0.2365
 3005SOL    HW120477   3.009   4.007   3.788 -0.9491 -1.1541  1.4963
 3005SOL    HW220478   3.115   3.972   3.699  2.9359  0.2863  0.2231
 3006SOL     OW20479   4.363   0.381   2.167 -0.9426  0.2161  0.0671
 3006SOL    HW120480   4.270   0.389   2.146 -1.0619 -0.9199  0.1851
 3006SOL    HW220481   4.396   0.438   2.098 -3.3770 -1.7933 -2.6994
 3007SOL     OW20482   1.293   0.121  13.702  0.6804 -0.1828  0.5836
 3007SOL    HW120483   1.272   0.212  13.683 -2.0996 -0.7021  1.1158
 3007SOL    HW220484   1.217   0.102  13.756  0.8889 -2.4117  0.1094
 3008SOL     OW20485   1.562   2.372   9.432  0.1578 -0.3580 -0.0555
 3008SOL    HW120486   1.652   2.344   9.412 -0.3901 -2.6348  0.6232
 3008SOL    HW220487   1.518   2.335   9.356  0.0618  0.4108 -0.3735
 3009SOL     OW20488   2.097   4.250   4.418  0.2282  0.6386  0.6419
 3009SOL    HW120489   2.163   4.249   4.488  0.8207 -2.0172  0.0679
 3009SOL    HW220490   2.028   4.294   4.467 -0.6139 -1.9374  1.7691
 3010SOL     OW20491   4.135   2.163  12.295  0.4792 -0.4027  0.1625
 3010SOL    HW120492   4.162   2.153  12.387 -0.5930 -2.2908  0.2757
 3010SOL    HW220493   4.045   2.190  12.311  0.8914  0.9474  0.1644
 3011SOL     OW20494   0.005   0.156   8.314  0.5998  0.3601  0.1011
 3011SOL    HW120495   0.078   0.218   8.310  0.5325  0.4296 -0.0693
 3011SOL    HW220496   4.649   0.211   8.310  0.1181 -0.5259 -2.1648
 3012SOL     OW20497   2.658   3.241   2.376  0.1685 -0.3583  0.6363
 3012SOL    HW120498   2.582   3.299   2.378 -2.4556 -3.7487 -0.8430
 3012SOL    HW220499   2.666   3.198   2.462 -0.5122 -2.2870 -0.2807
 3013SOL     OW20500   1.209   0.492  10.272 -0.1489  0.5642  0.5983
 3013SOL    HW120501   1.175   0.576  10.303  2.4371  1.8553 -0.0412
 3013SOL    HW220502   1.149   0.427  10.307 -0.0403 -0.3028 -0.8311
 3014SOL     OW20503   4.057   0.777   7.372 -0.8359 -0.1385 -0.0278
 3014SOL    HW120504   4.006   0.718   7.427  0.8110  0.0582  1.7338
 3014SOL    HW220505   4.123   0.816   7.429 -1.0688 -1.4748  1.1572
 3015SOL     OW20506   4.196   3.354   0.378 -0.0876  0.2566 -0.4835
 3015SOL    HW120507   4.105   3.377   0.398  0.3272 -0.0880  1.8726
 3015SOL    HW220508   4.240   3.438   0.390  0.2765  0.3078 -2.1625
 3016SOL     OW20509   0.290   4.452  12.207  0.4950  0.7050  0.1551
 3016SOL    HW120510   0.330   4.522  12.259  3.2941  0.3361 -1.5009
 3016SOL    HW220511   0.255   4.398  12.278 -0.5489  0.8507 -0.2494
 3017SOL     OW20512   2.125   2.207   0.506  0.0151  0.2099  0.6574
 3017SOL    HW120513   2.107   2.269   0.436  0.0471 -0.7516 -0.2087
 3017SOL    HW220514   2.220   2.200   0.495  0.0368 -1.9145  2.1260
 3018SOL     OW20515   1.993   0.380  11.477  0.0852 -1.0357 -0.0520
 3018SOL    HW120516   1.987   0.418  11.565 -1.1936  1.0649 -1.0522
 3018SOL    HW220517   2.066   0.431  11.442 -1.6847  1.6489  0.1991
 3019SOL     OW20518   3.825   3.065   4.827 -0.3563  0.3955 -0.3640
 3019SOL    HW120519   3.730   3.068   4.816 -0.4763  0.6507  0.6452
 3019SOL    HW220520   3.846   3.010   4.752 -0.3395 -0.1597  0.0467
 3020SOL     OW20521   4.139   2.450   6.613  0.4359 -0.1978 -0.4004
 3020SOL    HW120522   4.075   2.520   6.599 -0.6428 -1.1013 -0.0393
 3020SOL    HW220523   4.214   2.508   6.626 -1.4117  2.5003 -1.7649
 3021SOL     OW20524   2.950   1.809  14.748  0.0188  0.0527 -0.3566
 3021SOL    HW120525   2.984   1.807  14.838  0.4314  0.2178 -0.5075
 3021SOL    HW220526   2.882   1.742  14.749  2.1290 -2.1119 -2.9767
 3022SOL     OW20527   1.543   3.615   5.621  0.0214  0.9244 -0.1476
 3022SOL    HW120528   1.572   3.525   5.635  1.3752  1.5942  1.3970
 3022SOL    HW220529   1.450   3.596   5.614  0.2576 -0.9734  1.7696
 3023SOL     OW20530   3.478   4.197  11.480 -0.0154 -0.0411  0.6478
 3023SOL    HW120531   3.440   4.183  11.393  1.1217  0.2505  0.0954
 3023SOL    HW220532   3.549   4.258  11.460  0.7647 -1.0508  0.3023
 3024SOL     OW20533   3.513   3.133   6.857 -0.1748  0.4242 -0.1043
 3024SOL    HW120534   3.494   3.041   6.877 -0.5628  1.2221  3.1917
 3024SOL    HW220535   3.462   3.141   6.777  2.5742 -0.2922 -1.9134
 3025SOL     OW20536   1.711   4.255   7.230 -0.1371 -0.4788 -0.9064
 3025SOL    HW120537   1.736   4.164   7.216  0.9168 -0.2568 -0.4362
 3025SOL    HW220538   1.682   4.288   7.145  1.8946  2.1293 -0.5659
 3026SOL     OW20539   2.433   0.526   7.228 -0.2758 -0.1998  0.5191
 3026SOL    HW120540   2.398   0.476   7.302 -0.6847  0.4288  0.7485
 3026SOL    HW220541   2.362   0.588   7.210  1.2567  0.5134 -3.0523
 3027SOL     OW20542   1.546   0.091  12.267 -0.2352  0.3107 -0.1748
 3027SOL    HW120543   1.511   0.132  12.187  0.9967 -1.8207 -1.7917
 3027SOL    HW220544   1.473   0.031  12.282 -0.4033  0.8884  1.2861
 3028SOL     OW20545   2.626   4.411   4.010  0.0141  0.8042 -0.2328
 3028SOL    HW120546   2.609   4.330   4.058 -0.4383  0.4151 -1.0412
 3028SOL    HW220547   2.716   4.393   3.985  0.7889  1.2093  2.3079
 3029SOL     OW20548   4.227   4.697   8.695  0.0864  0.4620 -0.2803
 3029SOL    HW120549   4.317   4.676   8.671 -0.0419 -1.4678  0.9309
 3029SOL    HW220550   4.192   4.608   8.692  1.7957 -0.1827 -0.5993
 3030SOL     OW20551   3.367   2.415   4.626  0.1968  0.1454 -0.6217
 3030SOL    HW120552   3.383   2.453   4.540  1.0013 -0.2934 -0.6559
 3030SOL    HW220553   3.283   2.370   4.619  1.2964 -1.8364 -0.8311
 3031SOL     OW20554   3.709   1.912   6.623  0.0193  0.4461 -0.2215
 3031SOL    HW120555   3.803   1.930   6.617  0.1009 -0.3981 -1.4666
 3031SOL    HW220556   3.677   2.000   6.641 -0.3415 -0.0256  1.4314
 3032SOL     OW20557   4.069   1.360  11.130  0.1891  0.1328  0.5498
 3032SOL    HW120558   4.098   1.420  11.198  0.1316  0.7574  0.0210
 3032SOL    HW220559   4.091   1.419  11.058 -2.5306  0.3976 -0.0734
 3033SOL     OW20560   0.621   4.428   6.491  0.1157  0.0254 -0.2410
 3033SOL    HW120561   0.652   4.385   6.571  0.9379 -0.1133 -0.6314
 3033SOL    HW220562   0.604   4.519   6.514 -2.0270 -0.1846 -1.0472
 3034SOL     OW20563   1.587   4.276   6.619 -0.4834 -0.4161  0.2311
 3034SOL    HW120564   1.638   4.205   6.659  2.3608  3.1575  2.9161
 3034SOL    HW220565   1.543   4.237   6.543 -0.5165  0.8749 -0.4047
 3035SOL     OW20566   4.217   4.710   9.778  0.1972  0.4261  0.0033
 3035SOL    HW120567   4.182   4.667   9.856 -1.1099  2.0440  0.3218
 3035SOL    HW220568   4.297   0.035   9.804  1.1471 -0.9931 -0.3357
 3036SOL     OW20569   3.573   3.754   9.652 -0.3948 -0.2040  0.8982
 3036SOL    HW120570   3.657   3.763   9.697  0.5075 -0.3809 -0.7263
 3036SOL    HW220571   3.538   3.680   9.701 -0.6141 -0.1023  0.8968
 3037SOL     OW20572   2.373   1.576  11.085  0.4026  0.4939  0.0005
 3037SOL    HW120573   2.286   1.581  11.046  0.1063  1.1403  0.7699
 3037SOL    HW220574   2.366   1.515  11.159  1.4712 -2.0642 -1.9858
 3038SOL     OW20575   1.199   2.017  14.933 -0.3282  0.4310  0.8068
 3038SOL    HW120576   1.168   2.067  14.858  0.7006  0.6857  0.5473
 3038SOL    HW220577   1.137   2.040  15.002 -2.4166  1.6630 -1.4925
 3039SOL     OW20578   0.717   2.873   2.560  0.3412  0.1658  0.9453
 3039SOL    HW120579   0.736   2.816   2.634 -0.3097 -1.3321 -0.0349
 3039SOL    HW220580   0.803   2.901   2.528 -0.4848  3.0403  1.3126
 3040SOL     OW20581   2.561   2.496   9.243  0.1825 -0.2868 -0.0517
 3040SOL    HW120582   2.570   2.508   9.148  2.2702 -0.2077  0.1597
 3040SOL    HW220583   2.614   2.418   9.262  0.6873  0.1509  0.3377
 3041SOL     OW20584   4.274   4.272  11.653  0.0917 -0.4920  0.3224
 3041SOL    HW120585   4.272   4.254  11.559  0.0452 -0.4820  0.3216
 3041SOL    HW220586   4.196   4.218  11.668 -2.4444  2.6698 -1.4542
 3042SOL     OW20587   2.014   0.421   4.918  0.3912 -0.2923  0.3283
 3042SOL    HW120588   1.971   0.485   4.976 -1.4247 -0.7083 -0.5715
 3042SOL    HW220589   2.087   0.399   4.976  1.8453 -1.8655 -2.1157
 3043SOL     OW20590   0.971   1.590   9.596  0.4525 -0.1498 -0.5788
 3043SOL    HW120591   0.900   1.544   9.550 -0.6686 -0.0193  1.0071
 3043SOL    HW220592   1.044   1.567   9.539 -0.5118 -1.2424 -1.3627
 3044SOL     OW20593   3.412   4.255   9.737  0.2717 -0.9563  0.0570
 3044SOL    HW120594   3.418   4.167   9.700 -1.5463 -1.6103  1.3423
 3044SOL    HW220595   3.388   4.229   9.826  0.8184 -1.0074  0.1893
 3045SOL     OW20596   0.876   2.909  16.685  0.4281  0.0134  0.0984
 3045SOL    HW120597   0.965   2.876  16.675 -0.2388 -1.5792 -0.5302
 3045SOL    HW220598   0.890   2.980  16.747  1.6905 -1.3547  1.3643
 3046SOL     OW20599   4.155   4.472   7.829  0.0636 -0.1009 -0.3575
 3046SOL    HW120600   4.156   4.439   7.919  0.4081 -2.4032 -1.2153
 3046SOL    HW220601   4.067   4.455   7.794  0.0989  2.8392 -1.9452
 3047SOL     OW20602   2.019   0.112  13.684 -0.3282 -0.1808  0.1505
 3047SOL    HW120603   1.955   0.071  13.626  1.3018 -1.8138 -0.4993
 3047SOL    HW220604   2.093   0.141  13.632 -2.7596  2.1484 -2.0155
 3048SOL     OW20605   1.206   0.824  12.640 -0.1443 -0.2919 -0.3265
 3048SOL    HW120606   1.196   0.908  12.595 -0.4802  0.8353  1.8817
 3048SOL    HW220607   1.163   0.760  12.582 -0.7865 -0.1595  0.0088
 3049SOL     OW20608   1.153   1.796   8.384 -0.5207  0.0548  0.4087
 3049SOL    HW120609   1.131   1.733   8.453 -2.2920  0.6547  0.3905
 3049SOL    HW220610   1.065   1.827   8.364 -0.5446  1.0442  2.0378
 3050SOL     OW20611   3.215   1.908  17.230 -0.1919 -0.0179  0.0566
 3050SOL    HW120612   3.246   1.819  17.246 -0.2504  0.1208  0.9330
 3050SOL    HW220613   3.138   1.904  17.287 -2.7884 -0.6387 -3.5255
 3051SOL     OW20614   0.195   0.889   0.574  0.8429 -0.1927 -0.4267
 3051SOL    HW120615   0.270   0.944   0.598  3.0290 -1.9072 -3.3339
 3051SOL    HW220616   0.205   0.817   0.637 -0.9264  0.6989  0.8380
 3052SOL     OW20617   0.469   0.526   8.568  0.0991 -0.4899 -0.4276
 3052SOL    HW120618   0.529   0.585   8.614  0.5894 -1.9012  0.7131
 3052SOL    HW220619   0.524   0.450   8.550  0.3848 -0.5577  0.7739
 3053SOL     OW20620   0.397   0.123   4.319  0.0531  0.0523  0.2760
 3053SOL    HW120621   0.473   0.146   4.373 -1.0358 -1.4180  2.4315
 3053SOL    HW220622   0.328   0.135   4.384 -1.4893 -1.6286 -1.0424
 3054SOL     OW20623   3.010   4.167   0.131 -0.6094  0.1828  0.3967
 3054SOL    HW120624   3.032   4.120   0.050 -0.7276 -4.2985  2.9775
 3054SOL    HW220625   2.915   4.178   0.126 -0.7028  0.1807  2.2133
 3055SOL     OW20626   4.537   1.364   5.820  0.7711  0.0994 -0.0820
 3055SOL    HW120627   4.593   1.308   5.874  3.4111  0.5779 -2.2729
 3055SOL    HW220628   4.459   1.312   5.801 -0.1283  2.0092 -1.6293
 3056SOL     OW20629   2.620   3.843  10.985 -0.2971  0.1700 -0.1185
 3056SOL    HW120630   2.538   3.794  10.991 -1.2922  1.4804 -3.1848
 3056SOL    HW220631   2.665   3.777  10.932 -1.4885 -1.5230  1.0017
 3057SOL     OW20632   1.562   4.646  15.790 -0.2996 -0.1882 -0.2802
 3057SOL    HW120633   1.653   4.616  15.795 -0.9296 -2.3328 -1.9137
 3057SOL    HW220634   1.566   4.713  15.858  1.0154 -0.4154 -0.1276
 3058SOL     OW20635   3.037   0.338   4.703  0.0814  0.0135  0.1741
 3058SOL    HW120636   2.950   0.312   4.672  1.2238 -1.6100 -1.6251
 3058SOL    HW220637   3.015   0.372   4.790  0.8367  1.2242 -0.1151
 3059SOL     OW20638   1.154   0.408   4.745  0.5904  0.5515 -0.2854
 3059SOL    HW120639   1.075   0.462   4.746  0.9922  1.1744 -2.7842
 3059SOL    HW220640   1.182   0.422   4.655  0.3622 -1.2446 -0.6370
 3060SOL     OW20641   3.327   1.393  11.562  0.2308 -0.6523 -0.6676
 3060SOL    HW120642   3.239   1.425  11.545 -0.2604 -2.0096 -0.7041
 3060SOL    HW220643   3.346   1.356  11.476 -0.5374 -1.3625 -0.5321
 3061SOL     OW20644   2.767   3.659   3.281 -0.2589 -0.5619 -0.6639
 3061SOL    HW120645   2.781   3.569   3.310 -2.3356 -0.3914  0.9235
 3061SOL    HW220646   2.691   3.645   3.223 -0.8704 -1.3532  0.3311
 3062SOL     OW20647   2.788   1.610   6.142  0.2634  0.1471  0.1798
 3062SOL    HW120648   2.704   1.588   6.102  0.2399 -0.9774  0.8594
 3062SOL    HW220649   2.807   1.701   6.118  1.8055 -0.3422 -0.4570
 3063SOL     OW20650   3.079   0.694   8.359 -0.3229 -0.0794  0.2188
 3063SOL    HW120651   3.008   0.642   8.395 -0.1744  0.0334  0.6739
 3063SOL    HW220652   3.071   0.776   8.408  1.2790  2.0337 -3.0391
 3064SOL     OW20653   3.152   0.549  13.821 -0.2739  0.7523 -0.2711
 3064SOL    HW120654   3.183   0.522  13.907  1.4900  0.9631 -0.8377
 3064SOL    HW220655   3.157   0.644  13.827 -1.5243  0.8063 -0.0987
 3065SOL     OW20656   3.446   0.411   1.129  0.9737  0.1582 -0.0713
 3065SOL    HW120657   3.427   0.363   1.049  0.5295 -0.1437  0.2113
 3065SOL    HW220658   3.404   0.496   1.114 -0.9902 -0.5590  1.3345
 3066SOL     OW20659   4.501   0.603   1.021 -0.0541 -0.0203  0.1461
 3066SOL    HW120660   4.441   0.623   0.949 -0.9122 -0.5268  0.7173
 3066SOL    HW220661   4.457   0.522   1.049 -0.1230 -1.0667 -2.9778
 3067SOL     OW20662   3.776   2.324   5.046 -0.1617  0.3377 -0.0326
 3067SOL    HW120663   3.747   2.233   5.059 -2.1358  1.1410  1.1223
 3067SOL    HW220664   3.807   2.352   5.132  1.2654  3.4456 -1.5858
 3068SOL     OW20665   2.528   1.170   6.118 -0.4497 -0.5424 -0.4938
 3068SOL    HW120666   2.532   1.247   6.174 -3.9864 -1.0635  0.4596
 3068SOL    HW220667   2.504   1.215   6.038 -0.8372  1.9047  1.0036
 3069SOL     OW20668   0.099   0.627   1.466 -0.1925 -0.0876  0.3403
 3069SOL    HW120669   0.066   0.601   1.380  1.1712  0.4006 -0.3318
 3069SOL    HW220670   0.177   0.676   1.440 -0.2964 -0.3309 -0.4204
 3070SOL     OW20671   0.864   3.805   6.179 -0.4195 -0.3278  0.0674
 3070SOL    HW120672   0.898   3.789   6.091 -2.5087  0.3480 -0.8628
 3070SOL    HW220673   0.785   3.754   6.163 -0.0121 -1.2101  0.8858
 3071SOL     OW20674   1.061   0.767   3.681 -0.4332  0.0212 -0.1209
 3071SOL    HW120675   0.966   0.755   3.686 -0.3678 -0.9539 -1.3247
 3071SOL    HW220676   1.087   0.688   3.632  0.9250  2.1948 -2.9040
 3072SOL     OW20677   4.044   4.454  15.263 -0.2870  0.2897  0.3135
 3072SOL    HW120678   3.977   4.487  15.203  1.6098  0.8386 -1.4981
 3072SOL    HW220679   4.020   4.363  15.280 -0.4983  0.6753  2.0569
 3073SOL     OW20680   4.072   0.199   9.146  0.5889 -0.1033 -0.1519
 3073SOL    HW120681   4.083   0.171   9.236 -1.3181 -0.1526  0.0694
 3073SOL    HW220682   4.136   0.139   9.107  1.3317 -0.1530  1.1670
 3074SOL     OW20683   1.330   1.375  12.563  0.3162  0.0292 -0.0352
 3074SOL    HW120684   1.264   1.305  12.559 -0.9659  1.2904 -0.8642
 3074SOL    HW220685   1.339   1.388  12.657  2.1651  2.0384 -0.4781
 3075SOL     OW20686   1.120   0.157   8.059 -0.0644  0.6706 -0.0946
 3075SOL    HW120687   1.120   0.251   8.079  2.6160  0.9188 -1.3085
 3075SOL    HW220688   1.060   0.152   7.984  0.5971 -0.5475 -0.5430
 3076SOL     OW20689   3.462   4.501   2.088 -0.1397 -0.0186  0.7955
 3076SOL    HW120690   3.421   4.579   2.051 -0.2604 -1.2516 -1.6663
 3076SOL    HW220691   3.392   4.437   2.080  0.8190 -0.8211 -1.1836
 3077SOL     OW20692   2.308   2.562   2.068 -0.0072  0.0436  0.0417
 3077SOL    HW120693   2.284   2.590   2.157  0.7004 -0.3047  0.3439
 3077SOL    HW220694   2.403   2.575   2.070 -0.1440  1.0300 -0.0402
 3078SOL     OW20695   0.860   1.473   5.584  0.1079  0.0900 -0.1976
 3078SOL    HW120696   0.914   1.523   5.645 -1.9720  0.5007  1.3029
 3078SOL    HW220697   0.900   1.386   5.584 -0.3183 -0.1022  1.7170
 3079SOL     OW20698   4.051   0.089  14.421 -0.4928  0.6783  0.0798
 3079SOL    HW120699   4.091   0.010  14.459  1.2212  1.5871  0.1496
 3079SOL    HW220700   3.982   0.058  14.362  0.0378  0.8353 -0.6179
 3080SOL     OW20701   0.829   0.586  13.607  0.1582  0.2597 -0.2238
 3080SOL    HW120702   0.838   0.623  13.520 -1.1651 -1.0660 -0.9445
 3080SOL    HW220703   0.913   0.543  13.623  0.6301  0.4543 -2.2345
 3081SOL     OW20704   2.943   1.723   5.239 -0.0835  0.2922  0.2109
 3081SOL    HW120705   3.016   1.776   5.207  0.1470 -0.6401 -0.7892
 3081SOL    HW220706   2.987   1.659   5.295  0.0512 -0.9036 -1.2679
 3082SOL     OW20707   4.511   3.665   5.436  0.2148  0.2230  0.6087
 3082SOL    HW120708   4.597   3.697   5.464  0.1163 -0.4504  1.6724
 3082SOL    HW220709   4.478   3.747   5.399 -0.4081  0.8908  2.6550
 3083SOL     OW20710   4.110   1.115   6.291 -0.0066  0.0823  0.3639
 3083SOL    HW120711   4.049   1.066   6.237  0.9735 -0.0227 -0.6481
 3083SOL    HW220712   4.171   1.043   6.307 -2.4381 -1.6547  1.7351
 3084SOL     OW20713   1.419   4.031  15.265 -0.4474  0.5701 -0.4667
 3084SOL    HW120714   1.407   3.952  15.213  4.0699  1.0725 -2.2043
 3084SOL    HW220715   1.407   4.106  15.207 -0.9037  1.2920  0.5396
 3085SOL     OW20716   1.534   3.940   6.537 -0.0181  0.2673 -0.4443
 3085SOL    HW120717   1.580   3.930   6.454  1.7360  0.0928  0.5621
 3085SOL    HW220718   1.473   4.013   6.523  0.5874  0.9070  0.2511
 3086SOL     OW20719   0.435   3.263   7.034 -0.0085  0.5396  0.0780
 3086SOL    HW120720   0.369   3.235   7.097  1.3349 -0.1571  1.1609
 3086SOL    HW220721   0.388   3.250   6.952 -1.0976 -0.9963  0.9426
 3087SOL     OW20722   0.720   1.954   7.219 -0.4300 -0.5395  0.2248
 3087SOL    HW120723   0.677   1.871   7.237 -2.1695 -0.1538 -2.2213
 3087SOL    HW220724   0.639   2.005   7.219 -0.7998 -1.1269  1.3199
 3088SOL     OW20725   4.560   2.999   6.936 -0.2291  0.0603  0.6903
 3088SOL    HW120726   4.610   2.924   6.969  1.5483  0.8090 -0.3450
 3088SOL    HW220727   4.486   3.003   6.997 -1.3167 -0.9131 -0.5731
 3089SOL     OW20728   0.691   2.919   7.755 -0.4222  0.0376  0.1671
 3089SOL    HW120729   0.710   2.994   7.811 -2.6512  1.0071 -0.3673
 3089SOL    HW220730   0.601   2.937   7.728  0.3320  0.0309 -2.3577
 3090SOL     OW20731   3.764   2.231   1.695 -0.3055 -0.4533 -0.0068
 3090SOL    HW120732   3.782   2.322   1.672 -0.9758 -0.0172  1.2199
 3090SOL    HW220733   3.788   2.193   1.610  1.8247  1.4595 -0.2590
 3091SOL     OW20734   4.339   2.684  10.981  0.9453 -0.0380  0.0665
 3091SOL    HW120735   4.357   2.648  10.894  1.4787  0.1534  0.1028
 3091SOL    HW220736   4.281   2.621  11.024  0.2462 -0.1478 -1.0352
 3092SOL     OW20737   2.902   2.964   1.930  0.0857  0.0074 -0.0500
 3092SOL    HW120738   2.952   2.901   1.878 -1.0854  0.6175 -1.8839
 3092SOL    HW220739   2.889   2.923   2.016  0.4799  3.0883  1.4918
 3093SOL     OW20740   4.213   0.693   7.175 -0.1295 -0.0467  0.8848
 3093SOL    HW120741   4.134   0.695   7.229 -0.9116 -1.3553 -0.2434
 3093SOL    HW220742   4.272   0.649   7.237  1.8040 -0.7892 -1.4920
 3094SOL     OW20743   0.282   1.930   6.670 -0.3660 -0.3961 -0.1071
 3094SOL    HW120744   0.351   1.883   6.717  0.2069 -1.3395 -1.9211
 3094SOL    HW220745   0.243   1.986   6.738  2.2058  0.1504  0.9368
 3095SOL     OW20746   0.865   3.305   3.835  0.0149  0.2364 -0.4897
 3095SOL    HW120747   0.798   3.259   3.886  0.7789 -0.9006 -0.5156
 3095SOL    HW220748   0.892   3.374   3.894 -2.2912 -0.5447  1.4808
 3096SOL     OW20749   1.406   3.310  13.037  0.2260  0.4812 -0.1233
 3096SOL    HW120750   1.446   3.224  13.021 -0.2815  0.1230  0.5183
 3096SOL    HW220751   1.424   3.344  12.949 -1.8197  0.1019 -0.7139
 3097SOL     OW20752   3.725   1.471  15.467  0.3633 -0.3313 -0.1375
 3097SOL    HW120753   3.735   1.438  15.377  1.0606  0.5817 -0.3989
 3097SOL    HW220754   3.717   1.566  15.460 -3.0673 -0.7066 -0.9777
 3098SOL     OW20755   2.858   4.437   4.731  0.1700  0.2695 -0.1456
 3098SOL    HW120756   2.882   4.362   4.677  1.2913 -0.4548  1.3415
 3098SOL    HW220757   2.901   4.412   4.813  0.9939 -1.8814 -1.2324
 3099SOL     OW20758   2.359   2.802   5.971  0.5786  0.2199  0.3347
 3099SOL    HW120759   2.297   2.731   5.952 -0.6523  1.5371 -0.5499
 3099SOL    HW220760   2.436   2.751   5.996  1.8641  0.8265 -2.4005
 3100SOL     OW20761   2.142   3.196   9.874  0.0918 -0.4509 -0.1979
 3100SOL    HW120762   2.146   3.127   9.807 -1.3966 -1.4113  0.6940
 3100SOL    HW220763   2.187   3.153   9.947 -0.9634 -0.9817  0.1500
 3101SOL     OW20764   3.842   1.130   3.619 -0.0366 -0.4883  0.2642
 3101SOL    HW120765   3.823   1.223   3.636 -0.7403 -0.7936  1.1290
 3101SOL    HW220766   3.936   1.124   3.638  0.0060  1.2721  0.6338
 3102SOL     OW20767   3.440   0.778  10.727  0.5943 -0.2414  0.0961
 3102SOL    HW120768   3.445   0.732  10.811  2.2930  1.2531  0.8154
 3102SOL    HW220769   3.528   0.814  10.714 -0.0205  1.1913 -0.0557
 3103SOL     OW20770   3.942   3.855   1.425 -0.2642  0.0214  0.8948
 3103SOL    HW120771   3.904   3.899   1.349 -1.1241  0.7955  1.7846
 3103SOL    HW220772   4.035   3.864   1.404 -0.1609 -1.7675  0.5513
 3104SOL     OW20773   2.395   2.813   4.404 -0.1863 -0.1626 -0.2749
 3104SOL    HW120774   2.476   2.775   4.371 -0.5489 -1.2442  0.0765
 3104SOL    HW220775   2.391   2.778   4.493  0.5240 -3.6244 -1.6035
 3105SOL     OW20776   2.236   3.119  13.960  0.1979 -0.4140 -0.3634
 3105SOL    HW120777   2.273   3.186  13.903  3.2181 -0.2825  1.7324
 3105SOL    HW220778   2.152   3.164  13.975  0.0271 -0.6836 -0.5279
 3106SOL     OW20779   2.645   0.004   6.615  0.0239  0.1824  0.4893
 3106SOL    HW120780   2.678   0.068   6.677  0.6365  1.8491 -1.5637
 3106SOL    HW220781   2.570   0.051   6.580 -1.1804 -2.4404 -0.5022
 3107SOL     OW20782   3.685   4.034   9.719  0.3783  0.0798  0.0838
 3107SOL    HW120783   3.687   4.114   9.771  3.1119 -0.1931  0.3908
 3107SOL    HW220784   3.599   4.051   9.680 -0.8383 -1.3632  2.1243
 3108SOL     OW20785   4.620   1.547   6.336 -0.6820  0.6863  0.1764
 3108SOL    HW120786   4.632   1.635   6.299  5.1073  0.7435  2.0957
 3108SOL    HW220787   4.536   1.542   6.381  0.5487 -1.4356  2.2223
 3109SOL     OW20788   1.971   3.563   9.478 -0.1695  0.4954  0.0753
 3109SOL    HW120789   2.011   3.605   9.402 -0.2931  3.1931  1.4886
 3109SOL    HW220790   1.980   3.636   9.539  0.3003  0.9226 -0.5064
 3110SOL     OW20791   1.967   3.109   2.464 -0.1004  0.2990 -0.1253
 3110SOL    HW120792   1.872   3.099   2.454 -0.1683  2.0842 -1.3737
 3110SOL    HW220793   1.972   3.114   2.559 -1.5572 -0.7657  0.0032
 3111SOL     OW20794   0.882   0.997   2.916  0.0735 -0.2360  0.4493
 3111SOL    HW120795   0.848   1.086   2.931 -0.9138 -0.2210 -1.7871
 3111SOL    HW220796   0.831   0.966   2.841  0.8927  1.9862 -1.0595
 3112SOL     OW20797   0.942   1.644   3.206 -0.3149  0.5957 -0.6503
 3112SOL    HW120798   1.011   1.699   3.242 -1.0275  1.5084 -0.6559
 3112SOL    HW220799   0.954   1.662   3.112  2.3139 -0.9702 -0.5820
 3113SOL     OW20800   0.419   1.004   2.117  0.5986 -0.1057 -0.0517
 3113SOL    HW120801   0.483   0.997   2.188  2.7765  0.2415 -1.9998
 3113SOL    HW220802   0.476   1.004   2.040 -0.1234  2.0038 -0.5892
 3114SOL     OW20803   2.186   2.393  14.194 -0.4168  0.2606 -0.1600
 3114SOL    HW120804   2.217   2.484  14.190 -1.4900  0.6088 -0.6302
 3114SOL    HW220805   2.147   2.393  14.107  0.4873  0.9516 -0.5560
 3115SOL     OW20806   2.385   3.275  13.489  0.3293 -0.3490 -0.0601
 3115SOL    HW120807   2.357   3.261  13.399 -0.2772 -0.1855  0.1053
 3115SOL    HW220808   2.423   3.362  13.481 -1.4579  0.6092  1.8329
 3116SOL     OW20809   4.671   2.951   7.985  0.4515 -0.1553  0.5948
 3116SOL    HW120810   4.697   3.041   7.965  1.8950 -0.3913  1.4254
 3116SOL    HW220811   0.019   2.925   8.045  1.0882  1.8638  0.7091
 3117SOL     OW20812   1.991   3.948   7.864 -0.5447 -0.4781 -1.0809
 3117SOL    HW120813   2.047   3.880   7.901 -1.7534 -0.7642  0.2192
 3117SOL    HW220814   1.928   3.963   7.935  2.8489  1.3766  1.5456
 3118SOL     OW20815   1.285   4.087   6.942 -0.0992  0.3513  0.7719
 3118SOL    HW120816   1.352   4.042   6.994 -0.0603  0.2714  0.6525
 3118SOL    HW220817   1.231   4.015   6.908  0.6428  0.0176  0.3194
 3119SOL     OW20818   0.283   1.699   4.006 -1.0701  0.0990 -0.6360
 3119SOL    HW120819   0.331   1.776   3.977 -0.3269 -1.1257 -2.6864
 3119SOL    HW220820   0.250   1.661   3.925  0.9094  0.4139 -1.5674
 3120SOL     OW20821   4.000   2.264   5.552  0.0231 -0.1682  0.1392
 3120SOL    HW120822   4.095   2.275   5.558  0.0124  0.2476 -0.5482
 3120SOL    HW220823   3.987   2.169   5.550 -2.4483  0.1037  1.9161
 3121SOL     OW20824   1.684   0.771  10.916 -0.5136 -0.0179  0.0418
 3121SOL    HW120825   1.605   0.741  10.872 -1.2586  2.0729 -0.0617
 3121SOL    HW220826   1.652   0.775  11.007  2.7102  0.2490  1.1666
 3122SOL     OW20827   2.510   3.017  13.430  0.1415  0.8748 -0.5095
 3122SOL    HW120828   2.462   2.969  13.498  1.1709 -0.3960 -0.6659
 3122SOL    HW220829   2.443   3.083  13.413 -1.1475  0.0645  1.4301
 3123SOL     OW20830   0.027   0.445   7.925 -0.1943 -0.2634  0.0346
 3123SOL    HW120831   4.671   0.496   7.904  0.0847 -0.4661 -1.5026
 3123SOL    HW220832   0.015   0.459   8.019  0.9861  1.9661 -0.1645
 3124SOL     OW20833   0.590   0.759   6.924 -0.4006 -0.1503 -0.3325
 3124SOL    HW120834   0.535   0.836   6.935 -1.4282 -0.7137 -1.5103
 3124SOL    HW220835   0.532   0.685   6.945  1.1232 -0.7424  1.7809
 3125SOL     OW20836   3.075   0.040  12.246  0.0310  0.1868 -0.3381
 3125SOL    HW120837   3.150   0.042  12.186  0.2110  0.0896 -0.1140
 3125SOL    HW220838   3.101   0.108  12.308 -1.9208  0.0854  0.5931
 3126SOL     OW20839   4.463   3.256   4.584 -0.1077  0.8712 -0.6006
 3126SOL    HW120840   4.475   3.307   4.504  1.6095  0.6985 -0.4500
 3126SOL    HW220841   4.513   3.177   4.564 -0.4479  0.5512 -0.1743
 3127SOL     OW20842   3.900   0.929   3.924  0.4931 -0.0998 -0.1893
 3127SOL    HW120843   3.994   0.914   3.913  0.3658 -0.3174 -0.9264
 3127SOL    HW220844   3.889   0.969   4.011 -0.0816  1.4060 -0.9617
 3128SOL     OW20845   4.560   3.758  16.481  0.1912  0.1466  0.1563
 3128SOL    HW120846   4.527   3.806  16.556  1.0880 -1.1400  1.3857
 3128SOL    HW220847   4.485   3.700  16.467 -0.5960  0.8910  1.3853
 3129SOL     OW20848   3.722   3.046   2.720 -0.1460  0.0647 -0.0908
 3129SOL    HW120849   3.738   3.081   2.808 -0.7680  2.1475 -0.8177
 3129SOL    HW220850   3.811   3.033   2.685 -0.0466 -3.0660  1.3333
 3130SOL     OW20851   2.205   0.190  13.468 -0.3292  0.1347  0.3617
 3130SOL    HW120852   2.159   0.261  13.421  1.3965  0.8720 -0.2083
 3130SOL    HW220853   2.281   0.180  13.411 -0.4041  0.5854  0.1780
 3131SOL     OW20854   4.554   3.862   1.603 -0.0149  0.6321  0.3345
 3131SOL    HW120855   4.558   3.958   1.606  0.3114  0.6142  0.4212
 3131SOL    HW220856   4.474   3.849   1.653 -1.0851  0.8746 -1.2878
 3132SOL     OW20857   3.608   2.848   8.299  0.3213 -0.0219  0.5812
 3132SOL    HW120858   3.643   2.936   8.288 -2.7495  1.0617 -0.7135
 3132SOL    HW220859   3.616   2.844   8.394  1.7924  2.6481  0.5524
 3133SOL     OW20860   1.371   3.266   3.392 -0.2399 -0.5176 -0.1931
 3133SOL    HW120861   1.393   3.200   3.327  0.0365 -0.8452  0.2323
 3133SOL    HW220862   1.410   3.341   3.347 -1.1872  0.1779  0.1391
 3134SOL     OW20863   2.775   0.265   4.660  0.2459  0.5176 -0.1298
 3134SOL    HW120864   2.754   0.223   4.577  0.0260  0.2571  0.0568
 3134SOL    HW220865   2.711   0.229   4.722  2.7568  0.7081  2.5580
 3135SOL     OW20866   4.718   2.555  11.446  0.1952 -0.6447 -0.0009
 3135SOL    HW120867   4.633   2.514  11.436  1.2445 -2.7061 -0.3742
 3135SOL    HW220868   0.045   2.509  11.514 -1.5132 -1.1308  0.9046
 3136SOL     OW20869   3.661   2.584   0.609  0.1647 -0.0321  0.4035
 3136SOL    HW120870   3.618   2.500   0.594  1.1057 -0.8161  2.0261
 3136SOL    HW220871   3.582   2.638   0.609 -2.1814 -3.4318  2.0256
 3137SOL     OW20872   0.051   2.796   0.794 -0.2831 -0.0151 -0.1566
 3137SOL    HW120873   4.688   2.835   0.770  0.2753  0.3978 -1.4789
 3137SOL    HW220874   0.054   2.818   0.887 -3.4208 -3.6096  0.7525
 3138SOL     OW20875   3.935   0.333   6.425 -0.4014 -0.2539 -0.1404
 3138SOL    HW120876   3.912   0.240   6.421  0.1436 -0.4754  1.9566
 3138SOL    HW220877   3.847   0.372   6.422 -0.1711  0.5273  2.6817
 3139SOL     OW20878   0.082   1.038   2.569 -0.1720 -0.2058 -0.2685
 3139SOL    HW120879   0.067   1.059   2.477  0.0148  0.7276 -0.0780
 3139SOL    HW220880   0.143   1.106   2.595 -2.3797  0.7731  2.3778
 3140SOL     OW20881   0.839   0.851   2.432 -0.0803  0.6327  0.2637
 3140SOL    HW120882   0.928   0.885   2.419  0.0558 -0.1463 -0.8289
 3140SOL    HW220883   0.786   0.876   2.357  0.1109  2.1325  0.6329
 3141SOL     OW20884   4.681   1.730   5.478  0.6888  0.2557 -0.1779
 3141SOL    HW120885   0.020   1.698   5.544 -0.8133  2.5294  2.3234
 3141SOL    HW220886   4.596   1.713   5.519  1.2125  0.7714  1.1311
 3142SOL     OW20887   0.279   0.167   7.144 -0.4388  0.1573 -0.2408
 3142SOL    HW120888   0.295   0.225   7.070  1.9646  0.6461  0.6591
 3142SOL    HW220889   0.236   0.090   7.106 -0.1846  0.0805 -0.3801
 3143SOL     OW20890   4.484   2.503  10.765 -0.2300 -0.4402  0.1828
 3143SOL    HW120891   4.416   2.558  10.726 -1.1693 -1.1192  0.8445
 3143SOL    HW220892   4.536   2.577  10.797 -1.1652  0.6506 -0.8357
 3144SOL     OW20893   1.361   1.320   9.067  0.2052  0.4994  0.0202
 3144SOL    HW120894   1.403   1.406   9.067 -0.8129  0.9928 -1.5712
 3144SOL    HW220895   1.391   1.277   8.987  0.0676 -0.6175  0.5536
 3145SOL     OW20896   0.662   0.875   8.300 -0.0942  0.2554 -0.1573
 3145SOL    HW120897   0.663   0.912   8.388 -0.8593  1.5622 -0.6963
 3145SOL    HW220898   0.612   0.795   8.316 -0.0850  1.2350  4.5811
 3146SOL     OW20899   1.733   0.746   5.325  0.0391 -0.3098 -0.7075
 3146SOL    HW120900   1.746   0.816   5.390 -0.9138 -0.7774 -0.0150
 3146SOL    HW220901   1.783   0.677   5.368 -2.3644 -1.3439  0.4381
 3147SOL     OW20902   0.332   1.922   8.958  0.3121  0.4561 -0.2956
 3147SOL    HW120903   0.413   1.970   8.947  0.2740  0.4356 -0.6913
 3147SOL    HW220904   0.339   1.863   8.882  0.7313 -1.0784  0.9343
 3148SOL     OW20905   1.367   0.451   7.526 -0.4930  0.2874 -0.6261
 3148SOL    HW120906   1.354   0.390   7.599 -0.0649 -0.3901 -1.1096
 3148SOL    HW220907   1.276   0.455   7.496 -0.6615 -0.4814 -0.2471
 3149SOL     OW20908   2.753   3.769   8.058  0.3582 -0.1382 -0.0670
 3149SOL    HW120909   2.801   3.849   8.040 -0.6980 -0.1359 -2.7494
 3149SOL    HW220910   2.670   3.788   8.013  1.1928 -1.6564 -2.2383
 3150SOL     OW20911   0.328   1.415   8.775  0.1278  0.0230 -0.2099
 3150SOL    HW120912   0.321   1.469   8.854 -1.3952  0.2840 -0.5357
 3150SOL    HW220913   0.277   1.338   8.802 -1.1218  0.7362 -0.5512
 3151SOL     OW20914   0.280   4.665   5.935 -0.1347 -0.0773  0.7047
 3151SOL    HW120915   0.224   4.705   6.002 -1.3459  1.8334 -1.4584
 3151SOL    HW220916   0.345   0.013   5.930  0.2037 -0.3355  1.4527
 3152SOL     OW20917   1.068   0.545   3.500 -0.5431  0.4618  0.2971
 3152SOL    HW120918   1.137   0.531   3.566 -1.4479  0.1559  1.1802
 3152SOL    HW220919   1.003   0.477   3.519 -0.2684 -0.0671 -0.6630
 3153SOL     OW20920   3.827   3.471   1.383 -0.0467  0.3437  0.1597
 3153SOL    HW120921   3.874   3.503   1.306 -1.2689  0.4423 -0.5457
 3153SOL    HW220922   3.734   3.487   1.370 -0.2068  0.1117  1.0224
 3154SOL     OW20923   1.428   3.321   3.815 -0.2739  0.2715 -0.4489
 3154SOL    HW120924   1.381   3.301   3.896 -0.8506  1.0787 -0.5761
 3154SOL    HW220925   1.470   3.239   3.789 -0.2093  1.0779 -2.8763
 3155SOL     OW20926   0.524   3.813   3.495 -0.0142  0.7400  0.2587
 3155SOL    HW120927   0.436   3.816   3.458 -0.1504  1.8679  0.6722
 3155SOL    HW220928   0.570   3.783   3.417 -0.3834 -3.0995  1.4954
 3156SOL     OW20929   4.530   2.025  14.319  0.3953  0.7898 -0.5392
 3156SOL    HW120930   4.445   1.985  14.302 -0.2913  0.9120  2.4868
 3156SOL    HW220931   4.524   2.110  14.275 -0.5637  1.5512  1.0433
 3157SOL     OW20932   1.744   1.857   3.426  0.6864  0.0449  0.0624
 3157SOL    HW120933   1.804   1.861   3.352 -0.2427 -0.1864 -0.7117
 3157SOL    HW220934   1.672   1.817   3.376 -0.8835  1.8097  0.9161
 3158SOL     OW20935   0.574   3.753   2.726  0.6389 -0.0020 -0.1411
 3158SOL    HW120936   0.492   3.712   2.753  0.9480  1.0936  2.4304
 3158SOL    HW220937   0.610   3.677   2.682  2.6683  1.2241 -0.5960
 3159SOL     OW20938   4.203   0.152   3.239 -0.3125 -0.3299  0.0373
 3159SOL    HW120939   4.219   0.090   3.310  0.0631  0.0536  0.2907
 3159SOL    HW220940   4.203   0.241   3.274  1.3156  0.1932 -1.2622
 3160SOL     OW20941   2.252   0.400  15.499  0.2097  0.0658 -0.8475
 3160SOL    HW120942   2.230   0.492  15.516  2.0827 -0.0301  2.1867
 3160SOL    HW220943   2.306   0.408  15.419  0.3345 -0.6239 -0.8348
 3161SOL     OW20944   0.923   3.529  12.577  0.0339  0.5062  0.1388
 3161SOL    HW120945   0.855   3.574  12.627 -0.5737  0.3104 -0.5151
 3161SOL    HW220946   0.986   3.599  12.563  0.7384 -0.1543  0.0051
 3162SOL     OW20947   1.915   1.901   6.321 -0.6780 -0.0619  0.1532
 3162SOL    HW120948   1.840   1.898   6.262 -1.8749 -0.6294  1.6951
 3162SOL    HW220949   1.880   1.976   6.370 -3.4691 -0.4477 -1.2332
 3163SOL     OW20950   0.936   3.608   2.930 -0.0073  0.0866  0.3907
 3163SOL    HW120951   0.885   3.529   2.911 -0.7212  0.6121  0.1213
 3163SOL    HW220952   0.869   3.671   2.955 -0.6990 -0.3087 -0.4853
 3164SOL     OW20953   4.349   3.792  15.128 -0.3673  0.7758 -0.4594
 3164SOL    HW120954   4.442   3.785  15.107  0.1463  0.3403  1.9560
 3164SOL    HW220955   4.327   3.881  15.101 -2.0599  0.5507  0.1839
 3165SOL     OW20956   0.451   1.590   4.214  0.6829 -0.1281  0.6659
 3165SOL    HW120957   0.391   1.650   4.169  0.4653  0.0802  1.2352
 3165SOL    HW220958   0.421   1.505   4.181  1.9443 -0.3021 -0.0388
 3166SOL     OW20959   4.647   1.418   2.107  0.2739  0.1891 -0.1657
 3166SOL    HW120960   4.675   1.466   2.184  0.6228 -0.4588  0.1062
 3166SOL    HW220961   4.667   1.476   2.033 -1.0057  1.7275  0.7099
 3167SOL     OW20962   0.890   1.309   8.621  0.2178 -0.0227 -0.4916
 3167SOL    HW120963   0.884   1.293   8.715  1.7698 -0.5481 -0.4784
 3167SOL    HW220964   0.805   1.350   8.607  0.4955  1.0551  0.9471
 3168SOL     OW20965   2.663   3.216   4.579  0.1003 -0.5414 -0.2261
 3168SOL    HW120966   2.697   3.305   4.575  1.0765 -0.9132 -0.1666
 3168SOL    HW220967   2.734   3.157   4.607  0.8812  0.9082  0.8268
 3169SOL     OW20968   0.763   0.109   4.672  0.2199 -0.3076 -0.1416
 3169SOL    HW120969   0.839   0.053   4.686 -0.0816 -1.0407 -1.3872
 3169SOL    HW220970   0.708   0.086   4.747  1.8863 -0.2239  1.0945
 3170SOL     OW20971   2.601   2.639   4.322  0.3772 -0.2879 -0.0305
 3170SOL    HW120972   2.622   2.569   4.383 -1.1021  0.2012  1.0378
 3170SOL    HW220973   2.536   2.590   4.272  0.0381  0.4288 -0.3025
 3171SOL     OW20974   4.233   0.098  12.480  0.2792 -0.0344 -0.4212
 3171SOL    HW120975   4.320   0.136  12.493 -0.0865  0.5725  0.2071
 3171SOL    HW220976   4.176   0.174  12.478 -0.2823 -0.4526 -0.0259
 3172SOL     OW20977   0.598   1.541  17.494  0.7724  0.3723  0.3588
 3172SOL    HW120978   0.601   1.503  17.407  1.7779  1.1276  0.0673
 3172SOL    HW220979   0.581   1.460  17.542 -0.4477  0.0707 -0.5790
 3173SOL     OW20980   1.507   4.701   6.339  0.5748  0.0768 -0.2450
 3173SOL    HW120981   1.524   4.681   6.431 -1.0952  1.1085  0.2842
 3173SOL    HW220982   1.437   4.638   6.317 -0.5754 -0.1076  3.8254
 3174SOL     OW20983   4.082   1.050   4.615  0.5530 -0.0844 -0.7859
 3174SOL    HW120984   4.071   0.983   4.683 -1.0677 -0.0014 -0.9643
 3174SOL    HW220985   3.993   1.082   4.603  0.4583 -0.2729 -0.5885
 3175SOL     OW20986   1.535   2.859   7.579 -0.6390 -0.0128  0.3498
 3175SOL    HW120987   1.594   2.908   7.636 -0.3843  0.4971 -0.3489
 3175SOL    HW220988   1.449   2.884   7.613 -0.1073  1.0939  0.8760
 3176SOL     OW20989   0.953   0.323   3.614  0.0877 -0.0858  0.0094
 3176SOL    HW120990   1.037   0.278   3.621  0.0543 -0.1563 -0.0450
 3176SOL    HW220991   0.917   0.301   3.700  0.9501  1.3440  0.7428
 3177SOL     OW20992   3.762   1.653   9.321 -0.0342 -0.3744  0.0915
 3177SOL    HW120993   3.714   1.581   9.280 -1.7382 -0.2877  1.9544
 3177SOL    HW220994   3.698   1.680   9.387 -1.3595 -1.4232 -0.7691
 3178SOL     OW20995   0.582   2.141   4.281  0.4946 -0.0560  0.1478
 3178SOL    HW120996   0.545   2.221   4.318  0.8994  1.2129 -2.1975
 3178SOL    HW220997   0.538   2.145   4.197 -0.5652 -0.1021  0.7025
 3179SOL     OW20998   1.355   3.429   8.981 -0.4897  0.2691  0.1789
 3179SOL    HW120999   1.299   3.408   9.055  0.1497 -1.2752  0.2352
 3179SOL    HW221000   1.333   3.351   8.929  0.1748  0.6074 -0.6194
 3180SOL     OW21001   3.540   2.007  15.652  0.0513 -0.5015  0.0479
 3180SOL    HW121002   3.525   1.975  15.741 -0.4656 -0.3464  0.0170
 3180SOL    HW221003   3.633   2.022  15.640  0.4390 -0.6538  2.8042
 3181SOL     OW21004   0.020   4.096  10.939 -0.4650  0.8522 -0.1407
 3181SOL    HW121005   0.071   4.034  10.990 -2.5728 -1.3950 -0.7405
 3181SOL    HW221006   0.079   4.088  10.864 -1.6879 -2.3656 -0.7500
 3182SOL     OW21007   2.624   3.829   4.199 -0.2132  0.6044  0.5671
 3182SOL    HW121008   2.679   3.903   4.223 -1.3731  1.7471 -0.2693
 3182SOL    HW221009   2.634   3.768   4.272 -1.5224  0.6284  0.7727
 3183SOL     OW21010   1.608   1.746  12.141 -0.2235 -0.2680 -0.6598
 3183SOL    HW121011   1.587   1.653  12.150 -2.5291  0.3827  0.6977
 3183SOL    HW221012   1.521   1.780  12.159 -0.0345 -0.8313  1.2745
 3184SOL     OW21013   3.008   2.370   7.231  0.1704 -0.2694  0.2629
 3184SOL    HW121014   2.999   2.389   7.138 -1.0981  0.4978  0.5420
 3184SOL    HW221015   3.096   2.404   7.249 -0.3777  0.5918  1.3886
 3185SOL     OW21016   0.981   1.250   5.894 -0.4426 -0.3373  0.2137
 3185SOL    HW121017   0.965   1.252   5.800  1.1316  0.5212 -0.0314
 3185SOL    HW221018   1.067   1.208   5.899 -0.5339 -0.3017  1.9370
 3186SOL     OW21019   0.027   4.548   3.011  0.2116  0.1101  0.1983
 3186SOL    HW121020   4.720   4.630   2.971  2.7313  1.1778  0.5286
 3186SOL    HW221021   0.003   4.565   3.102  0.8415 -1.3393  0.6388
 3187SOL     OW21022   1.053   1.543  14.242 -0.6503  0.5546 -0.3791
 3187SOL    HW121023   1.079   1.628  14.204 -1.0934  0.4773 -0.8587
 3187SOL    HW221024   1.014   1.502  14.165 -0.7011  0.3566 -0.2457
 3188SOL     OW21025   2.703   0.116   4.434 -0.0663  0.1434  0.1108
 3188SOL    HW121026   2.724   0.023   4.433 -1.8114 -0.2324 -0.4908
 3188SOL    HW221027   2.728   0.140   4.344 -3.2498 -0.7215 -0.9938
 3189SOL     OW21028   4.325   1.825   3.875 -0.4795  0.1858  0.2401
 3189SOL    HW121029   4.384   1.786   3.810 -1.1016  0.0021 -0.2159
 3189SOL    HW221030   4.385   1.819   3.949  1.1368 -1.3042 -1.1902
 3190SOL     OW21031   0.289   2.569   5.326 -0.2767 -0.1356 -0.0836
 3190SOL    HW121032   0.341   2.583   5.247  2.8007 -0.2969  1.9047
 3190SOL    HW221033   0.347   2.599   5.396 -2.0697  0.0236  1.3216
 3191SOL     OW21034   0.295   1.781   8.720 -0.5419  0.5174  0.2946
 3191SOL    HW121035   0.239   1.857   8.701 -0.5236  0.6398  0.7383
 3191SOL    HW221036   0.220   1.721   8.727  0.5451 -0.7282  1.2289
 3192SOL     OW21037   2.378   4.703  12.758 -0.0324 -0.3219 -0.1860
 3192SOL    HW121038   2.387   4.687  12.852 -0.1175 -0.6171 -0.2284
 3192SOL    HW221039   2.444   4.642  12.724 -1.1211 -1.0510 -1.0008
 3193SOL     OW21040   2.412   3.567   6.082  0.4432  0.4543 -0.4690
 3193SOL    HW121041   2.372   3.550   6.167  0.0126 -1.5531 -1.0652
 3193SOL    HW221042   2.341   3.544   6.021  1.0185 -0.0775 -0.9406
 3194SOL     OW21043   2.263   4.011  11.645  0.3289 -0.0560 -0.4761
 3194SOL    HW121044   2.289   3.990  11.735  0.7939 -0.8381 -0.7967
 3194SOL    HW221045   2.309   4.094  11.635  1.7499 -0.8893 -0.7958
 3195SOL     OW21046   3.370   0.168   6.444  0.8836  0.8578  0.3599
 3195SOL    HW121047   3.345   0.245   6.393 -0.8471 -0.3176 -0.5525
 3195SOL    HW221048   3.295   0.152   6.501  0.3484 -1.8719 -1.0592
 3196SOL     OW21049   3.690   4.438   8.112  0.2383  0.0548 -0.3866
 3196SOL    HW121050   3.736   4.476   8.187  0.3209  1.5435 -1.1867
 3196SOL    HW221051   3.747   4.469   8.041  0.1593 -0.7912 -0.8233
 3197SOL     OW21052   2.634   2.863   1.179  0.1660  0.0214  0.1107
 3197SOL    HW121053   2.667   2.944   1.140 -0.2262  1.6921  3.2137
 3197SOL    HW221054   2.568   2.844   1.113 -0.8875  0.4585  1.0215
 3198SOL     OW21055   4.439   4.085  13.288 -0.1340 -0.3220 -0.4455
 3198SOL    HW121056   4.361   4.106  13.237  0.3234 -0.9790 -1.4333
 3198SOL    HW221057   4.485   4.025  13.228  1.0190  0.0479  0.0856
 3199SOL     OW21058   4.036   4.565   3.292 -0.3964 -0.3218 -0.8363
 3199SOL    HW121059   4.101   4.522   3.347 -1.1287  0.5738  0.7477
 3199SOL    HW221060   4.090   4.585   3.216  1.2967 -0.9099  0.2208
 3200SOL     OW21061   0.046   0.049   3.632 -0.1448  0.2750  0.3043
 3200SOL    HW121062   0.113   0.017   3.571 -1.2672  0.7726 -1.1900
 3200SOL    HW221063   0.090   0.036   3.716  1.2648  0.7860 -0.3575
 3201SOL     OW21064   2.064   0.576   8.099 -0.1862  0.2608  0.5277
 3201SOL    HW121065   2.140   0.602   8.152 -1.4268  1.7375  1.5598
 3201SOL    HW221066   2.107   0.531   8.026 -0.9606  1.2891 -0.5420
 3202SOL     OW21067   4.427   3.760   8.278 -0.0039  0.3328 -0.1524
 3202SOL    HW121068   4.405   3.849   8.250 -2.5999 -0.3703 -0.3732
 3202SOL    HW221069   4.438   3.772   8.372 -0.4455  4.6848 -0.6536
 3203SOL     OW21070   0.328   3.381  15.124  0.5008 -0.3839  0.2856
 3203SOL    HW121071   0.251   3.382  15.181 -0.1449 -0.1901 -0.5886
 3203SOL    HW221072   0.388   3.440  15.169 -0.2984  0.2544  0.5079
 3204SOL     OW21073   2.681   2.710  11.586  0.1849  0.9051 -0.4200
 3204SOL    HW121074   2.611   2.647  11.569 -0.4015  0.5640  3.2614
 3204SOL    HW221075   2.728   2.671  11.660  0.5826  0.4748 -0.9047
 3205SOL     OW21076   4.285   3.781   7.614 -0.0599  0.0989  0.0443
 3205SOL    HW121077   4.287   3.865   7.568  1.0101 -0.2723 -0.5931
 3205SOL    HW221078   4.335   3.726   7.554 -1.4810 -1.7000  0.5022
 3206SOL     OW21079   3.537   3.180   8.843  0.2173  0.4266  0.2319
 3206SOL    HW121080   3.560   3.191   8.935 -1.4231 -1.2810  0.8601
 3206SOL    HW221081   3.540   3.271   8.816  0.0127  0.2752 -0.3043
 3207SOL     OW21082   4.130   1.607   4.891 -0.0594 -0.0311  0.6558
 3207SOL    HW121083   4.125   1.702   4.890  2.1279  0.1008  1.7936
 3207SOL    HW221084   4.206   1.595   4.949 -0.3403 -0.2788  0.9706
 3208SOL     OW21085   1.224   4.204  13.226 -0.3287  0.0763  0.4967
 3208SOL    HW121086   1.311   4.209  13.265  0.4149 -0.1618 -1.1315
 3208SOL    HW221087   1.183   4.147  13.292 -1.7223  0.2575 -0.2097
 3209SOL     OW21088   4.249   0.909   8.656 -0.0560 -0.3164  0.2759
 3209SOL    HW121089   4.288   0.981   8.706 -0.3624 -0.0186  0.0914
 3209SOL    HW221090   4.160   0.917   8.690 -0.7295 -0.3316 -1.4875
 3210SOL     OW21091   0.675   3.527   2.617  0.9748 -0.2046 -0.2098
 3210SOL    HW121092   0.675   3.478   2.700 -1.2835 -1.4385 -0.9343
 3210SOL    HW221093   0.761   3.500   2.586  2.1699  1.4398  1.7232
 3211SOL     OW21094   0.536   0.728   9.109  0.4681 -0.2492  0.5593
 3211SOL    HW121095   0.526   0.710   9.016 -0.5785 -1.1109  0.8292
 3211SOL    HW221096   0.485   0.808   9.122  2.3555  1.0243  0.1482
 3212SOL     OW21097   2.157   3.962   8.588  0.0911  0.5488  0.2117
 3212SOL    HW121098   2.175   3.931   8.677  1.8309  1.9520  0.3590
 3212SOL    HW221099   2.178   4.055   8.599  0.7316  0.5159 -0.6771
 3213SOL     OW21100   2.978   2.626   4.100 -0.4008 -0.0683 -0.0748
 3213SOL    HW121101   2.900   2.673   4.071 -0.0020  1.6789  1.7136
 3213SOL    HW221102   2.954   2.533   4.110 -2.2400  0.7346  2.9160
 3214SOL     OW21103   0.254   2.750  16.284  0.7007  0.3503  0.0002
 3214SOL    HW121104   0.210   2.676  16.243  0.4201 -0.2278  1.3224
 3214SOL    HW221105   0.183   2.798  16.327  0.7464  0.0591  0.3998
 3215SOL     OW21106   4.274   1.515   0.915  0.8131  0.1148 -0.0149
 3215SOL    HW121107   4.261   1.423   0.890  0.6209  0.0123  0.4523
 3215SOL    HW221108   4.361   1.522   0.875  0.0189  1.9737 -1.4176
 3216SOL     OW21109   0.034   4.587  16.481 -0.3450 -0.1519 -0.2938
 3216SOL    HW121110   0.049   4.587  16.576  2.1049  1.6465 -0.6830
 3216SOL    HW221111   4.664   4.562  16.482 -0.3729 -0.0040  0.7498
 3217SOL     OW21112   4.505   3.118  14.659 -0.1139 -0.5659 -0.4263
 3217SOL    HW121113   4.522   3.064  14.583  2.2833  1.4908 -1.3574
 3217SOL    HW221114   4.488   3.051  14.725  1.7416 -0.1649  0.4641
 3218SOL     OW21115   1.869   1.746   1.476 -0.0284  0.4835  0.1223
 3218SOL    HW121116   1.916   1.699   1.408 -2.2305 -1.4564 -0.0670
 3218SOL    HW221117   1.790   1.779   1.432  0.3181 -0.5050 -1.2313
 3219SOL     OW21118   2.687   2.308   0.977 -0.0937 -0.0621  0.2746
 3219SOL    HW121119   2.604   2.271   0.946 -1.4026  3.4650 -0.4158
 3219SOL    HW221120   2.660   2.338   1.064  1.2926  0.6473  0.4512
 3220SOL     OW21121   0.633   0.563  16.108 -0.1739 -0.7789  0.4316
 3220SOL    HW121122   0.719   0.542  16.071 -0.2594  0.7599 -0.6116
 3220SOL    HW221123   0.622   0.656  16.090  0.4609 -0.8209 -0.1592
 3221SOL     OW21124   4.640   4.714   2.263  0.3600  0.0356 -0.4525
 3221SOL    HW121125   4.661   4.657   2.188  0.6911 -1.0879  0.4882
 3221SOL    HW221126   4.565   4.674   2.306  1.0966  0.3623  1.1675
 3222SOL     OW21127   2.283   0.007   9.138  0.1960  0.3970  0.2488
 3222SOL    HW121128   2.351   0.025   9.203  0.1469  0.2457  0.3415
 3222SOL    HW221129   2.318   4.648   9.102  3.0243  1.8528 -0.2248
 3223SOL     OW21130   0.208   1.609  10.588  0.2417  0.0564 -0.4301
 3223SOL    HW121131   0.235   1.530  10.542  2.1126 -1.0544  2.5390
 3223SOL    HW221132   0.198   1.564  10.672  1.6528 -0.5410 -0.5971
 3224SOL     OW21133   1.000   0.764  11.846  0.0854  0.8091 -0.7149
 3224SOL    HW121134   1.086   0.781  11.884 -0.0195 -1.2169  0.4617
 3224SOL    HW221135   0.958   0.849  11.860 -0.5075  0.4245 -0.1225
 3225SOL     OW21136   0.591   2.344   8.761  0.2320 -0.3628 -0.5342
 3225SOL    HW121137   0.616   2.406   8.830  0.3029  0.8967 -1.7054
 3225SOL    HW221138   0.513   2.315   8.809 -0.6084 -0.4518 -1.9848
 3226SOL     OW21139   0.528   4.169   4.429  0.1106 -0.8311 -0.1445
 3226SOL    HW121140   0.486   4.227   4.365  1.3569  2.5907  2.1325
 3226SOL    HW221141   0.487   4.084   4.414 -2.3526  0.2379  0.6124
 3227SOL     OW21142   3.226   4.214   4.751 -0.0285 -0.7413  0.1017
 3227SOL    HW121143   3.239   4.171   4.667  1.8132 -0.9377  0.4973
 3227SOL    HW221144   3.214   4.137   4.807 -1.3058  0.0956  0.9851
 3228SOL     OW21145   1.336   1.492   8.178  0.1776 -0.3599 -0.0343
 3228SOL    HW121146   1.420   1.448   8.164 -0.0759 -1.6154  2.3616
 3228SOL    HW221147   1.366   1.560   8.238  0.6150 -0.4177 -0.1840
 3229SOL     OW21148   0.461   0.248   6.234 -0.4474 -0.4928  0.7006
 3229SOL    HW121149   0.443   0.310   6.304  0.0072  0.0872  0.2923
 3229SOL    HW221150   0.523   0.194   6.282 -2.4711 -1.5450  2.1062
 3230SOL     OW21151   1.005   2.847   3.409 -0.4437 -0.1688  0.3609
 3230SOL    HW121152   1.035   2.879   3.324  0.4886  0.6184  0.9809
 3230SOL    HW221153   0.927   2.801   3.377 -0.9718  1.3292 -0.4957
 3231SOL     OW21154   1.666   1.686   6.479  0.5798  0.4118 -0.0106
 3231SOL    HW121155   1.657   1.781   6.478  2.1114  0.5565 -0.1667
 3231SOL    HW221156   1.573   1.669   6.489  1.1484 -3.3509 -1.1561
 3232SOL     OW21157   1.558   1.191   0.484  0.0604 -0.1651  0.4015
 3232SOL    HW121158   1.627   1.230   0.538  0.9323 -1.7019  0.4102
 3232SOL    HW221159   1.618   1.137   0.433 -0.9632 -1.1471  0.2381
 3233SOL     OW21160   2.031   0.602   7.594  0.5913 -0.0722  0.0839
 3233SOL    HW121161   2.022   0.540   7.666 -0.9572 -0.3523 -0.3581
 3233SOL    HW221162   2.041   0.686   7.639  0.3134 -0.4154  0.7897
 3234SOL     OW21163   1.655   3.815   8.369  0.6152 -0.1887  0.3070
 3234SOL    HW121164   1.587   3.882   8.373 -0.0304 -0.7498 -1.3630
 3234SOL    HW221165   1.702   3.843   8.448  2.3400 -0.2748 -0.6863
 3235SOL     OW21166   4.564   1.991   7.727 -0.7270 -0.7384 -0.1506
 3235SOL    HW121167   4.528   1.993   7.816 -2.4995  0.1695 -0.8885
 3235SOL    HW221168   4.578   1.900   7.704 -1.1236 -0.7578 -0.3230
 3236SOL     OW21169   1.469   2.308   7.796 -0.2246 -0.4559  0.2556
 3236SOL    HW121170   1.448   2.399   7.816 -1.7397 -0.6030 -0.6221
 3236SOL    HW221171   1.529   2.327   7.724 -1.3135 -1.7538 -1.0132
 3237SOL     OW21172   1.153   3.737   3.106 -0.3928  0.0916 -0.3189
 3237SOL    HW121173   1.095   3.700   3.173 -0.7078 -2.3655 -1.9229
 3237SOL    HW221174   1.107   3.727   3.023 -1.7048  1.9099  0.1865
 3238SOL     OW21175   1.852   4.575  14.167 -0.2687  0.0236  0.6599
 3238SOL    HW121176   1.862   4.545  14.257  1.6535 -0.4397  0.2915
 3238SOL    HW221177   1.928   4.632  14.156  0.8369 -1.3839  1.0656
 3239SOL     OW21178   3.035   4.614   8.549  0.4415 -0.1391  0.0241
 3239SOL    HW121179   3.118   4.662   8.557  0.8123 -1.1105  2.0428
 3239SOL    HW221180   3.041   4.576   8.636  0.3856  1.9238  0.9263
 3240SOL     OW21181   3.487   3.946   9.970 -0.5461 -0.0944  0.3580
 3240SOL    HW121182   3.409   3.957   9.915 -1.3048 -0.3277  1.3910
 3240SOL    HW221183   3.540   3.906   9.901 -0.2301 -1.4167  1.3662
 3241SOL     OW21184   0.761   4.068  12.935 -0.1127 -0.1694  0.4496
 3241SOL    HW121185   0.725   4.129  12.999  1.0678 -1.4967  2.3658
 3241SOL    HW221186   0.683   4.016  12.913  0.3075 -0.5639 -0.0879
 3242SOL     OW21187   2.697   2.231   8.166  0.7542 -0.0447  0.1329
 3242SOL    HW121188   2.696   2.136   8.179 -2.2351 -0.3356 -2.1365
 3242SOL    HW221189   2.737   2.260   8.248 -0.9183 -2.3276  1.7764
 3243SOL     OW21190   2.123   0.264   3.177 -0.0220  0.9069  0.1112
 3243SOL    HW121191   2.109   0.296   3.088  0.1027 -0.1594 -0.2907
 3243SOL    HW221192   2.218   0.274   3.171  0.2068 -0.5824  1.2187
 3244SOL     OW21193   2.001   0.181  17.506  0.2684 -0.2562  0.4291
 3244SOL    HW121194   1.943   0.238  17.457 -0.0404 -1.1347 -0.2361
 3244SOL    HW221195   2.039   0.253  17.556  1.0062 -0.9569  0.8856
 3245SOL     OW21196   4.564   4.655  15.968 -0.2608 -0.3638  0.3653
 3245SOL    HW121197   4.602   0.019  15.989 -2.3635  0.3000  1.4054
 3245SOL    HW221198   4.579   4.605  16.049  0.7825 -0.5816  0.0417
 3246SOL     OW21199   4.541   3.138  15.460  0.2657 -0.2355 -0.5876
 3246SOL    HW121200   4.558   3.086  15.539 -1.2249 -0.1681 -0.2180
 3246SOL    HW221201   4.446   3.127  15.457  0.4893 -2.5219  0.6030
 3247SOL     OW21202   0.582   1.299  11.571 -0.1522 -0.0533  0.5858
 3247SOL    HW121203   0.648   1.300  11.502  0.9876  0.0087  1.6800
 3247SOL    HW221204   0.506   1.282  11.516 -0.7548 -0.1817  1.4490
 3248SOL     OW21205   1.320   2.872  17.219 -0.6654  0.2520  0.0606
 3248SOL    HW121206   1.416   2.875  17.225 -0.4440 -1.5815 -2.3539
 3248SOL    HW221207   1.285   2.886  17.307  0.0061 -2.1504  0.7120
 3249SOL     OW21208   2.263   4.713   8.436 -0.1550 -0.7944 -0.1183
 3249SOL    HW121209   2.170   0.011   8.448  0.6616  1.4106  2.2841
 3249SOL    HW221210   2.279   4.648   8.504 -0.3922 -0.6280  0.0972
 3250SOL     OW21211   0.541   3.747   5.392 -0.4504 -0.2026  0.2306
 3250SOL    HW121212   0.600   3.821   5.384 -1.2987  0.2746 -1.8168
 3250SOL    HW221213   0.592   3.667   5.376 -0.8991 -0.1738 -1.3947
 3251SOL     OW21214   0.836   4.312  10.449 -0.2208 -0.3846  0.0931
 3251SOL    HW121215   0.866   4.373  10.516  0.9716  1.7490 -2.3937
 3251SOL    HW221216   0.742   4.318  10.467  0.3937  1.9390  2.4429
 3252SOL     OW21217   0.289   4.570   4.843  0.8384 -1.1100  0.1163
 3252SOL    HW121218   0.280   4.665   4.853 -1.2072 -1.0194 -2.4120
 3252SOL    HW221219   0.266   4.536   4.929 -1.5041  0.8265  0.2517
 3253SOL     OW21220   0.687   3.967  12.319 -0.3566 -0.4599 -0.2503
 3253SOL    HW121221   0.601   4.008  12.305 -0.2101 -0.4455 -1.1155
 3253SOL    HW221222   0.713   4.003  12.404  0.6278 -1.0420 -0.3033
 3254SOL     OW21223   0.815   4.713  11.500  0.4144  0.0819 -0.2139
 3254SOL    HW121224   0.743   0.046  11.470  1.7004  0.4935 -2.5445
 3254SOL    HW221225   0.881   0.056  11.475 -0.1120  0.7394  0.1301
 3255SOL     OW21226   1.210   0.262   5.544  0.1485 -0.2182 -0.0068
 3255SOL    HW121227   1.219   0.167   5.552  2.1068  0.0538  0.9244
 3255SOL    HW221228   1.232   0.295   5.631 -1.2767  0.7244 -0.0149
 3256SOL     OW21229   2.001   2.953   9.810  0.2695  0.0268 -0.1003
 3256SOL    HW121230   1.951   2.921   9.735  0.9041  2.4139 -1.5310
 3256SOL    HW221231   1.933   2.972   9.875 -0.3237  2.8964 -1.5357
 3257SOL     OW21232   3.536   4.556   2.866  0.0285 -0.1063 -0.2445
 3257SOL    HW121233   3.614   4.528   2.914 -0.8492  0.7238  1.6234
 3257SOL    HW221234   3.491   4.474   2.847 -0.0507 -0.4944  1.6786
 3258SOL     OW21235   2.659   4.166   8.730  0.0773 -0.0800  0.0990
 3258SOL    HW121236   2.569   4.193   8.710  0.1211 -0.1088 -0.1424
 3258SOL    HW221237   2.669   4.091   8.671 -0.1255  0.7514 -0.9905
 3259SOL     OW21238   0.297   0.583  11.546  0.2512 -0.7158 -0.2919
 3259SOL    HW121239   0.202   0.587  11.542  0.2312 -1.8446 -0.7665
 3259SOL    HW221240   0.301   0.487  11.546  0.8132 -0.6849 -1.3489
 3260SOL     OW21241   4.569   0.485   6.606  0.2266 -0.1604 -0.4657
 3260SOL    HW121242   4.557   0.549   6.536  1.1182  0.3741 -0.1247
 3260SOL    HW221243   4.660   0.510   6.624  0.1620 -0.9072  0.8940
 3261SOL     OW21244   3.563   2.332   4.776 -0.1291  0.7625 -0.3982
 3261SOL    HW121245   3.540   2.395   4.844  0.3948  1.3520 -0.7749
 3261SOL    HW221246   3.502   2.357   4.707  0.8639  1.5217 -1.0005
 3262SOL     OW21247   2.288   2.148   0.190 -0.1079  0.0500 -0.4932
 3262SOL    HW121248   2.289   2.057   0.222  0.1888  0.8772  1.8279
 3262SOL    HW221249   2.371   2.164   0.146 -1.2083  0.3208 -2.4726
 3263SOL     OW21250   3.913   0.780   3.571  0.0511  0.2704  0.4625
 3263SOL    HW121251   3.881   0.760   3.483  1.1799  0.2037  0.0748
 3263SOL    HW221252   4.005   0.788   3.547 -0.1870 -0.8053 -0.8710
 3264SOL     OW21253   2.550   2.744  13.797 -0.8132 -0.5741  0.6625
 3264SOL    HW121254   2.539   2.649  13.788 -0.3164 -0.7586  2.0630
 3264SOL    HW221255   2.461   2.780  13.797 -0.3498  0.5615  2.0822
 3265SOL     OW21256   1.980   4.080   3.998  0.3156  0.9221 -0.3645
 3265SOL    HW121257   2.053   4.086   4.060  1.5667 -0.5953 -1.6973
 3265SOL    HW221258   1.934   4.006   4.040 -2.7779  2.0696 -1.7720
 3266SOL     OW21259   3.434   1.997  11.585  0.0019  0.0960 -0.1857
 3266SOL    HW121260   3.523   1.975  11.614 -0.5275 -2.0498 -0.2137
 3266SOL    HW221261   3.433   2.081  11.539  2.1164  0.1162 -0.2250
 3267SOL     OW21262   3.412   0.805  13.786 -0.3919  0.1522  0.4944
 3267SOL    HW121263   3.434   0.837  13.874 -0.6756  2.2127 -0.1864
 3267SOL    HW221264   3.322   0.834  13.773  0.0415  0.4648 -1.7781
 3268SOL     OW21265   2.597   2.270  13.320 -0.0741  0.0249  0.2603
 3268SOL    HW121266   2.677   2.258  13.268 -0.3821  1.0690 -0.4571
 3268SOL    HW221267   2.552   2.190  13.296 -0.1179  1.1220 -3.3575
 3269SOL     OW21268   2.140   4.277   6.689 -0.1732 -0.5838 -0.2212
 3269SOL    HW121269   2.076   4.318   6.746  0.6695 -1.4715  1.3567
 3269SOL    HW221270   2.187   4.221   6.750  0.1598 -0.5190 -0.4161
 3270SOL     OW21271   1.131   1.126  12.622  0.1748 -0.2475 -0.2166
 3270SOL    HW121272   1.071   1.195  12.648 -0.2922 -0.8860  0.4066
 3270SOL    HW221273   1.112   1.103  12.531 -0.1452 -0.0642 -0.1950
 3271SOL     OW21274   2.860   2.522   8.108  1.0899 -0.0323  0.7071
 3271SOL    HW121275   2.833   2.520   8.199  0.8940 -0.4796  0.6412
 3271SOL    HW221276   2.914   2.600   8.097  0.5835  0.5868  2.7163
 3272SOL     OW21277   3.557   3.899   3.296  0.0845  0.0073  0.2266
 3272SOL    HW121278   3.537   3.984   3.256 -1.9719 -2.2195 -3.4553
 3272SOL    HW221279   3.652   3.905   3.304  0.1388 -1.7086  1.0266
 3273SOL     OW21280   3.635   3.920   5.417  0.5661 -0.3701  0.1254
 3273SOL    HW121281   3.721   3.957   5.395  0.4012  0.0152  0.1348
 3273SOL    HW221282   3.596   3.988   5.471  1.3603  0.1130  0.0855
 3274SOL     OW21283   2.851   2.946   1.548  0.2691 -0.3162  0.1163
 3274SOL    HW121284   2.828   2.907   1.464 -1.1059  1.4410 -0.3246
 3274SOL    HW221285   2.848   2.870   1.606  2.6976 -1.2333 -0.9478
 3275SOL     OW21286   1.658   0.313   9.237  0.4143 -0.4257  0.4045
 3275SOL    HW121287   1.672   0.380   9.304 -0.0321  0.0212  0.0552
 3275SOL    HW221288   1.563   0.319   9.224  0.4475 -1.5130 -0.2671
 3276SOL     OW21289   3.562   0.080   7.764  0.2187  0.1579  0.5031
 3276SOL    HW121290   3.565   0.123   7.678  0.8608  0.3443  0.6205
 3276SOL    HW221291   3.621   0.138   7.811  0.2175  1.1998 -0.7827
 3277SOL     OW21292   0.083   3.007  16.204  0.1376 -0.0389 -0.3070
 3277SOL    HW121293   0.123   2.933  16.158  1.4881  0.0286  0.7447
 3277SOL    HW221294   0.113   2.989  16.293  1.6449 -1.6525 -1.1268
 3278SOL     OW21295   0.071   0.862   6.703  0.4273  0.2342  0.3137
 3278SOL    HW121296   0.152   0.911   6.688  0.3555  0.5577  0.9599
 3278SOL    HW221297   0.013   0.936   6.717  0.8130  0.8310 -1.2808
 3279SOL     OW21298   3.122   2.593   8.463  0.4417 -0.7449 -0.1884
 3279SOL    HW121299   3.190   2.597   8.530  0.4981  1.0840 -0.3541
 3279SOL    HW221300   3.041   2.605   8.512 -0.8058 -3.9156 -1.4722
 3280SOL     OW21301   2.333   2.197  14.511  0.7829  0.2401 -0.4509
 3280SOL    HW121302   2.408   2.137  14.505  0.2059 -0.5398  0.0709
 3280SOL    HW221303   2.368   2.285  14.523  2.3269 -0.5175  0.7482
 3281SOL     OW21304   1.280   0.772  11.680  0.4803  0.1820 -0.0193
 3281SOL    HW121305   1.250   0.804  11.765 -3.1584 -2.8764 -0.1470
 3281SOL    HW221306   1.196   0.763  11.635  0.9310  0.5523 -0.9437
 3282SOL     OW21307   0.196   2.852   4.749 -0.1889 -0.2107  0.5435
 3282SOL    HW121308   0.190   2.774   4.804  2.1645 -0.3142  0.6387
 3282SOL    HW221309   0.117   2.892   4.786 -0.5002 -0.5411  0.2434
 3283SOL     OW21310   0.317   1.464   6.005 -0.5097  0.0068  0.5345
 3283SOL    HW121311   0.400   1.511   5.993 -0.6401  0.1342  0.1309
 3283SOL    HW221312   0.333   1.460   6.099  0.0556  0.8658  0.4760
 3284SOL     OW21313   4.539   1.080   4.717 -0.0417  0.0339 -0.2095
 3284SOL    HW121314   4.572   1.001   4.761 -1.2452 -0.1586  0.3528
 3284SOL    HW221315   4.470   1.043   4.663 -0.6877 -0.5348  1.0120
 3285SOL     OW21316   4.283   3.878  10.542  0.2900  0.1891  0.3828
 3285SOL    HW121317   4.303   3.787  10.564  1.2461  0.5625  1.0598
 3285SOL    HW221318   4.188   3.886  10.534  0.4827  0.9675 -1.1604
 3286SOL     OW21319   1.971   3.139   4.824  0.1284 -0.4656  0.1918
 3286SOL    HW121320   2.038   3.108   4.764  0.0357  0.8494 -0.5897
 3286SOL    HW221321   2.029   3.205   4.864  0.1281 -0.8036  0.7567
 3287SOL     OW21322   0.643   3.012   3.031 -0.3243  0.5337  0.2080
 3287SOL    HW121323   0.559   3.057   3.021  0.8992  2.3436 -2.0034
 3287SOL    HW221324   0.638   2.940   2.968 -1.3265  1.7408 -1.0795
 3288SOL     OW21325   1.206   3.985   3.833  0.4687  0.4484  0.5853
 3288SOL    HW121326   1.197   4.039   3.911  0.0513 -0.9520  1.5123
 3288SOL    HW221327   1.114   3.985   3.807  0.5924 -0.5794  0.1459
 3289SOL     OW21328   1.540   2.061   7.666 -0.2996  0.1371 -0.7549
 3289SOL    HW121329   1.540   2.145   7.713  0.6154 -0.2732 -0.0347
 3289SOL    HW221330   1.453   2.029   7.689 -0.9596  2.5567  0.0975
 3290SOL     OW21331   0.942   4.292   3.451  0.1747 -0.3798  0.5512
 3290SOL    HW121332   1.026   4.336   3.439 -2.8234  5.1195 -0.2901
 3290SOL    HW221333   0.881   4.364   3.436  1.7972  1.0314  0.7210
 3291SOL     OW21334   0.581   0.087  17.560  0.0875 -0.6408  0.3950
 3291SOL    HW121335   0.497   0.095  17.514 -0.1839 -0.3248  0.9507
 3291SOL    HW221336   0.603   4.722  17.526  1.2558 -0.7822  1.5317
 3292SOL     OW21337   2.659   3.542   5.985 -0.2984  0.3994  0.0472
 3292SOL    HW121338   2.637   3.515   5.896 -1.2721  2.0624 -0.2260
 3292SOL    HW221339   2.574   3.539   6.030  0.1502  0.5290  0.8914
 3293SOL     OW21340   1.208   1.597  12.218  0.3906 -0.0051  0.7683
 3293SOL    HW121341   1.231   1.542  12.143  0.2850  0.9700  0.0287
 3293SOL    HW221342   1.270   1.667  12.198  0.7002 -0.1850  1.0853
 3294SOL     OW21343   3.194   3.467   7.842  0.2612 -0.5381  0.4347
 3294SOL    HW121344   3.107   3.498   7.822 -0.7956 -3.2643  0.7358
 3294SOL    HW221345   3.244   3.489   7.764  0.3579  0.9098  0.9134
 3295SOL     OW21346   2.180   2.596   0.146 -0.1353  0.3133 -0.3547
 3295SOL    HW121347   2.222   2.545   0.076 -2.7077 -2.2762  0.0010
 3295SOL    HW221348   2.229   2.678   0.139 -0.4082  0.5613  0.7833
 3296SOL     OW21349   3.104   1.838   5.679 -0.2969 -0.3970 -0.1025
 3296SOL    HW121350   3.145   1.780   5.615 -0.3883 -2.2976  1.5976
 3296SOL    HW221351   3.121   1.920   5.633  1.1277 -1.1979 -1.0082
 3297SOL     OW21352   1.199   0.036   8.539  0.1262 -0.0290  0.3722
 3297SOL    HW121353   1.131   4.702   8.576  0.5072 -0.6539  0.1295
 3297SOL    HW221354   1.168   0.123   8.566  3.0304  1.6022 -1.5255
 3298SOL     OW21355   0.497   2.707   5.754 -0.3397 -0.0832  0.0463
 3298SOL    HW121356   0.406   2.736   5.753 -0.7178 -1.2134  2.1390
 3298SOL    HW221357   0.537   2.794   5.754 -0.8981  0.1701 -0.1845
 3299SOL     OW21358   0.434   1.632   7.648 -0.1020  0.6420 -0.1927
 3299SOL    HW121359   0.494   1.694   7.691  0.0382 -0.5913  1.3800
 3299SOL    HW221360   0.465   1.551   7.689 -1.4695  0.3725  0.3065
 3300SOL     OW21361   0.272   0.653   5.310  0.1528 -0.0745 -0.2970
 3300SOL    HW121362   0.196   0.683   5.359 -0.1945  0.4246 -1.1449
 3300SOL    HW221363   0.325   0.605   5.375 -0.8374 -1.2023 -0.3221
 3301SOL     OW21364   4.409   0.287   9.444  0.3421  0.1429  0.3881
 3301SOL    HW121365   4.422   0.317   9.354 -3.4706  0.0784 -0.1554
 3301SOL    HW221366   4.480   0.334   9.488  0.6567 -1.0466  1.1625
 3302SOL     OW21367   1.669   2.212   6.848 -0.2765  0.3225  0.3512
 3302SOL    HW121368   1.645   2.201   6.756 -0.0042  0.4999  0.2604
 3302SOL    HW221369   1.637   2.302   6.856 -2.2271 -0.3077 -0.2162
 3303SOL     OW21370   0.643   3.924   1.763  0.1519  0.2366 -0.1453
 3303SOL    HW121371   0.739   3.931   1.758  0.5102 -2.0946  3.6796
 3303SOL    HW221372   0.614   4.015   1.775  0.7396  0.6123 -1.4678
 3304SOL     OW21373   3.783   0.439   2.870  0.1209  0.0702 -0.1881
 3304SOL    HW121374   3.747   0.444   2.959  2.9975  1.3457  0.8932
 3304SOL    HW221375   3.771   0.349   2.839  0.7415  0.3071 -1.1329
 3305SOL     OW21376   1.265   4.352   2.854  0.2789  0.3044 -1.0321
 3305SOL    HW121377   1.283   4.438   2.893  1.7552  0.8634 -2.9223
 3305SOL    HW221378   1.351   4.325   2.820  1.0044 -0.4135  1.3946
 3306SOL     OW21379   1.196   2.089   7.903 -0.3710 -0.4390  0.1231
 3306SOL    HW121380   1.155   2.031   7.968  0.6698  0.1245  1.2826
 3306SOL    HW221381   1.236   2.027   7.842  0.6101 -0.3838  0.7160
 3307SOL     OW21382   4.571   0.267   4.294 -0.4256  0.4897  0.6214
 3307SOL    HW121383   4.475   0.267   4.300 -0.4055  0.0266  0.9126
 3307SOL    HW221384   4.583   0.360   4.273  0.8588 -0.7584 -4.0461
 3308SOL     OW21385   4.425   2.620   8.534  0.1858 -0.8436 -0.4119
 3308SOL    HW121386   4.403   2.703   8.491 -0.8502 -0.7721  0.2511
 3308SOL    HW221387   4.338   2.581   8.542  0.5857 -1.0968  2.7697
 3309SOL     OW21388   1.018   2.333  11.748  0.0905  0.0394  0.2667
 3309SOL    HW121389   0.995   2.317  11.839  1.4256  0.4966  0.6872
 3309SOL    HW221390   1.105   2.371  11.758  0.6607 -1.0086 -0.5924
 3310SOL     OW21391   1.884   4.189   8.966  0.3354 -0.5919 -0.7513
 3310SOL    HW121392   1.885   4.127   8.892 -0.3779 -2.4836  0.8215
 3310SOL    HW221393   1.843   4.130   9.029  0.7589  1.2391  1.2501
 3311SOL     OW21394   0.326   1.528   8.500 -0.2871  0.1135  0.2108
 3311SOL    HW121395   0.249   1.529   8.444  0.2747  4.8802 -0.4686
 3311SOL    HW221396   0.301   1.481   8.580 -3.0365 -0.3801 -0.9490
 3312SOL     OW21397   1.548   4.430   4.567  0.3181 -0.0605  0.1678
 3312SOL    HW121398   1.459   4.459   4.547  0.7106 -0.3704 -2.0472
 3312SOL    HW221399   1.537   4.380   4.648 -0.5457 -0.3232 -0.1186
 3313SOL     OW21400   3.983   0.817   8.948 -0.2663 -0.5862 -0.3267
 3313SOL    HW121401   3.889   0.836   8.941 -0.6169 -2.3514 -0.3050
 3313SOL    HW221402   4.006   0.860   8.865 -0.3429  0.6293  0.2897
 3314SOL     OW21403   0.079   1.990   0.362  0.3610 -0.0453 -0.0188
 3314SOL    HW121404   0.030   2.054   0.413 -0.2824 -0.6635  0.1361
 3314SOL    HW221405   0.139   1.955   0.428 -0.5511  0.5205  1.1071
 3315SOL     OW21406   0.628   1.153   4.526  0.9195  0.1067 -0.0452
 3315SOL    HW121407   0.602   1.163   4.434 -2.9863  2.1295  1.3046
 3315SOL    HW221408   0.713   1.108   4.526  1.1907  0.6229  0.7293
 3316SOL     OW21409   1.756   4.480   7.387 -0.4712 -0.2164  0.4979
 3316SOL    HW121410   1.748   4.394   7.346  0.1350  0.1548 -0.4299
 3316SOL    HW221411   1.729   4.535   7.313 -0.6574 -1.6980 -0.5387
 3317SOL     OW21412   1.677   2.215   0.364 -0.0288 -0.0073 -0.4329
 3317SOL    HW121413   1.687   2.310   0.357  0.2473  0.0225  0.3201
 3317SOL    HW221414   1.592   2.196   0.324  0.7677  0.2817 -2.2132
 3318SOL     OW21415   4.013   0.596  12.480 -0.1256  0.0777 -0.3074
 3318SOL    HW121416   4.012   0.689  12.455 -1.0507 -0.2713 -1.5183
 3318SOL    HW221417   4.022   0.556  12.394  0.2906  0.3072 -0.3762
 3319SOL     OW21418   0.251   4.082   7.267  0.2574  0.3076 -0.9636
 3319SOL    HW121419   0.283   4.013   7.326  1.7962  3.7693  2.2540
 3319SOL    HW221420   0.167   4.106   7.307 -0.9864  0.8677 -3.9244
 3320SOL     OW21421   1.062   1.319   6.891  0.1946 -0.5643 -0.4404
 3320SOL    HW121422   1.062   1.413   6.877 -0.2748 -0.6510 -1.0165
 3320SOL    HW221423   1.068   1.317   6.987  1.2339 -2.1358 -0.5443
 3321SOL     OW21424   3.177   0.448   4.095 -0.0415 -0.0743  0.8441
 3321SOL    HW121425   3.264   0.465   4.059 -0.0331  2.0209  1.8171
 3321SOL    HW221426   3.135   0.438   4.010  2.1965 -0.5390 -0.1828
 3322SOL     OW21427   0.482   0.797   4.679 -0.0136 -0.2203  0.1801
 3322SOL    HW121428   0.566   0.814   4.719 -1.1252  2.8540  1.1459
 3322SOL    HW221429   0.437   0.745   4.746 -0.2459 -1.1274 -0.6712
 3323SOL     OW21430   1.491   4.550   8.152  0.2448  0.3790  0.1286
 3323SOL    HW121431   1.586   4.551   8.167  0.2917 -0.3761 -0.1108
 3323SOL    HW221432   1.460   4.627   8.198 -0.5511 -0.4034  0.9030
 3324SOL     OW21433   0.440   0.465  16.442  0.7293 -0.3665  0.1845
 3324SOL    HW121434   0.437   0.552  16.403 -0.1385  0.0718  1.2005
 3324SOL    HW221435   0.372   0.478  16.509 -0.3555  0.6297 -1.1027
 3325SOL     OW21436   4.495   0.857  11.296 -0.0492  1.0144 -0.2749
 3325SOL    HW121437   4.566   0.886  11.353 -1.3215  0.8511  1.3980
 3325SOL    HW221438   4.456   0.783  11.343  0.7212 -0.0745 -1.3382
 3326SOL     OW21439   0.931   4.218  11.768  0.1269 -0.0973  1.6283
 3326SOL    HW121440   0.908   4.125  11.760 -0.1773  0.1925 -0.6468
 3326SOL    HW221441   0.963   4.211  11.858  1.1411  1.4099  1.3858
 3327SOL     OW21442   2.384   2.994   8.510 -0.5018 -0.1864  0.2944
 3327SOL    HW121443   2.301   2.945   8.506 -0.3352 -0.2783 -2.0604
 3327SOL    HW221444   2.392   3.027   8.420  0.4100  1.8016  1.1008
 3328SOL     OW21445   1.657   1.124   5.200 -0.1777 -0.3526  0.1917
 3328SOL    HW121446   1.640   1.038   5.237  1.1182 -1.0811 -0.9091
 3328SOL    HW221447   1.751   1.128   5.222 -0.0908 -1.4529  0.0143
 3329SOL     OW21448   0.191   1.441   5.459  0.3620 -0.0359  0.3219
 3329SOL    HW121449   0.180   1.457   5.552 -1.1030 -1.0698  0.3204
 3329SOL    HW221450   0.166   1.349   5.450  1.1172 -0.2023 -0.0946
 3330SOL     OW21451   1.449   0.653  16.878 -0.0952  0.3501 -0.6843
 3330SOL    HW121452   1.374   0.599  16.901 -0.4827  0.5228 -1.5402
 3330SOL    HW221453   1.460   0.625  16.787 -1.1744  2.4493 -1.4885
 3331SOL     OW21454   3.271   0.912   7.150  0.5604  0.3767  0.2789
 3331SOL    HW121455   3.281   0.838   7.090  0.4273  0.4301  0.1909
 3331SOL    HW221456   3.285   0.988   7.093  0.9337  0.8175  0.9564
 3332SOL     OW21457   3.629   2.554  13.843  0.4161  0.1725  0.5072
 3332SOL    HW121458   3.639   2.462  13.817 -0.6434 -0.0586  0.8866
 3332SOL    HW221459   3.656   2.557  13.935  0.5314  2.6353  0.3990
 3333SOL     OW21460   3.079   4.233   0.386 -0.5207  0.7308  0.2995
 3333SOL    HW121461   3.051   4.228   0.294  1.4134  1.7778 -0.3681
 3333SOL    HW221462   3.146   4.164   0.386 -1.9651 -0.6632  2.0848
 3334SOL     OW21463   0.072   2.957   1.237 -0.1111 -0.3780  0.0999
 3334SOL    HW121464   0.114   3.020   1.295  1.5512  0.2923 -1.8618
 3334SOL    HW221465   0.081   2.879   1.292 -0.5105  0.3091  1.1412
 3335SOL     OW21466   2.888   3.137   3.230  0.3162  0.2016  0.5463
 3335SOL    HW121467   2.902   3.197   3.156 -0.3244 -0.0896  0.1972
 3335SOL    HW221468   2.797   3.156   3.251 -0.9083 -0.6428 -3.9059
 3336SOL     OW21469   1.197   1.224   2.853 -0.6920  0.0393 -0.3854
 3336SOL    HW121470   1.111   1.233   2.894  1.0364  5.3778  2.0899
 3336SOL    HW221471   1.253   1.207   2.928  0.0222 -0.2275 -0.9804
 3337SOL     OW21472   1.312   0.903  11.333 -0.6579 -0.4664  0.4721
 3337SOL    HW121473   1.253   0.974  11.305 -0.4403  0.0731  1.3889
 3337SOL    HW221474   1.279   0.893  11.422  0.5276 -0.3048  0.9226
 3338SOL     OW21475   0.315   1.421   3.473  0.1134 -0.0431 -0.1483
 3338SOL    HW121476   0.384   1.470   3.519 -0.6971  0.0245  1.0008
 3338SOL    HW221477   0.360   1.337   3.465  0.0393  0.0577 -1.5086
 3339SOL     OW21478   0.723   2.677   7.459  0.4577  0.5768  0.3613
 3339SOL    HW121479   0.756   2.627   7.534  0.2361  1.2807  0.9372
 3339SOL    HW221480   0.713   2.762   7.502 -1.1146 -0.3435  1.8169
 3340SOL     OW21481   3.586   1.909   3.158  0.0076  0.3413 -0.5758
 3340SOL    HW121482   3.647   1.919   3.232 -1.1748  0.4315  0.3925
 3340SOL    HW221483   3.549   1.823   3.173 -1.2915  1.1237  0.6989
 3341SOL     OW21484   1.110   2.963   8.939 -0.8546 -0.1931  0.1338
 3341SOL    HW121485   1.142   2.972   9.029 -1.8686  0.2680  0.4556
 3341SOL    HW221486   1.085   3.050   8.907 -1.5896 -1.2004 -2.0216
 3342SOL     OW21487   1.922   3.289   4.508 -0.5280  0.1589 -0.3496
 3342SOL    HW121488   1.946   3.307   4.417  1.5752 -0.5303  0.0569
 3342SOL    HW221489   1.979   3.218   4.538 -1.1016 -0.3780 -0.5250
 3343SOL     OW21490   0.796   0.476  10.453  0.1529 -0.4731 -0.1140
 3343SOL    HW121491   0.846   0.411  10.404  2.3688  0.5203  0.8063
 3343SOL    HW221492   0.788   0.443  10.543 -3.3786  1.0844  0.1395
 3344SOL     OW21493   3.256   2.221  16.394  0.9406 -0.5144  0.0148
 3344SOL    HW121494   3.172   2.178  16.380 -0.4100  2.1916 -0.1738
 3344SOL    HW221495   3.306   2.212  16.313  0.7990  2.3320 -0.3877
 3345SOL     OW21496   1.378   4.073   2.262  0.5298 -0.2226  0.3132
 3345SOL    HW121497   1.416   4.000   2.310 -0.9314 -2.2675 -1.6463
 3345SOL    HW221498   1.455   4.126   2.244 -0.3168  1.2561  1.0051
 3346SOL     OW21499   0.221   2.858   7.853  0.1498  0.5959  0.2947
 3346SOL    HW121500   0.257   2.904   7.929 -0.1378  0.9578  0.2064
 3346SOL    HW221501   0.181   2.780   7.892  0.3635 -0.2293 -1.1272
 3347SOL     OW21502   1.443   1.411   0.741 -0.2509 -0.0044 -0.1310
 3347SOL    HW121503   1.351   1.387   0.732 -0.2776  0.5878 -1.3576
 3347SOL    HW221504   1.496   1.331   0.736 -0.2220  0.0437 -0.5712
 3348SOL     OW21505   1.352   1.774  11.264  0.2156  0.0047  0.5843
 3348SOL    HW121506   1.290   1.828  11.214 -0.2459 -0.3367  0.7921
 3348SOL    HW221507   1.413   1.747  11.195 -1.2756  1.0288 -1.1498
 3349SOL     OW21508   3.204   3.612   9.039  0.1101 -0.2399 -0.3824
 3349SOL    HW121509   3.206   3.535   9.096 -0.0417 -0.5089 -0.7394
 3349SOL    HW221510   3.229   3.568   8.957  0.2108  0.9787 -1.0098
 3350SOL     OW21511   0.625   3.452  16.786  0.3804 -0.1818  0.2411
 3350SOL    HW121512   0.616   3.412  16.700 -1.1638 -0.8558  0.7159
 3350SOL    HW221513   0.688   3.395  16.831  0.6972 -0.6074 -0.7555
 3351SOL     OW21514   0.282   0.132   8.136 -0.2246  0.1673 -0.1095
 3351SOL    HW121515   0.235   0.145   8.053 -0.6696 -0.5369  0.0300
 3351SOL    HW221516   0.250   0.208   8.185  0.5220 -0.5749  1.5118
 3352SOL     OW21517   1.778   3.885  13.550 -0.6405  0.2195  0.7466
 3352SOL    HW121518   1.789   3.871  13.644 -0.5058 -3.4637  0.1748
 3352SOL    HW221519   1.715   3.957  13.549 -2.6342 -1.6355 -2.9654
 3353SOL     OW21520   4.435   4.530   3.336  0.1590  0.5973 -0.2317
 3353SOL    HW121521   4.519   4.567   3.365  0.4340 -0.0492 -0.2177
 3353SOL    HW221522   4.442   4.452   3.390 -0.6417  1.1703  0.7052
 3354SOL     OW21523   4.055   1.394   2.903  0.4623  0.3961  0.1819
 3354SOL    HW121524   4.012   1.474   2.873 -1.1525 -0.9434 -1.0833
 3354SOL    HW221525   3.981   1.336   2.883  0.7295  0.2592 -0.3966
 3355SOL     OW21526   3.516   2.657  15.868  0.1605  0.2129  0.1967
 3355SOL    HW121527   3.591   2.614  15.826 -1.0147 -2.3920  0.7456
 3355SOL    HW221528   3.463   2.577  15.869  1.2355 -0.4693  1.8115
 3356SOL     OW21529   4.378   0.064   2.196  0.2017 -0.4169 -0.8997
 3356SOL    HW121530   4.380   0.039   2.288 -0.1383  0.0637 -0.7578
 3356SOL    HW221531   4.469   0.085   2.177 -0.7991  2.1607 -2.9187
 3357SOL     OW21532   4.082   2.654   0.754  0.0254  0.5239 -0.3552
 3357SOL    HW121533   4.173   2.657   0.782 -0.1318  0.8695  0.1047
 3357SOL    HW221534   4.051   2.725   0.810  2.1511  0.8475  0.3933
 3358SOL     OW21535   0.312   2.257   7.376 -0.6089 -0.3680  0.2278
 3358SOL    HW121536   0.389   2.308   7.402 -0.7017  1.1328 -2.4062
 3358SOL    HW221537   0.275   2.235   7.461 -0.8249  1.5786  0.6468
 3359SOL     OW21538   3.159   3.577   4.945 -0.1465 -0.1505 -0.5522
 3359SOL    HW121539   3.248   3.558   4.916 -0.5732 -0.7012 -1.5166
 3359SOL    HW221540   3.143   3.509   5.011 -0.3372  0.8513  0.4281
 3360SOL     OW21541   1.925   2.571   2.888  0.0307  0.5037 -0.8573
 3360SOL    HW121542   1.867   2.534   2.955  0.9573 -0.1167 -0.3870
 3360SOL    HW221543   2.009   2.527   2.904 -0.9638 -0.9128  0.5021
 3361SOL     OW21544   0.485   2.473   7.461 -0.1796 -0.2381 -0.0457
 3361SOL    HW121545   0.515   2.563   7.447  1.9951 -0.6686  1.8231
 3361SOL    HW221546   0.440   2.483   7.545  2.4745  1.5741  1.1542
 3362SOL     OW21547   2.650   2.381   5.826 -0.3068  0.0131  0.2439
 3362SOL    HW121548   2.636   2.358   5.734  0.5298 -1.6830  0.5335
 3362SOL    HW221549   2.744   2.370   5.839 -0.1136  0.2649 -0.9539
 3363SOL     OW21550   2.710   2.308   7.622 -0.7312  0.1910  0.1499
 3363SOL    HW121551   2.735   2.362   7.547  1.4848 -0.3259  0.5422
 3363SOL    HW221552   2.710   2.378   7.687 -1.5972  1.5202 -1.2528
 3364SOL     OW21553   4.412   4.127   5.736  0.5366  0.1644  0.0750
 3364SOL    HW121554   4.353   4.102   5.807  0.1018  0.5180 -0.1626
 3364SOL    HW221555   4.358   4.116   5.658 -2.3455 -0.3497  2.1470
 3365SOL     OW21556   3.995   0.050   5.163  0.1984  0.1216 -0.4029
 3365SOL    HW121557   3.913   0.083   5.200  0.7555  0.3722  0.5996
 3365SOL    HW221558   4.043   0.035   5.244  1.5967 -1.8108 -1.6033
 3366SOL     OW21559   0.123   1.302   4.339  0.7727  0.1378  0.0950
 3366SOL    HW121560   0.191   1.327   4.277  0.4667  0.8164  0.0343
 3366SOL    HW221561   0.049   1.353   4.306  0.7223  0.9596  1.4472
 3367SOL     OW21562   3.435   0.486  11.614 -0.3425  0.4192 -0.3283
 3367SOL    HW121563   3.468   0.575  11.629  0.5802  0.1744 -0.8462
 3367SOL    HW221564   3.515   0.435  11.626  1.5977  3.6507  0.5178
 3368SOL     OW21565   3.285   1.554   9.772 -0.3875  0.0861 -0.3030
 3368SOL    HW121566   3.299   1.628   9.831  1.4595 -0.4320 -0.0814
 3368SOL    HW221567   3.347   1.489   9.807 -1.5525  0.0144  1.6394
 3369SOL     OW21568   2.921   2.366   6.134  0.4189 -0.2844  0.2987
 3369SOL    HW121569   2.902   2.458   6.148  1.5692 -0.1455  0.9053
 3369SOL    HW221570   2.997   2.355   6.191  0.4525  1.4653  0.5793
 3370SOL     OW21571   0.926   2.323   2.413  0.5742  0.1947  0.2174
 3370SOL    HW121572   0.894   2.345   2.500  1.3215 -0.1599  0.5831
 3370SOL    HW221573   0.977   2.404   2.404 -1.5920  1.8045  2.5107
 3371SOL     OW21574   1.071   3.762  15.163 -0.1015 -0.4608  0.0610
 3371SOL    HW121575   1.129   3.725  15.095  0.3969 -0.3318  0.4134
 3371SOL    HW221576   1.056   3.854  15.139  0.9063 -0.0623  0.9368
 3372SOL     OW21577   0.623   0.741   2.090  0.1925 -0.2024  0.2691
 3372SOL    HW121578   0.587   0.829   2.077  0.3899  0.0936  1.6555
 3372SOL    HW221579   0.672   0.717   2.012  1.7424 -1.1149  1.5087
 3373SOL     OW21580   1.371   2.880   1.564 -0.1361  0.4172 -0.3407
 3373SOL    HW121581   1.296   2.877   1.505  0.7944  3.0929 -1.6323
 3373SOL    HW221582   1.432   2.934   1.514  1.8147 -1.7850 -0.3617
 3374SOL     OW21583   3.718   3.431   4.141 -0.0143  0.5930  0.1651
 3374SOL    HW121584   3.773   3.487   4.087 -0.1197  0.2906 -0.2560
 3374SOL    HW221585   3.684   3.492   4.206  1.6105 -0.1607  1.7487
 3375SOL     OW21586   3.567   3.990   1.297  0.0061 -0.3364  0.5276
 3375SOL    HW121587   3.495   3.996   1.234 -1.5400 -1.5300  2.1796
 3375SOL    HW221588   3.613   3.919   1.253 -1.7105 -0.7845 -0.5259
 3376SOL     OW21589   2.133   4.176   2.676 -0.3146  0.8247 -0.0348
 3376SOL    HW121590   2.085   4.236   2.619  0.7653  2.0359  0.3360
 3376SOL    HW221591   2.091   4.202   2.758  0.9509 -0.5544  1.0441
 3377SOL     OW21592   2.379   0.620   1.989 -0.4320  0.5663 -0.8426
 3377SOL    HW121593   2.300   0.591   2.033  0.1503 -0.5805 -0.5545
 3377SOL    HW221594   2.365   0.711   1.964 -0.4370  0.3031 -1.8041
 3378SOL     OW21595   0.530   2.651   1.675 -0.1414  0.1431 -0.2137
 3378SOL    HW121596   0.441   2.649   1.710 -0.4320  0.4298 -0.9439
 3378SOL    HW221597   0.575   2.716   1.729  0.6849 -0.5347 -0.0894
 3379SOL     OW21598   2.311   3.330   7.937  0.3683 -0.4760 -0.2758
 3379SOL    HW121599   2.245   3.262   7.918 -3.3511  2.6758  1.2988
 3379SOL    HW221600   2.266   3.368   8.013  2.2799 -0.6305  0.9203
 3380SOL     OW21601   3.926   1.263   6.440 -0.3513  0.3607  0.6388
 3380SOL    HW121602   3.997   1.324   6.460 -1.6016  1.2546  2.4559
 3380SOL    HW221603   3.957   1.223   6.359 -1.7792  0.7261 -0.0869
 3381SOL     OW21604   4.586   2.167  10.181  0.0557 -0.4710  0.2553
 3381SOL    HW121605   4.528   2.174  10.257 -2.2501 -0.2343 -1.5170
 3381SOL    HW221606   4.520   2.157  10.113  1.1360 -1.3438 -0.6598
 3382SOL     OW21607   2.292   2.363  15.230  0.3387  0.9282 -0.2477
 3382SOL    HW121608   2.203   2.383  15.259 -0.0204 -1.6911  0.4623
 3382SOL    HW221609   2.269   2.308  15.156 -1.5852  0.0627  1.0021
 3383SOL     OW21610   1.390   1.480   2.287 -0.6356 -0.2333 -0.0537
 3383SOL    HW121611   1.454   1.457   2.355 -1.6068  1.6270  1.4848
 3383SOL    HW221612   1.436   1.458   2.206 -0.3851 -1.5161  0.4343
 3384SOL     OW21613   4.551   0.601   7.841  0.9397 -0.1123 -0.5204
 3384SOL    HW121614   4.476   0.558   7.800 -0.8298  1.3347  1.1903
 3384SOL    HW221615   4.615   0.620   7.773  0.4718 -1.1506 -1.2436
 3385SOL     OW21616   3.187   1.898   2.988  0.2505 -0.1159 -0.1876
 3385SOL    HW121617   3.274   1.937   2.984  0.1363  0.4534  3.8091
 3385SOL    HW221618   3.139   1.972   2.949 -1.4371 -0.2971  1.5737
 3386SOL     OW21619   0.726   1.958   2.451 -0.0155 -0.6930  0.4527
 3386SOL    HW121620   0.693   1.880   2.407  1.3630 -0.1789 -1.4687
 3386SOL    HW221621   0.779   1.994   2.380 -1.0395 -0.7153 -0.3188
 3387SOL     OW21622   0.131   2.528  13.867 -0.2967 -0.4477  0.2541
 3387SOL    HW121623   0.193   2.573  13.923 -1.0372 -1.0221  1.5499
 3387SOL    HW221624   0.186   2.461  13.827 -2.9057 -1.4308 -1.7315
 3388SOL     OW21625   1.412   2.405  12.652  0.1508  0.2206  0.0274
 3388SOL    HW121626   1.366   2.395  12.735  0.4672 -1.3091  0.0137
 3388SOL    HW221627   1.469   2.479  12.672 -1.0877  0.4465  2.6447
 3389SOL     OW21628   3.300   1.099   8.650 -0.4116 -0.8892 -0.4636
 3389SOL    HW121629   3.277   1.033   8.716 -1.8616 -1.4956 -1.5698
 3389SOL    HW221630   3.372   1.049   8.613 -0.2617 -0.7739 -0.3262
 3390SOL     OW21631   0.790   2.352  12.804  0.1361  1.2228  0.1966
 3390SOL    HW121632   0.843   2.278  12.774  0.1442  1.2348  0.1810
 3390SOL    HW221633   0.794   2.416  12.732  3.5939  0.3429 -0.3544
 3391SOL     OW21634   3.332   2.881   1.976 -0.2010 -0.4494  0.0550
 3391SOL    HW121635   3.314   2.863   2.068 -1.0151  0.1045  0.0094
 3391SOL    HW221636   3.399   2.813   1.971 -0.2628 -0.3003 -2.7657
 3392SOL     OW21637   1.546   1.963   6.459  0.4510 -0.8115  0.0981
 3392SOL    HW121638   1.477   1.981   6.395  0.0013  0.8419  1.0676
 3392SOL    HW221639   1.504   1.989   6.541 -0.2153 -0.3342 -0.3929
 3393SOL     OW21640   0.093   0.596   6.610 -0.2897 -0.1851 -0.0277
 3393SOL    HW121641   0.135   0.590   6.525  0.0429  0.8733  0.0693
 3393SOL    HW221642   0.090   0.689   6.631 -2.6685 -0.6910  1.9116
 3394SOL     OW21643   4.654   3.882  14.872  0.0906 -0.5578 -0.0253
 3394SOL    HW121644   4.645   3.906  14.780 -0.9990 -0.8575 -0.0049
 3394SOL    HW221645   4.562   3.878  14.898  0.5245 -0.6450  1.4686
 3395SOL     OW21646   0.448   2.153  11.387 -0.1503  0.4686  0.3222
 3395SOL    HW121647   0.365   2.178  11.428 -1.4588 -0.2933 -1.8565
 3395SOL    HW221648   0.496   2.236  11.387 -0.0230  0.3931  0.6903
 3396SOL     OW21649   3.988   0.976   8.712 -1.0590  0.0901 -0.2094
 3396SOL    HW121650   3.921   0.957   8.646 -2.3034  0.7507  0.8683
 3396SOL    HW221651   3.972   1.069   8.727  2.7429  0.7717 -0.4859
 3397SOL     OW21652   1.217   0.293   0.295 -0.0910  0.5024  0.3203
 3397SOL    HW121653   1.139   0.338   0.261 -0.5208 -0.4704  0.0366
 3397SOL    HW221654   1.182   0.209   0.325  1.4966 -0.1185  0.4389
 3398SOL     OW21655   4.596   0.531   4.245 -0.0368 -0.6185 -0.1605
 3398SOL    HW121656   4.627   0.618   4.267 -1.3883  0.0431 -0.8606
 3398SOL    HW221657   4.510   0.552   4.206 -0.1577  3.6493  2.4554
 3399SOL     OW21658   3.533   0.024  13.046  0.4404  0.0249 -0.6552
 3399SOL    HW121659   3.587   4.714  13.118  2.2266 -0.3250 -2.1279
 3399SOL    HW221660   3.582   0.106  13.039 -0.4207  0.5915 -0.0351
 3400SOL     OW21661   2.707   2.048   7.572  0.0429 -0.9412  0.0317
 3400SOL    HW121662   2.738   2.035   7.482 -1.8362  1.1184 -0.9044
 3400SOL    HW221663   2.739   2.134   7.597 -2.4332 -0.1613  0.4881
 3401SOL     OW21664   3.092   2.263   5.323 -0.1259 -0.3912 -0.0169
 3401SOL    HW121665   3.183   2.293   5.320  0.3419 -1.7398  0.6287
 3401SOL    HW221666   3.044   2.340   5.353  2.6210  1.3271 -0.0607
 3402SOL     OW21667   2.716   1.660   5.428  0.3629  0.1369 -0.0113
 3402SOL    HW121668   2.781   1.720   5.390 -0.5325  0.2350 -1.3787
 3402SOL    HW221669   2.640   1.718   5.423  1.9343  2.5415  4.6153
 3403SOL     OW21670   4.696   4.119  16.243 -0.5926 -0.0606  0.4236
 3403SOL    HW121671   4.622   4.059  16.234 -0.4042 -0.5492  2.0997
 3403SOL    HW221672   0.042   4.069  16.199 -0.1854 -1.1433  2.2940
 3404SOL     OW21673   0.241   1.226   1.110  0.0057  0.4190  0.1720
 3404SOL    HW121674   0.239   1.289   1.182  0.5307  1.3632 -0.6377
 3404SOL    HW221675   0.181   1.266   1.047  1.4525  0.4870 -1.1710
 3405SOL     OW21676   2.909   2.578   3.786  0.0571 -0.1702 -0.3032
 3405SOL    HW121677   2.830   2.536   3.752  0.8380  0.4734 -2.9223
 3405SOL    HW221678   2.918   2.641   3.715 -1.4641  0.3567 -0.0250
 3406SOL     OW21679   2.879   1.121   2.492 -0.1739  0.2074  0.4959
 3406SOL    HW121680   2.971   1.145   2.501 -0.2303  0.5374  0.2047
 3406SOL    HW221681   2.887   1.030   2.462 -1.7154 -0.5440  2.3715
 3407SOL     OW21682   2.129   2.996   4.097 -0.1909 -0.0168 -0.1704
 3407SOL    HW121683   2.150   3.065   4.035  0.1002  0.6278  0.6502
 3407SOL    HW221684   2.214   2.978   4.137  0.0204 -3.8120 -2.3213
 3408SOL     OW21685   2.359   1.137   1.576 -0.2922 -0.1024  0.0953
 3408SOL    HW121686   2.283   1.191   1.553  0.3209  1.3578  1.5012
 3408SOL    HW221687   2.317   1.055   1.604 -0.7832 -0.4977 -1.8331
 3409SOL     OW21688   2.194   0.728   5.873 -0.3788  0.1016 -0.3279
 3409SOL    HW121689   2.127   0.695   5.813 -1.3583  1.9891 -0.2674
 3409SOL    HW221690   2.225   0.813   5.842 -0.8119 -0.0080 -1.0508
 3410SOL     OW21691   3.601   3.207   9.097 -0.2714 -0.0013 -0.0144
 3410SOL    HW121692   3.685   3.183   9.136  0.3287 -0.6826 -1.7687
 3410SOL    HW221693   3.547   3.201   9.176 -1.7710  2.3345 -0.8789
 3411SOL     OW21694   1.816   1.614  14.748  0.4919  0.0886 -0.6721
 3411SOL    HW121695   1.886   1.551  14.766  0.4616  0.0119 -0.8137
 3411SOL    HW221696   1.735   1.566  14.735  0.3873  0.1119 -0.1004
 3412SOL     OW21697   1.310   4.361   5.547 -0.0194  0.0442  0.8193
 3412SOL    HW121698   1.383   4.385   5.491 -0.8319 -0.1811 -0.3367
 3412SOL    HW221699   1.251   4.334   5.477  2.4974 -0.7577 -0.9739
 3413SOL     OW21700   4.208   3.725  11.724  0.1364 -0.1737  0.0141
 3413SOL    HW121701   4.159   3.796  11.765  0.8016  0.8102 -0.9122
 3413SOL    HW221702   4.143   3.655  11.726 -0.1465  0.2323  4.9849
 3414SOL     OW21703   4.311   0.690   4.361 -0.3080 -0.5062 -0.4618
 3414SOL    HW121704   4.312   0.596   4.380 -0.6625 -0.4732 -0.2782
 3414SOL    HW221705   4.320   0.683   4.266  0.0646 -1.8868 -0.3151
 3415SOL     OW21706   0.232   0.157   4.523  0.2971  0.1082 -0.0755
 3415SOL    HW121707   0.264   0.230   4.575 -0.2339  1.1572 -1.2090
 3415SOL    HW221708   0.180   0.222   4.476 -0.6925 -0.3679  0.3563
 3416SOL     OW21709   3.473   2.343  16.199 -0.0412  0.0136  0.1015
 3416SOL    HW121710   3.490   2.274  16.134  0.1334 -0.5793  0.7666
 3416SOL    HW221711   3.441   2.409  16.139  0.5892 -0.7581 -1.0878
 3417SOL     OW21712   0.784   2.905  16.374 -0.2155  0.2892 -0.6357
 3417SOL    HW121713   0.701   2.857  16.372 -1.2073  2.1231 -3.6046
 3417SOL    HW221714   0.822   2.867  16.453 -1.0657  1.6121  0.4231
 3418SOL     OW21715   1.895   2.938  16.039  0.8183 -0.2547 -0.2604
 3418SOL    HW121716   1.907   2.891  15.956 -2.0665  1.8464 -1.8594
 3418SOL    HW221717   1.875   2.859  16.089  1.7147  0.1368  0.7191
 3419SOL     OW21718   0.821   3.363   2.292  0.4490 -0.3369 -0.7173
 3419SOL    HW121719   0.887   3.296   2.275 -0.2260 -1.1899  0.0384
 3419SOL    HW221720   0.864   3.425   2.351 -0.7168  2.1908 -2.5303
 3420SOL     OW21721   4.497   2.277   3.590 -0.2731 -0.4678 -0.0099
 3420SOL    HW121722   4.542   2.225   3.524  0.6043  0.4569 -0.1366
 3420SOL    HW221723   4.461   2.209   3.647 -0.0832 -2.6572 -2.4948
 3421SOL     OW21724   2.708   4.489  16.019 -0.0226  0.6688 -0.3917
 3421SOL    HW121725   2.790   4.441  16.013 -0.1869  0.2198  1.1236
 3421SOL    HW221726   2.709   4.531  15.932  2.5120  0.4940 -0.4260
 3422SOL     OW21727   3.241   3.323   7.245 -0.4117 -0.0417  0.2101
 3422SOL    HW121728   3.244   3.285   7.333 -0.9137  0.1119  0.2912
 3422SOL    HW221729   3.217   3.244   7.197 -0.0284  2.2096 -3.6713
 3423SOL     OW21730   1.008   2.651   2.207 -0.6274  0.1918  1.1366
 3423SOL    HW121731   0.926   2.655   2.158  0.8917 -1.6193 -1.5447
 3423SOL    HW221732   1.068   2.608   2.146 -0.3844 -1.2959  2.4137
 3424SOL     OW21733   1.388   1.686   1.377  0.1057  0.5713  0.0821
 3424SOL    HW121734   1.321   1.665   1.311  0.3292  0.7214 -0.1902
 3424SOL    HW221735   1.342   1.756   1.424 -0.4585 -0.0407  0.4388
 3425SOL     OW21736   1.605   1.210   4.565 -0.3271  0.9446  0.4802
 3425SOL    HW121737   1.518   1.173   4.575  0.7221 -1.1378  1.9037
 3425SOL    HW221738   1.668   1.139   4.580 -1.0565  0.0957 -0.4589
 3426SOL     OW21739   2.918   3.832   4.864 -0.3712  0.7854 -0.3566
 3426SOL    HW121740   2.871   3.752   4.843  0.1068  0.3245  0.3164
 3426SOL    HW221741   2.860   3.862   4.934  0.9170  0.3669  0.8940
 3427SOL     OW21742   3.678   2.099   9.086  0.7497 -0.3957  0.0143
 3427SOL    HW121743   3.766   2.124   9.059  1.7608 -2.1139  1.7757
 3427SOL    HW221744   3.654   2.167   9.148 -2.5616 -0.8378 -0.7577
 3428SOL     OW21745   4.137   0.496   5.497  0.4587 -0.0349 -0.1139
 3428SOL    HW121746   4.095   0.417   5.531 -0.0209 -0.4541 -1.6860
 3428SOL    HW221747   4.169   0.457   5.416 -0.5230 -1.3341  0.1220
 3429SOL     OW21748   3.655   1.413   9.170  0.2050 -0.1497 -0.4243
 3429SOL    HW121749   3.566   1.445   9.182  0.1724 -0.4001  0.0030
 3429SOL    HW221750   3.638   1.377   9.083  0.2918 -0.5850 -0.2616
 3430SOL     OW21751   3.607   0.951   7.469  1.2353  0.5473 -0.0412
 3430SOL    HW121752   3.636   1.013   7.402 -1.7568  2.8503  0.8121
 3430SOL    HW221753   3.517   0.932   7.443  1.0695  1.9528 -0.4780
 3431SOL     OW21754   2.190   0.323   4.334 -0.0245  0.0675  0.7064
 3431SOL    HW121755   2.172   0.248   4.278 -0.3982  0.8825 -0.2678
 3431SOL    HW221756   2.285   0.325   4.345  0.0862 -0.8565 -0.0200
 3432SOL     OW21757   4.516   1.530   0.756  0.2764 -0.3448  0.3569
 3432SOL    HW121758   4.603   1.548   0.791  1.1217 -1.0297 -1.3612
 3432SOL    HW221759   4.549   1.479   0.682 -0.3104 -0.5939  0.2698
 3433SOL     OW21760   0.873   2.361   6.068  0.7992 -0.4090 -0.1182
 3433SOL    HW121761   0.785   2.346   6.034  0.9499  0.5082 -0.9070
 3433SOL    HW221762   0.893   2.278   6.111  0.7030  0.3530  1.3694
 3434SOL     OW21763   2.276   3.874   2.938  0.1417  0.1563  0.1373
 3434SOL    HW121764   2.214   3.834   2.999  0.4824 -0.1159  0.3023
 3434SOL    HW221765   2.261   3.818   2.862  0.8729  0.3571 -0.1594
 3435SOL     OW21766   3.961   1.504   7.698  0.0536 -0.2290  0.5834
 3435SOL    HW121767   3.898   1.519   7.767 -0.3912  0.5019  0.0205
 3435SOL    HW221768   4.044   1.524   7.742 -0.0355  2.0282 -0.2768
 3436SOL     OW21769   2.930   4.117   7.160 -0.1447  0.7408  0.4537
 3436SOL    HW121770   2.846   4.158   7.138 -0.1717  0.6909  0.4608
 3436SOL    HW221771   2.954   4.062   7.086 -1.7829  2.0505 -1.0361
 3437SOL     OW21772   2.348   0.952   5.121 -0.4526 -0.6531 -0.6091
 3437SOL    HW121773   2.398   0.980   5.197  0.2046 -3.3024 -0.0538
 3437SOL    HW221774   2.391   0.997   5.048  0.6618 -0.0211  0.4396
 3438SOL     OW21775   2.768   1.655   1.950 -0.0718  0.0626 -0.3532
 3438SOL    HW121776   2.771   1.738   1.904  1.0348 -0.9747 -2.1522
 3438SOL    HW221777   2.821   1.673   2.029  0.1617 -0.2921 -0.4283
 3439SOL     OW21778   3.271   2.019   7.580 -0.2489  0.4263 -0.2978
 3439SOL    HW121779   3.207   2.090   7.569 -1.3486 -0.4717  0.3499
 3439SOL    HW221780   3.261   1.973   7.496 -0.9419  0.2155 -0.1025
 3440SOL     OW21781   4.634   0.977  11.530  0.2923  0.2442  0.2276
 3440SOL    HW121782   4.675   0.947  11.611  1.0624 -1.3322 -0.7496
 3440SOL    HW221783   4.542   0.966  11.552 -0.1632  1.9829 -0.7631
 3441SOL     OW21784   3.335   1.840   4.076  0.6652 -0.5525 -0.3607
 3441SOL    HW121785   3.302   1.830   4.166 -2.1684  3.5616 -0.9067
 3441SOL    HW221786   3.295   1.772   4.022 -0.5108 -0.8420  0.8703
 3442SOL     OW21787   3.573   3.155  15.027  0.2762  0.1163 -0.0957
 3442SOL    HW121788   3.570   3.242  15.067 -1.7669 -0.4636  1.0150
 3442SOL    HW221789   3.622   3.176  14.948  0.0690 -0.0156 -0.2606
 3443SOL     OW21790   3.605   0.935   1.401  0.0429 -0.1318  1.0900
 3443SOL    HW121791   3.659   0.879   1.456 -0.0734 -1.1948  0.1316
 3443SOL    HW221792   3.567   0.875   1.337  0.5793  2.2809 -1.5166
 3444SOL     OW21793   2.318   3.658   1.349 -0.2207  0.0586  0.5548
 3444SOL    HW121794   2.377   3.714   1.298 -0.8885  1.0634  0.8682
 3444SOL    HW221795   2.239   3.713   1.345 -1.2377 -1.6181 -2.5503
 3445SOL     OW21796   3.988   3.898   5.786  0.1393 -0.4847 -0.2908
 3445SOL    HW121797   3.913   3.842   5.767  0.9535 -2.1335  1.2539
 3445SOL    HW221798   3.949   3.983   5.768 -0.0707 -0.4248  0.4213
 3446SOL     OW21799   3.180   4.690  16.168  0.0194 -0.1076  0.4958
 3446SOL    HW121800   3.266   4.663  16.138  0.2499  0.6424  0.4860
 3446SOL    HW221801   3.152   0.031  16.102  1.3951 -0.6214 -0.5653
 3447SOL     OW21802   0.559   0.694  10.068  0.3805  0.3739  0.3779
 3447SOL    HW121803   0.647   0.661  10.087  0.0859 -1.1773 -0.9686
 3447SOL    HW221804   0.508   0.624  10.109  0.3815 -1.2864 -2.4473
 3448SOL     OW21805   3.273   2.241   1.360 -0.7515 -0.0299  0.3435
 3448SOL    HW121806   3.344   2.215   1.419  0.7008  0.0870 -1.3344
 3448SOL    HW221807   3.263   2.165   1.302  0.8293  1.1484 -1.4911
 3449SOL     OW21808   0.706   1.397   1.080 -0.2690 -0.2247  0.4065
 3449SOL    HW121809   0.789   1.369   1.041  0.8653  3.0009  0.4954
 3449SOL    HW221810   0.726   1.486   1.106  1.7241 -0.9663  1.4233
 3450SOL     OW21811   1.200   2.180   2.680  0.0876 -0.1169 -0.0653
 3450SOL    HW121812   1.267   2.148   2.740  0.9818 -0.6358 -1.3439
 3450SOL    HW221813   1.125   2.186   2.739  1.6696  2.2938  1.6978
 3451SOL     OW21814   2.942   2.494   5.615 -0.1898 -0.0855  0.6754
 3451SOL    HW121815   2.924   2.457   5.702  1.7249 -1.0042  0.6750
 3451SOL    HW221816   2.884   2.436   5.566  1.0246  0.7313 -1.7089
 3452SOL     OW21817   0.653   1.551  10.495  0.2059 -0.4466  0.2328
 3452SOL    HW121818   0.585   1.616  10.475 -1.2570 -1.4896  1.7513
 3452SOL    HW221819   0.591   1.482  10.517  0.0648 -0.6581 -0.8624
 3453SOL     OW21820   2.468   2.275  11.211  0.1291  0.5069 -0.0654
 3453SOL    HW121821   2.443   2.205  11.150 -1.7463  0.5888  0.6190
 3453SOL    HW221822   2.438   2.347  11.155  1.6333  1.1655 -0.0339
 3454SOL     OW21823   2.159   3.914   5.361  0.2502 -0.8057  0.3734
 3454SOL    HW121824   2.117   3.942   5.279  0.4431  0.8209  0.8348
 3454SOL    HW221825   2.124   3.970   5.431  2.4115 -0.7474  1.4037
 3455SOL     OW21826   0.884   1.827  16.430  0.5187 -0.1996 -0.6370
 3455SOL    HW121827   0.898   1.791  16.518  0.2974 -0.4120 -0.6898
 3455SOL    HW221828   0.848   1.914  16.452  0.1357 -0.0679 -1.7716
 3456SOL     OW21829   0.606   2.320   2.865  0.0557 -0.3027 -0.6247
 3456SOL    HW121830   0.532   2.305   2.806  1.2826  0.0543 -2.2531
 3456SOL    HW221831   0.570   2.371   2.938  1.1393  0.1366 -0.4115
 3457SOL     OW21832   2.180   1.163   8.242  0.1893 -0.4620  0.1751
 3457SOL    HW121833   2.101   1.196   8.199  0.7698 -1.8995 -1.9534
 3457SOL    HW221834   2.174   1.201   8.330 -0.2694 -2.4436  1.0087
 3458SOL     OW21835   0.230   0.620   9.973 -0.0449 -0.3148 -0.0058
 3458SOL    HW121836   0.186   0.546  10.015 -0.4169  0.3272  0.7371
 3458SOL    HW221837   0.311   0.586   9.934  0.6942  1.9356 -0.4395
 3459SOL     OW21838   2.222   1.587   2.473  0.3169  0.1741  0.0178
 3459SOL    HW121839   2.171   1.563   2.395  0.3864 -1.0169  0.3391
 3459SOL    HW221840   2.271   1.506   2.489 -0.1999 -0.2130 -0.3396
 3460SOL     OW21841   1.801   3.344   6.958 -0.4664  0.2655 -0.2164
 3460SOL    HW121842   1.771   3.428   6.994  1.4412  0.5017  0.8416
 3460SOL    HW221843   1.880   3.330   7.011 -1.1680  2.6316  1.4520
 3461SOL     OW21844   3.566   2.398   1.451  0.1592  0.4696  0.1852
 3461SOL    HW121845   3.588   2.334   1.518 -2.0299 -1.3000 -0.7540
 3461SOL    HW221846   3.647   2.399   1.400 -1.1415  0.2629 -1.8933
 3462SOL     OW21847   4.666   2.172   4.135  0.1966 -0.1049  0.1471
 3462SOL    HW121848   4.650   2.239   4.069  0.6176  0.0357  0.1924
 3462SOL    HW221849   4.648   2.090   4.089  0.5049 -0.3536  0.4633
 3463SOL     OW21850   4.467   0.473   5.891 -0.3404 -0.0149  0.1505
 3463SOL    HW121851   4.512   0.403   5.940  0.6877  0.5603  0.0413
 3463SOL    HW221852   4.380   0.438   5.873 -0.0102 -0.5936 -0.3290
 3464SOL     OW21853   2.264   0.231   6.974 -0.5593  0.2069  0.0398
 3464SOL    HW121854   2.176   0.257   6.999 -0.4156 -0.9926  1.8010
 3464SOL    HW221855   2.319   0.309   6.970  0.6759 -0.6519 -0.0984
 3465SOL     OW21856   2.652   0.148  10.847 -0.1521 -0.3191  0.4458
 3465SOL    HW121857   2.632   0.119  10.936  0.3723  1.7421  1.2377
 3465SOL    HW221858   2.744   0.172  10.854  0.0724 -0.8911 -0.5597
 3466SOL     OW21859   0.956   2.651   7.057 -0.5604  0.2248 -1.0908
 3466SOL    HW121860   1.022   2.665   7.125 -1.6440  0.5104 -0.0847
 3466SOL    HW221861   0.901   2.728   7.072 -3.2889 -1.6470 -1.4133
 3467SOL     OW21862   1.100   4.018   7.854  0.3821  0.0394 -0.3279
 3467SOL    HW121863   1.102   4.112   7.872 -0.1970 -0.0903  0.4001
 3467SOL    HW221864   1.108   4.032   7.759 -1.7153 -0.6665 -0.6121
 3468SOL     OW21865   1.355   2.947  10.017  0.1770  0.1174 -0.1543
 3468SOL    HW121866   1.345   3.008   9.943 -0.4193  1.1825  0.8081
 3468SOL    HW221867   1.274   2.959  10.067  0.1376 -1.4672  0.1688
 3469SOL     OW21868   3.523   0.153   8.750 -0.7121  0.1675  0.2002
 3469SOL    HW121869   3.609   0.125   8.782 -0.9079 -1.8211 -1.0143
 3469SOL    HW221870   3.479   0.183   8.830 -0.2116 -0.2231  0.6203
 3470SOL     OW21871   2.475   3.785   7.906  0.1649  0.3701 -0.1644
 3470SOL    HW121872   2.534   3.857   7.884  0.1421  0.5174  0.2641
 3470SOL    HW221873   2.510   3.715   7.851  0.0678  0.1600  0.0420
 3471SOL     OW21874   3.823   1.294   4.058 -0.3328 -0.1306  0.0945
 3471SOL    HW121875   3.747   1.260   4.011  0.2871 -1.5775  0.1123
 3471SOL    HW221876   3.860   1.353   3.993  1.3628  2.1930  3.1776
 3472SOL     OW21877   2.769   4.473  12.326  0.2318 -0.0250 -0.9941
 3472SOL    HW121878   2.863   4.459  12.334  0.1626  0.1023  0.0668
 3472SOL    HW221879   2.768   4.567  12.344  2.3009 -0.3724  0.8535
 3473SOL     OW21880   1.291   4.214  12.622 -0.0853 -0.3704  0.3873
 3473SOL    HW121881   1.360   4.253  12.674  0.8437  0.7121 -1.6621
 3473SOL    HW221882   1.336   4.206  12.538 -2.9873 -1.1815 -1.0952
 3474SOL     OW21883   0.817   1.953   4.567  0.3839 -0.0927 -0.6995
 3474SOL    HW121884   0.851   1.864   4.564  0.8387  0.1082 -1.5524
 3474SOL    HW221885   0.741   1.954   4.508  0.2903  0.0383 -0.5781
 3475SOL     OW21886   2.784   2.992   7.408 -0.3728 -0.2472 -0.5024
 3475SOL    HW121887   2.804   3.077   7.368  2.3685 -0.3358  0.6379
 3475SOL    HW221888   2.689   2.994   7.418 -0.1758  0.4121  1.2412
 3476SOL     OW21889   0.269   0.243   0.354  0.1063 -0.0857 -0.1174
 3476SOL    HW121890   0.282   0.338   0.356  0.4601 -0.0986 -2.4807
 3476SOL    HW221891   0.246   0.223   0.263 -1.1701 -1.9138  0.5993
 3477SOL     OW21892   0.022   3.183   3.425 -0.0878  0.4598  0.7566
 3477SOL    HW121893   0.086   3.243   3.386  1.3759 -1.2706  0.4997
 3477SOL    HW221894   4.685   3.157   3.354 -1.2005 -1.3819  2.3473
 3478SOL     OW21895   3.654   1.440   8.685 -0.0135  0.0980  0.3141
 3478SOL    HW121896   3.682   1.518   8.733 -0.5824  1.3562 -1.4124
 3478SOL    HW221897   3.560   1.436   8.673 -0.1592  1.0899  1.1686
 3479SOL     OW21898   0.746   4.577   2.428 -0.2890  0.1644  0.1729
 3479SOL    HW121899   0.778   4.489   2.404 -0.2867 -0.5707  2.8938
 3479SOL    HW221900   0.797   4.592   2.508 -1.0989  0.8117  0.5569
 3480SOL     OW21901   0.543   1.245   0.866  0.0667 -0.9051  0.0147
 3480SOL    HW121902   0.522   1.161   0.907 -0.8885 -0.6278  0.0859
 3480SOL    HW221903   0.560   1.300   0.943  1.4126 -0.1387 -0.8096
 3481SOL     OW21904   4.527   4.100   9.726 -0.0603  0.8837 -0.2144
 3481SOL    HW121905   4.460   4.085   9.793  0.9247  1.1996  0.8462
 3481SOL    HW221906   4.486   4.068   9.646 -0.7694 -1.8977  1.2183
 3482SOL     OW21907   4.654   1.801   7.140  0.5473  0.6632  0.1159
 3482SOL    HW121908   4.710   1.801   7.218 -0.0152 -0.5672  0.5211
 3482SOL    HW221909   4.579   1.844   7.181 -1.8302 -0.2001 -3.3847
 3483SOL     OW21910   1.858   2.874   4.923 -0.4382 -0.1025  0.4245
 3483SOL    HW121911   1.859   2.942   4.856 -0.2293 -2.5517 -2.0389
 3483SOL    HW221912   1.938   2.896   4.971 -0.4623 -3.1914  1.8602
 3484SOL     OW21913   4.667   3.054  12.891 -0.1309  0.3581 -0.3463
 3484SOL    HW121914   4.590   3.109  12.908 -0.1179 -0.0390  1.0265
 3484SOL    HW221915   4.652   2.975  12.943  0.3577  1.6434  1.7695
 3485SOL     OW21916   2.817   2.675   6.509  0.2078  0.3115  0.0640
 3485SOL    HW121917   2.780   2.761   6.528 -1.5346 -0.1298 -1.2362
 3485SOL    HW221918   2.743   2.615   6.524  1.2930 -1.2071 -0.6974
 3486SOL     OW21919   0.040   2.101  14.526 -0.1349 -0.0258 -0.6344
 3486SOL    HW121920   0.009   2.080  14.438  0.0577  0.5614 -0.8453
 3486SOL    HW221921   0.131   2.081  14.503 -0.5888 -0.2743 -2.2455
 3487SOL     OW21922   4.047   3.008   9.604 -0.3166  0.0993  0.2912
 3487SOL    HW121923   4.120   3.030   9.661 -1.6747 -0.9817  2.4649
 3487SOL    HW221924   3.972   3.016   9.663 -1.1363  0.6367 -0.8383
 3488SOL     OW21925   3.051   3.281   3.569 -0.5983  0.0387  0.4988
 3488SOL    HW121926   3.120   3.318   3.625 -2.1008 -0.0064  2.3967
 3488SOL    HW221927   3.097   3.269   3.486 -0.4319  1.0181  0.4487
 3489SOL     OW21928   3.568   4.694   6.527 -0.7131  0.0311  0.1210
 3489SOL    HW121929   3.547   4.696   6.620  0.2911 -0.9061  0.3568
 3489SOL    HW221930   3.502   0.035   6.496 -1.0627  0.2163  1.2465
 3490SOL     OW21931   1.007   2.612   4.155  0.4826 -0.3079  0.1915
 3490SOL    HW121932   0.997   2.526   4.197  0.6269 -0.1526  0.5411
 3490SOL    HW221933   1.065   2.587   4.083  1.3466  0.7364  0.5261
 3491SOL     OW21934   3.315   0.385   6.961  0.4438  0.0576 -0.6001
 3491SOL    HW121935   3.230   0.359   6.996  0.8808 -2.1444 -1.2375
 3491SOL    HW221936   3.300   0.381   6.867 -1.5370  1.8806 -0.3739
 3492SOL     OW21937   2.399   0.211   9.793  0.1170  0.7954 -0.0394
 3492SOL    HW121938   2.329   0.170   9.844 -0.3900 -1.2800 -2.3914
 3492SOL    HW221939   2.422   0.285   9.848  2.5204  0.6062 -0.7744
 3493SOL     OW21940   3.025   1.629  11.571  0.1221  0.1099  0.8544
 3493SOL    HW121941   3.087   1.698  11.594 -0.0200  0.0502  1.4363
 3493SOL    HW221942   3.050   1.614  11.480 -0.4447 -0.1138  0.7302
 3494SOL     OW21943   2.768   3.533   8.173  0.2518  0.2308 -0.5080
 3494SOL    HW121944   2.686   3.498   8.138 -0.9067  0.9430  1.4642
 3494SOL    HW221945   2.776   3.616   8.125 -1.3035  0.1996 -0.8411
 3495SOL     OW21946   3.380   4.189   7.539  0.3514  0.0145  0.5922
 3495SOL    HW121947   3.474   4.190   7.558  0.0820 -0.7625  1.9560
 3495SOL    HW221948   3.375   4.260   7.476 -0.0686 -0.6565 -0.1383
 3496SOL     OW21949   4.553   2.942  16.216 -0.8337 -0.1947 -0.2759
 3496SOL    HW121950   4.573   2.932  16.308 -0.2195  0.2893 -0.3614
 3496SOL    HW221951   4.634   2.985  16.188  1.6418 -4.2866  0.7064
 3497SOL     OW21952   4.012   4.467   6.700 -0.0910 -0.5273 -0.3151
 3497SOL    HW121953   4.087   4.416   6.732  1.7673  2.1030 -0.4087
 3497SOL    HW221954   3.997   4.515   6.782 -2.1598  2.4224 -2.4060
 3498SOL     OW21955   3.663   4.646   0.373  0.3102 -0.4078  0.1842
 3498SOL    HW121956   3.653   0.018   0.356  1.3468  0.0246  1.8969
 3498SOL    HW221957   3.693   4.631   0.284  1.8885 -1.4138  0.8879
 3499SOL     OW21958   4.360   3.655  10.334  0.2578 -0.5393 -0.6718
 3499SOL    HW121959   4.321   3.649  10.422  0.7675  0.2031 -0.4016
 3499SOL    HW221960   4.298   3.598  10.287 -1.7805  0.6900  0.5275
 3500SOL     OW21961   3.076   1.834   4.847  0.1530 -0.0681  0.3139
 3500SOL    HW121962   2.996   1.818   4.896  0.9045 -0.2448  1.4898
 3500SOL    HW221963   3.046   1.886   4.773  1.4893  0.1075 -0.1141
 3501SOL     OW21964   1.899   1.627   5.595 -0.0782 -1.1208 -0.7731
 3501SOL    HW121965   1.932   1.537   5.591  0.4493 -0.9425 -0.3961
 3501SOL    HW221966   1.976   1.674   5.627 -0.4734 -0.7061 -0.4448
 3502SOL     OW21967   1.207   4.438   8.114 -0.4615 -0.2245  0.0134
 3502SOL    HW121968   1.169   4.439   8.202  0.0608 -1.0271  0.2487
 3502SOL    HW221969   1.296   4.469   8.134 -0.8113  0.7455  0.0586
 3503SOL     OW21970   4.014   4.015   3.040 -0.0603 -0.2156  0.2725
 3503SOL    HW121971   4.013   3.928   3.001 -0.4862  0.6428 -1.6137
 3503SOL    HW221972   4.076   4.064   2.987  0.5835  0.1584  1.3660
 3504SOL     OW21973   2.478   3.443   2.401 -0.0619  0.3196  0.5265
 3504SOL    HW121974   2.520   3.529   2.390  0.2876  0.0521 -0.2572
 3504SOL    HW221975   2.390   3.470   2.426  0.6034  1.1145  1.9970
 3505SOL     OW21976   1.504   1.286  11.753  0.0005 -0.2156 -0.3310
 3505SOL    HW121977   1.462   1.371  11.741  0.6307  0.3215  1.2768
 3505SOL    HW221978   1.565   1.294  11.681  1.5398 -0.7110  0.9274
 3506SOL     OW21979   0.462   4.488  14.753 -0.3684 -0.7161 -0.2099
 3506SOL    HW121980   0.509   4.407  14.774 -0.2000 -0.6618 -0.3750
 3506SOL    HW221981   0.374   4.455  14.738 -1.0960  1.0047  0.2104
 3507SOL     OW21982   3.808   3.760   9.760 -0.1227  0.0736 -0.4282
 3507SOL    HW121983   3.848   3.795   9.840  1.7471 -2.4330 -0.2791
 3507SOL    HW221984   3.885   3.732   9.711  0.1197 -1.7957  1.0605
 3508SOL     OW21985   1.239   0.641   9.977 -0.2919 -0.3410  0.5326
 3508SOL    HW121986   1.259   0.710  10.041 -3.3954 -1.5374  2.7811
 3508SOL    HW221987   1.161   0.599  10.013 -1.0509  1.1685  0.6779
 3509SOL     OW21988   2.430   4.064   3.461 -0.4140 -0.1995 -0.0282
 3509SOL    HW121989   2.446   4.030   3.373  0.2558  0.9418 -0.3570
 3509SOL    HW221990   2.466   3.996   3.517 -1.2258  0.1866  0.9688
 3510SOL     OW21991   3.664   1.810   3.637 -0.3332 -0.2977  1.0540
 3510SOL    HW121992   3.576   1.835   3.663 -0.7052  1.8935 -2.3467
 3510SOL    HW221993   3.704   1.797   3.723  2.1057 -1.9911 -0.3327
 3511SOL     OW21994   2.751   4.085  11.077 -0.2058  0.8016  0.2538
 3511SOL    HW121995   2.796   4.075  10.993  1.0871  0.2207  1.0199
 3511SOL    HW221996   2.696   4.007  11.071  0.7180  0.0926  1.2547
 3512SOL     OW21997   1.641   0.534  10.565  0.3996 -0.0734  0.6354
 3512SOL    HW121998   1.648   0.524  10.660 -0.2988  2.2031  0.9146
 3512SOL    HW221999   1.726   0.510  10.529  0.7243 -1.3041  2.2130
 3513SOL     OW22000   2.475   1.635   3.403  0.6483 -0.4706  0.6989
 3513SOL    HW122001   2.410   1.686   3.451 -1.4126 -0.5735 -1.9860
 3513SOL    HW222002   2.428   1.553   3.393  2.3027 -1.4794  1.1908
 3514SOL     OW22003   3.796   0.046   2.063  0.4481 -0.0213 -0.0217
 3514SOL    HW122004   3.767   4.710   2.134 -1.1208  1.9231  0.9192
 3514SOL    HW222005   3.724   0.038   2.001 -1.6725 -0.4059  2.4713
 3515SOL     OW22006   0.081   2.532  16.204  0.8094  0.0125 -0.5942
 3515SOL    HW122007   0.088   2.463  16.271  0.2732  0.1036 -0.4437
 3515SOL    HW222008   0.132   2.486  16.138  0.2980  0.9630 -1.6509
 3516SOL     OW22009   3.646   0.414  15.662 -0.1208 -0.1426 -0.1064
 3516SOL    HW122010   3.724   0.361  15.679 -0.7514 -1.9916 -3.0867
 3516SOL    HW222011   3.645   0.472  15.738  0.4692 -0.0494 -0.1734
 3517SOL     OW22012   4.422   2.242  14.156  0.4942 -0.0268  0.3700
 3517SOL    HW122013   4.439   2.327  14.116  2.3407 -0.5571  0.0453
 3517SOL    HW222014   4.329   2.251  14.178  0.2185 -2.0574  0.0624
 3518SOL     OW22015   0.694   2.485  10.065  1.0121 -0.2154  0.0568
 3518SOL    HW122016   0.649   2.424  10.008  2.1351 -1.6310  0.7003
 3518SOL    HW222017   0.719   2.440  10.146 -0.2154 -1.1680 -0.1083
 3519SOL     OW22018   4.214   0.603   2.879  0.2058  0.0820 -0.1544
 3519SOL    HW122019   4.121   0.609   2.859 -0.0685 -0.1555  1.0453
 3519SOL    HW222020   4.237   0.573   2.791 -1.1536 -0.8377 -0.1971
 3520SOL     OW22021   0.041   0.250   9.487  0.3967 -0.7395 -0.0295
 3520SOL    HW122022   4.695   0.316   9.504 -0.2902 -1.6743  0.8578
 3520SOL    HW222023   0.028   0.200   9.568 -0.8711  2.0020  1.4833
 3521SOL     OW22024   4.318   2.646   0.845  0.1015  0.1095  0.0385
 3521SOL    HW122025   4.337   2.738   0.865  0.6240  0.3502 -1.5564
 3521SOL    HW222026   4.350   2.593   0.919 -1.7337  0.6172  1.1973
 3522SOL     OW22027   0.874   3.520   7.484  0.0452 -0.0466  0.8978
 3522SOL    HW122028   0.872   3.616   7.487  0.1478 -0.0272  0.3715
 3522SOL    HW222029   0.820   3.503   7.561 -2.6455 -0.2106 -1.0472
 3523SOL     OW22030   4.042   0.611  13.484  0.0608 -0.2330  0.2530
 3523SOL    HW122031   4.084   0.697  13.490 -2.2512  0.9933 -1.1001
 3523SOL    HW222032   3.953   0.631  13.454  0.0979 -1.3487 -0.6135
 3524SOL     OW22033   4.316   4.036   4.509  0.2635  0.0413  0.1339
 3524SOL    HW122034   4.265   4.017   4.587  0.6607  2.8415  1.0782
 3524SOL    HW222035   4.299   4.128   4.493  0.5429  0.1310  0.3465
 3525SOL     OW22036   2.538   4.223   9.124  0.0762  0.0102 -0.2209
 3525SOL    HW122037   2.579   4.289   9.180  1.8325  0.8535 -2.4621
 3525SOL    HW222038   2.607   4.157   9.131 -2.5015 -2.3909  2.1316
 3526SOL     OW22039   0.271   3.513   8.638  0.2443  0.3603 -0.3537
 3526SOL    HW122040   0.243   3.475   8.721  0.0484  1.9125  0.2914
 3526SOL    HW222041   0.214   3.589   8.625  0.8884  0.4472 -2.6090
 3527SOL     OW22042   3.818   2.344  11.076  0.1933  0.0836 -0.0154
 3527SOL    HW122043   3.768   2.419  11.044  1.5331  0.9924  0.0312
 3527SOL    HW222044   3.899   2.354  11.025 -0.4693 -0.6127 -1.2222
 3528SOL     OW22045   0.477   1.252   8.216 -0.0742  0.7800 -0.3055
 3528SOL    HW122046   0.526   1.178   8.179 -0.4984  0.3100  0.0704
 3528SOL    HW222047   0.540   1.320   8.194 -0.3909  1.4169  0.7576
 3529SOL     OW22048   4.178   0.723   6.844 -0.5228 -0.2288 -0.1741
 3529SOL    HW122049   4.085   0.745   6.852 -0.2085  1.3766 -1.0115
 3529SOL    HW222050   4.187   0.670   6.923 -1.3062 -0.3241 -0.1444
 3530SOL     OW22051   1.987   2.013   1.453 -0.3891 -0.1918  0.3573
 3530SOL    HW122052   1.979   2.027   1.358  1.3091  1.9810  0.5290
 3530SOL    HW222053   1.919   1.946   1.458  0.2916 -0.9721 -0.7614
 3531SOL     OW22054   4.615   0.564  16.700  0.2901  0.1714 -0.2585
 3531SOL    HW122055   4.646   0.630  16.638  0.2244  0.5637  0.1317
 3531SOL    HW222056   4.520   0.577  16.694  0.2774  0.0119 -0.4063
 3532SOL     OW22057   0.786   0.466   4.172 -0.1881  0.2116  0.5901
 3532SOL    HW122058   0.819   0.402   4.109 -0.9903  0.5832 -0.1974
 3532SOL    HW222059   0.691   0.455   4.166 -0.1728  0.3931  0.0086
 3533SOL     OW22060   3.253   4.009   0.375  0.0707  0.1603 -0.1664
 3533SOL    HW122061   3.221   3.944   0.312  2.1313  0.0067 -1.0557
 3533SOL    HW222062   3.334   4.032   0.329  0.3253  1.6420  1.0350
 3534SOL     OW22063   2.562   3.452   7.527  0.0151  0.3215 -0.1911
 3534SOL    HW122064   2.503   3.388   7.566 -0.2762  0.9958  0.4738
 3534SOL    HW222065   2.648   3.424   7.558  0.0397  0.7206  0.1031
 3535SOL     OW22066   3.405   4.644   3.119 -0.2491 -0.1748 -0.5782
 3535SOL    HW122067   3.379   0.014   3.122 -0.1122 -0.1853  0.7964
 3535SOL    HW222068   3.469   4.641   3.048  0.7206  3.4527  0.1370
 3536SOL     OW22069   4.289   0.423   3.209 -0.2613 -0.1084  0.0762
 3536SOL    HW122070   4.238   0.502   3.192  0.5354  0.6993  1.3615
 3536SOL    HW222071   4.344   0.464   3.276 -3.4210  0.6205  2.2132
 3537SOL     OW22072   2.054   3.747   8.138  0.2172 -0.6389 -0.0545
 3537SOL    HW122073   2.080   3.691   8.211 -0.2108  0.8606  1.2407
 3537SOL    HW222074   1.963   3.720   8.126  0.3783 -1.0292 -0.4131
 3538SOL     OW22075   0.850   3.183  11.875  0.9115  0.1660 -0.0403
 3538SOL    HW122076   0.841   3.160  11.783  0.8157  1.0183 -0.2382
 3538SOL    HW222077   0.852   3.278  11.874  0.5819  0.1474 -2.0241
 3539SOL     OW22078   2.170   0.160   7.585  0.0013  0.8144 -0.5127
 3539SOL    HW122079   2.202   0.224   7.521  0.5703 -0.6355 -1.6686
 3539SOL    HW222080   2.186   0.080   7.534 -2.5324  0.5031 -0.8411
 3540SOL     OW22081   2.789   4.045   8.507  0.2302 -0.4889  0.0752
 3540SOL    HW122082   2.841   3.969   8.482  0.0964 -0.8514  0.9080
 3540SOL    HW222083   2.856   4.106   8.538 -1.8853  1.3944  0.9886
 3541SOL     OW22084   4.064   0.534   5.940  0.3155 -0.4614  0.5385
 3541SOL    HW122085   4.031   0.493   5.861 -2.8463 -0.1081  1.6721
 3541SOL    HW222086   3.981   0.553   5.984 -0.1140  1.5938 -1.1611
 3542SOL     OW22087   0.496   4.153   7.576  0.7145  0.0558 -0.0859
 3542SOL    HW122088   0.406   4.120   7.577  0.1461  1.6458  1.0147
 3542SOL    HW222089   0.509   4.170   7.483 -1.3562 -2.0901 -0.7619
 3543SOL     OW22090   1.559   0.011   9.122 -0.2602 -0.0116  0.0230
 3543SOL    HW122091   1.619   0.006   9.048 -0.0002  1.1681  0.1538
 3543SOL    HW222092   1.496   0.071   9.082  0.5138  0.7048 -0.1366
 3544SOL     OW22093   3.550   3.342   9.983  0.0210  0.1470  0.1914
 3544SOL    HW122094   3.500   3.260   9.987 -0.0665  0.2206  0.6995
 3544SOL    HW222095   3.482   3.410   9.982 -1.8776 -1.7393  0.3807
 3545SOL     OW22096   2.290   3.371  11.612  0.6101 -0.2953  1.0935
 3545SOL    HW122097   2.331   3.288  11.589 -2.6062 -1.5957  0.0567
 3545SOL    HW222098   2.208   3.331  11.638 -1.0063  2.4415  0.2508
 3546SOL     OW22099   0.248   1.468   1.226 -0.4093  0.7656  0.6525
 3546SOL    HW122100   0.263   1.502   1.137 -0.2416 -0.9361  0.0271
 3546SOL    HW222101   0.243   1.551   1.273  3.0677  2.0165 -1.1559
 3547SOL     OW22102   2.070   2.078   5.352  0.1526 -0.0630  0.5686
 3547SOL    HW122103   1.992   2.037   5.390  0.2383 -0.7703 -0.0218
 3547SOL    HW222104   2.050   2.054   5.262  1.7374 -0.2672  0.2749
 3548SOL     OW22105   2.440   3.618   6.986 -0.7353  0.0299  0.3009
 3548SOL    HW122106   2.512   3.666   7.026 -0.5486 -0.8020  0.9793
 3548SOL    HW222107   2.377   3.688   7.002 -0.0502 -0.1017  3.4603
 3549SOL     OW22108   2.834   4.552  14.525 -0.6479 -0.1379 -0.0536
 3549SOL    HW122109   2.873   4.556  14.612  3.2364 -0.1158 -1.8229
 3549SOL    HW222110   2.846   4.641  14.492 -2.5362 -0.4928 -1.6855
 3550SOL     OW22111   0.335   1.550  11.824 -0.2689 -0.2088 -0.8198
 3550SOL    HW122112   0.343   1.622  11.887 -2.1621 -1.9668  1.4323
 3550SOL    HW222113   0.331   1.467  11.873  0.1697 -1.2219 -2.5097
 3551SOL     OW22114   3.091   1.713   0.535  0.4800  0.1179 -0.1949
 3551SOL    HW122115   3.071   1.693   0.443 -0.3820  0.0330  0.0121
 3551SOL    HW222116   3.074   1.807   0.545 -1.0718 -0.2945  0.8849
 3552SOL     OW22117   0.929   2.309  16.591 -0.3931 -0.0188  0.2249
 3552SOL    HW122118   1.018   2.341  16.579 -0.4224  0.4109  1.0963
 3552SOL    HW222119   0.883   2.393  16.585 -1.8141 -0.8336 -0.4275
 3553SOL     OW22120   3.568   3.314   1.603  0.2047  0.1047  0.1517
 3553SOL    HW122121   3.515   3.235   1.591 -0.3507  0.3002  1.3573
 3553SOL    HW222122   3.658   3.281   1.593  0.3752  0.5440  0.2345
 3554SOL     OW22123   2.097   0.505   6.937 -0.0602 -0.2400  0.9031
 3554SOL    HW122124   2.085   0.438   7.005 -0.6076 -0.4784  0.5738
 3554SOL    HW222125   2.089   0.577   6.999  0.9053 -1.2083  2.1416
 3555SOL     OW22126   0.959   3.205   4.484  0.4219  0.4710 -0.3380
 3555SOL    HW122127   0.974   3.217   4.578  0.4973  1.7469 -0.5154
 3555SOL    HW222128   1.041   3.164   4.458  0.0349  0.0631 -0.9082
 3556SOL     OW22129   1.448   3.897   5.055 -0.3476 -0.3994 -0.3687
 3556SOL    HW122130   1.426   3.904   5.147 -1.1017  1.8492 -0.7180
 3556SOL    HW222131   1.528   3.950   5.058 -1.6613  1.6115 -0.8875
 3557SOL     OW22132   4.681   4.370   9.278  0.4547  0.7968 -0.1327
 3557SOL    HW122133   4.596   4.356   9.236 -0.8598  3.1350  1.7678
 3557SOL    HW222134   4.703   4.296   9.335  0.9168  0.3203 -0.9285
 3558SOL     OW22135   0.431   2.602   0.734  0.0060  0.1566 -0.4502
 3558SOL    HW122136   0.467   2.518   0.706 -0.6115 -0.0772 -0.5328
 3558SOL    HW222137   0.338   2.584   0.748 -0.1783  1.8620  0.4661
 3559SOL     OW22138   1.247   3.827   6.037  0.1244 -0.2606  0.1850
 3559SOL    HW122139   1.332   3.823   6.081  0.2114 -2.9220 -0.2607
 3559SOL    HW222140   1.185   3.777   6.090  0.0465  0.8527  1.1554
 3560SOL     OW22141   4.258   0.018   3.480 -0.2527 -1.0154 -0.0100
 3560SOL    HW122142   4.234   0.011   3.573 -0.0946 -2.2918 -0.0646
 3560SOL    HW222143   4.333   4.682   3.471  1.1577  0.7125  0.5493
 3561SOL     OW22144   4.412   2.201  10.375 -0.1452 -0.0657 -0.2454
 3561SOL    HW122145   4.347   2.269  10.360  0.3260  0.1078 -1.5134
 3561SOL    HW222146   4.433   2.207  10.468 -1.6606  1.2947  0.0008
 3562SOL     OW22147   1.865   4.157  16.105  0.1959  0.0727 -0.2955
 3562SOL    HW122148   1.881   4.249  16.122 -2.9251  0.1706  2.1381
 3562SOL    HW222149   1.947   4.107  16.109 -0.1851 -0.3900  1.4482
 3563SOL     OW22150   3.641   3.275   4.670  0.2564  0.1705 -0.3714
 3563SOL    HW122151   3.576   3.206   4.656 -1.3580  1.6187 -0.0409
 3563SOL    HW222152   3.631   3.294   4.763 -1.3146 -1.1404 -0.2798
 3564SOL     OW22153   3.941   2.654   6.516 -0.0536 -0.3312  0.4648
 3564SOL    HW122154   3.952   2.673   6.422 -1.7423  0.0946  0.3702
 3564SOL    HW222155   3.943   2.743   6.550  0.8438  0.8324 -2.5432
 3565SOL     OW22156   2.822   3.302  14.886  0.0249 -0.0657 -0.4044
 3565SOL    HW122157   2.890   3.361  14.918  1.0235 -1.9364  0.9596
 3565SOL    HW222158   2.812   3.329  14.795 -2.6828  0.1586 -0.0561
 3566SOL     OW22159   3.476   1.967  13.379  0.1296  0.3158  0.4066
 3566SOL    HW122160   3.554   1.944  13.329  1.8658  0.1130  3.2144
 3566SOL    HW222161   3.501   2.052  13.415 -0.1125  0.0034  1.3167
 3567SOL     OW22162   3.312   0.702   6.386  0.0583 -0.1865  0.2427
 3567SOL    HW122163   3.341   0.738   6.470  2.6174  0.0934 -0.7675
 3567SOL    HW222164   3.343   0.773   6.330  1.1392 -0.9219 -0.0880
 3568SOL     OW22165   2.840   1.481   8.841  0.0259 -0.1155 -0.8171
 3568SOL    HW122166   2.756   1.528   8.833  1.4632  2.5830 -0.2964
 3568SOL    HW222167   2.870   1.472   8.751  0.4921  0.2557 -0.7024
 3569SOL     OW22168   3.418   0.195   3.115 -0.1868 -0.1295 -0.5727
 3569SOL    HW122169   3.513   0.192   3.128 -0.1542 -0.5662 -0.9212
 3569SOL    HW222170   3.404   0.269   3.056  2.2009 -0.5045 -1.6042
 3570SOL     OW22171   3.253   3.239   3.390  0.9400 -0.6021  0.0623
 3570SOL    HW122172   3.349   3.241   3.394  0.8748 -1.3884  2.1249
 3570SOL    HW222173   3.235   3.237   3.296  1.5539 -2.1779 -0.0246
 3571SOL     OW22174   1.120   1.282   0.434 -0.0528 -0.1244 -0.2656
 3571SOL    HW122175   1.185   1.223   0.474  1.0045  0.4762 -1.0970
 3571SOL    HW222176   1.155   1.292   0.345 -0.0810 -1.4156 -0.4269
 3572SOL     OW22177   3.349   1.702   2.332 -0.2467 -0.0852  0.7249
 3572SOL    HW122178   3.292   1.769   2.294  0.2720  0.5297  1.0302
 3572SOL    HW222179   3.305   1.629   2.289  0.0657  0.6525 -0.8373
 3573SOL     OW22180   1.271   3.947   3.258 -0.2287  0.5710 -0.0713
 3573SOL    HW122181   1.217   3.882   3.213  0.8015  0.1071 -0.6453
 3573SOL    HW222182   1.263   4.025   3.203 -1.5848 -0.7449 -1.7369
 3574SOL     OW22183   3.529   2.485   5.003  0.4286 -0.1957  0.3851
 3574SOL    HW122184   3.618   2.519   5.011  0.1375  1.1422 -2.0526
 3574SOL    HW222185   3.478   2.561   4.975  0.1852 -0.3808  0.3209
 3575SOL     OW22186   4.219   4.048   4.779 -0.0734 -0.5883  0.2814
 3575SOL    HW122187   4.285   4.096   4.829  0.8667  0.6762 -2.1531
 3575SOL    HW222188   4.155   4.119   4.778  2.1328  1.3724 -1.8988
 3576SOL     OW22189   0.396   2.976   8.080  0.4694 -0.5357  0.1297
 3576SOL    HW122190   0.417   3.060   8.039  0.8228 -0.4332  0.5219
 3576SOL    HW222191   0.472   2.985   8.137 -0.1775  2.2059  0.5250
 3577SOL     OW22192   1.477   1.894  13.469  0.4115  0.9892  0.2701
 3577SOL    HW122193   1.389   1.879  13.506 -0.0755  1.7478 -0.5813
 3577SOL    HW222194   1.534   1.823  13.499  0.4539  1.0216  0.2655
 3578SOL     OW22195   2.751   3.018   9.313 -0.6924  0.7713  0.0381
 3578SOL    HW122196   2.842   3.019   9.344 -1.0294 -1.8185  1.1218
 3578SOL    HW222197   2.723   3.107   9.291  0.8641  0.9202 -1.3735
 3579SOL     OW22198   4.688   4.452   1.662 -0.7032  0.0060  0.1078
 3579SOL    HW122199   4.704   4.420   1.750  0.8324  0.2554 -0.0737
 3579SOL    HW222200   0.054   4.457   1.623 -0.6439 -3.3503 -0.1483
 3580SOL     OW22201   0.390   4.590   8.827 -0.1942 -0.1890  0.1996
 3580SOL    HW122202   0.397   4.554   8.915  2.4334 -0.1744 -0.0079
 3580SOL    HW222203   0.296   4.604   8.825 -0.2215 -0.3513  0.3440
 3581SOL     OW22204   4.451   2.717   5.987  0.5873 -0.0035  0.4709
 3581SOL    HW122205   4.456   2.664   5.907 -2.0744  2.8829 -1.6213
 3581SOL    HW222206   4.458   2.651   6.056  1.2911  1.2668  1.5997
 3582SOL     OW22207   4.649   3.600  12.864 -0.1155  0.5096  0.1788
 3582SOL    HW122208   4.715   3.554  12.814 -0.7891  1.4360 -1.5503
 3582SOL    HW222209   4.592   3.632  12.795  0.1294  0.1371 -0.1914
 3583SOL     OW22210   3.009   4.639   5.242 -0.7208 -0.4835 -0.7441
 3583SOL    HW122211   2.925   4.594   5.247 -0.3982 -1.2819 -2.7139
 3583SOL    HW222212   3.036   4.626   5.151 -0.6591 -0.5192 -0.7209
 3584SOL     OW22213   2.789   3.603   6.637  0.0601  0.4966 -0.0345
 3584SOL    HW122214   2.850   3.628   6.707 -0.6445  1.5055  0.2138
 3584SOL    HW222215   2.848   3.615   6.562 -1.2883  2.4780 -0.7712
 3585SOL     OW22216   2.881   1.344   0.828  0.8231 -0.4167 -0.4234
 3585SOL    HW122217   2.821   1.361   0.755  1.7356  0.4496 -0.9689
 3585SOL    HW222218   2.967   1.374   0.801  1.0646  0.0799  0.8584
 3586SOL     OW22219   0.646   3.899  15.342  0.0134  0.3468 -0.0033
 3586SOL    HW122220   0.671   3.925  15.253 -0.8818 -0.0393 -0.3786
 3586SOL    HW222221   0.664   3.805  15.343  2.6299  0.8427 -0.6499
 3587SOL     OW22222   3.395   0.248   4.312  0.1551 -0.0850 -0.2103
 3587SOL    HW122223   3.305   0.231   4.341  1.2318 -1.4098  2.4268
 3587SOL    HW222224   3.389   0.341   4.293 -0.0258 -0.5225 -2.2659
 3588SOL     OW22225   3.899   3.247  11.218  0.3325 -0.3635 -0.1133
 3588SOL    HW122226   3.947   3.188  11.159  2.2067 -0.8973  1.9279
 3588SOL    HW222227   3.833   3.271  11.153  0.7775 -1.0823 -0.8397
 3589SOL     OW22228   2.602   3.758  17.271 -0.4742 -0.0667  0.1906
 3589SOL    HW122229   2.590   3.670  17.235  1.1788 -0.0971 -0.2896
 3589SOL    HW222230   2.697   3.758  17.265 -0.4983  1.3493 -0.1051
 3590SOL     OW22231   0.415   2.938   7.696 -0.1119  0.8961 -0.1802
 3590SOL    HW122232   0.357   2.877   7.742 -0.6643  0.6606 -1.1961
 3590SOL    HW222233   0.398   2.903   7.609  0.1689  1.4385 -0.4509
 3591SOL     OW22234   4.651   0.987  10.531 -0.1655 -0.6716 -0.1981
 3591SOL    HW122235   4.695   0.906  10.559 -1.2394 -1.3056 -0.3173
 3591SOL    HW222236   4.663   1.030  10.616  0.0366 -0.0854 -0.5270
 3592SOL     OW22237   2.925   4.088   7.817  0.8044  0.3608  0.4641
 3592SOL    HW122238   2.965   4.063   7.900 -2.1725 -2.8272  0.9094
 3592SOL    HW222239   3.004   4.125   7.777  1.7340  1.3163  3.1911
 3593SOL     OW22240   3.849   3.441   0.164  0.9615 -0.4766 -0.5446
 3593SOL    HW122241   3.912   3.466   0.231 -2.2729 -0.5851  2.5804
 3593SOL    HW222242   3.761   3.448   0.203  1.0100  1.4351 -0.7870
 3594SOL     OW22243   4.629   1.147  17.354 -0.2204  0.0060  1.3960
 3594SOL    HW122244   4.593   1.235  17.350  0.6105  0.1869 -1.9417
 3594SOL    HW222245   4.559   1.102  17.400 -2.8551 -0.2361 -2.8573
 3595SOL     OW22246   1.459   0.170  16.714 -0.3154 -0.1684 -0.1072
 3595SOL    HW122247   1.364   0.171  16.700 -0.1970 -2.3226 -1.0529
 3595SOL    HW222248   1.486   0.245  16.661  1.1697  0.0863  1.0143
 3596SOL     OW22249   4.337   0.456   7.752 -0.1149 -0.1061  0.4594
 3596SOL    HW122250   4.371   0.407   7.677  0.5680  1.0637 -0.0003
 3596SOL    HW222251   4.306   0.389   7.812 -0.9035 -0.6885 -0.6033
 3597SOL     OW22252   1.085   1.193   7.606  0.2039  0.5209 -0.0758
 3597SOL    HW122253   1.037   1.141   7.541 -0.1748  2.5691 -1.4110
 3597SOL    HW222254   1.138   1.121   7.641  1.1359  1.1449 -0.2277
 3598SOL     OW22255   3.405   2.647  11.932  0.4190 -0.0577  0.0112
 3598SOL    HW122256   3.495   2.640  11.898  1.0454 -1.1293  1.8963
 3598SOL    HW222257   3.372   2.736  11.918  1.4357  0.2028 -0.7215
 3599SOL     OW22258   3.386   1.531   4.387  0.3747 -0.2140 -0.7813
 3599SOL    HW122259   3.387   1.535   4.483  1.6596  1.3724 -0.8562
 3599SOL    HW222260   3.386   1.436   4.374 -2.2676 -0.3639  0.2502
 3600SOL     OW22261   3.803   1.183   4.624 -0.4081 -0.0284 -0.1319
 3600SOL    HW122262   3.716   1.195   4.587 -0.2836  0.8132 -0.1660
 3600SOL    HW222263   3.795   1.144   4.710  0.7995  0.8133  0.3723
 3601SOL     OW22264   1.743   3.332   0.328 -0.8227 -0.7469 -0.0358
 3601SOL    HW122265   1.823   3.296   0.365 -0.1002  0.0893 -0.7905
 3601SOL    HW222266   1.767   3.405   0.270  0.7649 -1.3559 -0.1278
 3602SOL     OW22267   0.919   3.639   9.366 -0.1520 -0.6186 -0.2902
 3602SOL    HW122268   0.917   3.728   9.331 -0.4355 -1.1711 -1.6711
 3602SOL    HW222269   0.976   3.647   9.443  1.0641  1.8357 -1.4564
 3603SOL     OW22270   4.291   4.286  12.784 -0.4663 -0.1715 -0.9861
 3603SOL    HW122271   4.250   4.272  12.870 -1.4449  3.0012 -0.9123
 3603SOL    HW222272   4.384   4.283  12.807 -0.7726 -0.5533  0.2125
 3604SOL     OW22273   4.043   0.965   7.798  0.2569 -0.0829  0.1053
 3604SOL    HW122274   4.053   0.874   7.769 -2.8589  0.0407 -1.4065
 3604SOL    HW222275   3.956   0.974   7.835  0.4017 -0.4695  0.5360
 3605SOL     OW22276   0.701   3.830   7.426  0.0573  0.2548 -0.2980
 3605SOL    HW122277   0.701   3.807   7.333  0.3945  1.8660 -0.6966
 3605SOL    HW222278   0.791   3.862   7.426  0.5685 -1.1533 -1.3691
 3606SOL     OW22279   3.488   2.788  16.116  0.8271  0.7190  0.1262
 3606SOL    HW122280   3.395   2.769  16.107  0.6809  1.4853 -0.0460
 3606SOL    HW222281   3.528   2.756  16.035 -0.6965  0.4857 -0.5432
 3607SOL     OW22282   1.648   2.912   3.219  0.1038  0.6603 -0.1370
 3607SOL    HW122283   1.650   2.994   3.169  0.3740 -0.4651 -1.9715
 3607SOL    HW222284   1.723   2.868   3.180 -1.4788 -1.5179 -0.7375
 3608SOL     OW22285   3.377   2.391  11.277 -0.1371 -0.2077 -0.2631
 3608SOL    HW122286   3.356   2.299  11.267  1.7444 -0.6280 -0.4653
 3608SOL    HW222287   3.389   2.396  11.372  0.2664  0.3857 -0.3382
 3609SOL     OW22288   0.312   3.966   1.064 -0.0146 -0.2383  0.0291
 3609SOL    HW122289   0.399   3.925   1.068  0.0253 -0.1714 -0.1206
 3609SOL    HW222290   0.259   3.902   1.016  0.9264  0.7075 -2.2599
 3610SOL     OW22291   0.128   4.635   7.042 -0.4399 -0.5219 -0.4023
 3610SOL    HW122292   0.097   4.592   7.122  0.5221 -1.1696 -0.3681
 3610SOL    HW222293   0.075   4.589   6.978 -0.0084 -1.1175 -0.3273
 3611SOL     OW22294   1.449   0.950   7.384  0.4056 -0.1755 -0.3437
 3611SOL    HW122295   1.510   0.921   7.452  1.3284 -1.0296 -1.5430
 3611SOL    HW222296   1.371   0.900   7.407  0.8816 -0.4177  0.7492
 3612SOL     OW22297   0.784   1.271   2.045 -0.0284  0.2032 -0.0266
 3612SOL    HW122298   0.701   1.304   2.079  0.9820  0.6942  1.9694
 3612SOL    HW222299   0.830   1.219   2.110 -1.0124  1.7027  1.8548
 3613SOL     OW22300   0.295   3.889   7.446  0.2021 -0.1025  0.1578
 3613SOL    HW122301   0.267   3.881   7.538  0.4594 -0.0248  0.2436
 3613SOL    HW222302   0.373   3.835   7.437  0.4203  0.7371 -2.9404
 3614SOL     OW22303   4.332   0.649  10.056 -0.2422  0.1732  0.0092
 3614SOL    HW122304   4.347   0.701   9.977  1.6106 -1.1836 -0.5438
 3614SOL    HW222305   4.249   0.686  10.088  0.1122  1.9244 -1.1455
 3615SOL     OW22306   4.175   3.160   5.405  0.0874 -0.8400 -0.0089
 3615SOL    HW122307   4.099   3.212   5.432  1.2025  0.4766  0.6418
 3615SOL    HW222308   4.252   3.203   5.442  0.7109 -1.4079 -0.6524
 3616SOL     OW22309   0.407   4.514   5.164 -0.0941  0.2503 -0.3716
 3616SOL    HW122310   0.470   4.482   5.100  1.5271  0.0880  1.3083
 3616SOL    HW222311   0.393   4.436   5.218  1.8311  1.0704  1.2871
 3617SOL     OW22312   1.358   3.269  10.536  0.4203 -0.2001 -0.6513
 3617SOL    HW122313   1.268   3.252  10.509  0.0590  0.7306 -0.0362
 3617SOL    HW222314   1.349   3.319  10.617  1.2234  0.3586 -0.9031
 3618SOL     OW22315   1.643   2.539  10.076  0.0697 -0.2221 -0.4630
 3618SOL    HW122316   1.654   2.581   9.991  2.2634  1.1922  0.5067
 3618SOL    HW222317   1.557   2.570  10.102  0.3262  2.2596 -2.5490
 3619SOL     OW22318   2.962   0.303   7.943  0.0891  0.0971  0.0575
 3619SOL    HW122319   2.978   0.384   7.895  0.9490  0.0434  0.2512
 3619SOL    HW222320   2.958   0.326   8.036  0.1409 -0.3096  0.1612
 3620SOL     OW22321   3.941   3.574   7.882 -0.1645  0.1923  0.3718
 3620SOL    HW122322   4.003   3.581   7.955 -0.2480 -1.3559  0.5716
 3620SOL    HW222323   3.998   3.538   7.815 -0.5817  1.3503 -0.6136
 3621SOL     OW22324   1.990   2.119   3.925  0.2955  0.1592  0.4242
 3621SOL    HW122325   1.911   2.171   3.940  0.5122  0.7808 -0.5517
 3621SOL    HW222326   1.948   2.038   3.898 -2.5908  1.1693  1.8953
 3622SOL     OW22327   4.069   2.433   9.051 -0.2739 -0.1303 -0.2120
 3622SOL    HW122328   4.082   2.477   8.968 -0.9296 -0.4972 -0.5076
 3622SOL    HW222329   3.980   2.450   9.081  0.8558  2.8524  1.3674
 3623SOL     OW22330   1.704   3.225  12.826 -0.2245  0.4710 -0.2854
 3623SOL    HW122331   1.693   3.179  12.743  0.5142  1.7751 -1.0983
 3623SOL    HW222332   1.632   3.180  12.870 -1.1695  1.7757 -0.5096
 3624SOL     OW22333   4.079   2.888   4.134 -0.0478 -0.2742  0.0282
 3624SOL    HW122334   4.048   2.810   4.180  0.1546 -0.9563 -1.0119
 3624SOL    HW222335   4.001   2.917   4.087 -0.8109 -0.5332  1.1157
 3625SOL     OW22336   3.385   1.585  14.523  0.5041 -0.4128  0.8154
 3625SOL    HW122337   3.290   1.589  14.515  0.6174  1.4969  0.4030
 3625SOL    HW222338   3.412   1.634  14.445  0.0920  1.1248  1.6381
 3626SOL     OW22339   4.411   0.729   8.794 -0.2106  0.1975 -0.4730
 3626SOL    HW122340   4.349   0.754   8.726 -0.2112 -0.7117 -0.8116
 3626SOL    HW222341   4.353   0.694   8.862 -0.0962 -1.2544 -1.1176
 3627SOL     OW22342   0.009   3.615   3.762 -0.0035  0.5682  0.3202
 3627SOL    HW122343   4.644   3.620   3.724 -0.6091 -0.3384  1.5625
 3627SOL    HW222344   0.011   3.526   3.797 -0.4563 -1.1981 -4.1541
 3628SOL     OW22345   2.447   0.888   7.739  0.3742  0.5875  0.0390
 3628SOL    HW122346   2.490   0.805   7.718 -1.2586 -0.3831  0.5815
 3628SOL    HW222347   2.530   0.936   7.745  1.6104 -1.7350  1.2274
 3629SOL     OW22348   0.956   4.631   2.895  0.3823 -0.0872 -0.3119
 3629SOL    HW122349   0.931   4.666   2.809 -0.8561 -1.0379 -0.3435
 3629SOL    HW222350   0.988   4.545   2.869 -0.7847 -0.3406 -0.9146
 3630SOL     OW22351   1.778   1.472   3.912  0.0587 -0.7564  0.2597
 3630SOL    HW122352   1.727   1.525   3.851  1.0004 -0.3129 -0.1428
 3630SOL    HW222353   1.752   1.380   3.908  0.0484 -0.8097  1.5865
 3631SOL     OW22354   0.703   1.233  10.932  0.5245  0.6371 -0.2006
 3631SOL    HW122355   0.628   1.177  10.956  2.2875 -1.9928 -0.7773
 3631SOL    HW222356   0.675   1.318  10.965 -1.3382 -0.3526  0.7676
 3632SOL     OW22357   4.528   4.239   6.168  0.6715  0.5100 -0.2973
 3632SOL    HW122358   4.592   4.308   6.153 -0.8954  1.4494 -2.6036
 3632SOL    HW222359   4.493   4.259   6.254 -0.5528  0.6657 -0.8308
 3633SOL     OW22360   2.164   4.258   3.692  1.0170  0.2165 -0.3407
 3633SOL    HW122361   2.133   4.321   3.757  0.1578  0.3129 -0.8468
 3633SOL    HW222362   2.103   4.191   3.723  0.1011  0.4306 -1.6844
 3634SOL     OW22363   4.013   2.596   3.910  0.0183 -0.2035  0.0581
 3634SOL    HW122364   4.105   2.576   3.926  0.5193  1.8771 -0.2117
 3634SOL    HW222365   4.018   2.650   3.831  0.5030  0.9898  0.9156
 3635SOL     OW22366   0.410   1.234   6.489 -0.5256 -0.0151 -0.0712
 3635SOL    HW122367   0.355   1.290   6.543  1.1590  1.7131 -0.1674
 3635SOL    HW222368   0.378   1.254   6.401  0.5310 -1.6059 -0.8180
 3636SOL     OW22369   0.156   0.146   1.994  0.5957  0.5493  0.3854
 3636SOL    HW122370   0.238   0.196   1.999  0.9768  0.0303 -0.6209
 3636SOL    HW222371   0.100   0.187   2.059 -0.6037  1.0283 -0.9628
 3637SOL     OW22372   2.700   1.384  12.983 -0.8635  0.4179 -0.2705
 3637SOL    HW122373   2.657   1.345  13.059 -1.6936  1.9415  0.0413
 3637SOL    HW222374   2.776   1.327  12.976 -0.9991  0.2848 -0.6874
 3638SOL     OW22375   1.505   0.747  11.974  0.4680 -0.2105 -0.1887
 3638SOL    HW122376   1.498   0.829  11.926  2.0458  0.0621  0.0401
 3638SOL    HW222377   1.600   0.734  11.980  0.2543 -1.0267  1.7414
 3639SOL     OW22378   1.194   1.668   7.321  0.0208  0.4091 -0.3303
 3639SOL    HW122379   1.109   1.625   7.316  0.6275 -1.0293  1.5455
 3639SOL    HW222380   1.226   1.637   7.406  0.1688 -0.6553 -0.7757
 3640SOL     OW22381   2.048   3.187   3.014 -0.0272  0.0029  0.0220
 3640SOL    HW122382   1.996   3.183   3.094  0.4741  1.7332  0.4274
 3640SOL    HW222383   2.056   3.093   2.996  0.9927 -0.2163  1.5847
 3641SOL     OW22384   1.332   2.781  16.048  0.1061 -0.0242 -0.2752
 3641SOL    HW122385   1.312   2.870  16.020 -2.0217 -0.4770 -0.1644
 3641SOL    HW222386   1.419   2.768  16.010 -0.6381  0.4535 -2.1143
 3642SOL     OW22387   2.747   4.496   6.496 -0.1200 -0.5968 -0.2757
 3642SOL    HW122388   2.677   4.546   6.538 -0.1928 -0.0006 -1.1232
 3642SOL    HW222389   2.702   4.453   6.423  1.3380 -0.6739 -1.1248
 3643SOL     OW22390   2.300   2.290   2.559  0.0720  0.4172 -0.0659
 3643SOL    HW122391   2.295   2.215   2.618 -0.5840  1.4204  1.1555
 3643SOL    HW222392   2.346   2.258   2.481 -1.1679  0.7638 -0.9379
 3644SOL     OW22393   2.389   3.265   7.652 -0.2260 -0.0248 -0.0957
 3644SOL    HW122394   2.341   3.310   7.722  0.0267  0.3947 -0.1941
 3644SOL    HW222395   2.405   3.179   7.692 -0.1762 -0.1654 -0.4165
 3645SOL     OW22396   0.820   3.351  16.956 -0.2113  0.1725  0.1591
 3645SOL    HW122397   0.915   3.363  16.947 -0.4827  1.0657 -1.4541
 3645SOL    HW222398   0.799   3.375  17.046  2.0030  1.5008  0.3153
 3646SOL     OW22399   1.139   0.132   7.102  0.2530 -0.2640  0.1289
 3646SOL    HW122400   1.135   0.067   7.173  0.6755  1.2267  1.5168
 3646SOL    HW222401   1.196   0.092   7.036 -0.6452 -1.4471  0.0790
 3647SOL     OW22402   0.920   1.187  17.643  0.3559 -0.0616 -0.8531
 3647SOL    HW122403   0.943   1.127  17.572 -0.6998 -0.1262 -1.1314
 3647SOL    HW222404   0.929   1.117   0.018 -1.3459 -0.3940 -0.9746
 3648SOL     OW22405   4.709   0.165   9.764 -0.4335 -0.2538  0.0695
 3648SOL    HW122406   4.680   0.240   9.816 -3.1270 -1.0240 -0.3397
 3648SOL    HW222407   0.024   0.102   9.825 -0.4195  0.7928  1.1435
 3649SOL     OW22408   3.727   0.224   8.352 -0.1705 -0.0946 -0.6402
 3649SOL    HW122409   3.658   0.285   8.379 -0.8616 -1.2305  0.1470
 3649SOL    HW222410   3.682   0.145   8.379  2.2529 -1.3055 -0.1167
 3650SOL     OW22411   4.670   4.228   9.915  0.3548  0.2187  0.1145
 3650SOL    HW122412   4.594   4.265   9.959  0.9240  0.0678  1.2128
 3650SOL    HW222413   4.618   4.176   9.854 -2.1542  0.6057  1.9387
 3651SOL     OW22414   3.601   2.783   5.291 -0.2821  0.1163 -0.4494
 3651SOL    HW122415   3.529   2.787   5.228 -0.6550 -0.1386 -0.0382
 3651SOL    HW222416   3.672   2.823   5.241  0.7599 -0.3669  0.6408
 3652SOL     OW22417   3.462   3.729   3.473 -0.3548  0.0546 -0.3357
 3652SOL    HW122418   3.388   3.702   3.418 -0.7681  1.1673 -0.3235
 3652SOL    HW222419   3.490   3.805   3.422 -2.1815  0.5076 -0.6606
 3653SOL     OW22420   4.091   3.785   9.657  0.2541 -0.6159  0.1386
 3653SOL    HW122421   4.083   3.877   9.631  1.1317 -0.5184  0.2191
 3653SOL    HW222422   4.167   3.799   9.713  0.8465  0.8017 -1.0171
 3654SOL     OW22423   0.491   0.852   2.772 -0.4736  0.0443  0.1185
 3654SOL    HW122424   0.440   0.924   2.808 -0.5234 -1.7116  3.5292
 3654SOL    HW222425   0.419   0.813   2.722 -0.8074  1.8764 -0.8366
 3655SOL     OW22426   4.164   0.782   1.735 -0.1656 -0.0003  0.0706
 3655SOL    HW122427   4.212   0.845   1.680 -0.7954 -0.9738 -1.5936
 3655SOL    HW222428   4.152   0.702   1.684  0.4774 -0.5802  0.8417
 3656SOL     OW22429   2.917   0.205  10.830 -0.1704  0.4864 -0.3532
 3656SOL    HW122430   2.933   0.113  10.808  1.0043  1.1096 -2.0770
 3656SOL    HW222431   2.996   0.222  10.882  0.2370  0.7537 -1.0551
 3657SOL     OW22432   0.274   1.962  11.783 -0.2114  0.3234 -0.0119
 3657SOL    HW122433   0.296   1.906  11.857 -1.9193  2.3101  1.9755
 3657SOL    HW222434   0.202   1.912  11.745 -0.3551  0.2792  0.3258
 3658SOL     OW22435   3.743   1.604   1.555 -0.0784  0.0009 -0.2312
 3658SOL    HW122436   3.691   1.664   1.607  0.4820  0.6905 -0.4620
 3658SOL    HW222437   3.746   1.524   1.608 -2.0322  0.0016 -0.1509
 3659SOL     OW22438   1.480   4.143   8.615 -0.6019  0.0827  0.0617
 3659SOL    HW122439   1.531   4.196   8.675 -0.8944 -0.6658  0.9749
 3659SOL    HW222440   1.464   4.071   8.676  1.0482 -0.8188 -0.5794
 3660SOL     OW22441   0.120   3.774   6.246 -0.5863  0.2586  0.5022
 3660SOL    HW122442   0.051   3.832   6.215 -1.6291 -0.5757  1.2573
 3660SOL    HW222443   0.172   3.771   6.165 -1.7309 -1.2688 -0.1801
 3661SOL     OW22444   0.210   3.794   4.362 -0.4900  0.5690 -0.2538
 3661SOL    HW122445   0.217   3.705   4.397 -0.8519  0.3887 -0.6273
 3661SOL    HW222446   0.115   3.804   4.364 -0.6235 -0.6572 -0.2805
 3662SOL     OW22447   3.094   2.073  11.291  0.5856 -0.6004  0.0853
 3662SOL    HW122448   3.082   1.983  11.261 -0.2748 -0.9217  1.3903
 3662SOL    HW222449   3.006   2.109  11.297  0.2095 -1.7187  1.3664
 3663SOL     OW22450   1.699   3.586   7.085 -0.0737  0.1106  0.2100
 3663SOL    HW122451   1.641   3.634   7.144 -1.9470 -0.9108 -0.8105
 3663SOL    HW222452   1.726   3.520   7.149  3.7588  1.7073  0.2132
 3664SOL     OW22453   4.387   2.566   7.491 -0.3070 -0.2450  0.5414
 3664SOL    HW122454   4.473   2.525   7.504 -0.5832 -1.3770 -1.1482
 3664SOL    HW222455   4.402   2.655   7.459  1.3792 -0.9545 -0.6447
 3665SOL     OW22456   1.802   1.134   3.178 -1.2079  0.0707 -0.0505
 3665SOL    HW122457   1.789   1.153   3.085 -0.1223 -0.1913 -0.2578
 3665SOL    HW222458   1.868   1.198   3.205 -0.6194 -1.3621  1.8932
 3666SOL     OW22459   3.588   0.458  15.135 -0.2790 -0.3175  0.0014
 3666SOL    HW122460   3.550   0.416  15.212  0.4045 -1.0334 -0.0561
 3666SOL    HW222461   3.648   0.389  15.107  0.5770 -0.2195  1.5845
 3667SOL     OW22462   1.969   1.179   8.000  0.4137 -0.0060 -1.1635
 3667SOL    HW122463   2.017   1.096   8.001  2.4370  1.1701 -1.4800
 3667SOL    HW222464   1.927   1.179   7.914  0.5202  1.9368 -1.2210
 3668SOL     OW22465   4.576   2.290  17.579  0.2006  0.4203  0.4724
 3668SOL    HW122466   4.538   2.372  17.611  2.3136  1.8423 -0.5802
 3668SOL    HW222467   4.589   2.308  17.486  0.6752 -0.2158  0.4119
 3669SOL     OW22468   1.270   3.449   5.431 -0.4361 -0.1522  0.6343
 3669SOL    HW122469   1.189   3.450   5.482  2.3589 -1.5357  5.0887
 3669SOL    HW222470   1.242   3.380   5.370  1.6923 -0.8150  0.4026
 3670SOL     OW22471   0.194   1.932   0.905 -0.0667  0.2877  0.3988
 3670SOL    HW122472   0.129   1.937   0.975 -1.3015  0.6401 -0.7684
 3670SOL    HW222473   0.137   1.965   0.835 -0.3866 -0.3485  0.3616
 3671SOL     OW22474   3.562   1.220   3.982  0.0740 -0.4080  0.0196
 3671SOL    HW122475   3.544   1.285   3.913  0.2408  0.9837  1.2763
 3671SOL    HW222476   3.592   1.148   3.927  1.5534 -0.4312  0.8657
 3672SOL     OW22477   2.860   1.211  10.086  0.2506 -0.8005  0.6982
 3672SOL    HW122478   2.794   1.142  10.078 -0.5078 -0.0549  0.5204
 3672SOL    HW222479   2.937   1.172  10.045  0.9306  1.7948 -0.4721
 3673SOL     OW22480   2.012   4.038  13.645  0.2553  0.2362  0.5517
 3673SOL    HW122481   1.989   3.954  13.684  0.4565 -0.5496 -1.0622
 3673SOL    HW222482   1.930   4.082  13.627 -0.1383 -0.5387  0.4514
 3674SOL     OW22483   0.568   1.940  11.253 -0.2943  0.3539 -0.2927
 3674SOL    HW122484   0.548   1.886  11.330 -1.8238  0.7047 -0.4360
 3674SOL    HW222485   0.554   2.029  11.286 -2.0358  0.0890 -0.3033
 3675SOL     OW22486   4.367   0.948  10.127  0.1469  0.0006 -0.0468
 3675SOL    HW122487   4.404   0.892  10.195 -0.4048 -1.5212 -1.0256
 3675SOL    HW222488   4.288   0.904  10.096  1.0898 -1.6570 -0.0401
 3676SOL     OW22489   2.275   0.311   3.687 -0.2777 -0.1011 -0.2019
 3676SOL    HW122490   2.254   0.401   3.711  0.0435  0.3329 -1.5730
 3676SOL    HW222491   2.228   0.304   3.604 -0.1528  1.9599 -0.4495
 3677SOL     OW22492   3.457   4.341   0.352  0.7532 -0.7838 -0.0897
 3677SOL    HW122493   3.490   4.253   0.330  0.3720 -1.1195  0.6758
 3677SOL    HW222494   3.428   4.379   0.269 -0.2472 -1.8358 -0.2337
 3678SOL     OW22495   2.684   3.389   3.972  0.8090 -0.5322  0.3359
 3678SOL    HW122496   2.728   3.474   3.979 -0.8359  0.2559  1.0770
 3678SOL    HW222497   2.713   3.373   3.882  1.2747 -1.6437  0.6841
 3679SOL     OW22498   2.089   1.069  10.591 -0.0525 -0.1652 -0.1579
 3679SOL    HW122499   2.025   0.998  10.590  0.6975 -0.8334 -0.7927
 3679SOL    HW222500   2.155   1.039  10.654 -0.0066  3.9381  1.7826
 3680SOL     OW22501   2.977   2.291  14.511 -0.1431 -0.4443  0.3117
 3680SOL    HW122502   2.976   2.312  14.604  1.1076 -0.4664  0.3339
 3680SOL    HW222503   2.902   2.346  14.489 -0.3042 -0.2838  1.2428
 3681SOL     OW22504   2.871   3.099   2.585  0.5281 -0.2062 -0.1112
 3681SOL    HW122505   2.831   3.152   2.654  0.6592 -1.6400  1.0590
 3681SOL    HW222506   2.855   3.007   2.608  0.9146  0.3912  2.5098
 3682SOL     OW22507   2.011   0.077   3.686 -0.0094  0.4403 -0.8039
 3682SOL    HW122508   2.093   0.043   3.721  0.6557  0.5838 -2.2038
 3682SOL    HW222509   1.995   0.021   3.610 -0.7935 -1.0762  0.4820
 3683SOL     OW22510   4.358   4.303   3.701  0.2498  0.9177  0.0413
 3683SOL    HW122511   4.433   4.275   3.753  1.2366  0.2292 -1.7297
 3683SOL    HW222512   4.295   4.260   3.758  0.7060  1.0188  0.6223
 3684SOL     OW22513   4.277   0.542   5.076 -0.0900 -0.7656 -0.1149
 3684SOL    HW122514   4.288   0.516   4.984 -2.5745  0.5996 -0.8295
 3684SOL    HW222515   4.368   0.565   5.092 -0.2047  0.4348 -1.1443
 3685SOL     OW22516   1.214   3.950   5.791 -0.7468 -0.7635  0.1905
 3685SOL    HW122517   1.159   4.026   5.812 -1.8023 -1.6742  0.7393
 3685SOL    HW222518   1.244   3.939   5.881 -1.2681  3.8700  0.9336
 3686SOL     OW22519   1.849   4.471  15.296 -0.1534  0.2079  0.2946
 3686SOL    HW122520   1.920   4.533  15.278 -1.5218  2.3481  2.2892
 3686SOL    HW222521   1.846   4.430  15.210 -0.0854 -1.2028  0.9715
 3687SOL     OW22522   0.371   0.900   4.014 -0.2641 -0.0855  0.3270
 3687SOL    HW122523   0.363   0.885   3.919 -0.8137  1.4297  0.1291
 3687SOL    HW222524   0.282   0.930   4.035 -0.3721  1.1683 -1.8749
 3688SOL     OW22525   2.002   0.975   4.780  0.3464 -0.4429 -0.6329
 3688SOL    HW122526   1.973   0.926   4.858  2.4499 -0.6295  0.0123
 3688SOL    HW222527   2.097   0.968   4.783  0.4282  1.7937  2.1543
 3689SOL     OW22528   1.604   3.034   7.817 -0.0013  0.6495 -0.6010
 3689SOL    HW122529   1.552   3.089   7.875  0.8762 -0.1538  0.9415
 3689SOL    HW222530   1.650   2.979   7.880 -1.3722  0.1608 -0.0463
 3690SOL     OW22531   0.875   1.531   0.834 -0.3098  0.0417 -0.1499
 3690SOL    HW122532   0.883   1.545   0.929 -2.1619 -0.1470  0.0429
 3690SOL    HW222533   0.826   1.606   0.800  0.7329  1.9088  2.3964
 3691SOL     OW22534   1.835   3.577   8.737 -0.3822  0.0945  0.9648
 3691SOL    HW122535   1.849   3.646   8.802 -3.0700  0.1630  1.4791
 3691SOL    HW222536   1.749   3.550   8.769  0.0099 -0.8657  1.1897
 3692SOL     OW22537   0.975   4.406   8.953  0.1371  0.1939 -0.5538
 3692SOL    HW122538   0.899   4.349   8.938  0.6084 -1.5367  3.6478
 3692SOL    HW222539   0.979   4.409   9.049  1.3162 -1.5506 -0.5413
 3693SOL     OW22540   0.041   0.654   0.396  0.5103 -0.5238  0.4303
 3693SOL    HW122541   4.705   0.663   0.472 -0.3405 -0.3965 -0.2281
 3693SOL    HW222542   0.099   0.726   0.423  0.2900 -0.8167  1.7000
 3694SOL     OW22543   1.751   4.531   7.661 -0.3718  0.0926  0.0537
 3694SOL    HW122544   1.738   4.505   7.570  0.1582 -0.7738  0.2237
 3694SOL    HW222545   1.696   4.466   7.706 -1.4462 -1.3591 -3.3339
 3695SOL     OW22546   4.180   4.126   5.580  0.4131  0.7370  0.3324
 3695SOL    HW122547   4.101   4.132   5.634 -0.1396  1.3733 -0.5384
 3695SOL    HW222548   4.159   4.043   5.537 -0.0997  0.5311  0.9748
 3696SOL     OW22549   2.181   4.471   2.489 -0.2428  0.9818 -0.1999
 3696SOL    HW122550   2.220   4.401   2.438  0.8221  0.7066  1.0055
 3696SOL    HW222551   2.094   4.436   2.506  0.3871 -0.7583 -0.6120
 3697SOL     OW22552   0.558   2.039   2.902 -0.5577  0.0834 -0.0376
 3697SOL    HW122553   0.639   2.041   2.851 -0.1170 -0.2077  0.6441
 3697SOL    HW222554   0.518   2.120   2.873  2.2641  1.9768  1.3472
 3698SOL     OW22555   1.276   0.154   7.596 -0.2369  0.0342  0.3560
 3698SOL    HW122556   1.343   0.096   7.560  0.0002  1.0751 -0.9095
 3698SOL    HW222557   1.218   0.161   7.520  1.6573  1.1252 -1.0017
 3699SOL     OW22558   0.158   3.872   2.818 -0.0037 -0.0336  0.3925
 3699SOL    HW122559   0.099   3.948   2.815  2.0243  1.6132  2.7557
 3699SOL    HW222560   0.089   3.806   2.809  0.3729 -0.4656  0.6853
 3700SOL     OW22561   1.657   2.935   5.904  0.3837 -0.4990 -0.3293
 3700SOL    HW122562   1.743   2.932   5.946 -0.3652 -2.0472  1.0921
 3700SOL    HW222563   1.603   2.938   5.984  0.3975  0.3009 -0.3526
 3701SOL     OW22564   0.922   1.352  15.847  0.2922 -0.9193 -0.0700
 3701SOL    HW122565   0.935   1.375  15.939 -0.1282  0.9483 -0.4636
 3701SOL    HW222566   0.841   1.402  15.837  0.4112 -0.1819  2.5716
 3702SOL     OW22567   3.727   2.760   6.352 -0.3461  0.3065 -0.2233
 3702SOL    HW122568   3.714   2.676   6.396 -1.3914  1.0779  0.9325
 3702SOL    HW222569   3.738   2.727   6.263  1.8758 -2.2050  0.9565
 3703SOL     OW22570   3.015   1.241  15.952  0.0779 -0.5820  0.4092
 3703SOL    HW122571   3.035   1.180  15.881 -1.5828 -2.6405  1.7035
 3703SOL    HW222572   3.034   1.188  16.029  0.2238 -0.4545  0.4615
 3704SOL     OW22573   4.062   0.409   8.984  0.5378 -0.6828  0.2352
 3704SOL    HW122574   4.081   0.328   9.031  2.6851 -0.5381 -0.3565
 3704SOL    HW222575   3.969   0.408   8.960  0.1844  1.1673  1.6047
 3705SOL     OW22576   2.924   1.574   8.127 -0.3404  0.1621 -0.7619
 3705SOL    HW122577   2.893   1.488   8.155  0.3282 -0.3561 -1.5940
 3705SOL    HW222578   2.850   1.604   8.074  1.6756  2.3013 -2.3480
 3706SOL     OW22579   0.799   4.671   7.197 -0.1669  0.2080  0.3393
 3706SOL    HW122580   0.802   4.580   7.168 -0.4147  0.3753 -0.2076
 3706SOL    HW222581   0.883   4.692   7.238 -0.7376  1.8340  0.7037
 3707SOL     OW22582   2.725   2.357   4.957  0.4805 -0.5115 -0.1426
 3707SOL    HW122583   2.752   2.434   5.007  1.1166 -0.5889 -0.3694
 3707SOL    HW222584   2.636   2.332   4.981  1.1091 -1.4412  1.2527
 3708SOL     OW22585   1.407   3.119  17.064  0.0951  0.1577 -0.0269
 3708SOL    HW122586   1.467   3.062  17.112 -2.4786 -2.1623  0.4460
 3708SOL    HW222587   1.451   3.204  17.068 -1.0603  0.7804 -0.5909
 3709SOL     OW22588   1.920   2.779   6.355 -0.0197  0.0377  0.0530
 3709SOL    HW122589   1.883   2.724   6.286  0.5503  0.5780 -0.6813
 3709SOL    HW222590   1.982   2.719   6.396 -1.8707 -3.2662 -1.9810
 3710SOL     OW22591   4.486   0.683   2.933 -0.7930  0.8936  0.0509
 3710SOL    HW122592   4.403   0.654   2.893 -0.7101  1.2699 -0.4004
 3710SOL    HW222593   4.539   0.617   2.888  0.7310  2.0038  0.2568
 3711SOL     OW22594   2.238   0.310   9.025 -0.2755 -0.3637 -0.0492
 3711SOL    HW122595   2.281   0.315   8.939 -0.1935 -0.9690 -0.0467
 3711SOL    HW222596   2.313   0.315   9.084  0.3657  1.4264 -0.9999
 3712SOL     OW22597   1.995   4.450   7.068 -0.5918  0.1494  0.1103
 3712SOL    HW122598   2.021   4.411   7.151  0.1142  1.0931  0.3298
 3712SOL    HW222599   1.989   4.538   7.103  1.2813  0.8835 -1.3624
 3713SOL     OW22600   0.160   1.608  14.622  0.1048 -0.3544 -0.2400
 3713SOL    HW122601   0.236   1.638  14.571 -0.6404 -0.7339 -1.5524
 3713SOL    HW222602   0.115   1.577  14.544  0.9223 -1.8215 -0.1301
 3714SOL     OW22603   1.726   2.618   4.713  0.9411  0.2167  0.1848
 3714SOL    HW122604   1.750   2.544   4.768 -1.7649  0.0322  1.1286
 3714SOL    HW222605   1.669   2.675   4.766  0.8746 -0.3940  0.7666
 3715SOL     OW22606   0.526   3.047  14.191  0.0069 -0.3766  0.8734
 3715SOL    HW122607   0.578   3.048  14.271  0.5812 -2.1766  0.5245
 3715SOL    HW222608   0.514   3.142  14.191 -2.3445 -0.6677 -1.3319
 3716SOL     OW22609   0.298   3.134  15.964 -0.2486 -0.9470  0.7310
 3716SOL    HW122610   0.277   3.202  15.899  2.3674  0.1504  1.0274
 3716SOL    HW222611   0.389   3.114  15.941  0.2246  0.3726  1.4566
 3717SOL     OW22612   4.592   0.239   3.745 -0.2705 -0.1264 -0.2865
 3717SOL    HW122613   4.635   0.175   3.802 -2.2796 -1.3409 -0.1432
 3717SOL    HW222614   4.615   0.198   3.662  1.4337  0.8717 -0.3176
 3718SOL     OW22615   0.487   2.345   9.935 -0.0878 -0.3341  0.4373
 3718SOL    HW122616   0.462   2.254   9.953 -0.7925 -0.5403 -1.5582
 3718SOL    HW222617   0.457   2.338   9.844 -0.2488 -1.9886  0.6044
 3719SOL     OW22618   2.362   0.059   7.858 -0.1226 -0.0192  0.4933
 3719SOL    HW122619   2.337   4.695   7.893 -2.8961  0.8925  0.7701
 3719SOL    HW222620   2.283   0.112   7.863 -1.3439 -2.0482  2.7901
 3720SOL     OW22621   2.083   2.309   8.862  0.2581 -0.4224 -0.2849
 3720SOL    HW122622   2.087   2.228   8.913  0.6327  0.7173  1.4920
 3720SOL    HW222623   2.170   2.348   8.875 -0.6371  1.4096  0.2094
 3721SOL     OW22624   1.905   0.148   4.979  0.2533 -0.4975  0.0932
 3721SOL    HW122625   1.897   0.181   5.068 -3.1113 -0.1431 -0.3290
 3721SOL    HW222626   1.832   0.192   4.934 -0.4099  0.9613  2.6143
 3722SOL     OW22627   1.654   1.042   7.234  0.2373  0.4123 -0.2156
 3722SOL    HW122628   1.629   1.103   7.165 -0.7764  0.3534  0.1006
 3722SOL    HW222629   1.569   1.022   7.274  0.8454 -0.1737  0.7903
 3723SOL     OW22630   0.004   1.347   7.619  0.0007  0.4446  0.2541
 3723SOL    HW122631   4.676   1.269   7.643 -2.8181  1.3777 -2.6380
 3723SOL    HW222632   0.075   1.347   7.685 -2.3301 -0.5341  2.7678
 3724SOL     OW22633   2.176   3.318  10.474 -0.4654 -0.4147 -0.0992
 3724SOL    HW122634   2.080   3.320  10.474 -0.5130 -1.6246  4.6707
 3724SOL    HW222635   2.196   3.263  10.398 -0.7003 -0.1403 -0.3596
 3725SOL     OW22636   2.559   3.393   1.547  0.3746  0.8088 -0.4198
 3725SOL    HW122637   2.641   3.438   1.527 -0.3327  1.1366 -2.5958
 3725SOL    HW222638   2.505   3.466   1.575 -0.2635  0.4889 -0.8306
 3726SOL     OW22639   1.081   4.476   2.389 -0.4785  0.7340  0.2276
 3726SOL    HW122640   1.153   4.511   2.441  0.7140 -0.8135 -0.3673
 3726SOL    HW222641   1.071   4.543   2.322  0.1640 -0.1455 -0.7493
 3727SOL     OW22642   2.953   4.659   2.886  0.2878  0.0078  0.5324
 3727SOL    HW122643   3.000   4.596   2.940  1.4223  0.1770 -0.2440
 3727SOL    HW222644   3.011   0.010   2.910 -2.4801  2.6236 -0.7439
 3728SOL     OW22645   0.711   0.849   4.826 -0.2503 -0.1803  0.7073
 3728SOL    HW122646   0.784   0.870   4.884  0.1103  1.5345 -0.4083
 3728SOL    HW222647   0.748   0.815   4.745  1.9139 -1.0383  2.0601
 3729SOL     OW22648   2.955   2.668   8.923  0.4009 -0.3211 -0.0171
 3729SOL    HW122649   3.001   2.590   8.955 -2.3182 -0.9959  2.2161
 3729SOL    HW222650   3.029   2.707   8.876 -0.0843 -0.8473 -1.2022
 3730SOL     OW22651   2.679   2.190   1.741  0.1019  0.0525 -0.3073
 3730SOL    HW122652   2.694   2.146   1.658 -1.9075  0.3180 -0.8170
 3730SOL    HW222653   2.768   2.226   1.744  0.0675  0.1567 -0.5466
 3731SOL     OW22654   4.565   4.490   2.097 -0.3092 -0.0287 -0.1612
 3731SOL    HW122655   4.544   4.439   2.019 -0.0546  1.2210 -1.0436
 3731SOL    HW222656   4.487   4.470   2.148 -1.6780  0.1047 -2.1776
 3732SOL     OW22657   1.266   1.689   7.957 -0.0736 -0.8664  0.0041
 3732SOL    HW122658   1.220   1.683   7.873  0.1773  2.4024 -0.3515
 3732SOL    HW222659   1.215   1.763   7.989 -0.7848 -1.0603 -0.7005
 3733SOL     OW22660   4.688   4.448   5.941 -0.2198  0.1223 -0.4015
 3733SOL    HW122661   4.632   4.521   5.913 -0.6508 -0.8241 -1.9797
 3733SOL    HW222662   4.658   4.375   5.887  1.7201 -1.2512  0.3818
 3734SOL     OW22663   1.010   0.627   4.777 -0.0347  0.1979  0.1982
 3734SOL    HW122664   1.089   0.681   4.773 -0.1199  0.3838  1.0581
 3734SOL    HW222665   0.941   0.685   4.745 -0.0098 -0.5845 -1.2748
 3735SOL     OW22666   0.508   0.263   4.102  0.0947 -0.7350  0.0883
 3735SOL    HW122667   0.478   0.244   4.190  0.6861 -1.9256  0.0303
 3735SOL    HW222668   0.579   0.200   4.097 -0.5496 -1.4514 -0.0445
 3736SOL     OW22669   2.743   3.153   0.061  0.0485  0.2123  0.0352
 3736SOL    HW122670   2.732   3.059   0.075 -1.3356  0.3519 -0.1223
 3736SOL    HW222671   2.682   3.171  17.679 -3.0893 -0.2323  2.5508
 3737SOL     OW22672   3.206   3.521   8.444  0.2853 -0.0704  0.0262
 3737SOL    HW122673   3.122   3.500   8.402  1.6838 -2.5493 -1.5213
 3737SOL    HW222674   3.179   3.590   8.504  1.0353  1.4174 -1.3574
 3738SOL     OW22675   3.468   3.520   8.321  0.0815  0.0788  0.2027
 3738SOL    HW122676   3.380   3.536   8.355 -0.5932 -2.6618 -0.2177
 3738SOL    HW222677   3.456   3.455   8.252  2.9642 -1.4757  1.1507
 3739SOL     OW22678   3.794   0.168   1.569 -0.6758  0.4528 -0.0827
 3739SOL    HW122679   3.741   0.167   1.489 -1.4477 -1.0767  0.4512
 3739SOL    HW222680   3.749   0.244   1.608 -2.8036 -0.8467 -0.0167
 3740SOL     OW22681   1.899   3.877   5.183 -0.0682 -0.0234  0.4036
 3740SOL    HW122682   1.845   3.873   5.261 -0.4719 -1.5544  0.0531
 3740SOL    HW222683   1.851   3.815   5.128 -2.0766  0.9714  1.0450
 3741SOL     OW22684   0.271   4.336   3.468  0.1150 -0.6812 -0.2443
 3741SOL    HW122685   0.283   4.290   3.384  0.5291  2.2945 -1.8177
 3741SOL    HW222686   0.179   4.318   3.486  1.1862 -5.3824  0.6582
 3742SOL     OW22687   1.942   0.953  12.074  0.5307 -0.0082 -0.6416
 3742SOL    HW122688   1.868   0.964  12.132  0.9540  2.7303 -0.6025
 3742SOL    HW222689   2.000   0.930  12.146 -0.2794 -1.5679 -0.5058
 3743SOL     OW22690   3.336   4.302   1.259 -0.2017  0.0116 -0.1537
 3743SOL    HW122691   3.286   4.319   1.339 -1.1177  0.2994 -0.7835
 3743SOL    HW222692   3.268   4.322   1.196 -0.0377  1.5907  0.1803
 3744SOL     OW22693   2.602   3.064   8.238  0.4726 -0.3743  0.8024
 3744SOL    HW122694   2.671   3.082   8.174  0.0349  0.5330  0.5795
 3744SOL    HW222695   2.626   2.984   8.284  2.3604 -0.1215  0.2794
 3745SOL     OW22696   0.476   2.062   7.293  0.2864  0.1209  0.8461
 3745SOL    HW122697   0.413   2.133   7.285 -0.7153 -0.7544  0.9564
 3745SOL    HW222698   0.428   2.006   7.354  0.0609 -1.4249 -0.7869
 3746SOL     OW22699   4.485   4.450   7.308  0.1921  0.2218  0.0490
 3746SOL    HW122700   4.456   4.503   7.383 -1.5223  0.8049 -1.0239
 3746SOL    HW222701   4.471   4.510   7.235 -2.2801  0.5559  0.7777
 3747SOL     OW22702   3.856   0.296   3.495  0.0593 -0.2144 -0.0691
 3747SOL    HW122703   3.949   0.299   3.470  0.2896 -0.8964  0.7257
 3747SOL    HW222704   3.856   0.205   3.524 -0.7131 -0.2273 -0.1100
 3748SOL     OW22705   3.246   1.984  17.623 -0.5950 -0.3340 -0.7553
 3748SOL    HW122706   3.157   1.991  17.657  0.1208 -1.1306  1.3000
 3748SOL    HW222707   3.237   1.903  17.573 -0.5068 -0.6851 -0.2114
 3749SOL     OW22708   2.261   4.240   1.355  0.1481  0.3748  0.4152
 3749SOL    HW122709   2.218   4.301   1.295 -2.7259 -1.8113  0.2617
 3749SOL    HW222710   2.323   4.200   1.295 -0.1364  0.0351  0.3478
 3750SOL     OW22711   3.689   0.634   7.066  0.2802 -0.0841 -0.7095
 3750SOL    HW122712   3.649   0.716   7.094  0.8895 -0.0271 -0.0282
 3750SOL    HW222713   3.696   0.592   7.151 -0.5512  1.5075  0.1312
 3751SOL     OW22714   1.758   1.504  10.493 -0.3086 -0.5050 -0.8176
 3751SOL    HW122715   1.831   1.488  10.553 -0.9088 -0.8602 -0.1758
 3751SOL    HW222716   1.760   1.434  10.428 -0.8647 -1.5500  0.2875
 3752SOL     OW22717   1.266   3.954  13.947 -0.2536 -0.3910  0.4841
 3752SOL    HW122718   1.221   4.036  13.967  1.5669  0.5578  0.7594
 3752SOL    HW222719   1.327   3.949  14.021  1.0943  4.0851 -0.3062
 3753SOL     OW22720   2.853   1.197  14.853 -0.1331 -0.1035  0.1824
 3753SOL    HW122721   2.832   1.161  14.767 -3.8522 -0.2635  1.1794
 3753SOL    HW222722   2.860   1.292  14.839  1.2038 -0.1183  0.7017
 3754SOL     OW22723   2.774   1.323   9.127  0.5410  0.1465 -0.3908
 3754SOL    HW122724   2.853   1.270   9.137  0.5919  0.2556 -0.2058
 3754SOL    HW222725   2.795   1.394   9.065  2.1820  0.3035  0.3568
 3755SOL     OW22726   4.537   2.114   6.255  0.8405  0.0493  0.1016
 3755SOL    HW122727   4.600   2.174   6.214  0.0114  0.3934 -0.6483
 3755SOL    HW222728   4.463   2.167   6.282  0.2511 -1.4137  1.3526
 3756SOL     OW22729   2.243   4.140  13.187 -0.6190  0.5631  0.0592
 3756SOL    HW122730   2.262   4.175  13.100  0.8743 -1.8346 -0.5829
 3756SOL    HW222731   2.241   4.046  13.168 -2.2229  0.5037  0.5404
 3757SOL     OW22732   1.342   3.915   7.979  0.5327  0.0984 -1.0377
 3757SOL    HW122733   1.323   3.825   8.006 -0.9359  0.5079 -0.7152
 3757SOL    HW222734   1.258   3.949   7.948 -1.9062 -1.8581  3.4341
 3758SOL     OW22735   4.124   2.638   4.678 -0.6340  0.0149 -0.5447
 3758SOL    HW122736   4.050   2.691   4.708 -0.6475  0.1922 -0.8859
 3758SOL    HW222737   4.099   2.549   4.705 -2.4481  0.0514 -2.0172
 3759SOL     OW22738   4.614   1.323   0.572  0.2471 -0.0633 -0.5461
 3759SOL    HW122739   4.643   1.237   0.542  1.0312  0.5322 -1.4598
 3759SOL    HW222740   4.523   1.325   0.541  0.1578  1.1226 -0.2041
 3760SOL     OW22741   0.339   1.719   7.197 -0.3455  0.0059 -1.1302
 3760SOL    HW122742   0.265   1.755   7.246 -0.3907  1.1557 -2.0408
 3760SOL    HW222743   0.313   1.628   7.183  0.2496 -0.5017  1.1034
 3761SOL     OW22744   1.814   3.817  13.805 -0.0391 -0.2791  0.3172
 3761SOL    HW122745   1.898   3.779  13.831  0.8030  0.3456 -1.4713
 3761SOL    HW222746   1.765   3.820  13.887 -1.1085  0.4857 -0.3564
 3762SOL     OW22747   2.356   2.349   8.975 -0.1599 -0.0940  0.5996
 3762SOL    HW122748   2.361   2.435   9.017 -0.5179 -0.7291  1.9625
 3762SOL    HW222749   2.429   2.303   9.015  0.7322  0.2992 -0.5705
 3763SOL     OW22750   3.807   2.292   9.279  0.5472  0.2732  0.1955
 3763SOL    HW122751   3.873   2.338   9.330  1.0117  0.5377 -0.6488
 3763SOL    HW222752   3.845   2.205   9.291 -0.0786  0.0447  0.5213
 3764SOL     OW22753   0.045   4.432   6.235 -0.1886 -0.0926 -0.4177
 3764SOL    HW122754   4.708   4.493   6.190 -1.1158  0.4293  1.4978
 3764SOL    HW222755   0.111   4.425   6.166 -0.3321  0.9451 -0.6723
 3765SOL     OW22756   2.247   1.866   9.448 -0.3482 -1.3202  0.0909
 3765SOL    HW122757   2.155   1.841   9.432 -0.7976  1.4119 -1.5296
 3765SOL    HW222758   2.290   1.782   9.466  0.3669 -0.6639  1.4507
 3766SOL     OW22759   0.451   4.549   3.902  0.2517  0.1423 -0.4338
 3766SOL    HW122760   0.533   4.539   3.853  1.0210  0.3858  0.7971
 3766SOL    HW222761   0.396   4.540   3.825  1.1272 -0.3869 -1.0016
 3767SOL     OW22762   2.625   3.563  10.665  0.2503 -0.1768 -0.0881
 3767SOL    HW122763   2.710   3.520  10.655 -0.2377 -1.6136  1.8983
 3767SOL    HW222764   2.554   3.509  10.630 -1.7684  1.3213  1.7287
 3768SOL     OW22765   2.960   1.224   5.675  0.3059  0.3510  0.4663
 3768SOL    HW122766   3.000   1.289   5.732  1.3434  1.5217 -1.5887
 3768SOL    HW222767   2.872   1.204   5.708  0.0237  0.8777  0.0443
 3769SOL     OW22768   3.344   3.701   1.449 -0.2125 -0.1870 -0.7284
 3769SOL    HW122769   3.399   3.767   1.492 -0.9843  1.1407 -1.7813
 3769SOL    HW222770   3.267   3.695   1.506  0.2781  0.8528  0.0520
 3770SOL     OW22771   2.826   2.578   1.961  0.6780  0.3386  0.0703
 3770SOL    HW122772   2.885   2.525   1.906  0.1359  0.3772 -0.5423
 3770SOL    HW222773   2.868   2.583   2.047  0.1214 -2.2684  0.4915
 3771SOL     OW22774   2.760   1.367  15.984  0.1440 -0.1762  0.4021
 3771SOL    HW122775   2.735   1.275  15.998  3.7041 -1.1923 -0.0233
 3771SOL    HW222776   2.854   1.360  15.967  0.2707  4.0757 -0.6542
 3772SOL     OW22777   2.165   2.844  17.418  0.3858  0.2347  0.3089
 3772SOL    HW122778   2.250   2.809  17.392 -0.3455 -0.5456 -1.0494
 3772SOL    HW222779   2.107   2.783  17.371 -0.0276  0.9154 -0.0598
 3773SOL     OW22780   0.039   2.048  16.429  0.2086 -0.1963 -0.6259
 3773SOL    HW122781   0.134   2.044  16.418  0.2629 -2.3648  0.6549
 3773SOL    HW222782   0.007   1.969  16.386 -2.1078 -0.4116  1.4710
 3774SOL     OW22783   0.240   1.226   2.648  0.4404 -0.8584  0.0011
 3774SOL    HW122784   0.178   1.290   2.615  0.3708  1.2586  4.2698
 3774SOL    HW222785   0.320   1.274   2.624  0.2051  0.0735  1.0959
 3775SOL     OW22786   2.674   3.236   4.959  0.1332  0.1289  0.0010
 3775SOL    HW122787   2.717   3.163   4.914 -0.0547 -0.6600  1.1339
 3775SOL    HW222788   2.635   3.184   5.028  1.6990 -1.0717 -0.0076
 3776SOL     OW22789   2.733   1.028   5.580 -0.2202 -0.7656 -0.2085
 3776SOL    HW122790   2.798   0.970   5.619  0.6704  0.1577 -0.3084
 3776SOL    HW222791   2.793   1.069   5.517 -0.3072  0.6332  0.6220
 3777SOL     OW22792   4.679   1.487  14.927  0.3948  0.2930  0.4067
 3777SOL    HW122793   4.664   1.397  14.900 -1.7146  0.4318  1.0719
 3777SOL    HW222794   4.597   1.511  14.970  0.5699  0.1776  0.8080
 3778SOL     OW22795   2.230   4.652   5.270 -0.3497  0.2987 -0.5061
 3778SOL    HW122796   2.261   4.592   5.202 -0.7458 -0.2185 -0.2265
 3778SOL    HW222797   2.228   4.595   5.347  4.9410  1.3923  0.4619
 3779SOL     OW22798   1.081   0.715  10.348  0.4421 -0.1695 -0.5370
 3779SOL    HW122799   1.009   0.746  10.293  0.7184  1.5923  0.0831
 3779SOL    HW222800   1.048   0.717  10.437 -1.4408  2.1372 -1.2721
 3780SOL     OW22801   4.585   3.269  12.454 -0.7459 -0.9144 -0.1429
 3780SOL    HW122802   4.576   3.363  12.437  0.0005 -0.2997  2.9196
 3780SOL    HW222803   4.635   3.265  12.535  2.6549  0.7083 -2.1536
 3781SOL     OW22804   2.591   0.498   3.692 -0.0938 -0.2249  0.0725
 3781SOL    HW122805   2.554   0.486   3.605  0.6567 -1.3831 -0.0808
 3781SOL    HW222806   2.676   0.540   3.682 -0.5021  0.1194 -2.0604
 3782SOL     OW22807   4.277   4.271   8.279 -0.1553  0.1715 -0.2652
 3782SOL    HW122808   4.186   4.257   8.305  0.5176 -0.3644  1.7670
 3782SOL    HW222809   4.266   4.328   8.203  2.7124  0.4745 -0.4615
 3783SOL     OW22810   3.380   0.374   9.178  0.7950  0.7217 -0.2132
 3783SOL    HW122811   3.344   0.450   9.225 -1.4410  0.6020 -1.7433
 3783SOL    HW222812   3.414   0.330   9.256 -0.1781  0.9329  0.3343
 3784SOL     OW22813   4.162   2.029   5.583  0.3627  0.6187 -0.3470
 3784SOL    HW122814   4.242   2.039   5.634  1.7684 -0.6668 -2.3493
 3784SOL    HW222815   4.187   2.050   5.493 -2.0888  0.1843 -1.1446
 3785SOL     OW22816   0.878   0.572   2.228 -0.5107 -0.2218  0.1679
 3785SOL    HW122817   0.799   0.614   2.195 -0.2909  1.0816  1.2863
 3785SOL    HW222818   0.930   0.583   2.149 -1.5838  2.9476 -0.0955
 3786SOL     OW22819   1.699   1.858   8.996 -0.3165  0.2092 -0.5926
 3786SOL    HW122820   1.688   1.803   8.919  0.2779  0.4313 -0.8381
 3786SOL    HW222821   1.622   1.914   8.988 -1.1504 -0.9868 -0.8714
 3787SOL     OW22822   3.732   3.374  16.672 -0.3389 -0.3748 -0.5009
 3787SOL    HW122823   3.659   3.435  16.681 -0.3221 -0.1174 -2.0984
 3787SOL    HW222824   3.749   3.379  16.578  2.3034 -1.4434 -0.0829
 3788SOL     OW22825   3.002   1.582   7.803  0.5784 -0.3759 -0.5025
 3788SOL    HW122826   2.971   1.536   7.881 -0.2498  2.5346  0.8917
 3788SOL    HW222827   2.916   1.610   7.771  0.6179  1.4081  0.9681
 3789SOL     OW22828   0.194   4.136   5.519  0.1856 -0.6390 -0.3172
 3789SOL    HW122829   0.212   4.092   5.436  0.0253 -0.2022 -0.5864
 3789SOL    HW222830   0.171   4.061   5.574  1.6457 -0.9795 -0.1737
 3790SOL     OW22831   3.968   0.284   2.057  0.0707  0.2612 -0.1632
 3790SOL    HW122832   3.996   0.318   2.142  1.1520 -0.7895 -0.1075
 3790SOL    HW222833   3.902   0.216   2.075  0.7749 -0.9765 -2.2892
 3791SOL     OW22834   0.680   0.706  10.536  0.2753  0.6228 -0.0706
 3791SOL    HW122835   0.702   0.617  10.511 -0.4444  0.3565  0.2534
 3791SOL    HW222836   0.637   0.744  10.459 -0.9611  3.1287  1.8657
 3792SOL     OW22837   4.215   3.602   9.962  0.5890  0.3687  0.0410
 3792SOL    HW122838   4.229   3.587  10.056  1.2348  0.7223  0.0023
 3792SOL    HW222839   4.153   3.533   9.940 -0.2893  0.5235  2.0781
 3793SOL     OW22840   2.806   2.449   0.327 -0.3629  0.4243 -0.0415
 3793SOL    HW122841   2.802   2.533   0.372 -1.5545 -1.1533  2.8184
 3793SOL    HW222842   2.734   2.466   0.266 -0.6243  0.5396  0.3013
 3794SOL     OW22843   3.668   2.680  15.556  0.4917  0.1863 -0.3578
 3794SOL    HW122844   3.591   2.736  15.565  0.7018  0.5192 -0.5853
 3794SOL    HW222845   3.626   2.614  15.501 -0.8657 -0.5933  1.6384
 3795SOL     OW22846   2.390   1.696  13.221  0.1033  0.2090  0.0615
 3795SOL    HW122847   2.367   1.719  13.131 -1.4960  0.6108  0.5757
 3795SOL    HW222848   2.476   1.654  13.208  0.7449  1.1295  1.2695
 3796SOL     OW22849   2.615   1.821   6.895  0.0258  0.1615  0.5399
 3796SOL    HW122850   2.611   1.771   6.814  0.1824  1.0415 -0.0116
 3796SOL    HW222851   2.572   1.762   6.957 -2.3898  2.3231  0.8918
 3797SOL     OW22852   1.760   0.464  14.739  0.5714  0.0861 -0.0148
 3797SOL    HW122853   1.854   0.455  14.748  0.7416  2.3096  0.2910
 3797SOL    HW222854   1.732   0.372  14.750  0.4076  0.2776  1.2131
 3798SOL     OW22855   1.720   1.543   5.084 -0.0796  0.1860  0.2107
 3798SOL    HW122856   1.792   1.534   5.021 -0.1071 -0.1104  0.2193
 3798SOL    HW222857   1.673   1.614   5.040  2.2472  2.2226  1.0188
 3799SOL     OW22858   4.065   0.708   9.231  0.0856  0.3805 -0.0334
 3799SOL    HW122859   4.048   0.745   9.144 -1.7299 -0.9339 -0.2337
 3799SOL    HW222860   4.159   0.716   9.246  0.2989  0.2858 -1.3242
 3800SOL     OW22861   2.252   2.268   8.494  0.2486  0.5246  0.0308
 3800SOL    HW122862   2.333   2.219   8.510  0.6557  0.5902 -1.8469
 3800SOL    HW222863   2.192   2.252   8.567 -1.2083  1.7277 -0.9215
 3801SOL     OW22864   3.947   2.540  13.947 -1.0539  0.8268 -0.0158
 3801SOL    HW122865   3.964   2.512  13.857  1.6778 -1.1565  1.1223
 3801SOL    HW222866   4.032   2.571  13.976  0.0133 -1.9361 -0.1737
 3802SOL     OW22867   1.580   1.355   2.908 -0.4816  0.3279  0.5497
 3802SOL    HW122868   1.633   1.407   2.968  0.6691 -0.6770  0.4069
 3802SOL    HW222869   1.614   1.385   2.824  0.5503 -0.6255  0.6301
 3803SOL     OW22870   3.850   0.655   1.279  0.6372 -0.5974  0.1943
 3803SOL    HW122871   3.823   0.665   1.188 -2.7262 -1.7043  1.0742
 3803SOL    HW222872   3.781   0.599   1.315  0.2112 -0.3911 -0.2957
 3804SOL     OW22873   2.923   3.570   6.369 -0.0209  0.0327 -0.2822
 3804SOL    HW122874   3.010   3.606   6.353 -0.0714  0.4760  0.4505
 3804SOL    HW222875   2.867   3.638   6.333  0.2247  2.2037  3.5214
 3805SOL     OW22876   0.269   3.929   7.045  0.3722  0.0823 -0.0892
 3805SOL    HW122877   0.204   3.864   7.071  1.1592  0.7081  3.4443
 3805SOL    HW222878   0.285   3.984   7.123 -0.4270 -0.1739  0.2508
 3806SOL     OW22879   0.966   0.651   6.232  0.1087 -0.0170  0.0976
 3806SOL    HW122880   0.970   0.730   6.177  0.4924 -1.0166 -1.2992
 3806SOL    HW222881   1.060   0.641   6.226  0.1940 -0.1984  1.7226
 3807SOL     OW22882   4.026   4.092   2.775 -0.4559  0.1854  0.1748
 3807SOL    HW122883   3.934   4.066   2.776 -1.0413  2.2585 -0.4169
 3807SOL    HW222884   4.066   4.009   2.748 -0.3783 -0.9153  3.6582
 3808SOL     OW22885   0.354   3.644   9.371  0.0003 -0.9949  0.8201
 3808SOL    HW122886   0.371   3.738   9.372  0.2739 -1.0414  0.5023
 3808SOL    HW222887   0.437   3.613   9.334  0.0900  4.1976 -3.1816
 3809SOL     OW22888   1.520   0.783   8.338  0.2020 -0.1860  0.1981
 3809SOL    HW122889   1.593   0.738   8.297 -0.0258  0.9394 -1.4586
 3809SOL    HW222890   1.552   0.873   8.344  0.7563 -0.3286 -0.7329
 3810SOL     OW22891   0.775   3.939   6.864 -0.1946 -0.3288 -0.0562
 3810SOL    HW122892   0.844   3.898   6.811  0.7705  1.0771  0.1026
 3810SOL    HW222893   0.835   3.966   6.934 -0.5166 -2.5109  1.0498
 3811SOL     OW22894   3.374   4.189   3.355 -0.1122  0.2147 -0.2750
 3811SOL    HW122895   3.412   4.153   3.275 -0.4764  1.3791 -0.9747
 3811SOL    HW222896   3.413   4.276   3.365  0.7935 -0.0314 -1.5995
 3812SOL     OW22897   1.756   3.544   0.583  0.1681 -0.4190  0.1885
 3812SOL    HW122898   1.748   3.453   0.612 -4.0099 -0.5173 -1.2949
 3812SOL    HW222899   1.823   3.584   0.639  1.2104 -1.5371 -0.2646
 3813SOL     OW22900   1.821   1.473   2.780 -0.0175 -0.1166 -0.3769
 3813SOL    HW122901   1.811   1.516   2.695  1.3225 -1.0762 -1.0213
 3813SOL    HW222902   1.818   1.545   2.843  1.9873 -0.0547 -0.3561
 3814SOL     OW22903   1.804   2.844   4.260  0.0796  0.1437 -0.3388
 3814SOL    HW122904   1.812   2.818   4.351 -0.7878  0.3017 -0.2149
 3814SOL    HW222905   1.713   2.816   4.247 -0.3675  1.3246  0.2269
 3815SOL     OW22906   1.482   4.010   9.539 -0.2240 -0.1271 -0.2555
 3815SOL    HW122907   1.477   3.918   9.510 -0.6206  0.2835 -1.4967
 3815SOL    HW222908   1.499   4.007   9.633  1.1040 -0.0859 -0.4900
 3816SOL     OW22909   0.771   3.357  10.834 -0.0004  0.4336  0.4052
 3816SOL    HW122910   0.782   3.313  10.918  2.0209  0.0973 -0.0347
 3816SOL    HW222911   0.805   3.443  10.857  1.3635  0.3268 -1.2523
 3817SOL     OW22912   3.557   2.259   2.982 -0.0128 -0.0287 -0.0014
 3817SOL    HW122913   3.559   2.303   2.897  3.8363 -1.1853 -0.4954
 3817SOL    HW222914   3.640   2.287   3.021 -1.5354  2.4689  1.4167
 3818SOL     OW22915   3.785   3.620   3.223  0.3950 -0.0293 -0.2197
 3818SOL    HW122916   3.830   3.542   3.256 -1.5289 -1.4332 -0.9337
 3818SOL    HW222917   3.830   3.689   3.272 -0.2956  0.5341 -0.3712
 3819SOL     OW22918   2.022   1.215   3.428  0.0545  0.1496 -0.3058
 3819SOL    HW122919   1.976   1.250   3.505 -2.9046 -0.8997 -1.6039
 3819SOL    HW222920   2.048   1.288   3.372 -0.5642  0.9444  0.4388
 3820SOL     OW22921   0.265   1.472  14.216 -0.5302  0.1358  0.0674
 3820SOL    HW122922   0.306   1.386  14.228 -0.9167  0.0394  0.7067
 3820SOL    HW222923   0.190   1.471  14.276  0.4159 -0.6758  1.2553
 3821SOL     OW22924   2.813   2.991   6.870 -0.5042 -0.4099 -0.1551
 3821SOL    HW122925   2.882   2.925   6.878 -0.3314 -0.4332 -1.8516
 3821SOL    HW222926   2.846   3.053   6.936  0.0407  0.9349 -1.7017
 3822SOL     OW22927   3.714   2.342   2.718 -0.2667 -0.2155  0.0373
 3822SOL    HW122928   3.761   2.270   2.759 -2.1584 -2.6812 -2.1598
 3822SOL    HW222929   3.759   2.354   2.635 -3.4670  0.1436 -1.6501
 3823SOL     OW22930   3.329   4.719   9.904  0.1010 -0.0831 -0.0191
 3823SOL    HW122931   3.291   0.027   9.821 -2.1194  3.4673  2.2636
 3823SOL    HW222932   3.413   0.040   9.889 -0.4591  1.4267  1.1067
 3824SOL     OW22933   0.462   3.758   8.732 -0.7104  0.3329  0.0234
 3824SOL    HW122934   0.408   3.680   8.720  1.1650 -0.9363 -0.1809
 3824SOL    HW222935   0.541   3.741   8.680  1.1000  2.0969  2.1531
 3825SOL     OW22936   0.805   2.543   5.661 -0.8706  0.1688 -0.3692
 3825SOL    HW122937   0.812   2.595   5.741  0.2394 -0.4200 -0.0799
 3825SOL    HW222938   0.899   2.526   5.658 -0.9344 -0.5116  1.2392
 3826SOL     OW22939   2.722   2.072   1.523  0.2251 -0.0302  0.3307
 3826SOL    HW122940   2.634   2.070   1.487  0.2829 -0.3042  0.2065
 3826SOL    HW222941   2.733   1.981   1.548 -0.1697 -0.1615  0.0258
 3827SOL     OW22942   0.246   0.987   6.414  0.3104  0.0994 -0.3745
 3827SOL    HW122943   0.311   0.918   6.405 -2.5474 -2.7416  0.5561
 3827SOL    HW222944   0.273   1.047   6.345  1.0996  0.0935 -0.0609
 3828SOL     OW22945   0.416   3.105  16.233  0.0422  0.1102 -0.2683
 3828SOL    HW122946   0.446   3.056  16.157  0.6124  3.3037 -2.0804
 3828SOL    HW222947   0.326   3.118  16.202  1.0018  2.4472 -2.0422
 3829SOL     OW22948   1.426   1.424   0.365 -0.2967  0.4219  0.7071
 3829SOL    HW122949   1.452   1.337   0.396  1.9738  1.0156  0.4565
 3829SOL    HW222950   1.383   1.400   0.283 -0.3536  3.1067 -0.0547
 3830SOL     OW22951   1.184   2.693   5.976 -0.1079 -0.3171  0.4187
 3830SOL    HW122952   1.106   2.736   5.942  0.7390 -1.0612 -2.4598
 3830SOL    HW222953   1.248   2.715   5.908  0.3573 -2.8733  0.0183
 3831SOL     OW22954   3.112   4.708   6.231 -0.2341 -0.2028 -0.4535
 3831SOL    HW122955   3.190   4.666   6.266  0.4278  2.1977  0.9435
 3831SOL    HW222956   3.052   4.693   6.304  0.0412 -0.9089 -0.3779
 3832SOL     OW22957   4.197   4.674  17.070  0.0001 -0.3104 -0.0990
 3832SOL    HW122958   4.168   4.617  16.999 -0.8634  1.8988 -1.4943
 3832SOL    HW222959   4.130   4.657  17.137  0.8455  0.0633  0.8501
 3833SOL     OW22960   3.933   3.786   3.472  0.3247  0.4032 -0.3122
 3833SOL    HW122961   3.914   3.757   3.561  1.1257 -0.3906 -0.4024
 3833SOL    HW222962   4.022   3.753   3.464  0.2249  0.7521 -2.9027
 3834SOL     OW22963   3.386   4.042   5.166 -0.5070  0.0477  0.1100
 3834SOL    HW122964   3.457   4.106   5.169 -1.5135  1.2071 -0.3542
 3834SOL    HW222965   3.434   3.961   5.177  2.5854  1.8084 -0.4656
 3835SOL     OW22966   3.279   3.934  10.600 -0.0616 -0.3613 -0.4126
 3835SOL    HW122967   3.296   3.968  10.688  0.8574 -1.7926 -0.0327
 3835SOL    HW222968   3.361   3.886  10.589 -0.7039 -1.1410 -1.8044
 3836SOL     OW22969   3.309   0.069   3.415 -0.1175 -0.3545 -0.1629
 3836SOL    HW122970   3.284   4.716   3.467 -1.2846  0.2439  0.1438
 3836SOL    HW222971   3.399   0.060   3.386  0.4378 -1.3067  1.9038
 3837SOL     OW22972   2.466   0.445   2.469 -0.2698  0.3201  0.5649
 3837SOL    HW122973   2.431   0.363   2.504  1.7969 -1.0241 -0.4775
 3837SOL    HW222974   2.425   0.456   2.384 -0.4135 -0.6663  0.5038
 3838SOL     OW22975   1.432   2.359   8.810  0.2270  0.0279  0.3433
 3838SOL    HW122976   1.377   2.374   8.886 -1.8032  3.2062 -1.7767
 3838SOL    HW222977   1.404   2.432   8.755 -2.0365 -1.5340 -0.5636
 3839SOL     OW22978   1.875   0.032   4.414  0.2657  0.1432 -0.1331
 3839SOL    HW122979   1.811   4.710   4.471  0.1438  0.4466 -0.0341
 3839SOL    HW222980   1.848   0.002   4.326  1.4885  0.0624 -0.4804
 3840SOL     OW22981   1.287   4.584   2.551 -0.4527 -0.3780  0.4143
 3840SOL    HW122982   1.310   4.645   2.621 -0.2061  1.3187 -1.1211
 3840SOL    HW222983   1.378   4.578   2.523 -0.5371  0.2266  0.0020
 3841SOL     OW22984   3.294   0.017   7.783 -0.2517 -0.3933  0.2225
 3841SOL    HW122985   3.390   0.023   7.782 -0.1685 -1.2963  2.1099
 3841SOL    HW222986   3.289   4.674   7.713  2.4843 -0.5009  0.1313
 3842SOL     OW22987   1.336   1.704   8.612 -0.5885 -0.1881 -0.0528
 3842SOL    HW122988   1.385   1.673   8.536  0.3131  0.8896  0.0946
 3842SOL    HW222989   1.292   1.770   8.559 -2.4199 -1.1399  0.2926
 3843SOL     OW22990   3.666   3.597   4.360  0.5800  0.2598  0.5251
 3843SOL    HW122991   3.622   3.676   4.393 -0.2917  0.1637 -0.4166
 3843SOL    HW222992   3.759   3.610   4.379  0.5348  1.4107 -0.0198
 3844SOL     OW22993   4.356   1.295   8.606  0.1581 -0.2755 -0.0343
 3844SOL    HW122994   4.354   1.226   8.672 -1.0566 -0.5344 -0.3461
 3844SOL    HW222995   4.267   1.283   8.574 -0.0768  0.3358  0.4120
 3845SOL     OW22996   3.583   1.081   5.667  0.5506 -0.3763  1.2800
 3845SOL    HW122997   3.573   1.075   5.572  2.9427  1.4017  0.9104
 3845SOL    HW222998   3.492   1.099   5.692  0.5778 -0.0038  1.1103
 3846SOL     OW22999   0.050   2.907  11.546  0.2469 -0.3920  0.1107
 3846SOL    HW123000   4.697   2.851  11.567 -1.0930  1.0040 -1.0249
 3846SOL    HW223001   0.018   2.986  11.502 -0.7470 -0.5124  0.6169
 3847SOL     OW23002   3.524   4.533   0.665 -0.0476 -0.1546  0.1452
 3847SOL    HW123003   3.488   4.619   0.643 -3.7586 -1.3942  1.2390
 3847SOL    HW223004   3.450   4.484   0.702  0.2151 -1.8575 -1.5786
 3848SOL     OW23005   0.877   1.777   0.115  0.6737  0.0741  0.9065
 3848SOL    HW123006   0.793   1.768   0.069  0.2610 -0.7185  1.8135
 3848SOL    HW223007   0.926   1.703   0.078  1.4668  0.7624  0.6049
 3849SOL     OW23008   2.272   2.647  14.086  0.1337  0.5014 -0.0776
 3849SOL    HW123009   2.269   2.665  13.992  1.1289  1.4426  0.0730
 3849SOL    HW223010   2.282   2.734  14.123 -1.9066  0.5958  0.2542
 3850SOL     OW23011   0.349   0.208   1.697 -0.7029  0.0312 -0.8534
 3850SOL    HW123012   0.354   0.232   1.604  0.1934  0.7993 -0.5944
 3850SOL    HW223013   0.265   0.249   1.718 -0.7661 -1.3970  1.6744
 3851SOL     OW23014   0.266   3.508  12.265 -0.0686  0.5323 -0.3211
 3851SOL    HW123015   0.188   3.521  12.319 -0.8238 -1.0890 -1.0124
 3851SOL    HW223016   0.241   3.422  12.229  1.4064 -0.5244  1.2055
 3852SOL     OW23017   3.296   1.456   8.967 -0.1079  0.4104 -0.5866
 3852SOL    HW123018   3.318   1.454   9.060  0.9638 -2.2613 -0.9005
 3852SOL    HW223019   3.294   1.551   8.955  1.9010  0.5692  0.2111
 3853SOL     OW23020   3.766   3.183  13.271 -0.2631  0.5692  0.2764
 3853SOL    HW123021   3.818   3.258  13.245 -0.7478  0.5564 -0.7328
 3853SOL    HW223022   3.803   3.111  13.220  2.2013  1.6500  0.5906
 3854SOL     OW23023   3.409   4.319   1.871 -0.3092 -0.2782  1.0062
 3854SOL    HW123024   3.340   4.320   1.939 -0.8984  1.5063  0.3749
 3854SOL    HW223025   3.440   4.229   1.881 -4.1436 -1.6622  0.4309
 3855SOL     OW23026   0.009   3.218  14.223  0.1021  0.1685  0.4668
 3855SOL    HW123027   4.701   3.132  14.251 -0.7382  0.0012 -0.9140
 3855SOL    HW223028   0.014   3.257  14.310  0.0621 -0.1144  0.5955
 3856SOL     OW23029   0.017   2.780   9.114 -0.0545 -0.1405 -0.1758
 3856SOL    HW123030   4.701   2.812   9.196 -0.9443 -0.8755 -0.3012
 3856SOL    HW223031   0.090   2.838   9.092  0.4469 -0.6609  0.0961
 3857SOL     OW23032   0.181   3.188   8.197  0.1257  0.6073  0.1243
 3857SOL    HW123033   0.165   3.255   8.264 -1.1915  2.5055 -2.0743
 3857SOL    HW223034   0.224   3.122   8.251 -0.9539 -0.4551 -0.3163
 3858SOL     OW23035   4.523   0.470   1.969  0.2899  0.5888  0.2726
 3858SOL    HW123036   4.495   0.541   1.911  0.5545  0.2731 -0.2316
 3858SOL    HW223037   4.595   0.513   2.014  0.7022  1.2539 -1.0395
 3859SOL     OW23038   4.171   3.785  15.807 -0.5633 -0.5819 -0.4141
 3859SOL    HW123039   4.153   3.778  15.713  1.2742 -0.9335 -0.7236
 3859SOL    HW223040   4.241   3.850  15.804 -0.9431 -0.2503 -1.8640
 3860SOL     OW23041   3.414   3.502  16.967 -0.1838 -0.2786 -0.0140
 3860SOL    HW123042   3.393   3.431  16.906  0.4889  0.6129 -1.2803
 3860SOL    HW223043   3.429   3.574  16.906  0.4487 -1.2074 -0.9601
 3861SOL     OW23044   3.191   3.130   4.712 -0.2491  0.0110 -0.0485
 3861SOL    HW123045   3.107   3.132   4.665 -1.1542  0.5018  1.5633
 3861SOL    HW223046   3.169   3.162   4.800 -0.1856 -1.0397  0.3482
 3862SOL     OW23047   4.199   1.186  12.641 -0.9308 -0.3360 -0.5536
 3862SOL    HW123048   4.107   1.180  12.667 -0.7759  0.4072  0.1629
 3862SOL    HW223049   4.200   1.099  12.602 -0.1266 -0.6609  0.1733
 3863SOL     OW23050   1.604   3.365   5.377  0.1555 -0.6233  0.0062
 3863SOL    HW123051   1.570   3.330   5.459 -1.7902 -0.3510 -0.6832
 3863SOL    HW223052   1.628   3.284   5.333  0.6869 -1.0568  1.0859
 3864SOL     OW23053   1.382   1.584  14.129 -0.1690  0.4657  0.3398
 3864SOL    HW123054   1.336   1.652  14.177 -0.5923 -0.5530  1.3969
 3864SOL    HW223055   1.470   1.589  14.166  0.1569 -3.5959  0.1470
 3865SOL     OW23056   1.854   2.796   3.069 -0.3044 -0.0815  0.0030
 3865SOL    HW123057   1.830   2.760   2.984 -0.5444 -0.6201  0.2962
 3865SOL    HW223058   1.944   2.822   3.049 -0.5427 -0.1308 -1.1253
 3866SOL     OW23059   0.789   4.501   6.764 -0.3915  0.4222  0.3717
 3866SOL    HW123060   0.816   4.418   6.725 -0.6918 -0.0476  1.1622
 3866SOL    HW223061   0.718   4.473   6.822 -0.0919  0.8556  0.9467
 3867SOL     OW23062   0.117   1.302   3.193 -0.4574 -0.5169  0.3156
 3867SOL    HW123063   0.044   1.240   3.199 -0.7709 -0.1255  0.5443
 3867SOL    HW223064   0.195   1.245   3.196 -0.0070  0.1389  0.9430
 3868SOL     OW23065   4.271   1.719   5.947 -0.4848 -0.2356 -0.5339
 3868SOL    HW123066   4.241   1.803   5.983  0.3277  0.1103 -0.6446
 3868SOL    HW223067   4.358   1.743   5.914 -2.3272  1.4502 -4.2566
 3869SOL     OW23068   2.930   1.247   6.263  0.0895 -0.3134 -0.2511
 3869SOL    HW123069   3.019   1.214   6.253  0.0408 -0.4585 -0.2058
 3869SOL    HW223070   2.876   1.170   6.283  2.3137 -1.1669  2.4764
 3870SOL     OW23071   4.478   0.377   3.973  0.5265  0.6206  0.1100
 3870SOL    HW123072   4.567   0.358   4.005 -0.0602  0.1739  1.4467
 3870SOL    HW223073   4.492   0.342   3.885  2.0941  0.1193  0.5452
 3871SOL     OW23074   0.512   1.543   2.818  0.1155 -0.0749 -0.2219
 3871SOL    HW123075   0.450   1.541   2.892  0.7197 -0.5762  0.2703
 3871SOL    HW223076   0.560   1.625   2.826 -1.1588  0.6424  0.0841
 3872SOL     OW23077   1.946   3.318   2.183 -0.3766  0.2789 -0.2877
 3872SOL    HW123078   1.992   3.309   2.266 -1.6537  2.1233  0.6139
 3872SOL    HW223079   1.860   3.341   2.219 -0.2355 -1.4035  1.1183
 3873SOL     OW23080   0.374   1.879   2.446  0.0815 -0.3855  0.5309
 3873SOL    HW123081   0.360   1.971   2.424  2.7015  0.3983  2.1103
 3873SOL    HW223082   0.318   1.864   2.522  0.9648 -1.4472  0.9699
 3874SOL     OW23083   4.306   1.753   4.671 -0.4990  0.8071 -0.3001
 3874SOL    HW123084   4.303   1.761   4.766 -1.9138 -0.8456 -0.1924
 3874SOL    HW223085   4.379   1.811   4.648 -0.9020  0.9344 -1.2817
 3875SOL     OW23086   4.083   3.424  11.835  0.5243  0.2462  0.3383
 3875SOL    HW123087   4.034   3.354  11.792 -2.8129  1.5661  1.9712
 3875SOL    HW223088   4.011   3.457  11.889 -0.4080 -0.6486 -0.3695
 3876SOL     OW23089   0.727   3.107   4.300 -0.5545  0.1654  0.1869
 3876SOL    HW123090   0.735   3.063   4.385  0.3789  0.7977  0.4271
 3876SOL    HW223091   0.815   3.095   4.265  0.1940  0.5688  1.9177
 3877SOL     OW23092   0.759   4.290   9.543  0.5767  0.0206 -0.3373
 3877SOL    HW123093   0.777   4.341   9.622 -0.0991  0.0385 -0.1891
 3877SOL    HW223094   0.838   4.292   9.490  1.5426  0.3500  1.1306
 3878SOL     OW23095   1.217   1.517   2.526 -0.8310 -0.3816  0.1924
 3878SOL    HW123096   1.236   1.426   2.551 -0.4683  0.2269  2.1282
 3878SOL    HW223097   1.254   1.522   2.438 -0.7816 -0.7190  0.1917
 3879SOL     OW23098   4.448   0.769   9.840 -0.1897  0.2770  0.1276
 3879SOL    HW123099   4.441   0.864   9.850  1.3209  0.3621  0.4300
 3879SOL    HW223100   4.537   0.746   9.868  0.5754  1.3340 -1.4131
 3880SOL     OW23101   0.249   2.058   3.726  0.0438  0.1620  0.6034
 3880SOL    HW123102   0.297   2.080   3.646  2.0111 -2.0286  1.1563
 3880SOL    HW223103   0.189   1.988   3.698 -0.4333  0.3422  1.1961
 3881SOL     OW23104   2.891   3.666   3.636  0.1638 -0.3304  0.2357
 3881SOL    HW123105   2.879   3.730   3.565 -0.3015  2.0662  2.4606
 3881SOL    HW223106   2.821   3.694   3.696 -1.5976 -3.6552 -0.2911
 3882SOL     OW23107   2.436   1.900   3.755  0.1030  0.5508 -0.2834
 3882SOL    HW123108   2.418   1.822   3.808 -4.6805  0.5500 -1.8790
 3882SOL    HW223109   2.531   1.899   3.762 -0.0219 -0.3516  1.4893
 3883SOL     OW23110   0.928   2.612  11.998  0.0320  0.2348  0.1580
 3883SOL    HW123111   1.010   2.567  11.978 -0.5389 -0.6754 -0.1145
 3883SOL    HW223112   0.870   2.535  11.998  2.5117 -1.6265  1.0906
 3884SOL     OW23113   3.839   0.346  16.931  0.1210  0.4745  0.3646
 3884SOL    HW123114   3.766   0.285  16.936 -1.1151  1.6952 -3.1826
 3884SOL    HW223115   3.875   0.323  17.018  1.1286 -0.9521 -0.4181
 3885SOL     OW23116   1.257   3.066   8.584 -0.1110  0.1649  0.6414
 3885SOL    HW123117   1.276   2.981   8.626 -1.1986 -0.1454  0.4953
 3885SOL    HW223118   1.285   3.049   8.494  3.3150 -0.6453  1.8420
 3886SOL     OW23119   1.998   2.689   2.448  0.3909  0.1878  0.2094
 3886SOL    HW123120   2.082   2.728   2.426  1.4356 -2.5236 -0.5958
 3886SOL    HW223121   1.946   2.703   2.369 -0.3282 -0.2296  0.6062
 3887SOL     OW23122   1.739   1.824   1.075  0.3305 -0.5157 -0.2487
 3887SOL    HW123123   1.777   1.847   0.990  1.0192  1.8217  0.6864
 3887SOL    HW223124   1.818   1.792   1.117 -0.3339  0.3513  1.6701
 3888SOL     OW23125   2.427   4.611   1.500  0.2955  0.0214  0.0576
 3888SOL    HW123126   2.429   4.581   1.409  1.1409  1.3824 -0.3600
 3888SOL    HW223127   2.340   4.650   1.510  0.1277 -0.2207 -0.4086
 3889SOL     OW23128   3.396   0.933   5.171  0.0838  0.5924 -0.4003
 3889SOL    HW123129   3.339   0.948   5.096  0.4821  1.3724 -0.5453
 3889SOL    HW223130   3.396   1.027   5.188 -1.6945  0.1337  2.0603
 3890SOL     OW23131   0.157   1.598   6.454 -0.1000  0.0393  0.2932
 3890SOL    HW123132   0.076   1.578   6.408  0.0565  1.9184 -0.7720
 3890SOL    HW223133   0.125   1.658   6.521 -1.3329  0.3204 -0.5636
 3891SOL     OW23134   3.658   0.477   6.404 -0.2102  0.6898 -0.2438
 3891SOL    HW123135   3.627   0.447   6.489  0.7992  1.0996  0.2697
 3891SOL    HW223136   3.639   0.571   6.405  0.4920  0.8455 -1.2738
 3892SOL     OW23137   0.977   1.441  12.161 -0.1619 -0.1315 -0.0167
 3892SOL    HW123138   0.949   1.497  12.233  0.5295 -1.6288  1.4390
 3892SOL    HW223139   0.893   1.395  12.152  0.0441 -0.4268 -0.4108
 3893SOL     OW23140   0.981   4.448   4.337 -0.2134 -0.1737 -0.0208
 3893SOL    HW123141   0.993   4.409   4.423 -3.1811  1.7189  1.2345
 3893SOL    HW223142   0.894   4.482   4.357 -1.5177 -1.8970 -2.7332
 3894SOL     OW23143   4.228   0.715   6.055  0.0559  0.0624 -0.3031
 3894SOL    HW123144   4.164   0.658   6.011 -1.4310  2.8752 -1.7593
 3894SOL    HW223145   4.179   0.796   6.045 -0.6149 -0.2094  0.8242
 3895SOL     OW23146   4.506   1.133  14.060 -0.1197  0.1206 -0.0214
 3895SOL    HW123147   4.423   1.136  14.012 -0.1722 -1.8092 -0.0587
 3895SOL    HW223148   4.540   1.051  14.024 -0.8218  0.3680 -1.2491
 3896SOL     OW23149   4.568   3.680   4.061  0.1171  0.1462 -0.1846
 3896SOL    HW123150   4.475   3.662   4.049 -0.5600  1.6798  3.0072
 3896SOL    HW223151   4.603   3.596   4.031 -0.0222  0.2217 -0.5608
 3897SOL     OW23152   1.374   2.926   0.897 -0.2863  0.0597 -0.8882
 3897SOL    HW123153   1.367   2.842   0.853  0.6759 -0.9473  0.8694
 3897SOL    HW223154   1.446   2.962   0.847 -0.2837  0.5045 -0.5665
 3898SOL     OW23155   1.014   2.478   1.210  0.4389  0.0916 -0.0739
 3898SOL    HW123156   1.109   2.473   1.223  0.6361  0.4454 -1.4132
 3898SOL    HW223157   0.979   2.454   1.296  2.0099  0.0878  0.5629
 3899SOL     OW23158   2.265   4.527  13.571  0.1348  0.3020 -0.0121
 3899SOL    HW123159   2.191   4.477  13.535  0.6868 -0.8010  0.4174
 3899SOL    HW223160   2.220   4.601  13.613 -1.1857  0.1215 -1.0802
 3900SOL     OW23161   2.491   3.189   3.064 -0.2157 -0.0020  0.1827
 3900SOL    HW123162   2.532   3.245   3.130 -0.2131  0.4152 -0.1708
 3900SOL    HW223163   2.410   3.235   3.043  0.7201  0.4356 -2.6352
 3901SOL     OW23164   2.395   4.641   3.570 -0.4815  0.6214 -0.3082
 3901SOL    HW123165   2.440   4.690   3.501 -1.3957  0.9533 -0.6689
 3901SOL    HW223166   2.410   4.707   3.638  0.6983 -0.7279  0.7393
 3902SOL     OW23167   2.868   4.660   3.972 -0.1453 -0.4664  0.2448
 3902SOL    HW123168   2.880   4.592   4.038 -1.1669  0.3638  1.2767
 3902SOL    HW223169   2.784   4.632   3.936 -0.1266  0.6208 -0.6551
 3903SOL     OW23170   4.277   2.677  13.726 -0.0505  0.0851  0.0846
 3903SOL    HW123171   4.350   2.624  13.696 -0.1631 -0.5388  0.9079
 3903SOL    HW223172   4.271   2.665  13.821  3.0011  1.1082  0.3867
 3904SOL     OW23173   3.699   1.382   4.288  0.4713 -0.3404  0.2689
 3904SOL    HW123174   3.615   1.338   4.304  0.8892 -0.5545  1.9055
 3904SOL    HW223175   3.729   1.344   4.205  0.8252 -1.3919  0.8639
 3905SOL     OW23176   2.582   4.385   2.281 -0.0302  0.3046  0.2802
 3905SOL    HW123177   2.617   4.395   2.193 -1.1347 -1.7416 -0.3886
 3905SOL    HW223178   2.635   4.449   2.330  0.4267 -1.1296  1.6706
 3906SOL     OW23179   1.156   2.441   7.735  0.0059  0.5280  0.1941
 3906SOL    HW123180   1.123   2.352   7.750  1.3100  0.2061  1.0713
 3906SOL    HW223181   1.210   2.449   7.813  1.5552  0.7189 -0.8958
 3907SOL     OW23182   1.905   1.438   8.036 -0.8383 -0.0578  0.0805
 3907SOL    HW123183   1.928   1.345   8.044  1.5401  0.7100  2.3576
 3907SOL    HW223184   1.844   1.424   7.964 -1.3578 -0.9851  0.7064
 3908SOL     OW23185   1.965   2.680   5.874 -0.5732 -0.3073 -0.1248
 3908SOL    HW123186   1.983   2.588   5.855 -0.5920 -0.2000 -0.6620
 3908SOL    HW223187   1.898   2.718   5.817 -1.2816  1.2634  1.7536
 3909SOL     OW23188   0.850   2.660   2.738 -0.1185 -0.1230  0.2103
 3909SOL    HW123189   0.869   2.609   2.659 -0.6036  0.9502 -0.6015
 3909SOL    HW223190   0.935   2.687   2.772 -0.7264 -0.9388  2.3807
 3910SOL     OW23191   0.205   1.887  11.532  0.0744 -0.4583  0.3298
 3910SOL    HW123192   0.272   1.854  11.472 -0.5363  1.4594 -1.4099
 3910SOL    HW223193   0.206   1.983  11.527  2.4172 -0.4740  0.5186
 3911SOL     OW23194   2.924   1.634   9.056  0.1344  0.0392  0.1134
 3911SOL    HW123195   2.845   1.681   9.082  0.0066 -1.9688  3.3423
 3911SOL    HW223196   2.905   1.574   8.984  1.1063 -0.2293  0.0759
 3912SOL     OW23197   1.017   1.130   4.999 -0.4268  0.2613 -0.5484
 3912SOL    HW123198   1.002   1.145   5.093 -3.1741  1.0787 -1.1305
 3912SOL    HW223199   1.102   1.172   4.986  0.7045 -2.5072 -1.9698
 3913SOL     OW23200   2.316   0.079   6.392 -0.4640 -0.4634  0.5164
 3913SOL    HW123201   2.331   0.173   6.401 -1.7727 -0.5199  3.1338
 3913SOL    HW223202   2.233   0.067   6.437 -0.9544  1.0120  0.0153
 3914SOL     OW23203   3.768   3.991   2.841 -0.7429  0.0002  0.4251
 3914SOL    HW123204   3.713   3.921   2.877 -0.9267 -0.1677 -0.1817
 3914SOL    HW223205   3.768   4.053   2.914  0.1732  0.4698  0.0321
 3915SOL     OW23206   3.607   2.850   8.599  0.0810  0.0286  0.2104
 3915SOL    HW123207   3.539   2.811   8.653  1.0591 -2.4516 -0.3220
 3915SOL    HW223208   3.571   2.939   8.597  0.5091  0.1995  0.1851
 3916SOL     OW23209   1.154   4.515   2.008 -0.1848  0.2499  0.1048
 3916SOL    HW123210   1.213   4.566   2.062  1.9808 -1.8420 -0.2750
 3916SOL    HW223211   1.069   4.537   2.046 -1.0817 -0.7130 -1.3279
 3917SOL     OW23212   2.149   2.841   4.628 -0.1336  0.1653  0.2824
 3917SOL    HW123213   2.178   2.881   4.710 -1.9906 -1.9083  1.9641
 3917SOL    HW223214   2.204   2.763   4.631 -0.3359  0.0021 -0.2567
 3918SOL     OW23215   1.669   3.800   3.825  0.3272 -0.4900 -0.3065
 3918SOL    HW123216   1.707   3.868   3.880  0.8438 -1.3063  0.3639
 3918SOL    HW223217   1.579   3.801   3.857  1.3910  0.2279  2.7102
 3919SOL     OW23218   0.089   4.539   2.529  0.3056 -0.5303  0.2677
 3919SOL    HW123219   0.102   4.470   2.594  0.3274  0.7671  1.6309
 3919SOL    HW223220   0.005   4.514   2.492 -0.5226  3.2153 -0.3536
 3920SOL     OW23221   0.824   2.485   1.014 -0.1829  0.4374  0.4856
 3920SOL    HW123222   0.764   2.553   1.044 -0.9853 -0.5928  1.1828
 3920SOL    HW223223   0.898   2.507   1.071 -0.0796 -0.0675  0.5433
 3921SOL     OW23224   4.144   2.971   6.088 -0.7153  0.6973  0.3839
 3921SOL    HW123225   4.234   2.999   6.104  0.0145 -0.8420 -1.0277
 3921SOL    HW223226   4.117   2.918   6.163  1.3799 -3.5592 -1.8116
 3922SOL     OW23227   1.444   0.676   7.810 -0.1179 -0.1509 -0.2214
 3922SOL    HW123228   1.443   0.692   7.716 -0.5825 -0.2062 -0.2247
 3922SOL    HW223229   1.532   0.710   7.824  0.0466 -0.1639 -1.2082
 3923SOL     OW23230   0.954   2.197  12.136 -0.0288  0.2904  0.2188
 3923SOL    HW123231   0.901   2.269  12.102 -0.0586 -0.2094 -0.7974
 3923SOL    HW223232   1.012   2.247  12.194  1.1634  0.5868 -1.2177
 3924SOL     OW23233   2.566   1.590   6.441 -0.3640 -0.1381  0.3942
 3924SOL    HW123234   2.650   1.577   6.396 -0.1083  0.6920  0.6295
 3924SOL    HW223235   2.555   1.505   6.484 -2.5614  0.6709  1.4316
 3925SOL     OW23236   0.572   1.182   3.829 -0.0764 -0.1170 -0.5333
 3925SOL    HW123237   0.557   1.147   3.741  0.1767 -0.5714 -0.3964
 3925SOL    HW223238   0.666   1.179   3.845 -0.1189  0.0317 -0.2554
 3926SOL     OW23239   0.249   1.816   9.673  0.2988 -0.3065 -0.3868
 3926SOL    HW123240   0.182   1.772   9.725  1.3798  0.1350  1.4052
 3926SOL    HW223241   0.295   1.736   9.647  0.8161 -0.1791  0.1374
 3927SOL     OW23242   1.639   0.186   8.140  0.5619  0.5778  0.0948
 3927SOL    HW123243   1.674   0.190   8.229 -0.7936  1.6701  0.5696
 3927SOL    HW223244   1.547   0.173   8.164 -0.2232  2.8400 -1.7526
 3928SOL     OW23245   0.408   1.614   9.573 -0.1147 -0.0145 -0.1791
 3928SOL    HW123246   0.372   1.544   9.519 -0.7172  0.6470 -0.6409
 3928SOL    HW223247   0.473   1.654   9.515  0.3838  1.0779  1.1312
 3929SOL     OW23248   1.169   2.833   4.304  0.2642 -0.0100 -0.3220
 3929SOL    HW123249   1.081   2.794   4.313  0.0958  0.0934 -1.4392
 3929SOL    HW223250   1.176   2.823   4.209  1.4661 -1.5669 -0.0625
 3930SOL     OW23251   0.197   3.937   2.007  0.2559  0.0213  0.1614
 3930SOL    HW123252   0.104   3.951   1.992  0.1981  0.7355  1.1842
 3930SOL    HW223253   0.234   4.024   1.990  0.1031  0.4748  2.1374
 3931SOL     OW23254   3.299   4.331   0.761  0.1056 -0.8980 -0.1712
 3931SOL    HW123255   3.228   4.350   0.700  1.1189  2.4359 -0.2859
 3931SOL    HW223256   3.280   4.237   0.769 -1.4380 -0.2779  3.6700
 3932SOL     OW23257   4.313   3.100  15.127 -0.2732 -0.5235 -0.4705
 3932SOL    HW123258   4.297   3.121  15.035 -0.4093 -1.0382 -0.5649
 3932SOL    HW223259   4.351   3.184  15.153  1.6900 -1.7182  0.5117
 3933SOL     OW23260   3.039   2.434   7.711 -0.5789 -0.1169  0.2279
 3933SOL    HW123261   3.078   2.466   7.630 -1.3573  0.2272 -0.0046
 3933SOL    HW223262   2.963   2.490   7.726 -0.0522  0.2431  1.5874
 3934SOL     OW23263   2.093   0.068  12.773 -0.0527  0.4470  0.0533
 3934SOL    HW123264   2.056   0.010  12.840 -0.4351  3.0020  2.0842
 3934SOL    HW223265   2.183   0.037  12.772  0.3168  1.5903 -1.3440
 3935SOL     OW23266   2.279   3.697   1.890 -0.1705 -0.0587  0.1710
 3935SOL    HW123267   2.246   3.608   1.896  1.1774 -0.5002  1.1197
 3935SOL    HW223268   2.371   3.671   1.900  0.0885  0.7120 -0.1671
 3936SOL     OW23269   3.632   4.246   9.442 -0.0486 -0.3747  0.2282
 3936SOL    HW123270   3.572   4.204   9.382 -0.9061 -1.0989  1.6085
 3936SOL    HW223271   3.580   4.325   9.456  1.4493  0.6366  0.2036
 3937SOL     OW23272   4.101   3.953  11.889  0.1279 -0.0538  0.0057
 3937SOL    HW123273   4.033   3.993  11.943 -1.3082 -0.4986 -1.4451
 3937SOL    HW223274   4.109   3.874  11.942  0.5196  1.4346  2.1721
 3938SOL     OW23275   3.531   2.175   7.533  0.5951 -0.3839  0.2314
 3938SOL    HW123276   3.598   2.110   7.557  0.4539 -0.4016  0.5793
 3938SOL    HW223277   3.451   2.123   7.544  0.3831 -0.0273  0.3636
 3939SOL     OW23278   2.831   3.352   5.737 -0.1815  0.4311 -0.1842
 3939SOL    HW123279   2.851   3.445   5.726  1.5338 -0.1037 -1.4748
 3939SOL    HW223280   2.738   3.361   5.759 -0.0677 -0.7356  0.7675
 3940SOL     OW23281   4.556   1.972   8.009 -0.9523  0.2360 -0.0222
 3940SOL    HW123282   4.537   2.027   8.085 -0.4553 -0.8640  0.8949
 3940SOL    HW223283   4.648   1.953   8.024 -1.0513  0.5335  0.9753
 3941SOL     OW23284   4.010   1.554   5.550 -0.1225 -0.0602  0.3050
 3941SOL    HW123285   4.031   1.607   5.627 -1.3151  0.7019  0.1098
 3941SOL    HW223286   4.039   1.623   5.490 -0.7961  0.4850  0.6024
 3942SOL     OW23287   2.729   1.376   5.796  0.1938 -0.4869 -0.3832
 3942SOL    HW123288   2.636   1.359   5.812  0.1725  1.7991  2.0026
 3942SOL    HW223289   2.768   1.364   5.882  0.6778  0.5416 -0.4555
 3943SOL     OW23290   3.340   1.673   0.241 -0.3560 -0.4831 -0.1434
 3943SOL    HW123291   3.367   1.585   0.267 -0.0210 -0.4671 -0.4494
 3943SOL    HW223292   3.419   1.723   0.263  0.3060 -0.8328 -1.7466
 3944SOL     OW23293   2.789   1.062   9.266 -0.4754  0.1267  0.2050
 3944SOL    HW123294   2.743   1.082   9.348 -1.1898 -2.5788  0.4696
 3944SOL    HW223295   2.849   1.136   9.263  1.8016 -1.8312 -2.8254
 3945SOL     OW23296   3.592   1.711   4.277  0.3546  1.0310  0.7416
 3945SOL    HW123297   3.516   1.670   4.319 -0.0882 -0.2405 -1.2833
 3945SOL    HW223298   3.607   1.783   4.339  1.4751  1.6108 -0.2115
 3946SOL     OW23299   3.588   0.306   4.927  0.7619 -0.3699  0.5684
 3946SOL    HW123300   3.646   0.246   4.881 -0.4921 -1.1016 -0.0706
 3946SOL    HW223301   3.632   0.388   4.906  0.1893 -1.0439 -3.3604
 3947SOL     OW23302   1.913   2.907  12.823  0.3215  0.0927 -0.0475
 3947SOL    HW123303   1.966   2.986  12.820  0.9704 -0.2883  1.1778
 3947SOL    HW223304   1.965   2.846  12.770 -1.7282 -3.7906  2.3774
 3948SOL     OW23305   2.062   0.962   8.491  0.1146 -0.0654  0.3589
 3948SOL    HW123306   2.110   1.042   8.510 -0.6596  0.5614 -0.2836
 3948SOL    HW223307   2.121   0.910   8.436  1.9715 -0.2943  2.5845
 3949SOL     OW23308   2.457   2.256   7.330 -0.0657 -0.1075 -0.0195
 3949SOL    HW123309   2.537   2.208   7.351  0.8624  2.3342  1.9671
 3949SOL    HW223310   2.447   2.240   7.236 -2.4120  2.4980 -0.2031
 3950SOL     OW23311   0.594   0.704   5.044 -0.0341  0.6865  0.1021
 3950SOL    HW123312   0.627   0.733   4.959  2.1074 -0.1443  0.6512
 3950SOL    HW223313   0.672   0.669   5.087 -0.3612  0.3767  0.4444
 3951SOL     OW23314   1.195   4.702   5.580  0.4150 -0.2363  0.1714
 3951SOL    HW123315   1.203   4.674   5.489 -1.3988 -2.5091  0.7061
 3951SOL    HW223316   1.135   4.635   5.611  1.7998 -0.5735  2.0945
 3952SOL     OW23317   0.386   1.431  13.450 -0.1660 -0.8942  0.0679
 3952SOL    HW123318   0.443   1.455  13.376 -0.9680  0.9508  0.0405
 3952SOL    HW223319   0.323   1.385  13.395  0.3236 -2.1606  0.5795
 3953SOL     OW23320   2.766   1.094   3.603  0.3032 -0.2055  0.1338
 3953SOL    HW123321   2.785   1.143   3.683  2.1688 -1.7728  0.6846
 3953SOL    HW223322   2.845   1.040   3.610  0.5163  0.2109  0.9403
 3954SOL     OW23323   1.524   1.487   2.516 -0.5162 -0.0621 -0.3986
 3954SOL    HW123324   1.570   1.567   2.492  2.4292 -2.0128 -1.2488
 3954SOL    HW223325   1.509   1.512   2.607  0.6126 -1.5739  0.2048
 3955SOL     OW23326   2.840   1.691  13.578  0.0360 -0.0152 -0.1598
 3955SOL    HW123327   2.747   1.711  13.584  0.1557  0.3616  0.4804
 3955SOL    HW223328   2.865   1.774  13.618 -1.2534 -0.9045  2.5148
 3956SOL     OW23329   3.013   0.713  16.264 -0.4886  0.3862  0.2470
 3956SOL    HW123330   3.039   0.731  16.354 -2.3691 -0.8503  1.0378
 3956SOL    HW223331   3.099   0.685  16.234 -0.9795 -1.6099  0.7520
 3957SOL     OW23332   1.399   1.423  10.565  0.0749  0.0571  0.1255
 3957SOL    HW123333   1.313   1.434  10.607  0.2962 -1.9749  1.1330
 3957SOL    HW223334   1.443   1.384  10.640  0.8613  1.9345  0.6193
 3958SOL     OW23335   4.234   1.110   7.722  0.2766  0.0929  0.1880
 3958SOL    HW123336   4.226   1.108   7.627 -1.4394 -1.8566  0.3960
 3958SOL    HW223337   4.151   1.074   7.754  0.1399  0.8256  0.6710
 3959SOL     OW23338   1.615   2.431   5.056 -0.1167 -0.0456  0.5146
 3959SOL    HW123339   1.647   2.521   5.061 -0.4059  0.1821 -1.5853
 3959SOL    HW223340   1.635   2.413   4.964 -1.8704  0.5483  0.0204
 3960SOL     OW23341   4.597   2.660   5.153 -0.1050 -0.3509 -0.1791
 3960SOL    HW123342   4.550   2.636   5.233 -2.5791  1.9306 -0.9666
 3960SOL    HW223343   4.667   2.595   5.166  0.2895  0.2787  0.8666
 3961SOL     OW23344   3.427   1.381   8.164 -0.2234  0.3270 -1.1037
 3961SOL    HW123345   3.373   1.304   8.145 -1.1676  1.1597 -1.8016
 3961SOL    HW223346   3.424   1.393   8.259 -0.4471 -1.5326 -0.8643
 3962SOL     OW23347   4.336   2.996   7.110  0.2629 -0.2432  0.0522
 3962SOL    HW123348   4.294   3.082   7.119  0.5499 -0.1326  0.3136
 3962SOL    HW223349   4.334   2.971   7.202  1.5839  2.9098  0.9429
 3963SOL     OW23350   0.691   4.012   6.527  0.0612  0.2890 -1.0379
 3963SOL    HW123351   0.671   3.921   6.506  0.4808  0.0391 -0.3640
 3963SOL    HW223352   0.643   4.028   6.609  1.0282  0.5464 -0.5171
 3964SOL     OW23353   0.461   4.224   2.445  0.1812  0.1115  0.6665
 3964SOL    HW123354   0.382   4.270   2.419  0.4075 -0.2389 -0.6745
 3964SOL    HW223355   0.468   4.167   2.368  0.3960  1.9840 -0.7206
 3965SOL     OW23356   0.134   3.169  15.374 -0.5712 -0.6147 -0.3857
 3965SOL    HW123357   0.179   3.102  15.426  0.4227  0.9633  0.7883
 3965SOL    HW223358   0.127   3.235  15.443  0.1657 -0.9509  0.0134
 3966SOL     OW23359   0.144   0.004   5.361 -0.1743  0.3263  0.0639
 3966SOL    HW123360   0.224   0.048   5.392 -0.3194 -0.2953  1.3269
 3966SOL    HW223361   0.136   4.668   5.437  1.7972 -0.9399 -0.6809
 3967SOL     OW23362   0.889   1.316   3.000  0.3313  0.2722 -0.3836
 3967SOL    HW123363   0.927   1.248   3.056  2.1161 -0.6273 -2.6916
 3967SOL    HW223364   0.886   1.385   3.066  0.6162 -3.2069  3.2687
 3968SOL     OW23365   0.153   4.371   4.554  0.0249 -0.9742 -0.0234
 3968SOL    HW123366   0.185   4.461   4.562  0.9134 -0.9894 -3.2187
 3968SOL    HW223367   0.138   4.343   4.644  0.7635  0.1240  0.4345
 3969SOL     OW23368   1.759   0.967   5.497 -0.3158  0.2978  0.1277
 3969SOL    HW123369   1.747   1.054   5.459  0.5086  0.3385 -0.0318
 3969SOL    HW223370   1.850   0.973   5.525 -0.2802 -0.3155  0.1564
 3970SOL     OW23371   3.336   3.765   4.144 -0.2510 -0.2445 -0.2826
 3970SOL    HW123372   3.348   3.670   4.154 -0.9928 -0.3108 -0.0103
 3970SOL    HW223373   3.255   3.784   4.190 -0.3700 -0.3251 -0.4578
 3971SOL     OW23374   2.339   0.171   5.283  0.0598  0.0801  0.0201
 3971SOL    HW123375   2.298   0.085   5.290  1.5441 -0.5067  1.5367
 3971SOL    HW223376   2.361   0.190   5.374 -0.4582  0.1350  0.1386
 3972SOL     OW23377   0.076   1.245   0.804  0.2512 -0.4130  0.3408
 3972SOL    HW123378   0.169   1.253   0.782  0.4842 -0.3479  1.3623
 3972SOL    HW223379   0.044   1.262   0.715  0.5869 -2.7932 -0.2530
 3973SOL     OW23380   3.501   0.059   3.740 -0.1828  0.0260 -0.7996
 3973SOL    HW123381   3.587   0.081   3.775 -0.2751  0.9455 -1.1551
 3973SOL    HW223382   3.503   4.690   3.770 -1.3559  0.0548 -0.6112
 3974SOL     OW23383   4.003   1.405  17.042  0.5580  0.6293  0.7320
 3974SOL    HW123384   4.086   1.450  17.061  0.3765  1.9415 -1.6289
 3974SOL    HW223385   3.949   1.478  17.074  0.5651  0.2988  1.5105
 3975SOL     OW23386   2.919   1.144   7.818  0.3849 -0.0577  0.4200
 3975SOL    HW123387   2.972   1.079   7.864 -0.8542  0.1581  2.1518
 3975SOL    HW223388   2.983   1.177   7.755  0.0086 -1.1746 -0.5603
 3976SOL     OW23389   2.528   2.779   3.653 -0.0562  0.1206  0.5594
 3976SOL    HW123390   2.492   2.755   3.739 -0.6797 -1.3278 -0.0959
 3976SOL    HW223391   2.520   2.695   3.607 -0.6220 -0.2140  1.2668
 3977SOL     OW23392   2.094   3.389   4.825 -0.0586 -0.4370 -0.7759
 3977SOL    HW123393   2.135   3.404   4.739  3.3465  2.1375  1.2703
 3977SOL    HW223394   2.008   3.426   4.803  0.2040  0.6043 -0.0824
 3978SOL     OW23395   3.551   3.134  16.735 -0.5100 -0.0781  0.2623
 3978SOL    HW123396   3.630   3.187  16.739 -1.5473  1.3046  2.4908
 3978SOL    HW223397   3.545   3.105  16.826 -2.1223  2.3844  0.9441
 3979SOL     OW23398   2.234   2.517   2.386 -0.6572  0.0197  0.2101
 3979SOL    HW123399   2.279   2.463   2.452  2.5956  0.6646 -1.5082
 3979SOL    HW223400   2.167   2.454   2.358 -0.9393 -0.3397  1.6813
 3980SOL     OW23401   0.719   2.473  12.326 -0.5603  0.1393 -0.7235
 3980SOL    HW123402   0.740   2.488  12.418  0.4742  0.3589 -1.0017
 3980SOL    HW223403   0.630   2.439  12.337 -0.2573  0.2538  2.0688
 3981SOL     OW23404   3.922   1.436   5.297 -0.1891 -0.4586  0.1790
 3981SOL    HW123405   3.852   1.490   5.259 -1.8971 -0.8328  2.7960
 3981SOL    HW223406   3.920   1.469   5.386 -0.3899  1.1698 -0.4224
 3982SOL     OW23407   2.490   4.690  11.858  0.6232 -0.4800 -0.5681
 3982SOL    HW123408   2.460   4.668  11.770  0.0873  2.0205 -1.0063
 3982SOL    HW223409   2.439   0.044  11.885 -1.7480 -0.8576 -3.9167
 3983SOL     OW23410   3.156   3.977  11.163  0.5140 -0.0569 -0.1485
 3983SOL    HW123411   3.225   4.043  11.170  1.4523 -0.8640 -1.5873
 3983SOL    HW223412   3.172   3.936  11.248  1.8137 -1.0688 -0.8735
 3984SOL     OW23413   4.701   1.820   6.276 -0.4235 -0.4246 -0.1272
 3984SOL    HW123414   0.042   1.891   6.288 -1.7675  0.2229  3.0747
 3984SOL    HW223415   4.651   1.855   6.202  0.4142  0.1690 -0.4073
 3985SOL     OW23416   4.176   0.142   9.431 -0.5007  0.2004  0.3457
 3985SOL    HW123417   4.254   0.191   9.458 -0.6753  0.7353 -0.1535
 3985SOL    HW223418   4.109   0.196   9.473 -1.3248 -0.1454 -0.5375
 3986SOL     OW23419   3.037   1.150   4.845 -0.3318  0.1091 -0.0879
 3986SOL    HW123420   2.948   1.115   4.848  0.3074 -1.5293 -0.2944
 3986SOL    HW223421   3.029   1.236   4.804  1.3541 -0.2256 -1.0996
 3987SOL     OW23422   2.274   3.829  17.436 -0.4191  0.8457 -0.1371
 3987SOL    HW123423   2.286   3.918  17.402 -2.5187  0.7312 -1.1598
 3987SOL    HW223424   2.183   3.816  17.408 -0.7447 -1.6644  2.1450
 3988SOL     OW23425   4.271   1.354   6.595 -0.4805  0.0184  1.0157
 3988SOL    HW123426   4.365   1.371   6.600 -0.5022  0.0904  1.2032
 3988SOL    HW223427   4.268   1.364   6.500  1.5351  1.8628  1.1355
 3989SOL     OW23428   2.149   3.908   9.532  0.3510  0.8528  0.3636
 3989SOL    HW123429   2.134   3.914   9.626 -1.0938  1.1331  0.1075
 3989SOL    HW223430   2.070   3.955   9.506 -0.8820 -1.4251 -0.0437
 3990SOL     OW23431   0.411   2.676   8.002  0.3147 -0.1679  0.7295
 3990SOL    HW123432   0.406   2.759   8.051 -0.1648  0.8435 -1.0429
 3990SOL    HW223433   0.404   2.621   8.080 -1.6434 -1.5190 -0.4110
 3991SOL     OW23434   3.336   3.502  17.224 -0.3266 -0.1050 -0.0186
 3991SOL    HW123435   3.375   3.496  17.137 -0.4784 -2.1206  0.0507
 3991SOL    HW223436   3.403   3.465  17.282 -1.4715 -2.0578  0.0556
 3992SOL     OW23437   0.311   0.346   7.685  0.0616 -0.1168  0.6770
 3992SOL    HW123438   0.351   0.275   7.635  0.5137 -0.8090  2.0047
 3992SOL    HW223439   0.359   0.416   7.639 -2.2047  0.1764 -1.2092
 3993SOL     OW23440   4.361   4.483   4.105 -0.2878 -0.6551  0.0425
 3993SOL    HW123441   4.382   4.393   4.132  0.2123 -1.1633 -2.0205
 3993SOL    HW223442   4.430   4.494   4.039  1.0055  0.8140  1.6511
 3994SOL     OW23443   3.451   4.295   8.088 -0.8266 -0.1995  0.4168
 3994SOL    HW123444   3.476   4.232   8.155 -2.7529  0.2901  1.5905
 3994SOL    HW223445   3.511   4.369   8.101  0.7228 -0.6606 -3.8548
 3995SOL     OW23446   2.769   1.160   8.273 -0.0332  0.2409  0.2297
 3995SOL    HW123447   2.778   1.216   8.350  1.6264 -0.8411  0.8141
 3995SOL    HW223448   2.678   1.134   8.282 -0.2526  1.8712  2.8771
 3996SOL     OW23449   3.057   4.525   8.798  0.2703  0.4581  0.0061
 3996SOL    HW123450   3.012   4.441   8.787 -0.2032  0.7531 -0.3015
 3996SOL    HW223451   3.009   4.550   8.877  1.0435 -1.0623  0.9370
 3997SOL     OW23452   1.338   0.889  14.718  0.8771  0.4303 -0.4810
 3997SOL    HW123453   1.307   0.881  14.628 -2.1992  0.3757  0.5915
 3997SOL    HW223454   1.278   0.830  14.765  2.6425  1.0402  2.5665
 3998SOL     OW23455   3.571   0.428   6.677  0.2453 -0.0772  0.3125
 3998SOL    HW123456   3.478   0.448   6.668  0.4600  0.0712 -1.4582
 3998SOL    HW223457   3.567   0.339   6.714  1.0477  0.0298  0.6701
 3999SOL     OW23458   0.221   2.238   8.560 -0.1119 -0.4337 -0.4953
 3999SOL    HW123459   0.235   2.284   8.478  0.9336  1.0229  0.5108
 3999SOL    HW223460   0.276   2.161   8.545 -0.1319 -0.8853  1.8051
 4000SOL     OW23461   2.561   0.670   7.666  0.0732 -0.1133 -0.0158
 4000SOL    HW123462   2.605   0.617   7.732  1.1770 -0.3774 -0.9608
 4000SOL    HW223463   2.584   0.624   7.585 -0.6568 -0.6050  0.0497
 4001SOL     OW23464   2.215   0.062  10.575 -0.4694 -0.2971  0.1248
 4001SOL    HW123465   2.174   4.716  10.629 -0.4707  0.6734  1.3627
 4001SOL    HW223466   2.283   0.094  10.635  0.5274 -1.4177 -0.4168
 4002SOL     OW23467   3.245   2.627   3.646 -0.4541 -0.3754  0.5500
 4002SOL    HW123468   3.297   2.708   3.642  0.0039 -0.6420  1.0021
 4002SOL    HW223469   3.188   2.637   3.723 -2.4270 -1.1564 -0.8209
 4003SOL     OW23470   3.045   4.462   0.085 -0.5609  0.2318 -0.3883
 4003SOL    HW123471   3.125   4.495   0.127 -0.9321 -0.7246  1.0845
 4003SOL    HW223472   3.068   4.369   0.087  1.4948  0.7188 -1.4680
 4004SOL     OW23473   3.168   3.685   6.357  0.6276 -0.3219  0.0156
 4004SOL    HW123474   3.149   3.735   6.436 -1.6423 -1.9521  0.4916
 4004SOL    HW223475   3.229   3.618   6.389 -2.8965 -4.4110 -1.7812
 4005SOL     OW23476   4.020   0.241   5.595  0.6383  0.2136 -0.0081
 4005SOL    HW123477   3.942   0.197   5.629 -1.1840  2.6100 -1.1232
 4005SOL    HW223478   4.048   0.179   5.528  0.0524  0.6377 -0.6394
 4006SOL     OW23479   2.537   4.300   5.991  0.1888 -0.1394 -0.4524
 4006SOL    HW123480   2.470   4.235   5.971 -2.3483  1.9607  1.2514
 4006SOL    HW223481   2.613   4.258   5.951  2.7231  0.4355  3.7032
 4007SOL     OW23482   1.082   1.145   2.423 -0.9095 -0.5578 -0.0588
 4007SOL    HW123483   1.154   1.192   2.465  0.1424 -1.6365 -0.6604
 4007SOL    HW223484   1.120   1.063   2.393  0.6917  0.1052  0.1120
 4008SOL     OW23485   2.079   4.462   4.746  0.5673 -0.7133  0.1233
 4008SOL    HW123486   2.100   4.521   4.674 -2.8831  0.9096  0.4260
 4008SOL    HW223487   2.012   4.516   4.789  2.0644  0.2925  1.1789
 4009SOL     OW23488   1.947   2.972   8.505 -0.3957 -0.0614 -0.3468
 4009SOL    HW123489   2.016   2.951   8.443 -1.9194 -4.5164 -0.4798
 4009SOL    HW223490   1.971   3.056   8.545 -1.6743  0.2925 -0.3379
 4010SOL     OW23491   2.331   4.583   6.828  0.2278  0.2473 -0.3298
 4010SOL    HW123492   2.282   4.515   6.875  0.4179 -0.4792 -1.1714
 4010SOL    HW223493   2.255   4.594   6.771 -2.0861 -2.6972  2.1623
 4011SOL     OW23494   2.219   3.947   4.635  0.2774 -0.1197 -0.1500
 4011SOL    HW123495   2.130   3.945   4.602  0.1130  1.9357  0.1516
 4011SOL    HW223496   2.214   4.039   4.660 -0.1797 -0.1729 -0.0566
 4012SOL     OW23497   1.492   1.630   5.743  0.3676  0.1844  0.2167
 4012SOL    HW123498   1.505   1.567   5.814  0.7086 -1.3053 -1.1614
 4012SOL    HW223499   1.474   1.576   5.666  2.6175  0.2600 -0.3469
 4013SOL     OW23500   1.598   2.358  16.265  0.3760 -0.1816  0.4153
 4013SOL    HW123501   1.567   2.318  16.184  1.0318  0.8334 -0.3495
 4013SOL    HW223502   1.537   2.432  16.264  0.8859  0.2374 -0.8803
 4014SOL     OW23503   0.228   1.394   6.636  0.3545 -0.7516 -0.2682
 4014SOL    HW123504   0.163   1.416   6.703  0.6354 -1.3895  0.2194
 4014SOL    HW223505   0.227   1.463   6.570 -0.6383 -0.1837  0.3268
 4015SOL     OW23506   0.972   2.013  15.518  0.3440 -0.2585  0.0294
 4015SOL    HW123507   1.015   1.939  15.562 -2.3702 -2.3871 -0.9380
 4015SOL    HW223508   1.029   2.084  15.546  1.9602 -1.5493  0.0546
 4016SOL     OW23509   3.852   0.979   0.795  0.3225  0.5494 -0.0887
 4016SOL    HW123510   3.917   1.047   0.811  1.3713 -0.6296  0.7345
 4016SOL    HW223511   3.799   1.014   0.724 -1.0222  3.5171  2.3577
 4017SOL     OW23512   3.272   0.471   5.951  0.3506 -0.2317 -0.0520
 4017SOL    HW123513   3.192   0.486   6.002  0.3603 -0.3803  0.0066
 4017SOL    HW223514   3.341   0.504   6.008 -0.5994  1.0203  0.3721
 4018SOL     OW23515   3.804   4.459   2.706  0.2841 -0.4870  0.1933
 4018SOL    HW123516   3.733   4.399   2.729  0.8085 -0.9911  0.4963
 4018SOL    HW223517   3.828   4.489   2.794 -3.3433 -0.0901  1.0270
 4019SOL     OW23518   4.587   3.959  10.683  0.5871  0.0404 -0.4573
 4019SOL    HW123519   4.661   3.919  10.636  0.7555 -0.7095  0.4288
 4019SOL    HW223520   4.537   3.877  10.685  0.8362 -0.1180 -0.5453
 4020SOL     OW23521   3.333   0.012   4.553 -0.2124  0.2921 -0.4973
 4020SOL    HW123522   3.259   0.012   4.493 -0.3383  0.4888 -0.3433
 4020SOL    HW223523   3.307   0.084   4.611 -2.2825 -1.4431  0.7344
 4021SOL     OW23524   3.983   0.461   3.738  0.0425 -0.8717  0.4599
 4021SOL    HW123525   3.913   0.463   3.672 -0.8991 -0.9362  1.4520
 4021SOL    HW223526   4.063   0.424   3.700 -0.0049 -0.8017  0.2919
 4022SOL     OW23527   4.532   0.790   8.041  0.2449 -0.0747  0.4858
 4022SOL    HW123528   4.491   0.865   7.997 -0.7099 -0.5603  0.5381
 4022SOL    HW223529   4.546   0.726   7.971 -1.9580 -0.7892  0.6894
 4023SOL     OW23530   0.493   0.659   2.986 -0.1645 -0.2590 -0.1311
 4023SOL    HW123531   0.497   0.686   2.894  0.7702  0.0837  0.0138
 4023SOL    HW223532   0.402   0.630   2.999 -0.7406  0.9588 -1.4280
 4024SOL     OW23533   4.507   0.080  10.130 -0.4417 -0.2637  0.2966
 4024SOL    HW123534   4.583   0.132  10.157 -0.5190 -0.2795  0.5342
 4024SOL    HW223535   4.453   0.081  10.208 -0.7144  0.9387  0.0945
 4025SOL     OW23536   3.762   0.541   4.835  0.2102 -0.8384  0.9307
 4025SOL    HW123537   3.751   0.579   4.749  1.1982 -0.8241  0.8060
 4025SOL    HW223538   3.719   0.604   4.892  1.5130  0.2765  0.6907
 4026SOL     OW23539   3.973   1.432  16.242 -0.1468  0.1150 -0.2477
 4026SOL    HW123540   4.038   1.493  16.207 -1.9468  1.6239 -0.9480
 4026SOL    HW223541   4.030   1.378  16.297 -0.9282 -1.0630 -0.5878
 4027SOL     OW23542   3.705   2.570  11.585  0.7940 -0.1418 -0.1569
 4027SOL    HW123543   3.706   2.647  11.529 -0.4432 -0.6391 -0.8607
 4027SOL    HW223544   3.716   2.499  11.521 -1.9241 -3.0010  2.4949
 4028SOL     OW23545   2.484   4.381   3.632  0.0342 -0.3347 -0.1771
 4028SOL    HW123546   2.392   4.409   3.626  0.3542  0.9482  0.9785
 4028SOL    HW223547   2.531   4.460   3.660 -4.0300  1.6660  1.1039
 4029SOL     OW23548   4.181   2.330   2.600 -0.1698  0.2796 -0.1526
 4029SOL    HW123549   4.235   2.408   2.590  0.3444 -0.0756 -0.1271
 4029SOL    HW223550   4.174   2.320   2.695 -0.4949  2.1351  0.0149
 4030SOL     OW23551   3.771   3.288   5.077 -0.2306 -0.0212  0.6292
 4030SOL    HW123552   3.821   3.366   5.100 -2.6193  1.5813  0.3825
 4030SOL    HW223553   3.800   3.226   5.144  0.1696 -0.7816 -0.2471
 4031SOL     OW23554   4.303   4.436  13.131 -0.5865 -0.1502 -0.0347
 4031SOL    HW123555   4.252   4.480  13.063 -0.7796 -0.0687  0.1609
 4031SOL    HW223556   4.278   4.344  13.124 -0.2495 -0.1431 -1.3047
 4032SOL     OW23557   0.667   1.311  12.377 -0.5356 -0.2687  0.4631
 4032SOL    HW123558   0.717   1.315  12.458 -2.0324 -1.0824  1.4093
 4032SOL    HW223559   0.730   1.284  12.310 -0.7993 -0.7277  0.4008
 4033SOL     OW23560   4.451   0.367   9.843 -0.6210 -0.1788 -0.1408
 4033SOL    HW123561   4.402   0.285   9.842  1.6404 -1.5279 -0.5614
 4033SOL    HW223562   4.390   0.429   9.803  1.8071  0.6687 -2.5597
 4034SOL     OW23563   0.473   3.417   1.908 -0.0277  0.4333  0.4826
 4034SOL    HW123564   0.497   3.502   1.871  0.0646  0.0362 -0.3481
 4034SOL    HW223565   0.503   3.418   1.999  1.4086  1.4135 -0.0032
 4035SOL     OW23566   1.803   2.045   5.989 -0.6435 -0.0782 -0.2542
 4035SOL    HW123567   1.770   2.114   6.047  0.8147 -1.2811  2.0073
 4035SOL    HW223568   1.758   1.967   6.020  2.1247 -0.5177  2.6962
 4036SOL     OW23569   4.124   3.402  11.514  0.0124  0.1522 -0.1417
 4036SOL    HW123570   4.085   3.487  11.493  0.0567  0.2110  0.0151
 4036SOL    HW223571   4.153   3.412  11.605  0.4063  0.2244 -0.2743
 4037SOL     OW23572   0.212   2.246   0.213  0.0663  0.0883 -0.2988
 4037SOL    HW123573   0.118   2.236   0.198  0.1341  1.2270 -1.4773
 4037SOL    HW223574   0.245   2.164   0.176 -2.1904 -0.1195 -1.8844
 4038SOL     OW23575   4.675   0.899  14.236 -0.7617  0.3658  0.2689
 4038SOL    HW123576   4.639   0.886  14.148 -0.4087  0.6552  0.0812
 4038SOL    HW223577   0.015   0.966  14.208 -0.0995 -0.8539 -1.1622
 4039SOL     OW23578   0.005   3.428  16.512 -0.3057 -0.3632 -0.3331
 4039SOL    HW123579   0.065   3.445  16.585 -0.8632  1.6423 -0.3409
 4039SOL    HW223580   0.028   3.496  16.448  1.6244 -1.0509 -0.3896
 4040SOL     OW23581   4.384   1.526   8.396  0.3474 -0.3459  0.4638
 4040SOL    HW123582   4.291   1.549   8.402  0.2887 -0.9367  1.8643
 4040SOL    HW223583   4.385   1.446   8.448  0.0255 -0.7965 -0.2314
 4041SOL     OW23584   3.109   3.736   1.937  0.0270 -0.4213 -0.2702
 4041SOL    HW123585   3.036   3.794   1.958  0.1448  0.6208 -2.8726
 4041SOL    HW223586   3.129   3.701   2.024  0.1343 -0.4069 -0.2893
 4042SOL     OW23587   3.465   0.181  13.469  0.4857  0.2087 -0.7514
 4042SOL    HW123588   3.482   0.237  13.393  0.5410 -0.5757 -1.3119
 4042SOL    HW223589   3.377   0.203  13.499 -0.1441 -0.6305 -2.0084
 4043SOL     OW23590   1.306   1.063   7.161 -0.5905  0.2572 -0.7560
 4043SOL    HW123591   1.369   1.124   7.124  0.2447 -0.0597  0.1746
 4043SOL    HW223592   1.358   1.015   7.225 -0.6070  0.9768 -0.2069
 4044SOL     OW23593   0.896   2.271   2.144  0.3420 -0.0580 -0.4673
 4044SOL    HW123594   0.913   2.319   2.225  0.7317 -1.8404  0.5178
 4044SOL    HW223595   0.824   2.213   2.168 -0.9905  1.2408 -1.3389
 4045SOL     OW23596   4.173   3.234   6.025  0.0237 -0.4009 -0.4763
 4045SOL    HW123597   4.120   3.300   6.070  1.1300 -1.2594  2.1280
 4045SOL    HW223598   4.150   3.156   6.075 -1.2411  1.5514  1.9922
 4046SOL     OW23599   2.310   1.872   5.562  0.0218 -0.4734 -0.0265
 4046SOL    HW123600   2.221   1.891   5.594 -0.0424  0.7809 -0.9203
 4046SOL    HW223601   2.336   1.804   5.624  1.5731 -1.7518 -2.0896
 4047SOL     OW23602   0.049   1.255  10.588  0.2238 -0.1156 -0.3947
 4047SOL    HW123603   0.016   1.212  10.667  1.5506  0.6631  0.5898
 4047SOL    HW223604   0.143   1.265  10.608  0.2935 -0.5489 -0.5040
 4048SOL     OW23605   1.070   2.257   7.467  0.3220 -0.0177 -0.1637
 4048SOL    HW123606   1.050   2.350   7.458 -1.7534 -0.5061 -0.5119
 4048SOL    HW223607   1.141   2.254   7.402  0.8940  0.4704  0.4434
 4049SOL     OW23608   2.668   3.059   8.559  0.4631 -0.2657  0.0163
 4049SOL    HW123609   2.581   3.021   8.550  0.0354  0.5990  0.5339
 4049SOL    HW223610   2.682   3.097   8.646  1.7962 -0.1626 -0.2480
 4050SOL     OW23611   0.100   4.379   2.782 -0.2158  0.6086 -0.1335
 4050SOL    HW123612   0.093   4.437   2.858  0.8673 -1.5576  1.6215
 4050SOL    HW223613   0.041   4.305   2.799  3.1636 -1.8588  0.9376
 4051SOL     OW23614   1.276   3.465   8.179 -0.0942  0.0919  1.0093
 4051SOL    HW123615   1.356   3.501   8.216  0.4697  0.5419 -0.6421
 4051SOL    HW223616   1.314   3.436   8.096 -2.4163  3.2288 -1.1505
 4052SOL     OW23617   3.117   0.992  12.961 -0.4494 -0.1195  0.1000
 4052SOL    HW123618   3.096   0.899  12.965 -1.9798  0.2915  1.6025
 4052SOL    HW223619   3.161   1.004  12.876 -0.9510  1.7765  0.1143
 4053SOL     OW23620   2.298   0.456  17.059 -0.4548  0.1649 -0.2043
 4053SOL    HW123621   2.225   0.504  17.097 -1.9021 -1.0625 -1.3715
 4053SOL    HW223622   2.279   0.505  16.979 -1.8282 -0.1848 -0.1013
 4054SOL     OW23623   0.776   3.154   5.538 -0.1340 -0.3308 -0.0163
 4054SOL    HW123624   0.731   3.189   5.461 -0.1830 -4.0249 -1.6710
 4054SOL    HW223625   0.704   3.138   5.599  0.5283 -0.9420  0.6036
 4055SOL     OW23626   1.834   0.207   5.243  0.3916 -0.3071  0.2953
 4055SOL    HW123627   1.910   0.255   5.275 -1.0334  2.2337 -0.1192
 4055SOL    HW223628   1.814   0.155   5.320  2.4683  0.4247  1.3336
 4056SOL     OW23629   3.403   2.127  16.997  0.3033 -0.7337  0.5912
 4056SOL    HW123630   3.349   2.206  17.001 -0.1787 -1.0246 -0.3049
 4056SOL    HW223631   3.474   2.160  16.942 -1.3135 -1.7913 -2.0978
 4057SOL     OW23632   3.084   4.419   9.550 -0.2654  0.3627 -0.0901
 4057SOL    HW123633   3.087   4.350   9.484  0.6708 -1.5766  1.9637
 4057SOL    HW223634   3.035   4.482   9.496 -1.9714 -0.4807  0.4673
 4058SOL     OW23635   1.670   2.406   2.320  0.0364 -0.3787  0.3626
 4058SOL    HW123636   1.655   2.462   2.397  0.1840  0.8761 -0.5166
 4058SOL    HW223637   1.611   2.335   2.345  0.1861 -0.7316 -0.2864
 4059SOL     OW23638   1.537   3.932   2.435  1.0529  0.3950  0.3632
 4059SOL    HW123639   1.628   3.956   2.450  0.4125  1.0501  3.2283
 4059SOL    HW223640   1.547   3.874   2.359  0.2007  0.3297  0.3053
 4060SOL     OW23641   1.286   1.259   2.592 -0.2536  0.9965  0.3922
 4060SOL    HW123642   1.244   1.228   2.672  1.4653  0.9591  1.2633
 4060SOL    HW223643   1.377   1.232   2.602 -1.0612 -2.1067 -0.5714
 4061SOL     OW23644   1.504   4.679   9.709 -0.6432 -0.6337  0.4294
 4061SOL    HW123645   1.413   4.662   9.683 -0.4648 -0.3782 -0.3732
 4061SOL    HW223646   1.522   4.596   9.753 -0.6191  0.6466  2.8313
 4062SOL     OW23647   4.451   4.300   2.623  0.6881  0.2811  0.8825
 4062SOL    HW123648   4.472   4.306   2.717 -0.7789  4.3002  0.9536
 4062SOL    HW223649   4.380   4.364   2.627 -0.9745 -1.5234  0.1947
 4063SOL     OW23650   2.853   0.998   5.043 -0.3273 -0.1108  0.2430
 4063SOL    HW123651   2.902   1.047   5.108  0.0563  0.4085 -0.4388
 4063SOL    HW223652   2.911   0.925   5.020  0.5160  1.0545 -1.3455
 4064SOL     OW23653   4.473   3.883   2.627  0.6418 -0.1067  0.0897
 4064SOL    HW123654   4.454   3.968   2.588 -1.3795  0.5093  2.4144
 4064SOL    HW223655   4.414   3.831   2.572  1.7020  0.7902 -1.8971
 4065SOL     OW23656   0.523   1.217   8.931  0.1783  0.2628 -0.0604
 4065SOL    HW123657   0.503   1.267   9.010 -0.1731 -1.4877  0.9772
 4065SOL    HW223658   0.490   1.273   8.861 -1.1589 -1.4319 -0.8115
 4066SOL     OW23659   2.623   4.320  13.823  0.2080 -0.6142 -0.4149
 4066SOL    HW123660   2.553   4.299  13.885  0.3372 -2.7650 -0.9797
 4066SOL    HW223661   2.566   4.363  13.759 -0.4276  0.9241  1.1862
 4067SOL     OW23662   1.147   1.679  15.126  0.2862 -0.1677  0.3210
 4067SOL    HW123663   1.125   1.606  15.069 -1.2604 -0.1814  0.9570
 4067SOL    HW223664   1.217   1.715  15.071  2.0673 -0.0858  2.6354
 4068SOL     OW23665   0.384   2.814  14.980 -0.0440  0.1844 -0.1031
 4068SOL    HW123666   0.324   2.755  14.934  2.6500 -0.7272 -2.4153
 4068SOL    HW223667   0.408   2.763  15.058 -0.6485 -0.2688 -0.2118
 4069SOL     OW23668   1.725   2.872   2.328 -0.0908  0.0511  0.3152
 4069SOL    HW123669   1.719   2.787   2.372 -1.3295  0.1619  0.3496
 4069SOL    HW223670   1.696   2.930   2.398 -2.9656  0.9795 -1.6566
 4070SOL     OW23671   1.624   2.681   2.475  0.1602  0.1330 -0.2286
 4070SOL    HW123672   1.662   2.660   2.560  0.0804 -1.6266 -0.6269
 4070SOL    HW223673   1.556   2.742   2.505  0.3838  1.3650 -2.2176
 4071SOL     OW23674   1.017   4.643   6.663 -0.0623  0.0136  0.4376
 4071SOL    HW123675   0.934   4.609   6.696 -0.0832  0.1033  0.4765
 4071SOL    HW223676   0.989   0.012   6.666  0.8279  0.2351  1.7746
 4072SOL     OW23677   2.204   2.813   3.420  0.1290 -0.0285 -0.3108
 4072SOL    HW123678   2.275   2.867   3.453 -0.4833  1.1718 -0.9444
 4072SOL    HW223679   2.152   2.784   3.495 -0.4649 -1.8493 -1.4145
 4073SOL     OW23680   0.883   1.594  10.065  0.5743  0.6397  0.6705
 4073SOL    HW123681   0.851   1.548   9.988  1.9986  0.5497  0.1312
 4073SOL    HW223682   0.940   1.663  10.029  0.3705 -0.5170 -1.8716
 4074SOL     OW23683   1.015   0.216   7.734 -0.5088  0.2455  0.1336
 4074SOL    HW123684   1.079   0.278   7.768  0.3845 -1.3107  1.2606
 4074SOL    HW223685   0.950   0.204   7.804 -0.7584 -0.8471 -0.2793
 4075SOL     OW23686   0.172   1.521   4.843 -0.2854 -0.4257 -0.2282
 4075SOL    HW123687   0.219   1.440   4.822 -3.1610 -2.7694  2.4797
 4075SOL    HW223688   0.101   1.484   4.895 -0.6512 -2.4303 -2.1518
 4076SOL     OW23689   0.320   2.218  11.792  0.3238  0.0807 -0.3601
 4076SOL    HW123690   0.244   2.236  11.847 -0.0492  1.6489 -1.4076
 4076SOL    HW223691   0.307   2.123  11.787 -0.8131  0.2977 -1.4477
 4077SOL     OW23692   1.956   3.261   9.274 -0.1872  0.8856  0.7760
 4077SOL    HW123693   1.885   3.310   9.233  0.1398 -0.9108 -1.9664
 4077SOL    HW223694   1.948   3.281   9.367  1.0436 -0.9899  1.2872
 4078SOL     OW23695   1.261   2.476  16.019  0.5257  0.3465 -0.2417
 4078SOL    HW123696   1.237   2.568  16.032 -0.2087  0.2427 -0.8139
 4078SOL    HW223697   1.174   2.439  16.004  0.5052 -0.3750  1.7856
 4079SOL     OW23698   3.322   2.982   4.495  0.0033 -0.4619  0.1702
 4079SOL    HW123699   3.382   2.929   4.547  1.2779  0.7425 -0.0927
 4079SOL    HW223700   3.289   3.050   4.553 -2.3057  0.8498 -2.7051
 4080SOL     OW23701   3.641   4.607   4.155  0.0208 -0.2801 -0.0813
 4080SOL    HW123702   3.608   4.655   4.231  0.7695 -1.0901  0.7482
 4080SOL    HW223703   3.701   4.676   4.126 -0.0296 -0.7052 -1.2060
 4081SOL     OW23704   4.328   3.575   9.182 -0.2748 -0.5824  0.3092
 4081SOL    HW123705   4.317   3.494   9.233 -1.3827  0.8372  2.3236
 4081SOL    HW223706   4.335   3.645   9.247  1.3605  0.4834 -1.0279
 4082SOL     OW23707   3.457   0.476   4.044  0.1709  0.5383 -0.1599
 4082SOL    HW123708   3.552   0.484   4.044  0.3761 -1.7863  1.2021
 4082SOL    HW223709   3.462   0.462   3.949  0.9804 -1.5510  0.1758
 4083SOL     OW23710   1.295   1.810   2.587  0.4218  0.5728 -0.5886
 4083SOL    HW123711   1.282   1.760   2.506  1.1189  0.0601 -0.3801
 4083SOL    HW223712   1.330   1.740   2.642  0.9601  0.7097 -0.7523
 4084SOL     OW23713   1.525   1.135   3.258 -0.2835  0.4292  0.1929
 4084SOL    HW123714   1.609   1.130   3.303 -0.4723 -1.0058  0.4081
 4084SOL    HW223715   1.467   1.111   3.330  2.3414 -1.9653  1.5065
 4085SOL     OW23716   2.633   1.902  10.879  0.3768  0.1044 -0.3083
 4085SOL    HW123717   2.705   1.854  10.837  0.4308  1.5352 -1.8434
 4085SOL    HW223718   2.580   1.827  10.904 -1.0742  0.5032 -2.1837
 4086SOL     OW23719   3.487   0.769   2.764  0.1284  0.4508 -0.2950
 4086SOL    HW123720   3.521   0.822   2.837 -0.3168  1.5243 -0.8594
 4086SOL    HW223721   3.489   0.830   2.690  0.9749  0.6433 -0.1119
 4087SOL     OW23722   4.657   3.724   4.348  0.0008  0.1220 -0.5857
 4087SOL    HW123723   4.642   3.663   4.275 -1.4024  0.0663 -0.2475
 4087SOL    HW223724   4.577   3.777   4.349 -0.0843  0.0454 -2.5769
 4088SOL     OW23725   4.434   4.281   6.994 -0.5968 -0.4546 -0.4628
 4088SOL    HW123726   4.489   4.261   6.918 -0.2619 -0.4042 -0.2347
 4088SOL    HW223727   4.346   4.280   6.957 -0.4948  2.9348 -0.7266
 4089SOL     OW23728   0.370   2.461   2.538  0.0375 -0.2673 -0.4104
 4089SOL    HW123729   0.389   2.524   2.469  3.2958  1.7627  2.3241
 4089SOL    HW223730   0.377   2.373   2.501 -2.6910 -0.2859 -0.8889
 4090SOL     OW23731   4.366   3.367   9.641 -0.1123 -0.5369 -0.9162
 4090SOL    HW123732   4.432   3.435   9.654 -1.0592  0.3587 -0.8124
 4090SOL    HW223733   4.350   3.343   9.733 -2.7233 -2.7833 -1.9199
 4091SOL     OW23734   2.859   1.548   6.391  0.5794 -0.8092 -0.1080
 4091SOL    HW123735   2.861   1.552   6.295  1.1783 -1.1446 -0.1080
 4091SOL    HW223736   2.919   1.475   6.405 -2.2869 -2.9047  1.4037
 4092SOL     OW23737   0.182   2.578   2.203 -0.0080 -0.3111 -0.7603
 4092SOL    HW123738   0.206   2.638   2.132 -0.5573  1.4888  0.5655
 4092SOL    HW223739   0.229   2.501   2.172  2.6643  0.8475  0.3961
 4093SOL     OW23740   1.324   3.737  16.955  0.0454  0.4999  0.7409
 4093SOL    HW123741   1.288   3.825  16.944 -1.5796 -0.2803 -0.2926
 4093SOL    HW223742   1.419   3.747  16.954  0.2265 -1.1797  0.2344
 4094SOL     OW23743   0.814   0.737  13.387  0.6878 -0.2141  0.4151
 4094SOL    HW123744   0.865   0.713  13.310 -2.8927  3.0584 -3.0024
 4094SOL    HW223745   0.849   0.820  13.418 -0.7120  0.2029  0.9091
 4095SOL     OW23746   2.253   3.017   4.884 -0.4390  0.0234  0.3762
 4095SOL    HW123747   2.339   2.981   4.867  0.3001 -0.1810  4.4629
 4095SOL    HW223748   2.267   3.101   4.928  0.2985  0.3461 -0.4848
 4096SOL     OW23749   0.694   1.445   4.206  0.5283 -0.2144 -0.5205
 4096SOL    HW123750   0.608   1.488   4.211 -0.5016 -2.3967  0.5438
 4096SOL    HW223751   0.670   1.355   4.226 -0.1370 -0.2050 -1.2361
 4097SOL     OW23752   1.822   1.666   2.949 -0.6887  0.8723  0.1340
 4097SOL    HW123753   1.851   1.658   3.039  0.9694 -0.6220 -0.5295
 4097SOL    HW223754   1.783   1.753   2.953 -1.6296  0.5827 -2.3717
 4098SOL     OW23755   3.586   0.479  17.154  0.4482 -0.3063 -0.2910
 4098SOL    HW123756   3.499   0.440  17.145 -1.0835  3.0647  0.2122
 4098SOL    HW223757   3.584   0.522  17.068 -2.1116 -1.0728 -0.6208
 4099SOL     OW23758   3.586   1.327   2.910  0.4042 -0.2675 -0.5312
 4099SOL    HW123759   3.576   1.422   2.915 -0.1435 -0.2479 -2.0988
 4099SOL    HW223760   3.506   1.283   2.881  0.7306 -1.0776 -0.2064
 4100SOL     OW23761   3.539   1.872   1.413  0.0254 -0.1250  0.1993
 4100SOL    HW123762   3.496   1.808   1.357 -1.0178  1.1971 -0.5023
 4100SOL    HW223763   3.533   1.825   1.496 -1.7791 -1.3578 -0.6500
 4101SOL     OW23764   2.259   3.142   5.472  0.3994 -0.3152 -0.3750
 4101SOL    HW123765   2.209   3.207   5.424  0.8413  0.2357 -0.0843
 4101SOL    HW223766   2.193   3.115   5.535 -0.3858  0.0440 -1.0487
 4102SOL     OW23767   0.632   4.251  16.376 -0.1704 -0.2724 -0.4088
 4102SOL    HW123768   0.627   4.346  16.392 -0.4632  0.0827 -2.5922
 4102SOL    HW223769   0.697   4.228  16.441 -1.3248  1.7964  1.4832
 4103SOL     OW23770   1.287   4.348  15.246  0.0298 -0.7483  0.0712
 4103SOL    HW123771   1.268   4.319  15.335  0.9309 -2.5099 -0.3001
 4103SOL    HW223772   1.381   4.366  15.245  0.1612 -1.4236  0.2793
 4104SOL     OW23773   2.628   4.096   2.288 -0.0876  0.1097  0.3972
 4104SOL    HW123774   2.558   4.057   2.340  0.8766 -0.6180  1.1617
 4104SOL    HW223775   2.603   4.184   2.262 -1.7806 -0.2978  0.6776
 4105SOL     OW23776   3.682   2.784  12.990  0.3215 -0.1326  0.0420
 4105SOL    HW123777   3.647   2.718  12.930 -0.1007  0.2869 -0.1796
 4105SOL    HW223778   3.628   2.862  12.977  0.2412 -0.0105  1.0945
 4106SOL     OW23779   4.290   2.763   6.240 -0.8610  0.1370  0.0422
 4106SOL    HW123780   4.207   2.717   6.251 -1.2197  0.9570  0.8745
 4106SOL    HW223781   4.349   2.688   6.245 -1.1212 -0.0239  0.7496
 4107SOL     OW23782   0.106   2.999   3.923  0.0752  0.4858  0.0684
 4107SOL    HW123783   0.018   2.960   3.928 -0.0075  0.4984 -1.2260
 4107SOL    HW223784   0.152   2.976   4.004 -0.4376  0.7869  0.4499
 4108SOL     OW23785   0.339   2.907   2.846  0.3985  0.4637  0.6052
 4108SOL    HW123786   0.299   2.994   2.851 -0.3161  0.0548  2.1794
 4108SOL    HW223787   0.433   2.921   2.831  0.1580  1.7438  0.2628
 4109SOL     OW23788   1.095   4.182  12.000  0.2852 -1.0546  0.2440
 4109SOL    HW123789   1.128   4.140  12.079 -0.1051 -0.0597  0.9412
 4109SOL    HW223790   1.157   4.153  11.933  2.4651  3.2447  0.3694
 4110SOL     OW23791   0.622   3.010   3.529 -0.0578 -0.1252 -1.0148
 4110SOL    HW123792   0.567   3.058   3.467  0.3238  2.5006  0.6904
 4110SOL    HW223793   0.681   3.084   3.545  1.7925 -1.3739 -2.1374
 4111SOL     OW23794   3.765   2.816   3.178  0.1412  0.4280  1.2561
 4111SOL    HW123795   3.757   2.723   3.196 -1.7140  0.4781  0.7371
 4111SOL    HW223796   3.851   2.815   3.136 -0.9863 -1.9175 -0.9751
 4112SOL     OW23797   0.143   1.868   9.387 -0.4585  0.2505  0.5964
 4112SOL    HW123798   0.072   1.815   9.351  0.9269  0.8286 -3.0175
 4112SOL    HW223799   0.161   1.847   9.479 -3.5359  0.9966  1.3431
 4113SOL     OW23800   2.668   3.235  16.093 -0.1218 -0.0060 -0.7121
 4113SOL    HW123801   2.762   3.222  16.107 -0.6644 -2.3130  0.8803
 4113SOL    HW223802   2.661   3.252  15.999  0.7594 -0.5568 -0.8734
 4114SOL     OW23803   0.302   1.176   5.857  0.1245 -0.6486  0.3467
 4114SOL    HW123804   0.278   1.246   5.797  1.5048 -0.5734 -0.1168
 4114SOL    HW223805   0.282   1.103   5.799 -0.9920 -0.6467  0.7219
 4115SOL     OW23806   3.800   2.337  12.099 -0.4215 -0.2390 -0.3703
 4115SOL    HW123807   3.705   2.334  12.091 -0.5127  1.8789 -0.1788
 4115SOL    HW223808   3.831   2.332  12.008  1.5671 -1.0482  0.3457
 4116SOL     OW23809   0.405   1.585   8.163 -0.4524 -0.3307 -0.2077
 4116SOL    HW123810   0.331   1.526   8.180  1.0356 -1.9590  0.5069
 4116SOL    HW223811   0.458   1.583   8.242  0.4906 -0.3013 -0.8345
 4117SOL     OW23812   1.605   2.590  12.682 -0.3530 -0.1589  0.4053
 4117SOL    HW123813   1.683   2.594  12.737 -0.9015  2.1482  1.0359
 4117SOL    HW223814   1.621   2.657  12.615  0.2199  0.2105  0.9115
 4118SOL     OW23815   2.033   3.479   5.098 -0.0154  0.2943 -0.2284
 4118SOL    HW123816   2.045   3.560   5.148 -0.3451  0.7400 -0.8714
 4118SOL    HW223817   2.054   3.505   5.009 -0.3886  2.3174  0.2757
 4119SOL     OW23818   3.591   3.101   1.901  0.2783  0.0244  0.0436
 4119SOL    HW123819   3.500   3.126   1.882  0.3876 -2.0758 -3.3356
 4119SOL    HW223820   3.621   3.123   1.813 -1.5620 -1.4735 -0.9654
 4120SOL     OW23821   4.192   2.415   1.328  0.3148  0.7044 -0.5668
 4120SOL    HW123822   4.175   2.391   1.238 -0.8706 -0.7997  0.0690
 4120SOL    HW223823   4.230   2.503   1.316  1.1824  0.4010 -0.0353
 4121SOL     OW23824   3.604   4.268   6.609 -0.0016  0.0680  0.3600
 4121SOL    HW123825   3.620   4.340   6.671 -0.0262 -0.0832  0.5435
 4121SOL    HW223826   3.692   4.267   6.573 -0.8365 -0.0363 -1.6631
 4122SOL     OW23827   4.206   3.258   1.578 -0.2839  0.1419  0.4876
 4122SOL    HW123828   4.159   3.341   1.572 -3.2062 -1.5644  0.0115
 4122SOL    HW223829   4.178   3.231   1.490  1.2718  2.7318 -0.8128
 4123SOL     OW23830   0.716   1.447   9.889 -0.2918  0.1791 -0.2204
 4123SOL    HW123831   0.632   1.440   9.935 -0.4383  1.4088 -0.3090
 4123SOL    HW223832   0.698   1.367   9.840  0.3819 -0.9216  1.3197
 4124SOL     OW23833   3.820   3.862   9.506 -0.4454 -0.6285 -0.5380
 4124SOL    HW123834   3.771   3.911   9.572 -1.5993 -3.5315  0.7856
 4124SOL    HW223835   3.794   3.771   9.518 -0.6009 -0.4761  0.2534
 4125SOL     OW23836   2.349   1.348   6.962 -0.2825 -0.0643  0.1232
 4125SOL    HW123837   2.347   1.442   6.942  0.8763  0.2949  1.7370
 4125SOL    HW223838   2.436   1.322   6.934 -1.2573 -2.3644 -0.7384
 4126SOL     OW23839   4.315   3.623  17.297  0.4701 -0.2333  0.3178
 4126SOL    HW123840   4.254   3.569  17.247 -2.5340  3.6205 -0.0948
 4126SOL    HW223841   4.365   3.643  17.218  0.0002 -0.6127 -0.0753
 4127SOL     OW23842   3.120   0.483   8.200  0.1383  0.1384 -0.1200
 4127SOL    HW123843   3.122   0.557   8.261 -2.0619 -0.3138  0.5032
 4127SOL    HW223844   3.150   0.416   8.263  3.1086  1.2053 -0.3850
 4128SOL     OW23845   1.469   4.297   3.579  0.0710 -0.2701 -0.2988
 4128SOL    HW123846   1.376   4.298   3.555  0.0137 -1.4542 -0.1273
 4128SOL    HW223847   1.475   4.225   3.641  1.3341 -0.9041 -1.1623
 4129SOL     OW23848   0.342   1.019   7.674 -0.3127 -0.0691  0.3720
 4129SOL    HW123849   0.407   0.996   7.608  0.8330  0.8934  1.1725
 4129SOL    HW223850   0.357   0.946   7.734 -0.4003 -0.7167 -0.3875
 4130SOL     OW23851   3.898   4.121   3.873 -0.9448  0.0425 -0.2076
 4130SOL    HW123852   3.893   4.072   3.791 -1.5523 -0.1503 -0.0537
 4130SOL    HW223853   3.807   4.150   3.876 -1.1506 -0.7371  0.9588
 4131SOL     OW23854   1.737   3.537   2.232  0.3071  0.5316  0.8488
 4131SOL    HW123855   1.810   3.579   2.187  0.1820 -0.2210 -0.0532
 4131SOL    HW223856   1.671   3.603   2.212  0.0732  0.2748  0.7642
 4132SOL     OW23857   1.294   0.221  12.564  0.2176  0.0263 -0.2449
 4132SOL    HW123858   1.315   0.314  12.554 -3.2794  1.0862  2.1809
 4132SOL    HW223859   1.287   0.214  12.659 -0.1838  1.7537 -0.1419
 4133SOL     OW23860   2.151   1.471   6.118 -0.1851 -0.1937  0.2895
 4133SOL    HW123861   2.128   1.448   6.028  0.7132  0.3490 -0.0762
 4133SOL    HW223862   2.218   1.539   6.108 -2.0438  1.5881 -0.2138
 4134SOL     OW23863   0.255   2.911   6.771  0.4282 -0.0773 -0.4356
 4134SOL    HW123864   0.287   2.867   6.850  2.6228  0.4199 -1.0288
 4134SOL    HW223865   0.181   2.853   6.755  0.0739  0.8511 -2.2156
 4135SOL     OW23866   2.746   2.336   2.659 -0.1735  0.2435 -0.3658
 4135SOL    HW123867   2.829   2.331   2.612 -0.8271  0.8619 -1.6080
 4135SOL    HW223868   2.724   2.242   2.664 -0.1697  0.2810  0.2973
 4136SOL     OW23869   0.189   2.294   4.415 -0.1549  0.1937  0.1154
 4136SOL    HW123870   0.103   2.280   4.377  0.4439 -3.7497  0.2103
 4136SOL    HW223871   0.220   2.369   4.365  0.3925  1.0769  1.7701
 4137SOL     OW23872   4.324   0.923   4.072 -0.0749  0.7534  0.2436
 4137SOL    HW123873   4.243   0.916   4.021 -0.3379  0.1375  0.7380
 4137SOL    HW223874   4.298   0.937   4.164  0.4838 -0.2213  0.5461
 4138SOL     OW23875   1.845   0.653   7.898 -0.5685 -0.4480  0.3532
 4138SOL    HW123876   1.855   0.577   7.841  1.5727 -2.3129  3.2378
 4138SOL    HW223877   1.910   0.635   7.965  0.4859  0.4281 -0.4497
 4139SOL     OW23878   3.829   4.138  12.795  0.3272  0.2537  0.2305
 4139SOL    HW123879   3.788   4.110  12.876  0.0747  1.2331  0.4325
 4139SOL    HW223880   3.765   4.196  12.754  0.6117  0.9327  0.7365
 4140SOL     OW23881   1.259   1.527   2.983 -0.3952 -0.4621 -0.0288
 4140SOL    HW123882   1.277   1.437   2.956  2.3112  0.3483 -0.9826
 4140SOL    HW223883   1.326   1.544   3.050  0.5697 -2.3078 -0.5419
 4141SOL     OW23884   0.793   2.726   0.344  0.7055  0.1892 -0.3852
 4141SOL    HW123885   0.750   2.647   0.312 -1.1677  0.6898  0.9075
 4141SOL    HW223886   0.819   2.695   0.431  1.0618 -0.2552 -0.6474
 4142SOL     OW23887   4.062   3.857   6.598  0.1204 -0.0349 -0.1630
 4142SOL    HW123888   4.050   3.811   6.514  0.1482 -0.5287  0.1008
 4142SOL    HW223889   3.969   3.876   6.611 -0.2260 -0.8189 -1.4269
 4143SOL     OW23890   1.329   0.833   6.994 -0.1616 -0.6565 -0.0821
 4143SOL    HW123891   1.323   0.926   7.014 -0.2032 -0.8534  0.8278
 4143SOL    HW223892   1.352   0.783   7.072  1.1540 -0.1954 -0.1852
 4144SOL     OW23893   3.100   3.751   6.086  0.0909 -0.2676  0.3288
 4144SOL    HW123894   3.122   3.726   6.176  2.1307  1.2635  0.2602
 4144SOL    HW223895   3.156   3.698   6.030  0.3395  2.8155 -2.3320
 4145SOL     OW23896   0.429   2.632   6.754  0.1893 -0.0649  0.4363
 4145SOL    HW123897   0.444   2.618   6.848  0.8903  0.0404  0.3358
 4145SOL    HW223898   0.344   2.588   6.754  1.1230 -1.8931  0.9958
 4146SOL     OW23899   0.284   0.004   6.453  0.1709 -0.0028 -0.4879
 4146SOL    HW123900   0.354   4.713   6.517  0.3340 -0.4972 -0.7613
 4146SOL    HW223901   0.244   4.639   6.456  1.8562 -0.7528  0.4235
 4147SOL     OW23902   1.686   3.643   5.968  0.1859 -0.0441  0.0751
 4147SOL    HW123903   1.726   3.717   6.012 -2.3104  1.1894  0.2965
 4147SOL    HW223904   1.593   3.654   5.990 -0.3975 -1.6415 -1.5379
 4148SOL     OW23905   4.286   2.579   2.551 -0.4220  0.1037  0.3175
 4148SOL    HW123906   4.280   2.639   2.625  0.6016 -0.6019  0.9746
 4148SOL    HW223907   4.381   2.572   2.542 -0.3398  2.4329 -0.5651
 4149SOL     OW23908   1.853   0.582   6.758  0.1207  0.0940  0.2114
 4149SOL    HW123909   1.837   0.646   6.827  2.5769  2.8514 -1.7739
 4149SOL    HW223910   1.948   0.573   6.773  0.0870  0.9381  0.8997
 4150SOL     OW23911   1.142   4.608   4.173 -0.2313  0.0744 -0.2346
 4150SOL    HW123912   1.074   4.643   4.115 -0.3135 -0.5815 -0.5284
 4150SOL    HW223913   1.086   4.548   4.222  0.4157 -0.4580 -0.1397
 4151SOL     OW23914   3.532   1.068   8.465  0.4104 -0.0641 -0.2596
 4151SOL    HW123915   3.490   1.002   8.410 -0.4510 -0.2083  0.5709
 4151SOL    HW223916   3.573   1.117   8.394  2.0274 -0.7023  0.2322
 4152SOL     OW23917   0.057   3.558  11.267  0.0688  0.0854  0.5893
 4152SOL    HW123918   4.719   3.620  11.308 -0.1500 -0.4399  1.0602
 4152SOL    HW223919   0.069   3.610  11.187 -0.6218 -2.0553 -0.9263
 4153SOL     OW23920   2.030   2.606   5.049  0.0291 -0.0085 -0.3378
 4153SOL    HW123921   1.947   2.630   5.008  0.8691  1.7489 -0.9882
 4153SOL    HW223922   2.060   2.689   5.087  0.9366 -0.9653  1.0456
 4154SOL     OW23923   1.017   3.210   8.825 -0.7185  0.0112  0.3682
 4154SOL    HW123924   0.935   3.194   8.872 -1.1581  1.7783  0.2093
 4154SOL    HW223925   0.986   3.179   8.739  2.1370 -0.2634 -0.5607
 4155SOL     OW23926   2.851   1.759  10.178  0.1064  0.6057 -0.0551
 4155SOL    HW123927   2.918   1.817  10.141 -0.2505  2.3120  1.9523
 4155SOL    HW223928   2.790   1.759  10.104 -0.6225 -1.7881  0.5391
 4156SOL     OW23929   2.533   3.301  16.533  0.7870 -0.2807  0.2124
 4156SOL    HW123930   2.512   3.208  16.540  2.8233 -0.7938 -0.3398
 4156SOL    HW223931   2.590   3.308  16.610  0.8949 -2.1399  0.3178
 4157SOL     OW23932   3.914   3.213   2.173  0.6277 -0.0041  1.1572
 4157SOL    HW123933   3.882   3.283   2.117  0.7809 -0.1810  0.8476
 4157SOL    HW223934   3.860   3.222   2.252 -0.4807 -1.9789  0.6260
 4158SOL     OW23935   4.519   3.958  16.119 -0.3557 -0.0668  0.0951
 4158SOL    HW123936   4.549   3.869  16.096 -1.2115 -0.1309 -0.7504
 4158SOL    HW223937   4.532   4.003  16.036 -0.7575 -1.7231 -0.8630
 4159SOL     OW23938   0.860   4.408   3.840  0.4710 -0.6694  0.2905
 4159SOL    HW123939   0.783   4.357   3.815 -0.9436  0.9702  1.3125
 4159SOL    HW223940   0.881   4.385   3.931 -0.1303  0.3137  0.6707
 4160SOL     OW23941   4.697   1.311  14.136  0.4217  0.1828 -0.1956
 4160SOL    HW123942   4.621   1.255  14.118  0.7472  0.3414 -2.0116
 4160SOL    HW223943   4.672   1.403  14.136  1.5101  0.4752 -1.1346
 4161SOL     OW23944   0.894   3.767   4.648 -0.0021 -0.4207 -0.3338
 4161SOL    HW123945   0.875   3.679   4.681  1.0305 -0.5448 -0.0776
 4161SOL    HW223946   0.815   3.813   4.677  0.2364  0.6828 -1.4017
 4162SOL     OW23947   0.176   1.035  16.325  0.2917  1.0775  0.1288
 4162SOL    HW123948   0.163   1.049  16.419 -1.6526 -1.2247  0.2105
 4162SOL    HW223949   0.271   1.032  16.316  0.4812 -0.0032  2.3293
 4163SOL     OW23950   3.583   4.356  17.098  0.7154 -0.3982 -0.5902
 4163SOL    HW123951   3.670   4.379  17.065  1.4959 -2.4221  0.0801
 4163SOL    HW223952   3.539   4.315  17.023  0.0045  1.3585 -1.1414
 4164SOL     OW23953   2.828   2.158   4.177 -0.9633 -0.2957 -0.7227
 4164SOL    HW123954   2.860   2.228   4.120  0.8371 -0.3342  0.2559
 4164SOL    HW223955   2.838   2.083   4.118  3.2390  0.5354 -1.0738
 4165SOL     OW23956   1.955   4.203   5.793  0.0471 -0.3078  0.6074
 4165SOL    HW123957   1.904   4.169   5.866 -1.0908 -0.8806 -0.4575
 4165SOL    HW223958   1.949   4.297   5.806 -0.8817 -0.1227 -1.1579
 4166SOL     OW23959   1.993   1.436  16.833 -0.3328 -0.0966  0.4678
 4166SOL    HW123960   2.036   1.462  16.915 -1.0694  0.4922  0.6686
 4166SOL    HW223961   2.064   1.429  16.769 -0.5169 -1.3092  0.4019
 4167SOL     OW23962   0.482   1.488  15.974 -0.0452  0.1658  0.0032
 4167SOL    HW123963   0.491   1.502  16.068 -1.3410  1.1252 -0.0219
 4167SOL    HW223964   0.573   1.511  15.960 -0.1077  0.8374  0.6877
 4168SOL     OW23965   2.402   4.507   7.241 -0.3882  0.0259 -0.0839
 4168SOL    HW123966   2.391   4.599   7.216 -0.3872  0.8671  2.9719
 4168SOL    HW223967   2.365   4.455   7.169 -0.5770  0.1944 -0.1096
 4169SOL     OW23968   2.181   4.245   4.931  0.1463 -0.3214 -0.3130
 4169SOL    HW123969   2.101   4.232   4.879 -0.6149  2.4773  0.1914
 4169SOL    HW223970   2.231   4.167   4.906 -1.2158 -1.4238  0.3555
 4170SOL     OW23971   2.252   0.294   5.869 -0.0981 -0.1567 -0.1540
 4170SOL    HW123972   2.220   0.245   5.793  1.2382  0.2851 -1.0053
 4170SOL    HW223973   2.204   0.255   5.942 -0.1588 -3.0457 -1.7337
 4171SOL     OW23974   4.473   4.712   3.121 -0.2070  0.0728  0.0986
 4171SOL    HW123975   4.549   4.681   3.169 -0.8358 -0.4004  0.7956
 4171SOL    HW223976   4.451   0.068   3.172 -0.4150  0.9482 -1.3330
 4172SOL     OW23977   0.913   4.681   5.351  0.0737  0.1887  0.0672
 4172SOL    HW123978   0.834   4.642   5.387  0.5440 -2.1250 -1.4156
 4172SOL    HW223979   0.981   4.614   5.357  0.7784  1.0781  2.1242
 4173SOL     OW23980   2.926   3.882  15.360 -0.3012  0.0574 -0.0147
 4173SOL    HW123981   2.919   3.977  15.348  0.4425 -0.0851 -1.6093
 4173SOL    HW223982   2.899   3.869  15.451 -1.6545  0.7303 -0.3248
 4174SOL     OW23983   1.455   0.221  14.950  0.1779 -0.0629 -0.0289
 4174SOL    HW123984   1.533   0.226  14.895  0.7768 -2.3383  0.5986
 4174SOL    HW223985   1.420   0.138  14.917  0.1107 -0.2598  0.5302
 4175SOL     OW23986   1.564   4.001   5.857  0.0000  0.3188 -0.6389
 4175SOL    HW123987   1.578   3.936   5.789 -0.8076 -0.5011 -0.0241
 4175SOL    HW223988   1.497   4.064   5.831 -0.4758 -0.4022 -1.1481
 4176SOL     OW23989   2.735   1.442   0.092 -0.3625  0.1732 -0.0402
 4176SOL    HW123990   2.722   1.491   0.011  1.4927 -0.4619 -0.7331
 4176SOL    HW223991   2.644   1.418   0.108 -0.7230  0.9793 -0.8858
 4177SOL     OW23992   0.207   3.012  11.756 -0.5339 -0.1070  0.3633
 4177SOL    HW123993   0.261   3.055  11.690 -3.2906 -1.7699 -2.9850
 4177SOL    HW223994   0.154   2.961  11.695  0.7730 -1.3212  0.2607
 4178SOL     OW23995   1.935   3.061   8.112 -0.0799 -0.1594  0.6370
 4178SOL    HW123996   1.889   3.145   8.116  0.5157  0.1033  1.8664
 4178SOL    HW223997   1.945   3.034   8.203 -0.5389 -1.1353  0.3957
 4179SOL     OW23998   4.346   4.572   3.745 -0.3442  0.2605 -0.2732
 4179SOL    HW123999   4.429   4.601   3.782 -0.7145 -0.0910  0.8415
 4179SOL    HW224000   4.372   4.480   3.734  0.0203  0.1251  1.8516
 4180SOL     OW24001   0.043   2.209   0.974  0.0381  0.2178  0.1900
 4180SOL    HW124002   0.011   2.185   0.887  0.9185 -1.1112  0.2331
 4180SOL    HW224003   4.689   2.215   1.031 -0.5321 -0.7478 -0.4765
 4181SOL     OW24004   1.770   1.364  13.589  0.2352 -0.0445  0.1839
 4181SOL    HW124005   1.827   1.375  13.665 -0.8978  0.4877  0.9531
 4181SOL    HW224006   1.768   1.453  13.553  1.4289 -1.7319 -4.0068
 4182SOL     OW24007   3.478   1.535   7.192 -0.1230  0.1578  0.4942
 4182SOL    HW124008   3.397   1.553   7.239 -0.9692 -0.5731 -0.6836
 4182SOL    HW224009   3.477   1.441   7.171 -1.0898  0.4154 -0.6157
 4183SOL     OW24010   4.243   0.845   7.543  0.0485  0.5345  0.2586
 4183SOL    HW124011   4.262   0.818   7.632  0.2861  0.7522  0.2750
 4183SOL    HW224012   4.323   0.891   7.516 -0.7303  1.6528 -0.1220
 4184SOL     OW24013   2.420   0.841  15.319 -0.2384 -0.5478 -1.0251
 4184SOL    HW124014   2.448   0.893  15.394 -0.8941  0.1975 -1.2952
 4184SOL    HW224015   2.366   0.781  15.371 -0.1643 -0.8997 -1.3534
 4185SOL     OW24016   4.234   2.009   0.391  0.0144  0.1337 -0.2174
 4185SOL    HW124017   4.215   2.099   0.416 -1.2692  0.0687 -0.9462
 4185SOL    HW224018   4.321   2.014   0.351  0.1412 -2.2425 -0.2384
 4186SOL     OW24019   0.678   3.649  15.273  0.5045  0.1900 -0.2972
 4186SOL    HW124020   0.584   3.638  15.257  0.6701  0.6385 -1.5738
 4186SOL    HW224021   0.717   3.620  15.191  1.2670 -0.3926  0.2652
 4187SOL     OW24022   3.105   3.813   5.096 -0.5606 -0.3375 -0.2977
 4187SOL    HW124023   3.061   3.746   5.147  0.0617  0.5721  1.4367
 4187SOL    HW224024   3.107   3.761   5.016  1.6640 -1.4876  0.4882
 4188SOL     OW24025   0.078   1.880   2.326 -0.1125 -0.7192  0.3686
 4188SOL    HW124026   0.039   1.929   2.253  1.8199 -0.3061 -0.3815
 4188SOL    HW224027   0.111   1.802   2.282 -1.2260  0.1746 -2.0552
 4189SOL     OW24028   4.265   0.479   4.806  0.1628 -0.7684 -0.5083
 4189SOL    HW124029   4.320   0.425   4.749  0.1357 -1.2514 -0.0861
 4189SOL    HW224030   4.252   0.560   4.758 -1.7025 -2.1169 -2.2813
 4190SOL     OW24031   2.281   3.558   1.004  0.0253  0.3784 -0.1348
 4190SOL    HW124032   2.287   3.544   0.909 -2.0938 -0.5452 -0.1354
 4190SOL    HW224033   2.245   3.647   1.001 -1.9718 -0.4349 -0.8505
 4191SOL     OW24034   2.524   4.247   4.716  0.6433 -0.4130  0.0243
 4191SOL    HW124035   2.618   4.234   4.727  0.9704  2.0495  0.2620
 4191SOL    HW224036   2.489   4.186   4.782  0.4332 -1.5667 -1.1563
 4192SOL     OW24037   4.596   2.369   5.622  0.0649 -0.4687  0.2798
 4192SOL    HW124038   4.661   2.436   5.600 -1.0778  0.3748 -0.5214
 4192SOL    HW224039   4.644   2.294   5.586  1.0703 -0.5065  1.6997
 4193SOL     OW24040   0.736   3.505   7.715 -0.1361 -0.1981 -0.2757
 4193SOL    HW124041   0.653   3.463   7.736 -0.0599 -0.2801 -0.1354
 4193SOL    HW224042   0.749   3.549   7.800 -3.1537  0.7744 -0.3084
 4194SOL     OW24043   2.205   3.111  17.560  0.2971  0.2625 -0.3304
 4194SOL    HW124044   2.164   3.066  17.634 -1.8920 -0.2106 -1.8469
 4194SOL    HW224045   2.252   3.038  17.518 -0.2404 -1.9014  2.8139
 4195SOL     OW24046   3.285   2.520  15.398  0.2080  0.2415  0.3074
 4195SOL    HW124047   3.298   2.482  15.485  2.6605 -0.0355 -0.1963
 4195SOL    HW224048   3.374   2.525  15.365  0.6096 -1.0000  1.1946
 4196SOL     OW24049   4.004   3.109   8.979 -0.3797  0.0398 -0.2602
 4196SOL    HW124050   4.091   3.147   8.970  0.0058 -0.7989 -0.0270
 4196SOL    HW224051   4.034   3.021   8.957 -0.2893 -0.2276  0.9399
 4197SOL     OW24052   0.542   2.304  12.908  0.5425 -0.1802 -0.2757
 4197SOL    HW124053   0.630   2.328  12.878  0.9717 -0.0671  1.0940
 4197SOL    HW224054   0.521   2.375  12.969 -2.4208 -1.7967  0.5834
 4198SOL     OW24055   4.062   4.520  15.881 -0.4658  0.3683  0.4363
 4198SOL    HW124056   4.132   4.501  15.819 -1.7824  1.2910 -1.3317
 4198SOL    HW224057   4.097   4.495  15.967  2.0979 -1.9183 -1.2834
 4199SOL     OW24058   3.073   1.418   5.871  0.6845 -0.4076 -0.0292
 4199SOL    HW124059   3.045   1.509   5.874  0.0941 -0.5726 -0.5542
 4199SOL    HW224060   3.010   1.384   5.935 -0.6256  2.9038  0.4501
 4200SOL     OW24061   1.999   2.303   0.719  0.2763 -0.2029  0.0491
 4200SOL    HW124062   2.034   2.266   0.638 -1.3254 -1.3301 -0.1336
 4200SOL    HW224063   1.946   2.370   0.678 -0.3645  0.8271  2.5607
 4201SOL     OW24064   4.503   0.811  13.785  0.2491  0.3109  0.0142
 4201SOL    HW124065   4.524   0.759  13.708  1.1366  0.8649 -0.1152
 4201SOL    HW224066   4.408   0.805  13.780  0.3361 -1.7490  0.5914
 4202SOL     OW24067   1.782   1.261   8.433  0.2474  0.1374  0.3780
 4202SOL    HW124068   1.843   1.260   8.506 -1.7209 -0.5175  2.0045
 4202SOL    HW224069   1.812   1.335   8.379 -1.9749 -0.8073 -2.1780
 4203SOL     OW24070   1.191   3.067   2.725  0.4164  0.0443  0.1515
 4203SOL    HW124071   1.279   3.106   2.723 -0.1742  1.5349  2.6020
 4203SOL    HW224072   1.207   2.992   2.782 -0.2852  1.1305  1.7884
 4204SOL     OW24073   0.537   4.303   9.280 -0.1705  0.6419  0.0196
 4204SOL    HW124074   0.550   4.388   9.321 -0.3202  0.7371 -0.1267
 4204SOL    HW224075   0.504   4.252   9.354 -0.5550 -0.2043 -0.7398
 4205SOL     OW24076   3.585   2.563  15.288 -0.4837  0.4550  0.3294
 4205SOL    HW124077   3.601   2.526  15.201 -0.7336  1.9124 -0.3399
 4205SOL    HW224078   3.673   2.599  15.299  0.0329 -0.0142 -2.1834
 4206SOL     OW24079   0.512   0.391  11.805 -0.1337  0.0186  0.1245
 4206SOL    HW124080   0.425   0.430  11.796 -0.3395 -0.3051  0.6771
 4206SOL    HW224081   0.510   0.397  11.901 -0.8272 -0.6169  0.1468
 4207SOL     OW24082   4.504   2.749   5.592  0.2620 -0.6097 -0.1167
 4207SOL    HW124083   4.495   2.736   5.498  0.1379  1.9991 -0.4691
 4207SOL    HW224084   4.552   2.829   5.611 -1.1791 -0.1127  1.5251
 4208SOL     OW24085   1.168   3.639   2.480 -0.3126  0.3459 -0.2590
 4208SOL    HW124086   1.256   3.640   2.519 -1.1407 -1.5640  1.7021
 4208SOL    HW224087   1.202   3.630   2.391 -1.4343 -3.9076 -0.2519
 4209SOL     OW24088   3.575   0.334  14.235 -0.3774 -0.1051  0.2298
 4209SOL    HW124089   3.520   0.352  14.310 -0.5333 -0.8625  0.3049
 4209SOL    HW224090   3.583   0.239  14.249 -0.3727 -0.4691 -2.2073
 4210SOL     OW24091   3.353   4.072   6.976 -0.3668  0.1932 -0.3030
 4210SOL    HW124092   3.325   4.032   7.058 -2.2310 -1.8561 -1.9414
 4210SOL    HW224093   3.294   4.147   6.966  0.3991  0.9223  0.5673
 4211SOL     OW24094   3.769   0.072   3.810  0.3930 -0.4651 -0.1957
 4211SOL    HW124095   3.829   0.016   3.859 -0.3945 -1.7552 -0.7121
 4211SOL    HW224096   3.802   0.069   3.721 -1.4797 -0.9522 -0.8800
 4212SOL     OW24097   0.518   0.003   5.314  0.0473 -0.5387  0.5448
 4212SOL    HW124098   0.499   4.693   5.403 -0.9432  0.3317  0.6522
 4212SOL    HW224099   0.481   4.647   5.273  2.2466 -1.5604  0.5341
 4213SOL     OW24100   3.277   4.713   8.361  0.4914  0.0362 -0.3014
 4213SOL    HW124101   3.236   4.633   8.393  1.4950 -1.0504 -1.7584
 4213SOL    HW224102   3.255   4.695   8.270 -0.3265 -0.3105 -0.0378
 4214SOL     OW24103   1.651   1.984   8.528  0.4522  0.3687 -0.0548
 4214SOL    HW124104   1.725   2.033   8.564  0.8125  0.1310 -0.4760
 4214SOL    HW224105   1.584   2.032   8.577  0.2703  0.5185 -0.4547
 4215SOL     OW24106   3.335   2.828   5.437 -0.6929 -0.2992  0.0891
 4215SOL    HW124107   3.392   2.753   5.451  1.0728  1.1190  0.6066
 4215SOL    HW224108   3.285   2.831   5.518  0.4153  0.4266  0.7545
 4216SOL     OW24109   0.813   3.190   4.874 -0.0277 -0.4130 -0.0725
 4216SOL    HW124110   0.728   3.231   4.855  0.7019  1.7435  1.3693
 4216SOL    HW224111   0.848   3.240   4.947 -0.0620 -1.0753  0.3997
 4217SOL     OW24112   0.495   4.719   6.630 -0.8011 -0.2137  0.5855
 4217SOL    HW124113   0.433   4.707   6.702 -0.1664 -2.5622  0.7515
 4217SOL    HW224114   0.573   0.025   6.677 -0.5788  1.2291 -0.6291
 4218SOL     OW24115   3.631   1.509   5.942 -0.4675 -0.0941 -0.3818
 4218SOL    HW124116   3.658   1.427   5.902 -0.5147 -0.1882 -0.2190
 4218SOL    HW224117   3.622   1.487   6.035  2.5879  1.4455  0.2589
 4219SOL     OW24118   2.211   1.200   4.102 -0.6512  0.4808  0.6753
 4219SOL    HW124119   2.120   1.169   4.104 -0.6430  0.5377  1.7802
 4219SOL    HW224120   2.223   1.210   4.008 -2.4716  0.0610  0.4117
 4220SOL     OW24121   0.982   0.875   5.865 -0.2274 -0.2148  0.0153
 4220SOL    HW124122   0.942   0.798   5.905  0.5085 -0.8135 -0.3968
 4220SOL    HW224123   0.952   0.933   5.935 -0.8092 -0.6547  0.1326
 4221SOL     OW24124   1.710   0.331   4.806 -0.3241  0.4194  0.4685
 4221SOL    HW124125   1.631   0.318   4.753  0.9169 -0.6566 -1.1221
 4221SOL    HW224126   1.665   0.328   4.890 -2.7450 -0.0512 -0.8291
 4222SOL     OW24127   4.296   4.487   3.112  0.2448  0.2493  0.0336
 4222SOL    HW124128   4.363   4.515   3.174 -0.2548 -0.5958  0.9620
 4222SOL    HW224129   4.289   4.570   3.065  1.9697  1.2837  1.6162
 4223SOL     OW24130   0.943   0.352   8.333 -0.5876 -0.1667  0.2843
 4223SOL    HW124131   1.025   0.361   8.285 -0.6570 -0.6462  0.0783
 4223SOL    HW224132   0.935   0.432   8.386  2.5485  1.0496 -1.0821
 4224SOL     OW24133   0.463   0.773   5.657 -0.5305 -0.1300 -0.0738
 4224SOL    HW124134   0.464   0.732   5.744 -1.1553  0.9769  0.4510
 4224SOL    HW224135   0.440   0.696   5.604 -1.8244  0.2987 -0.1383
 4225SOL     OW24136   1.835   2.053   4.714 -0.1498 -0.2788 -0.4085
 4225SOL    HW124137   1.791   1.968   4.720 -1.6644  0.5998  0.8024
 4225SOL    HW224138   1.815   2.079   4.624  0.7278  0.2121 -0.4583
 4226SOL     OW24139   3.464   3.894  11.530 -0.0774  0.2519 -0.1205
 4226SOL    HW124140   3.552   3.877  11.497  0.4812  1.8323  0.5532
 4226SOL    HW224141   3.480   3.986  11.555 -3.2250  1.3531 -2.1959
 4227SOL     OW24142   0.237   3.735   3.595 -0.3997  0.3316  0.0614
 4227SOL    HW124143   0.313   3.694   3.636 -2.1233 -2.1713  0.7940
 4227SOL    HW224144   0.167   3.702   3.652  0.5839  0.7283  1.5032
 4228SOL     OW24145   3.216   2.398  14.624 -0.3109 -0.3563 -0.3280
 4228SOL    HW124146   3.132   2.360  14.598  1.0123 -3.3744 -0.1237
 4228SOL    HW224147   3.204   2.366  14.713 -0.4926 -1.0582 -0.6016
 4229SOL     OW24148   1.460   2.414   4.020 -0.5853  0.2188 -0.0131
 4229SOL    HW124149   1.470   2.504   4.051 -1.0815  0.0711  0.5891
 4229SOL    HW224150   1.524   2.412   3.949  0.7280  0.4788  1.1598
 4230SOL     OW24151   2.348   2.034   5.284  0.0996  0.0388  0.3809
 4230SOL    HW124152   2.257   2.025   5.309  0.7160 -1.1163  2.2070
 4230SOL    HW224153   2.343   2.053   5.191  0.1380 -2.2182 -0.0711
 4231SOL     OW24154   1.502   0.609   3.431 -0.3906  0.4907  0.2408
 4231SOL    HW124155   1.580   0.605   3.487  1.1982  1.3374 -1.9310
 4231SOL    HW224156   1.511   0.696   3.392 -1.8898  2.0080  3.2765
 4232SOL     OW24157   0.463   2.789   2.448 -0.1204  0.1558  0.4354
 4232SOL    HW124158   0.401   2.856   2.477 -0.9769  0.1367 -1.3259
 4232SOL    HW224159   0.545   2.821   2.485  0.9846 -1.0105 -0.9790
 4233SOL     OW24160   2.327   2.521   6.418  0.1347 -0.5217  0.4349
 4233SOL    HW124161   2.367   2.541   6.502  2.2831 -0.0521 -0.6922
 4233SOL    HW224162   2.243   2.565   6.428  0.2798  0.3254 -2.0815
 4234SOL     OW24163   4.123   0.702  15.154  0.0146  0.0032  0.3030
 4234SOL    HW124164   4.122   0.784  15.105  1.2641  1.8524  3.3721
 4234SOL    HW224165   4.099   0.741  15.238  2.2760  1.6409  0.1935
 4235SOL     OW24166   2.165   4.002   0.728  0.0579 -0.3271  0.3502
 4235SOL    HW124167   2.141   4.079   0.779  1.4201 -1.5498  2.8357
 4235SOL    HW224168   2.127   4.031   0.645  1.2970  1.6039  0.4680
 4236SOL     OW24169   3.196   1.918  16.498  0.1646  0.0556 -0.5459
 4236SOL    HW124170   3.145   1.956  16.427 -0.8505  1.3229  0.8655
 4236SOL    HW224171   3.165   1.972  16.571  0.6969 -1.8300  1.0838
 4237SOL     OW24172   2.963   3.046   6.010 -0.3748 -0.0488  0.1002
 4237SOL    HW124173   2.878   3.044   6.054 -1.7864  0.2563 -2.6201
 4237SOL    HW224174   2.987   2.956   6.029  3.4173  0.6516 -1.4162
 4238SOL     OW24175   4.336   3.899   8.001  0.1793  0.2400 -0.1138
 4238SOL    HW124176   4.251   3.929   7.969 -0.6183 -1.2899  0.5862
 4238SOL    HW224177   4.353   3.968   8.065 -1.1928  0.4581  0.0047
 4239SOL     OW24178   0.525   4.712   8.033 -0.2853 -0.3684  0.2888
 4239SOL    HW124179   0.453   0.036   8.076 -0.7301 -0.8310  0.0553
 4239SOL    HW224180   0.592   4.695   8.098 -0.3361 -0.0162  0.4271
 4240SOL     OW24181   3.874   3.239  13.700  0.5039  0.3972 -0.0875
 4240SOL    HW124182   3.853   3.331  13.680 -1.8188  0.1190  1.0334
 4240SOL    HW224183   3.969   3.239  13.686  0.5290  0.3568  0.0929
 4241SOL     OW24184   2.122   2.278   6.608 -0.1411 -0.2127  0.2220
 4241SOL    HW124185   2.082   2.314   6.529  0.6743 -0.6655 -0.3975
 4241SOL    HW224186   2.080   2.192   6.612  1.7480 -1.1473  0.1221
 4242SOL     OW24187   3.084   0.748   7.736  0.2216 -0.3838 -0.3743
 4242SOL    HW124188   3.083   0.832   7.782 -2.8567 -0.9957  0.7216
 4242SOL    HW224189   3.138   0.697   7.796  1.9427  0.5906 -1.1127
 4243SOL     OW24190   1.589   4.684   2.771  0.0104  0.0612  0.3172
 4243SOL    HW124191   1.629   0.040   2.732 -1.4193 -0.9430 -3.1918
 4243SOL    HW224192   1.523   0.001   2.828  1.1265  0.6056  1.2357
 4244SOL     OW24193   4.172   2.567   7.827 -0.0834  0.0841 -0.0904
 4244SOL    HW124194   4.219   2.493   7.790 -1.1584  0.5131 -2.2831
 4244SOL    HW224195   4.095   2.565   7.770 -1.5216  0.8410  1.8163
 4245SOL     OW24196   3.266   4.488   7.884  0.4164  0.0092 -0.3163
 4245SOL    HW124197   3.266   4.577   7.848 -1.2404  0.1261 -0.0202
 4245SOL    HW224198   3.359   4.479   7.908  0.3554  0.9241  0.2446
 4246SOL     OW24199   3.643   1.039   6.962 -0.4713 -0.5071 -0.2908
 4246SOL    HW124200   3.681   0.968   7.014  0.4282  1.1638  1.3341
 4246SOL    HW224201   3.722   1.076   6.923  0.6195 -1.5592  0.9125
 4247SOL     OW24202   4.601   2.142   8.839 -0.7071 -0.7141 -0.0405
 4247SOL    HW124203   4.688   2.154   8.878 -0.1046 -1.4758 -1.1239
 4247SOL    HW224204   4.592   2.049   8.858 -0.0035 -0.7782 -0.0058
 4248SOL     OW24205   2.818   4.533   8.015 -0.1779  0.5649  0.4996
 4248SOL    HW124206   2.792   4.610   7.965  1.3818 -0.0002 -1.1879
 4248SOL    HW224207   2.825   4.568   8.104  0.7837 -1.1997  1.1154
 4249SOL     OW24208   4.528   3.760   8.794  0.4575  0.0090  0.4810
 4249SOL    HW124209   4.557   3.810   8.870 -1.6091 -0.0668  1.3062
 4249SOL    HW224210   4.478   3.688   8.834  1.2741  1.8247  4.8161
 4250SOL     OW24211   0.852   2.314  11.202  0.7386 -0.2304 -1.0183
 4250SOL    HW124212   0.859   2.395  11.151 -1.3926  0.9768  0.6059
 4250SOL    HW224213   0.765   2.323  11.242  1.3597 -0.0953  0.3053
 4251SOL     OW24214   0.871   3.418  12.324  0.2060  0.2938  1.0138
 4251SOL    HW124215   0.801   3.443  12.265  0.7955  0.6370  0.4629
 4251SOL    HW224216   0.862   3.487  12.390  1.0295  2.9125 -1.6382
 4252SOL     OW24217   2.579   2.035   3.537  0.5238 -0.2037  0.2484
 4252SOL    HW124218   2.578   1.970   3.467 -0.6415 -0.5604  0.5930
 4252SOL    HW224219   2.666   2.020   3.573  0.9297  0.5353 -0.4067
 4253SOL     OW24220   2.541   4.604   2.528 -0.2013 -0.3779 -0.7864
 4253SOL    HW124221   2.600   4.529   2.541  0.2780  0.4297  1.6706
 4253SOL    HW224222   2.457   4.566   2.553  0.3184  0.7408  2.5648
 4254SOL     OW24223   2.422   1.035  15.120 -0.1133  0.2119 -0.5816
 4254SOL    HW124224   2.427   0.976  15.196 -1.9016  0.8298  0.0263
 4254SOL    HW224225   2.512   1.046  15.090  0.8069 -0.4829  1.9250
 4255SOL     OW24226   1.179   4.667   5.941 -0.6455 -0.2335 -0.0354
 4255SOL    HW124227   1.109   4.668   6.006 -0.7999 -1.7813 -0.1721
 4255SOL    HW224228   1.133   4.630   5.865  0.4795  1.7915 -1.7039
 4256SOL     OW24229   4.290   2.568   2.830 -0.0696  0.0946 -0.6082
 4256SOL    HW124230   4.383   2.546   2.831 -0.1750 -0.2947  0.6020
 4256SOL    HW224231   4.254   2.486   2.864  0.3303  0.4480  0.6704
 4257SOL     OW24232   0.563   0.155  13.409 -0.4094  0.1349  0.1273
 4257SOL    HW124233   0.470   0.137  13.395  0.0183 -1.2490 -0.9060
 4257SOL    HW224234   0.559   0.185  13.500 -2.2428 -1.8351  0.6803
 4258SOL     OW24235   2.564   3.934   8.591  0.7874 -0.3386 -0.0403
 4258SOL    HW124236   2.638   3.951   8.532 -0.6332  0.9192 -1.4821
 4258SOL    HW224237   2.615   3.904   8.665 -1.0866 -1.4921  0.7821
 4259SOL     OW24238   2.466   2.660   3.179 -0.7272  0.1072  0.0761
 4259SOL    HW124239   2.493   2.663   3.271 -0.4072 -2.9741  0.0848
 4259SOL    HW224240   2.373   2.680   3.190 -0.3786  1.1067  1.3198
 4260SOL     OW24241   1.505   0.022   5.317 -0.6259 -0.3139 -0.0213
 4260SOL    HW124242   1.482   0.110   5.346 -1.7114 -0.5762 -0.0641
 4260SOL    HW224243   1.546   4.707   5.395  1.5686  1.9744 -0.0988
 4261SOL     OW24244   2.792   4.475   2.619 -0.0227 -0.3982  0.4866
 4261SOL    HW124245   2.882   4.445   2.609  0.1024  0.7442 -1.9760
 4261SOL    HW224246   2.772   4.467   2.712 -0.9882  1.2861  0.4335
 4262SOL     OW24247   1.646   3.234   3.387 -0.0732  0.1116  0.4753
 4262SOL    HW124248   1.696   3.202   3.312 -0.6043  0.0054  0.1637
 4262SOL    HW224249   1.666   3.327   3.375  0.3256  0.1430  1.4484
 4263SOL     OW24250   4.684   1.452   7.328  0.1301 -0.4560  0.4321
 4263SOL    HW124251   4.621   1.523   7.342 -1.5397 -1.8952  0.2953
 4263SOL    HW224252   4.706   1.432   7.419 -1.0216  1.3752  1.0971
 4264SOL     OW24253   0.050   4.721   9.965 -0.0437  0.1613 -0.0915
 4264SOL    HW124254   0.077   4.717  10.057  1.6461  0.5397 -0.5689
 4264SOL    HW224255   0.115   4.657   9.935  0.8295  1.6650 -1.3898
 4265SOL     OW24256   4.156   0.061   7.089 -0.2717 -0.0396  0.1338
 4265SOL    HW124257   4.185   0.030   7.004  0.7910 -1.9640  1.2181
 4265SOL    HW224258   4.165   0.155   7.073 -0.1651  0.2084  1.6796
 4266SOL     OW24259   3.053   4.318   4.355  0.0244  0.1484 -0.1178
 4266SOL    HW124260   3.006   4.314   4.438 -1.5138  1.6575 -0.9259
 4266SOL    HW224261   3.144   4.335   4.379 -0.0130  0.8074 -0.4634
 4267SOL     OW24262   0.616   2.616   4.597 -0.3016  0.1580  0.3296
 4267SOL    HW124263   0.593   2.633   4.688  1.5584  2.1588  0.4312
 4267SOL    HW224264   0.678   2.544   4.608 -0.4763  0.4346  3.0266
 4268SOL     OW24265   3.890   4.672   6.125 -0.1337 -0.2268  0.3336
 4268SOL    HW124266   3.826   4.642   6.189  0.2662  1.0318  1.3263
 4268SOL    HW224267   3.973   4.664   6.172 -0.2332 -1.4045  0.3006
 4269SOL     OW24268   3.722   4.302   5.451 -0.7770  0.6238 -0.3496
 4269SOL    HW124269   3.713   4.372   5.516  0.0664 -1.1552  1.6947
 4269SOL    HW224270   3.808   4.334   5.425  0.0363  0.4846  2.1415
 4270SOL     OW24271   2.241   0.383   8.693  0.3694 -0.6089  0.2647
 4270SOL    HW124272   2.177   0.317   8.719 -0.9579  0.0756 -1.2315
 4270SOL    HW224273   2.210   0.394   8.602  0.0207  0.4335  0.5034
 4271SOL     OW24274   2.310   3.065  14.421  0.0305 -0.0682 -0.1415
 4271SOL    HW124275   2.236   3.124  14.437 -0.5125 -0.7589 -0.1413
 4271SOL    HW224276   2.382   3.095  14.477  1.0788 -2.4993 -0.1978
 4272SOL     OW24277   1.960   1.485   4.102 -0.1349 -0.3106  0.2878
 4272SOL    HW124278   1.898   1.473   4.031  0.8117  1.1539 -0.7979
 4272SOL    HW224279   1.929   1.417   4.161 -1.4088  0.0337  0.0017
 4273SOL     OW24280   0.261   3.770   3.149 -0.3779  0.5911  0.0638
 4273SOL    HW124281   0.207   3.823   3.091 -0.6476  0.4755  0.2113
 4273SOL    HW224282   0.190   3.714   3.181 -0.8068  1.8312  1.3036
 4274SOL     OW24283   3.454   2.352   7.031 -0.3541 -0.0125  0.0914
 4274SOL    HW124284   3.438   2.375   7.123 -1.2340 -0.0460 -0.0506
 4274SOL    HW224285   3.375   2.383   6.987  0.7599  0.1724 -1.7728
 4275SOL     OW24286   2.718   1.102   0.900 -0.3461 -0.1143  0.3058
 4275SOL    HW124287   2.716   1.081   0.806 -0.9251 -1.7904  0.6976
 4275SOL    HW224288   2.735   1.196   0.907  2.6797 -0.7139  0.9979
 4276SOL     OW24289   4.594   0.458   9.564  0.0223  0.3704 -0.3849
 4276SOL    HW124290   4.637   0.544   9.562 -0.3503  0.5899  0.5773
 4276SOL    HW224291   4.518   0.480   9.619  0.8074 -0.9596  1.2385
 4277SOL     OW24292   0.541   1.374   1.309 -0.0970  0.8474 -0.2288
 4277SOL    HW124293   0.579   1.387   1.222  0.5346 -2.8225 -0.5240
 4277SOL    HW224294   0.524   1.466   1.326  0.8089  1.0068 -0.2136
 4278SOL     OW24295   3.811   0.340   4.481 -0.3800 -0.2042  0.4574
 4278SOL    HW124296   3.734   0.387   4.515  1.1059  1.4564  1.5475
 4278SOL    HW224297   3.864   0.412   4.446 -1.0432  0.4247  0.7372
 4279SOL     OW24298   0.424   1.236   5.566  0.1859  0.3172  0.4365
 4279SOL    HW124299   0.506   1.188   5.558  0.2687  0.4818  0.2894
 4279SOL    HW224300   0.357   1.167   5.566  0.5698 -0.0591  0.3704
 4280SOL     OW24301   3.035   3.360   2.343  0.0885 -0.0178 -0.1654
 4280SOL    HW124302   2.952   3.397   2.370  0.2698  0.1092  0.2098
 4280SOL    HW224303   3.014   3.291   2.279 -1.4102 -1.0927  1.4679
 4281SOL     OW24304   4.179   4.424   8.667  0.5309 -0.0354  0.2696
 4281SOL    HW124305   4.120   4.388   8.734  2.2123  0.0717  1.7801
 4281SOL    HW224306   4.260   4.419   8.717  1.0559 -1.1654 -0.6906
 4282SOL     OW24307   0.566   0.936   1.363 -0.5383 -0.0890 -0.4482
 4282SOL    HW124308   0.561   1.023   1.403  0.5682  0.1986 -0.9455
 4282SOL    HW224309   0.598   0.951   1.275 -0.0460  2.3590  0.1657
 4283SOL     OW24310   1.124   4.005   7.349  0.2726 -0.5563 -0.0705
 4283SOL    HW124311   1.109   4.083   7.402  0.4619 -0.3147 -0.3738
 4283SOL    HW224312   1.088   4.032   7.264 -0.8116 -1.1017  0.2137
 4284SOL     OW24313   3.224   2.840   5.685 -0.2017 -0.1359 -0.0943
 4284SOL    HW124314   3.214   2.931   5.712 -1.2922 -0.5836  1.0434
 4284SOL    HW224315   3.134   2.807   5.691  0.5739 -2.3983 -0.9406
 4285SOL     OW24316   3.043   2.247   6.521  0.1025 -0.0937  0.0369
 4285SOL    HW124317   3.086   2.232   6.606  0.5373 -2.0247 -0.5256
 4285SOL    HW224318   2.976   2.178   6.521  0.3969 -0.3810 -0.1017
 4286SOL     OW24319   2.586   3.178   7.153 -0.2545  0.7248  0.1499
 4286SOL    HW124320   2.537   3.168   7.235 -1.2526  1.4889 -0.3568
 4286SOL    HW224321   2.514   3.193   7.092 -0.6434  0.1667  0.4752
 4287SOL     OW24322   1.465   4.012   8.385 -0.0599 -0.7081 -0.5379
 4287SOL    HW124323   1.449   4.072   8.458 -0.6693 -2.9259  1.1461
 4287SOL    HW224324   1.491   4.070   8.313 -0.3674 -0.3883 -0.3885
 4288SOL     OW24325   1.245   0.522   2.747 -0.6881  0.0048 -0.5096
 4288SOL    HW124326   1.233   0.430   2.724 -1.0553 -0.0430 -0.1302
 4288SOL    HW224327   1.204   0.531   2.833 -2.2641  1.5316 -1.4070
 4289SOL     OW24328   2.291   0.619  16.836  0.2166 -0.1470  0.2765
 4289SOL    HW124329   2.317   0.673  16.761 -0.5109 -1.1665 -0.7007
 4289SOL    HW224330   2.205   0.655  16.860  0.9709  2.7425 -1.3680
 4290SOL     OW24331   0.937   0.785   7.031  0.3918 -0.1176  0.2091
 4290SOL    HW124332   0.967   0.874   7.051 -1.6380  0.8870 -1.3481
 4290SOL    HW224333   0.914   0.794   6.939 -1.0737 -3.4558  0.2602
 4291SOL     OW24334   1.913   4.190  11.552  0.0705  0.1292 -0.2531
 4291SOL    HW124335   1.926   4.132  11.627  0.1651  0.2063 -0.2099
 4291SOL    HW224336   1.819   4.190  11.536  0.0861  0.7341 -0.3432
 4292SOL     OW24337   0.574   0.808  15.993 -0.3591  0.5605  0.3633
 4292SOL    HW124338   0.559   0.894  15.954 -1.4293  0.5008  0.6525
 4292SOL    HW224339   0.502   0.797  16.055 -1.2833  0.3977 -0.7293
 4293SOL     OW24340   3.523   0.848   6.302 -0.2117 -0.2240 -0.0035
 4293SOL    HW124341   3.589   0.907   6.267 -0.4484 -1.0646 -1.8963
 4293SOL    HW224342   3.578   0.798   6.363 -1.3311 -0.4369  0.8307
 4294SOL     OW24343   3.920   3.194   7.813 -0.8135 -0.3292 -0.0280
 4294SOL    HW124344   3.881   3.121   7.764  0.7399 -1.4894  0.4544
 4294SOL    HW224345   4.012   3.165   7.806 -1.0861 -1.9989  3.4844
 4295SOL     OW24346   3.691   0.218   7.523 -0.6957  0.3492  0.6235
 4295SOL    HW124347   3.768   0.178   7.484  0.0137  1.4849  0.8587
 4295SOL    HW224348   3.727   0.264   7.599  0.0338  0.5815  0.1332
 4296SOL     OW24349   0.331   0.616   4.851  0.3304 -0.4837  0.4003
 4296SOL    HW124350   0.344   0.680   4.920 -0.2044  0.6361 -0.5328
 4296SOL    HW224351   0.248   0.576   4.877  0.9637 -1.4375  0.9588
 4297SOL     OW24352   2.704   1.131   6.472 -0.5568  0.3251 -0.5147
 4297SOL    HW124353   2.621   1.103   6.432 -0.4230  1.1389 -1.3573
 4297SOL    HW224354   2.680   1.121   6.564  2.4225 -1.2894  0.0850
 4298SOL     OW24355   2.404   1.683   3.907  0.0992  0.1227 -0.4022
 4298SOL    HW124356   2.378   1.623   3.837 -1.6418  0.5635 -0.1389
 4298SOL    HW224357   2.336   1.666   3.972 -0.7792  2.0966 -0.8002
 4299SOL     OW24358   1.842   0.320   6.066  0.3968 -0.4036 -0.5151
 4299SOL    HW124359   1.808   0.359   6.147  0.2622  0.4166 -0.9697
 4299SOL    HW224360   1.780   0.249   6.048 -1.9573  1.5372  0.0095
 4300SOL     OW24361   0.199   4.669  16.137  0.6314 -0.5007 -0.2801
 4300SOL    HW124362   0.185   4.628  16.051 -1.9718 -0.4473  0.0950
 4300SOL    HW224363   0.211   0.035  16.101 -0.9034  0.1110  0.7131
 4301SOL     OW24364   0.635   1.582   5.212  0.0859  0.2296  0.0822
 4301SOL    HW124365   0.622   1.654   5.151  0.6061 -3.4132 -4.3116
 4301SOL    HW224366   0.637   1.505   5.156 -1.1529 -0.6142  1.1926
 4302SOL     OW24367   3.297   1.147   7.769 -0.1626 -0.4134 -0.1631
 4302SOL    HW124368   3.344   1.069   7.739  1.0374  0.9037 -1.6803
 4302SOL    HW224369   3.373   1.204   7.765  2.2971 -3.7114 -0.6228
 4303SOL     OW24370   3.322   0.342   3.473  0.0880  0.2703  0.2092
 4303SOL    HW124371   3.322   0.275   3.405  1.2134  2.2095 -1.6898
 4303SOL    HW224372   3.265   0.305   3.540 -1.6554  2.8212  0.1497
 4304SOL     OW24373   3.225   0.742   2.824  0.5887 -0.3510 -0.0931
 4304SOL    HW124374   3.189   0.665   2.778 -0.3438  0.5847 -0.9338
 4304SOL    HW224375   3.319   0.729   2.820  0.3156 -2.4002  0.0232
 4305SOL     OW24376   1.377   3.808   0.270  0.3081 -0.3295  0.0403
 4305SOL    HW124377   1.307   3.749   0.299 -1.0471  1.4622  0.4403
 4305SOL    HW224378   1.356   3.820   0.177  0.5981 -0.7370 -0.0779
 4306SOL     OW24379   4.039   2.731   8.372 -0.1531 -0.1220  0.2241
 4306SOL    HW124380   4.017   2.791   8.301  0.0220 -0.1716  0.1266
 4306SOL    HW224381   4.066   2.781   8.449  0.3308  2.4276 -1.6088
 4307SOL     OW24382   3.045   0.972   7.992  0.0593  0.1353 -0.2046
 4307SOL    HW124383   3.033   1.015   8.077  0.1712 -1.5885  0.6859
 4307SOL    HW224384   3.021   0.880   8.004 -0.3457  0.4107  1.1219
 4308SOL     OW24385   2.962   1.368  11.295  0.4306  0.2343  0.3399
 4308SOL    HW124386   2.897   1.384  11.363  1.4677 -1.1919  1.6552
 4308SOL    HW224387   3.021   1.443  11.304  0.9984 -0.0549 -0.9052
 4309SOL     OW24388   2.526   0.176  13.067  0.2756  0.0682 -0.7546
 4309SOL    HW124389   2.435   0.196  13.045 -0.5559 -1.6945  1.1454
 4309SOL    HW224390   2.566   0.210  12.987 -1.2065 -1.4454 -2.1543
 4310SOL     OW24391   4.334   2.303  10.918  0.0254  0.7688  0.2988
 4310SOL    HW124392   4.419   2.330  10.883 -1.1018  2.6233 -0.9977
 4310SOL    HW224393   4.351   2.211  10.936 -0.1985  1.0027  1.7487
 4311SOL     OW24394   2.911   0.528   6.344 -0.4555 -0.1032 -0.2506
 4311SOL    HW124395   2.964   0.524   6.264  0.9999 -2.2438  0.8078
 4311SOL    HW224396   2.837   0.481   6.307 -0.6597  0.9602 -1.1790
 4312SOL     OW24397   1.574   0.291   7.229  0.2853 -0.2087 -0.3745
 4312SOL    HW124398   1.489   0.326   7.254  1.4161  2.1714  0.0834
 4312SOL    HW224399   1.567   0.267   7.136  0.0745 -3.5290  0.5056
 4313SOL     OW24400   3.658   0.623   3.121  0.0409  0.3335  0.1117
 4313SOL    HW124401   3.634   0.686   3.190  1.0960  0.0450  0.7486
 4313SOL    HW224402   3.733   0.572   3.151 -0.8416  0.0395  1.8707
 4314SOL     OW24403   3.290   4.128  11.675 -0.2491 -0.1661  0.3089
 4314SOL    HW124404   3.230   4.201  11.691 -1.7883 -0.8281 -2.5452
 4314SOL    HW224405   3.351   4.163  11.610 -2.2378  1.3971 -0.7131
 4315SOL     OW24406   1.708   3.802   4.704 -0.0621 -0.3748 -0.3639
 4315SOL    HW124407   1.680   3.846   4.624 -0.6428  1.0065  0.5994
 4315SOL    HW224408   1.716   3.708   4.689 -1.8808 -0.8949  1.9443
 4316SOL     OW24409   0.731   3.436   9.556 -0.3014  0.3179  0.3688
 4316SOL    HW124410   0.686   3.510   9.597 -2.2569 -1.3456  1.1945
 4316SOL    HW224411   0.676   3.364   9.587  0.5034  1.2102  3.8768
 4317SOL     OW24412   0.101   2.338  16.373  0.1908  0.9670  0.6479
 4317SOL    HW124413   0.032   2.368  16.432 -0.9102 -1.1561  0.4433
 4317SOL    HW224414   0.133   2.260  16.417 -1.5890 -0.1521 -0.0382
 4318SOL     OW24415   2.068   3.843   6.079  0.1328  0.5637  0.3162
 4318SOL    HW124416   2.162   3.857   6.089 -0.0952  1.5548  1.0394
 4318SOL    HW224417   2.041   3.784   6.149  1.0218 -0.5738 -0.2918
 4319SOL     OW24418   4.050   0.792   0.852  0.1521  0.0498 -0.4010
 4319SOL    HW124419   4.006   0.707   0.852  1.0380 -0.4097  0.7064
 4319SOL    HW224420   3.985   0.850   0.815 -0.1248 -2.2004 -3.4326
 4320SOL     OW24421   4.675   4.223   3.115  0.1897 -0.2925 -0.1300
 4320SOL    HW124422   4.637   4.175   3.189 -1.2626  0.6916 -0.2257
 4320SOL    HW224423   4.617   4.194   3.045 -1.3113  2.8323 -0.1764
 4321SOL     OW24424   0.061   1.001   6.133 -0.1536  0.4628 -0.1353
 4321SOL    HW124425   0.122   1.023   6.202  1.8364  0.1829 -1.7982
 4321SOL    HW224426   4.704   1.048   6.159 -0.3547 -0.4601  0.9290
 4322SOL     OW24427   1.482   2.895   4.357  0.5328  0.1334 -0.4527
 4322SOL    HW124428   1.481   2.904   4.262  2.3925  1.7745 -0.3145
 4322SOL    HW224429   1.475   2.799   4.356  1.1933  0.0831 -0.3249
 4323SOL     OW24430   4.199   1.728   6.776  0.5818  0.0633 -0.2232
 4323SOL    HW124431   4.151   1.652   6.744  1.7338 -0.3587 -0.9585
 4323SOL    HW224432   4.187   1.795   6.708  1.9196  0.4919 -0.0340
 4324SOL     OW24433   2.534   1.298   4.702  0.8145  0.4128 -0.7115
 4324SOL    HW124434   2.461   1.287   4.641  0.1288  0.8168  0.0375
 4324SOL    HW224435   2.616   1.299   4.653  2.1564 -1.4491  1.4658
 4325SOL     OW24436   0.281   2.805   6.491 -0.2239 -0.4071 -0.1164
 4325SOL    HW124437   0.190   2.789   6.515  0.1969 -3.5854 -0.6196
 4325SOL    HW224438   0.313   2.820   6.580 -1.2831  0.4047  0.1310
 4326SOL     OW24439   1.919   1.646   3.189  0.4771 -0.3425 -0.3069
 4326SOL    HW124440   1.966   1.729   3.195  0.3240 -0.1609 -1.6437
 4326SOL    HW224441   1.947   1.607   3.272 -1.6431  1.7040  1.3819
 4327SOL     OW24442   2.314   2.876   5.437  0.3381  0.9391 -0.1773
 4327SOL    HW124443   2.280   2.964   5.451 -2.8338 -0.1459 -0.8563
 4327SOL    HW224444   2.290   2.847   5.526 -0.6195  0.9656 -0.4185
 4328SOL     OW24445   0.674   0.899  17.064 -0.1120  0.1826  0.0721
 4328SOL    HW124446   0.593   0.865  17.103  0.0596 -0.3510 -0.0311
 4328SOL    HW224447   0.644   0.965  17.002  1.1995 -0.7561 -1.5559
 4329SOL     OW24448   4.384   0.052  15.068  0.6495  0.7746 -0.0241
 4329SOL    HW124449   4.332   0.120  15.111 -1.0913 -0.9436  0.6013
 4329SOL    HW224450   4.448   0.024  15.134  1.5144  1.2676 -0.6636
 4330SOL     OW24451   3.310   4.464   4.187 -0.1796 -0.3962 -0.1693
 4330SOL    HW124452   3.260   4.411   4.125  1.0002 -1.4726 -0.2144
 4330SOL    HW224453   3.262   4.547   4.186  2.8633  1.3666 -0.4047
 4331SOL     OW24454   0.428   2.931   7.197  0.1483  0.4402 -0.2739
 4331SOL    HW124455   0.425   3.027   7.203  0.6575  0.5085 -1.0532
 4331SOL    HW224456   0.519   2.915   7.172  0.5654 -0.9599  2.1324
 4332SOL     OW24457   0.800   0.293   6.469 -0.2744 -0.4342  0.2328
 4332SOL    HW124458   0.867   0.347   6.511  0.9336 -2.7119  1.2190
 4332SOL    HW224459   0.818   0.315   6.377 -1.3797  0.7156  0.2963
 4333SOL     OW24460   3.294   2.991   2.923 -0.4129 -0.3874  0.2518
 4333SOL    HW124461   3.306   2.919   2.861  2.7689 -0.6280  1.1610
 4333SOL    HW224462   3.349   2.959   2.994 -1.3803 -1.8239  0.3664
 4334SOL     OW24463   1.874   2.544   2.231 -0.6842  0.1108  0.1824
 4334SOL    HW124464   1.941   2.482   2.259 -1.4153 -0.6636  0.2347
 4334SOL    HW224465   1.795   2.494   2.251 -1.2619 -0.1107 -2.7178
 4335SOL     OW24466   1.436   0.386   9.614 -0.7430  0.4412 -0.2534
 4335SOL    HW124467   1.443   0.455   9.680 -1.6530  0.1471  0.1570
 4335SOL    HW224468   1.473   0.436   9.541 -1.8482 -0.8127 -1.6666
 4336SOL     OW24469   4.399   4.530   6.236  0.1388 -0.2201 -0.1851
 4336SOL    HW124470   4.391   4.478   6.156 -0.8249 -1.0934  0.4675
 4336SOL    HW224471   4.316   4.578   6.240  1.0779  1.4442 -1.4446
 4337SOL     OW24472   2.582   0.677   2.235  0.0020  0.2292 -0.3320
 4337SOL    HW124473   2.518   0.736   2.276 -1.6429 -0.8965 -1.2779
 4337SOL    HW224474   2.534   0.605   2.195  0.4345 -0.6659  0.7462
 4338SOL     OW24475   3.930   2.059   9.311  0.4659  0.0863 -0.0927
 4338SOL    HW124476   4.011   2.080   9.264  1.0577 -0.3016  0.7577
 4338SOL    HW224477   3.928   1.964   9.312 -1.7588  0.1090 -1.1844
 4339SOL     OW24478   1.056   3.726   9.780  0.3392  0.0413  0.3696
 4339SOL    HW124479   1.022   3.660   9.721  1.9377  0.0689 -0.5995
 4339SOL    HW224480   1.034   3.804   9.728  0.0663  0.4272  1.0619
 4340SOL     OW24481   1.889   0.306   3.570 -0.4016 -0.2781  0.0079
 4340SOL    HW124482   1.957   0.352   3.520 -0.7546  1.2731  0.9405
 4340SOL    HW224483   1.930   0.223   3.595 -2.1090 -1.3410 -0.7202
 4341SOL     OW24484   4.060   2.544   8.078 -0.0700 -0.0093 -0.3086
 4341SOL    HW124485   4.123   2.546   8.005  0.7623 -0.4568  0.3995
 4341SOL    HW224486   4.034   2.635   8.090  1.9206  0.6965 -1.4134
 4342SOL     OW24487   0.152   4.566   9.254  0.2858  0.0432  0.9771
 4342SOL    HW124488   0.100   4.502   9.206 -1.6053  1.5877  0.9817
 4342SOL    HW224489   0.138   4.522   9.338 -1.4358  0.4992  0.9352
 4343SOL     OW24490   2.072   0.761  16.791 -0.1884 -0.3609 -0.0127
 4343SOL    HW124491   1.981   0.791  16.788  0.0114  0.2178 -0.2850
 4343SOL    HW224492   2.116   0.829  16.740  3.1905 -0.4083  2.8197
 4344SOL     OW24493   0.089   3.214   2.493  0.8859  0.3150  0.3344
 4344SOL    HW124494   0.042   3.159   2.556 -0.8222  0.7655 -0.5360
 4344SOL    HW224495   0.018   3.262   2.450  0.3315  0.0431  0.9520
 4345SOL     OW24496   1.919   2.699   1.988  0.1063  0.0597 -0.3700
 4345SOL    HW124497   1.925   2.634   2.058  1.0375 -0.0425 -0.5485
 4345SOL    HW224498   1.826   2.716   1.976 -0.2324  0.3840  2.6377
 4346SOL     OW24499   3.963   4.407   5.336 -0.1988  0.2264 -0.2572
 4346SOL    HW124500   4.036   4.463   5.358  0.5831 -1.1997  0.8550
 4346SOL    HW224501   3.997   4.363   5.258 -1.0892 -0.6481 -0.1595
 4347SOL     OW24502   0.136   0.762   7.223 -0.2609 -0.3848  0.0996
 4347SOL    HW124503   0.148   0.815   7.144 -2.7746  1.8472  1.2258
 4347SOL    HW224504   0.173   0.677   7.197  1.9658  0.8262 -0.6357
 4348SOL     OW24505   3.026   3.226  11.350  0.1307  0.7729 -0.0151
 4348SOL    HW124506   3.033   3.134  11.323  1.7161  0.9701 -0.2969
 4348SOL    HW224507   2.960   3.216  11.419  0.0283  2.6222  0.1401
 4349SOL     OW24508   1.966   0.400  10.282  0.6176  0.4096 -0.2134
 4349SOL    HW124509   2.000   0.317  10.316  1.6586  0.7293 -0.4850
 4349SOL    HW224510   2.032   0.405  10.213  0.8192 -0.1927 -0.0595
 4350SOL     OW24511   4.217   1.763   3.218  0.3969  0.0868  0.1046
 4350SOL    HW124512   4.123   1.741   3.220  0.0981  1.3442 -0.2445
 4350SOL    HW224513   4.235   1.773   3.125  0.5991  2.2540  0.3861
 4351SOL     OW24514   2.382   2.262   6.254  0.5791 -0.0675 -0.9384
 4351SOL    HW124515   2.467   2.305   6.248  0.1793  1.0116  1.1339
 4351SOL    HW224516   2.334   2.320   6.314 -1.1687 -1.7680 -0.6881
 4352SOL     OW24517   0.387   3.613   7.529 -0.1267  0.4180 -0.7770
 4352SOL    HW124518   0.317   3.577   7.474  2.5735 -0.7474 -3.4103
 4352SOL    HW224519   0.336   3.645   7.604  1.4859 -0.1586  0.5556
 4353SOL     OW24520   3.971   0.852   1.465  0.2110 -0.4866 -0.2533
 4353SOL    HW124521   3.960   0.776   1.408 -2.4891 -1.2317  1.2686
 4353SOL    HW224522   3.896   0.837   1.523 -1.4632  0.9447 -2.0513
 4354SOL     OW24523   3.262   3.655  13.858 -0.1101 -0.3183  0.2238
 4354SOL    HW124524   3.335   3.678  13.916 -1.5071  0.8860  1.4939
 4354SOL    HW224525   3.264   3.725  13.792  1.2873 -0.9000 -0.3475
 4355SOL     OW24526   1.132   1.439   0.753  0.0058  0.0268  0.0711
 4355SOL    HW124527   1.038   1.450   0.769  0.0707  0.5260  0.1120
 4355SOL    HW224528   1.138   1.471   0.663  0.8065 -0.2669  0.0195
 4356SOL     OW24529   4.474   1.981   4.586 -0.4153 -0.2132  0.2703
 4356SOL    HW124530   4.495   2.022   4.502  0.1212  0.5458  0.7668
 4356SOL    HW224531   4.516   1.895   4.584  1.9772  0.9928 -1.1223
 4357SOL     OW24532   0.311   3.791   9.090  0.1447  0.1765 -0.7793
 4357SOL    HW124533   0.381   3.826   9.036 -0.4746 -0.8856 -2.2665
 4357SOL    HW224534   0.338   3.817   9.178 -2.0290  1.2967 -0.4235
 4358SOL     OW24535   2.020   4.080  11.315  0.1558 -0.1732 -0.0172
 4358SOL    HW124536   2.109   4.115  11.309 -0.0404  0.3653  0.2038
 4358SOL    HW224537   1.985   4.136  11.383  3.2711 -1.0698  2.3454
 4359SOL     OW24538   0.649   3.836  11.939  0.6489  0.0867 -0.0713
 4359SOL    HW124539   0.660   3.757  11.886  1.6958  0.6289 -0.6722
 4359SOL    HW224540   0.667   3.807  12.028  1.0098 -1.0150 -0.4938
 4360SOL     OW24541   4.262   0.388  15.536  0.0122 -0.0950  0.6880
 4360SOL    HW124542   4.351   0.425  15.528  0.3885 -1.3928 -1.0853
 4360SOL    HW224543   4.270   0.346  15.622 -2.0283 -0.3652  0.7235
 4361SOL     OW24544   4.455   2.540   6.279 -0.0162  0.0784  0.4601
 4361SOL    HW124545   4.530   2.501   6.234 -1.2463  0.0357 -1.5681
 4361SOL    HW224546   4.454   2.501   6.366  0.8173 -0.0390  0.4196
 4362SOL     OW24547   0.169   2.977   5.589 -0.3516  0.1198  0.4514
 4362SOL    HW124548   0.231   2.970   5.517 -1.5028 -2.8610 -0.2178
 4362SOL    HW224549   0.196   2.898   5.636  0.5056  0.8986  1.2727
 4363SOL     OW24550   0.062   2.516  10.952 -0.0779  0.1189 -0.0232
 4363SOL    HW124551   0.031   2.433  10.915  1.6250 -0.1912 -0.7756
 4363SOL    HW224552   4.703   2.556  10.984  0.5375 -0.0317  1.6832
 4364SOL     OW24553   1.815   0.176   2.956 -0.3241  0.5666  0.2287
 4364SOL    HW124554   1.761   0.197   2.880 -1.4194  2.5406  1.5800
 4364SOL    HW224555   1.752   0.185   3.027  0.4509  1.3329  0.8272
 4365SOL     OW24556   0.399   2.089   0.064 -0.3487  0.2600 -0.6963
 4365SOL    HW124557   0.419   2.074  17.662 -0.2291  0.9482 -0.7809
 4365SOL    HW224558   0.462   2.032   0.107 -1.1138  0.9106  1.2647
 4366SOL     OW24559   0.041   3.227   5.141 -0.0933  0.1140 -0.4617
 4366SOL    HW124560   0.087   3.209   5.059 -0.2148 -2.1836 -0.0124
 4366SOL    HW224561   4.678   3.239   5.098  0.2614 -0.8365 -1.4257
 4367SOL     OW24562   0.524   1.922   5.454  0.0578 -0.1029  0.4667
 4367SOL    HW124563   0.480   1.837   5.451 -0.3771  0.2433 -3.5201
 4367SOL    HW224564   0.453   1.987   5.455 -0.3445 -0.5112 -1.2042
 4368SOL     OW24565   0.032   1.489   0.973  0.3147 -0.2072 -0.4077
 4368SOL    HW124566   0.113   1.536   0.955  0.9816 -0.7858  1.1708
 4368SOL    HW224567   0.044   1.410   0.920  1.5742 -1.1235  1.2483
 4369SOL     OW24568   3.273   2.231  17.534 -0.0919 -0.3820  0.4870
 4369SOL    HW124569   3.276   2.138  17.557  0.0364 -0.2631  0.9377
 4369SOL    HW224570   3.319   2.275  17.605  1.2150  0.0095 -0.6044
 4370SOL     OW24571   0.294   0.835  16.141 -0.1038  0.0296  0.2062
 4370SOL    HW124572   0.232   0.860  16.209  1.4126 -0.5547  1.8062
 4370SOL    HW224573   0.235   0.828  16.066  0.2113  1.8270 -0.2251
 4371SOL     OW24574   4.305   2.267   6.451 -0.3440 -0.1878 -0.1875
 4371SOL    HW124575   4.223   2.305   6.484  0.8860  1.0633  1.4575
 4371SOL    HW224576   4.351   2.250   6.534 -2.2210  2.3402  1.3972
 4372SOL     OW24577   4.592   3.784   9.807  0.0250 -0.4856 -0.1777
 4372SOL    HW124578   4.636   3.863   9.775 -0.3188 -0.8749 -1.6204
 4372SOL    HW224579   4.653   3.753   9.873 -0.5275 -1.4892 -0.1453
 4373SOL     OW24580   2.882   4.025   7.426 -0.1572 -0.2372 -0.7301
 4373SOL    HW124581   2.926   4.061   7.349  0.8347  0.1468  0.0226
 4373SOL    HW224582   2.811   4.089   7.423  1.0677  1.1374 -0.4688
 4374SOL     OW24583   3.179   2.611   6.364  0.8269  0.3815  0.5938
 4374SOL    HW124584   3.177   2.519   6.339 -0.8711  0.7346 -0.6107
 4374SOL    HW224585   3.140   2.602   6.451  0.4794  0.0968  0.4118
 4375SOL     OW24586   3.563   3.038   7.755 -0.2024  0.6519  0.4187
 4375SOL    HW124587   3.471   3.037   7.779 -0.1110  2.0608  0.8452
 4375SOL    HW224588   3.613   3.030   7.836 -1.5766 -0.4214  1.1430
 4376SOL     OW24589   1.099   3.364  16.934  0.0447 -0.3322  0.0574
 4376SOL    HW124590   1.185   3.406  16.925  0.9400 -2.1722  0.0951
 4376SOL    HW224591   1.118   3.279  16.974 -0.5479  0.0372  1.1157
 4377SOL     OW24592   0.156   2.733   8.393  0.4559  0.3131  0.3733
 4377SOL    HW124593   0.217   2.673   8.438 -0.1570 -0.6575 -0.1002
 4377SOL    HW224594   0.092   2.741   8.464 -0.2919 -0.4122 -0.2216
 4378SOL     OW24595   1.434   3.589   5.260 -0.1425  0.6276  0.9994
 4378SOL    HW124596   1.512   3.533   5.261  0.5520  1.5831 -0.8459
 4378SOL    HW224597   1.377   3.540   5.319 -2.6224 -1.3830 -3.0820
 4379SOL     OW24598   2.136   0.341  12.840  0.0544  0.1478  0.5247
 4379SOL    HW124599   2.159   0.308  12.927  0.9586  1.4244  0.7744
 4379SOL    HW224600   2.117   0.251  12.813 -3.6297  1.2612 -0.5199
 4380SOL     OW24601   0.094   1.142   1.960 -0.0109  0.8827 -0.6473
 4380SOL    HW124602   0.050   1.105   2.036  2.2877 -2.1421 -0.7671
 4380SOL    HW224603   0.025   1.194   1.921  0.3999  2.3219  0.5261
 4381SOL     OW24604   3.236   0.278   5.773  0.7587 -0.5515  0.5068
 4381SOL    HW124605   3.258   0.210   5.837  3.6334 -0.6234 -0.5730
 4381SOL    HW224606   3.280   0.353   5.811  2.7160 -0.7928 -1.3200
 4382SOL     OW24607   2.963   1.230   6.851  0.0214  0.0233 -0.1570
 4382SOL    HW124608   2.904   1.266   6.785  0.8500 -1.1483 -1.5388
 4382SOL    HW224609   3.042   1.275   6.819 -1.5080  2.1140 -1.0176
 4383SOL     OW24610   0.744   3.554   5.374 -0.7804 -0.4864 -0.1685
 4383SOL    HW124611   0.837   3.568   5.358 -1.0396  0.1590 -1.1011
 4383SOL    HW224612   0.750   3.459   5.382  1.6397 -0.1773  1.6883
 4384SOL     OW24613   0.336   0.115   5.506  0.4245  1.0208 -0.3175
 4384SOL    HW124614   0.430   0.130   5.505  0.8263 -1.4676 -1.1354
 4384SOL    HW224615   0.308   0.201   5.535  1.2308  0.9958  0.5243
 4385SOL     OW24616   3.951   0.532   8.432 -0.1509  0.5704  0.5324
 4385SOL    HW124617   3.946   0.460   8.369 -0.4561 -1.3538  2.7292
 4385SOL    HW224618   3.933   0.601   8.369 -0.3926  0.1899  0.1899
 4386SOL     OW24619   0.660   4.584  13.379  0.5082 -0.1236  0.0473
 4386SOL    HW124620   0.674   4.650  13.311 -1.3855  2.0365  1.7630
 4386SOL    HW224621   0.739   4.581  13.434  1.2511  2.8247 -0.8831
 4387SOL     OW24622   4.271   0.388  14.818  0.2026 -0.0796 -0.2253
 4387SOL    HW124623   4.331   0.446  14.769  1.6398 -1.7066 -0.3864
 4387SOL    HW224624   4.324   0.312  14.842  0.1880 -0.3163 -0.9309
 4388SOL     OW24625   0.566   3.754  17.470 -0.1630 -0.2382  0.0583
 4388SOL    HW124626   0.584   3.712  17.386  1.3323 -0.1037  0.3039
 4388SOL    HW224627   0.649   3.732  17.513 -0.3348 -3.1836 -1.1156
 4389SOL     OW24628   2.861   1.674   4.994 -0.3158  0.0229 -0.5153
 4389SOL    HW124629   2.892   1.681   5.085  1.6188  1.2204 -1.2643
 4389SOL    HW224630   2.864   1.578   4.991  2.0500  0.0156  1.8798
 4390SOL     OW24631   0.607   3.107   1.489 -0.3466 -0.1317  0.1767
 4390SOL    HW124632   0.570   3.021   1.467 -0.9592  0.4208 -0.9452
 4390SOL    HW224633   0.535   3.142   1.542 -1.8035 -1.1393 -1.1522
 4391SOL     OW24634   0.584   1.828   8.312 -0.3703  0.2199  0.5453
 4391SOL    HW124635   0.616   1.744   8.278  1.9215 -0.3064  4.0073
 4391SOL    HW224636   0.541   1.806   8.395 -0.8344 -2.3756 -0.3735
 4392SOL     OW24637   2.919   4.199   6.836 -0.5661 -0.5151 -0.1668
 4392SOL    HW124638   2.950   4.122   6.788 -1.9707 -0.8105 -0.5806
 4392SOL    HW224639   2.825   4.205   6.821 -0.4923 -1.8128 -1.1463
 4393SOL     OW24640   0.232   0.573   9.699  0.2727  0.0424 -0.5991
 4393SOL    HW124641   0.178   0.605   9.772 -0.4916 -0.0773 -1.1176
 4393SOL    HW224642   0.304   0.525   9.739 -0.8372 -0.2149  1.1080
 4394SOL     OW24643   3.345   1.063  15.742 -0.4754  0.4986 -0.1720
 4394SOL    HW124644   3.253   1.043  15.759 -1.2261  2.8123 -1.5022
 4394SOL    HW224645   3.349   1.155  15.715 -1.5067  0.5818 -0.0181
 4395SOL     OW24646   1.888   0.107   5.581  0.0076  0.2701  0.7244
 4395SOL    HW124647   1.966   0.156   5.555  0.1931 -0.9379 -0.9904
 4395SOL    HW224648   1.905   0.094   5.675  0.0331 -1.1915  0.5257
 4396SOL     OW24649   2.251   1.122   0.393 -0.2222  0.2945  0.0303
 4396SOL    HW124650   2.323   1.169   0.436  0.0799 -1.5707  1.5791
 4396SOL    HW224651   2.266   1.032   0.421  0.9792  1.0141  1.7664
 4397SOL     OW24652   1.897   1.886  11.127  0.9749 -0.1010  0.6111
 4397SOL    HW124653   1.905   1.924  11.215  1.6055 -2.3237  1.5265
 4397SOL    HW224654   1.879   1.964  11.075  1.9863 -0.9069 -0.9460
 4398SOL     OW24655   3.937   3.174   6.670 -0.0792  0.1995  0.0239
 4398SOL    HW124656   3.906   3.090   6.638 -1.2784 -0.3487  2.6105
 4398SOL    HW224657   3.862   3.216   6.713  0.1747  0.8087 -0.1323
 4399SOL     OW24658   1.307   1.478  11.773  0.5019  0.3661 -0.3481
 4399SOL    HW124659   1.333   1.557  11.821 -2.1195  0.2589  1.2946
 4399SOL    HW224660   1.217   1.486  11.804  1.5003  0.8738  2.4387
 4400SOL     OW24661   1.819   0.066  10.569  0.2851  0.3940  0.1087
 4400SOL    HW124662   1.909   0.036  10.551  0.8205  2.1411 -0.0681
 4400SOL    HW224663   1.773   4.708  10.543 -1.0661  1.3367 -0.3873
 4401SOL     OW24664   0.143   2.560   5.844 -0.6464 -0.9355 -0.5485
 4401SOL    HW124665   0.121   2.547   5.751 -1.1242 -2.7152 -0.1894
 4401SOL    HW224666   0.237   2.541   5.835 -0.8798 -2.1300 -0.4808
 4402SOL     OW24667   0.261   3.024   3.697 -0.7843 -0.0310 -0.4330
 4402SOL    HW124668   0.344   3.028   3.744  0.8585 -1.5859 -3.1995
 4402SOL    HW224669   0.211   3.052   3.774 -2.5948 -2.3113 -0.7964
 4403SOL     OW24670   3.600   0.418   9.046 -0.2693  0.6620  0.2532
 4403SOL    HW124671   3.631   0.334   9.080  0.9661  1.8617  2.0418
 4403SOL    HW224672   3.524   0.426   9.104 -0.4439 -1.5311  0.3418
 4404SOL     OW24673   3.170   3.446  11.194 -0.2776 -0.0482 -0.8605
 4404SOL    HW124674   3.162   3.507  11.266 -1.9883 -0.0479 -1.0646
 4404SOL    HW224675   3.119   3.373  11.228  0.9100  0.4149  1.9338
 4405SOL     OW24676   2.595   2.294  16.522  0.2687  0.1130  0.1048
 4405SOL    HW124677   2.515   2.265  16.567  1.0562 -1.2130  0.6310
 4405SOL    HW224678   2.665   2.255  16.574 -1.9810 -1.6462  1.7911
 4406SOL     OW24679   4.173   2.477  12.102 -0.3193 -0.0143 -0.5262
 4406SOL    HW124680   4.108   2.547  12.105  0.0333  0.3478 -1.5061
 4406SOL    HW224681   4.234   2.500  12.172 -0.5046 -0.6204 -0.1623
 4407SOL     OW24682   2.745   0.361   6.021  0.3225 -0.4940  0.7280
 4407SOL    HW124683   2.700   0.291   6.069  0.9795 -1.3202  0.1293
 4407SOL    HW224684   2.806   0.305   5.973 -0.6572 -0.3702 -0.6656
 4408SOL     OW24685   4.487   2.841   2.413  0.4086  0.3929 -0.3900
 4408SOL    HW124686   4.534   2.758   2.406 -0.2527 -0.0931  0.8763
 4408SOL    HW224687   4.552   2.904   2.382 -0.4401  0.9005 -1.1174
 4409SOL     OW24688   0.081   1.137  16.603  0.2752 -0.2324 -0.5579
 4409SOL    HW124689   0.104   1.221  16.563 -1.3493 -0.6052 -2.2734
 4409SOL    HW224690   0.074   1.156  16.696  2.7457 -0.6790 -0.2793
 4410SOL     OW24691   3.341   1.605   3.453  0.2509 -0.0292  0.1153
 4410SOL    HW124692   3.283   1.661   3.504 -0.2102 -0.6464  0.2810
 4410SOL    HW224693   3.357   1.529   3.510  0.0800  0.6091  1.0013
 4411SOL     OW24694   2.462   3.274   2.062  0.0432 -0.5839 -0.2000
 4411SOL    HW124695   2.518   3.310   1.993  1.5903 -1.2844  0.6800
 4411SOL    HW224696   2.386   3.332   2.066 -0.4477 -1.3315  1.1359
 4412SOL     OW24697   1.230   0.538   3.147 -0.2752  0.7438  0.6168
 4412SOL    HW124698   1.300   0.508   3.204 -0.1881 -0.6336 -0.2356
 4412SOL    HW224699   1.279   0.561   3.068 -0.1812  1.3212  0.8372
 4413SOL     OW24700   3.830   0.998   2.769 -0.1238  0.1907  0.5097
 4413SOL    HW124701   3.850   1.089   2.791 -0.6098  1.3298 -3.7584
 4413SOL    HW224702   3.909   0.975   2.719 -1.1775 -0.0680 -1.0163
 4414SOL     OW24703   0.638   4.172  15.054 -0.1184 -0.5683  0.4630
 4414SOL    HW124704   0.623   4.077  15.046  0.0078 -0.5431 -0.1168
 4414SOL    HW224705   0.585   4.216  14.988  1.5017 -1.4135 -1.4109
 4415SOL     OW24706   0.012   3.442   0.906  0.2595 -0.8718  0.0555
 4415SOL    HW124707   0.106   3.429   0.918  0.1985 -1.2849  0.0930
 4415SOL    HW224708   4.700   3.375   0.965 -1.0002 -1.9122 -1.8190
 4416SOL     OW24709   1.382   2.759   8.425 -0.0681 -0.1739 -0.0285
 4416SOL    HW124710   1.313   2.786   8.363 -0.8520  1.1338  1.3950
 4416SOL    HW224711   1.445   2.745   8.355 -1.8276  1.8918 -2.0359
 4417SOL     OW24712   4.621   3.997   3.658  0.1538  0.2019 -0.6090
 4417SOL    HW124713   4.529   3.976   3.675  0.8570 -2.6650 -0.3854
 4417SOL    HW224714   4.661   3.924   3.705 -1.0831 -0.4143 -0.5156
 4418SOL     OW24715   1.404   3.901   7.424 -0.1306  0.2647  0.0930
 4418SOL    HW124716   1.422   3.965   7.492 -0.2583  0.9628 -0.5261
 4418SOL    HW224717   1.311   3.885   7.442  0.5617 -0.2521  3.1842
 4419SOL     OW24718   0.962   0.855   2.095  0.1407 -0.0670 -0.0711
 4419SOL    HW124719   0.925   0.891   2.014 -1.7861  1.3417  1.4395
 4419SOL    HW224720   1.039   0.806   2.064  0.5965 -1.9551  4.0902
 4420SOL     OW24721   2.372   3.349   4.247 -0.4875 -0.1796 -1.1068
 4420SOL    HW124722   2.411   3.263   4.255  0.0216  0.3225  1.7494
 4420SOL    HW224723   2.288   3.343   4.293  0.6077  0.7594  1.0131
 4421SOL     OW24724   3.830   2.740   4.265  0.5996  0.2054 -0.1075
 4421SOL    HW124725   3.789   2.693   4.192 -0.9333 -1.0675  1.5719
 4421SOL    HW224726   3.881   2.670   4.305  1.9067  0.4241 -1.3824
 4422SOL     OW24727   1.318   1.873  13.719 -0.0718 -0.4954  0.2615
 4422SOL    HW124728   1.406   1.866  13.754  0.1631  1.6279  0.1282
 4422SOL    HW224729   1.305   1.968  13.730 -1.6878 -0.7689  0.7499
 4423SOL     OW24730   4.095   4.459  16.897  0.1769 -0.3582  0.1839
 4423SOL    HW124731   4.082   4.463  16.802 -1.2598  0.7062  0.4173
 4423SOL    HW224732   4.141   4.378  16.918  2.4034  0.8510 -0.0229
 4424SOL     OW24733   3.820   0.222   0.201 -0.4424  0.5312 -0.5358
 4424SOL    HW124734   3.731   0.196   0.177  0.1282 -2.8999  1.0830
 4424SOL    HW224735   3.872   0.165   0.144  0.5855 -1.1827  2.1172
 4425SOL     OW24736   0.708   4.405  12.961  0.3625 -0.3681  0.2278
 4425SOL    HW124737   0.620   4.383  12.992 -0.3169  3.5409  1.0529
 4425SOL    HW224738   0.758   4.365  13.032  0.5418  0.2143  0.4250
 4426SOL     OW24739   1.499   3.510   4.435 -0.7362  0.1827 -0.2442
 4426SOL    HW124740   1.553   3.450   4.486 -0.7675 -1.8397 -2.6074
 4426SOL    HW224741   1.423   3.453   4.427  0.1845 -1.0686 -0.1425
 4427SOL     OW24742   1.483   4.270   1.919 -0.0538  0.0518  0.2343
 4427SOL    HW124743   1.568   4.240   1.886 -0.4183  1.5801 -2.0817
 4427SOL    HW224744   1.527   4.317   1.990  0.5119  0.0333 -0.0983
 4428SOL     OW24745   1.701   2.017   1.801 -0.2637 -0.3054  0.5713
 4428SOL    HW124746   1.650   1.957   1.855  0.6217 -1.0459  0.5803
 4428SOL    HW224747   1.704   2.104   1.841  1.7475 -0.1180  0.0140
 4429SOL     OW24748   2.872   4.293   8.888 -0.0140 -0.9471 -0.4143
 4429SOL    HW124749   2.815   4.366   8.861  2.2212  0.2698 -1.8475
 4429SOL    HW224750   2.813   4.220   8.868  1.3682 -0.8694 -4.8494
 4430SOL     OW24751   1.924   2.702  12.055  0.5273 -0.2540 -0.4512
 4430SOL    HW124752   1.944   2.634  12.120 -1.2462 -1.0542 -0.7385
 4430SOL    HW224753   1.900   2.777  12.109 -0.1220 -1.3757  0.8285
 4431SOL     OW24754   3.304   1.606   5.995  0.0384 -0.3056 -0.0776
 4431SOL    HW124755   3.349   1.536   5.948  2.0985  0.9592  0.0369
 4431SOL    HW224756   3.290   1.555   6.075 -0.2462 -2.0168 -1.2138
 4432SOL     OW24757   4.005   2.979  17.446  0.4650 -0.1349 -0.0629
 4432SOL    HW124758   4.026   3.018  17.532 -2.3693  0.7796  0.2042
 4432SOL    HW224759   3.910   2.989  17.453  0.7025  1.0263  1.8926
 4433SOL     OW24760   1.944   1.919   3.212 -0.1136  0.5757 -0.1314
 4433SOL    HW124761   1.993   1.924   3.129 -0.4347  0.3574 -0.3349
 4433SOL    HW224762   1.977   1.996   3.259 -1.6463  1.5450 -0.6255
 4434SOL     OW24763   0.922   2.852   7.884 -0.2354  0.2345 -0.4435
 4434SOL    HW124764   0.930   2.758   7.899  0.5001  0.2378 -0.8083
 4434SOL    HW224765   0.839   2.865   7.838  0.7146 -1.2300 -2.5428
 4435SOL     OW24766   2.025   1.406   1.284  0.0250 -0.8969  0.0281
 4435SOL    HW124767   1.969   1.413   1.361 -0.7648  0.4097 -0.6769
 4435SOL    HW224768   2.082   1.336   1.317 -0.3038 -1.2454 -0.1443
 4436SOL     OW24769   1.336   2.916  16.815 -0.0993 -0.3491 -0.3042
 4436SOL    HW124770   1.362   3.007  16.828  0.6787 -0.9456  2.3060
 4436SOL    HW224771   1.273   2.905  16.885  0.8669 -0.6838  0.5140
 4437SOL     OW24772   4.469   1.070   5.260 -0.8591  0.2150  0.2077
 4437SOL    HW124773   4.415   1.040   5.333 -0.3683 -0.2025  0.3997
 4437SOL    HW224774   4.485   1.158   5.295  2.0067  0.6237 -2.1309
 4438SOL     OW24775   4.664   1.753   7.649 -0.2546  0.2803  0.0420
 4438SOL    HW124776   4.600   1.708   7.592 -0.7824  0.1587  0.7360
 4438SOL    HW224777   0.018   1.699   7.625  1.5572  1.5255  2.9731
 4439SOL     OW24778   3.980   3.805  17.245 -0.0394  0.1847  0.2613
 4439SOL    HW124779   3.992   3.884  17.297  0.4650 -0.0881  0.5580
 4439SOL    HW224780   4.004   3.741  17.312  1.8013  1.3458  0.6831
 4440SOL     OW24781   0.165   2.887  15.240  0.3719  0.3003  0.2877
 4440SOL    HW124782   0.078   2.878  15.202 -0.1824  0.3318  1.5680
 4440SOL    HW224783   0.198   2.961  15.189 -0.3799 -0.2881 -1.0643
 4441SOL     OW24784   2.070   4.368  16.791 -0.4722  0.1176 -0.8156
 4441SOL    HW124785   2.066   4.449  16.740 -0.6218  1.3042  1.0869
 4441SOL    HW224786   2.150   4.381  16.840  0.1283 -0.6787 -1.5716
 4442SOL     OW24787   2.374   3.296   7.031  0.0491 -0.4698 -0.0376
 4442SOL    HW124788   2.388   3.372   6.974 -0.6073 -0.6216 -0.3993
 4442SOL    HW224789   2.287   3.295   7.071  0.8026 -0.3764  1.6097
 4443SOL     OW24790   3.972   2.423   0.337 -0.2607 -0.1293  0.5931
 4443SOL    HW124791   3.906   2.483   0.301  0.0971  0.1290  0.3536
 4443SOL    HW224792   3.937   2.341   0.304 -1.3815  0.0477  1.3487
 4444SOL     OW24793   1.178   0.179   3.512 -0.7260 -0.0922  0.0650
 4444SOL    HW124794   1.226   0.145   3.588 -1.2767 -1.2565 -0.1012
 4444SOL    HW224795   1.236   0.250   3.483  1.2256 -1.0934  1.5247
 4445SOL     OW24796   0.746   1.744   6.050  0.1918  0.4843 -0.0166
 4445SOL    HW124797   0.802   1.807   6.004  0.3844  0.0542 -0.3645
 4445SOL    HW224798   0.798   1.666   6.034 -0.2749  0.0237  0.7186
 4446SOL     OW24799   3.171   2.382   5.933  0.1505 -0.3585 -0.6121
 4446SOL    HW124800   3.240   2.315   5.936 -1.1459 -1.7398 -2.5353
 4446SOL    HW224801   3.215   2.453   5.980  0.6403 -0.6687 -0.5939
 4447SOL     OW24802   0.212   0.611   4.256 -0.1860  0.1432  0.4105
 4447SOL    HW124803   0.152   0.577   4.188  0.6211 -1.3191  0.4246
 4447SOL    HW224804   0.299   0.594   4.221 -0.5648 -0.2761 -0.3269
 4448SOL     OW24805   1.324   3.373  15.089 -0.0432  0.4385  0.7254
 4448SOL    HW124806   1.323   3.468  15.085 -0.0341  0.3717 -0.9426
 4448SOL    HW224807   1.353   3.345  15.002  2.4797  1.6664  1.1848
 4449SOL     OW24808   1.079   1.798  11.886 -0.3088 -0.1434 -0.2252
 4449SOL    HW124809   1.006   1.739  11.903 -1.3100  0.6219 -1.8910
 4449SOL    HW224810   1.082   1.796  11.790  0.8449  0.5322 -0.2059
 4450SOL     OW24811   1.837   0.791  15.618 -0.5374 -0.1700  0.0033
 4450SOL    HW124812   1.932   0.808  15.617 -0.5710  0.0413  0.3460
 4450SOL    HW224813   1.812   0.872  15.573  1.2001 -0.2783 -1.1536
 4451SOL     OW24814   1.476   4.347  14.198  0.0385 -0.0881  0.1971
 4451SOL    HW124815   1.494   4.398  14.277 -1.3006 -0.5601  0.8102
 4451SOL    HW224816   1.482   4.416  14.132  1.3572  0.2776  0.7083
 4452SOL     OW24817   0.459   0.347  10.577 -0.5907  0.1926  0.4968
 4452SOL    HW124818   0.448   0.253  10.568  0.2341 -0.0302  1.8782
 4452SOL    HW224819   0.531   0.350  10.640 -0.8907  0.2356  0.8349
 4453SOL     OW24820   3.234   1.017   4.076 -0.3168 -0.2920  0.2376
 4453SOL    HW124821   3.178   1.086   4.042  1.2348  1.1947  0.7152
 4453SOL    HW224822   3.287   0.987   4.002  1.8174 -1.5608  2.2500
 4454SOL     OW24823   2.435   0.386  15.248  0.4115  0.1321 -0.4382
 4454SOL    HW124824   2.481   0.469  15.241 -0.2908  0.5225 -0.3696
 4454SOL    HW224825   2.418   0.357  15.158  2.6731  2.3958 -1.5797
 4455SOL     OW24826   0.469   2.252   7.647 -0.6175  0.3535 -0.0467
 4455SOL    HW124827   0.458   2.256   7.742 -1.0773  0.3692 -0.0982
 4455SOL    HW224828   0.497   2.161   7.636 -0.3015  0.3207  0.9757
 4456SOL     OW24829   2.837   4.620  17.645 -0.3726  0.0315  0.3965
 4456SOL    HW124830   2.801   4.586  17.563 -2.7951  0.3261  1.3460
 4456SOL    HW224831   2.909   4.562  17.670  0.1577  0.4349 -0.2075
 4457SOL     OW24832   1.127   0.353   7.421  0.3470  0.1124  0.1692
 4457SOL    HW124833   1.054   0.296   7.399  0.6680 -0.6885  1.2140
 4457SOL    HW224834   1.083   0.408   7.486 -1.0148  1.0723 -1.5581
 4458SOL     OW24835   0.756   0.475   6.830  0.0387 -0.6702 -0.4999
 4458SOL    HW124836   0.727   0.397   6.877 -0.1145  0.3081  1.0275
 4458SOL    HW224837   0.851   0.468   6.840 -0.2842 -2.5274  1.2393
 4459SOL     OW24838   1.835   4.228   3.646  0.0148 -0.2233 -0.5395
 4459SOL    HW124839   1.754   4.177   3.643  0.7559 -1.5208  1.2768
 4459SOL    HW224840   1.897   4.163   3.678 -0.5075 -0.7888 -0.6873
 4460SOL     OW24841   3.583   1.874  13.036 -0.1280  0.1051  0.1352
 4460SOL    HW124842   3.574   1.779  13.035  1.6285 -0.0662 -0.9607
 4460SOL    HW224843   3.616   1.892  12.948  0.8378  1.5806  0.8037
 4461SOL     OW24844   1.433   4.189  10.524  0.7297  0.1826 -0.0198
 4461SOL    HW124845   1.414   4.130  10.596  0.5635  1.2698  0.8221
 4461SOL    HW224846   1.362   4.252  10.536  0.0120 -0.2341 -2.0213
 4462SOL     OW24847   1.840   1.359   6.157 -0.2305 -0.1604 -0.2162
 4462SOL    HW124848   1.926   1.399   6.170 -0.4686 -0.5676  2.6822
 4462SOL    HW224849   1.790   1.402   6.227 -0.7360 -0.7778 -0.1996
 4463SOL     OW24850   4.139   0.649  13.976 -0.2092  0.6467  0.0516
 4463SOL    HW124851   4.175   0.710  13.911  0.4013  0.6431  0.3881
 4463SOL    HW224852   4.075   0.608  13.918  0.9096  1.9581 -2.1506
 4464SOL     OW24853   3.904   0.780   3.284  0.2158 -0.4793 -0.0647
 4464SOL    HW124854   3.900   0.816   3.195  0.5931 -0.6761 -0.1602
 4464SOL    HW224855   3.996   0.761   3.302  0.6305  1.9000  0.3769
 4465SOL     OW24856   0.669   2.358   8.028 -0.1187 -0.4930  0.6753
 4465SOL    HW124857   0.631   2.426   8.084 -0.1044  1.2403 -1.4248
 4465SOL    HW224858   0.763   2.378   8.033 -0.0401 -0.1306 -2.3127
 4466SOL     OW24859   1.279   1.946   7.672  0.1762 -0.0680 -0.2088
 4466SOL    HW124860   1.224   1.870   7.695 -1.1437  2.1252  3.7822
 4466SOL    HW224861   1.264   1.955   7.578 -3.1500 -2.2521  0.0754
 4467SOL     OW24862   0.614   2.752   3.640 -0.1961 -0.0524  0.1854
 4467SOL    HW124863   0.650   2.694   3.573 -0.2191 -0.5111  0.5702
 4467SOL    HW224864   0.636   2.839   3.607  2.3019 -0.8174 -0.1707
 4468SOL     OW24865   3.280   1.158   8.085 -0.2338 -0.3202  0.4566
 4468SOL    HW124866   3.255   1.180   7.995 -0.9125  0.0210  0.7354
 4468SOL    HW224867   3.194   1.132   8.117 -0.5069 -1.3304 -1.0840
 4469SOL     OW24868   3.166   1.849   8.945 -0.4461 -0.0028 -0.5964
 4469SOL    HW124869   3.108   1.899   8.887 -2.1741 -0.4192  0.7988
 4469SOL    HW224870   3.102   1.831   9.013  1.2491 -0.3689  0.9053
 4470SOL     OW24871   1.252   1.399  10.091 -0.1510 -0.4198  0.0298
 4470SOL    HW124872   1.192   1.458  10.046 -1.1420 -1.9178 -0.5947
 4470SOL    HW224873   1.332   1.450  10.105 -0.5066  0.0470  0.3526
 4471SOL     OW24874   0.795   1.340  14.913  0.4806  0.3118  0.2758
 4471SOL    HW124875   0.732   1.405  14.943 -0.0782 -0.4765  0.8309
 4471SOL    HW224876   0.855   1.397  14.866  0.3560 -0.8177 -1.2438
 4472SOL     OW24877   4.573   4.442   2.425  0.0625  0.0182 -0.1562
 4472SOL    HW124878   4.517   4.418   2.351  1.3146  1.6874 -1.6366
 4472SOL    HW224879   4.545   4.382   2.495  0.9543  0.3657  0.5008
 4473SOL     OW24880   1.984   0.259   9.261 -0.1573  0.3129 -0.3881
 4473SOL    HW124881   2.021   0.297   9.340 -1.2032 -1.9755  1.1741
 4473SOL    HW224882   1.915   0.323   9.240  0.4492  1.6922  1.8467
 4474SOL     OW24883   2.318   4.659  17.057  0.2707 -0.2672  0.1158
 4474SOL    HW124884   2.286   0.023  17.031  2.1803  1.0962  2.2954
 4474SOL    HW224885   2.388   4.688  17.114  0.2534  0.3027 -0.1558
 4475SOL     OW24886   4.307   1.522   2.989 -0.1325 -0.5292  0.5338
 4475SOL    HW124887   4.222   1.482   3.007  0.0115 -0.8199  0.5744
 4475SOL    HW224888   4.304   1.526   2.893  1.0383 -0.5415  0.4969
 4476SOL     OW24889   4.375   0.706   9.168 -0.2258  0.1256  0.2729
 4476SOL    HW124890   4.448   0.645   9.166 -2.1266 -2.1321 -0.9426
 4476SOL    HW224891   4.321   0.676   9.095  0.6904  0.5339 -0.5793
 4477SOL     OW24892   1.042   3.406   8.060  0.3167 -0.1782 -0.3935
 4477SOL    HW124893   0.994   3.484   8.088 -0.5061 -0.7451 -0.2009
 4477SOL    HW224894   1.132   3.416   8.089 -0.2189  1.9576  0.5709
 4478SOL     OW24895   2.033   4.420  11.464 -0.1026 -0.1996 -0.0670
 4478SOL    HW124896   2.010   4.491  11.523 -0.7514 -2.2234  2.1180
 4478SOL    HW224897   1.987   4.341  11.493 -1.5982  0.6990 -0.0018
 4479SOL     OW24898   2.247   2.067  12.845 -0.1805  0.0523 -0.3981
 4479SOL    HW124899   2.241   1.981  12.802  3.1255 -0.0713 -0.6104
 4479SOL    HW224900   2.236   2.122  12.767  1.1130  0.2741 -0.4148
 4480SOL     OW24901   2.318   4.513   5.050  0.5025 -0.6495 -0.6224
 4480SOL    HW124902   2.326   4.571   4.974  1.8851  0.6405  0.5316
 4480SOL    HW224903   2.258   4.448   5.013  0.7970 -0.1386 -1.9947
 4481SOL     OW24904   4.569   1.341   6.582  0.4973 -0.4122  0.0411
 4481SOL    HW124905   4.616   1.278   6.527  2.0451  0.2605  0.6160
 4481SOL    HW224906   4.620   1.380   6.652  0.6616  0.2775 -0.4688
 4482SOL     OW24907   4.530   3.088   6.576  0.0183  0.1447 -0.2179
 4482SOL    HW124908   4.589   3.066   6.648 -1.0697  2.0944  1.2899
 4482SOL    HW224909   4.585   3.126   6.508 -0.1755 -0.8387 -0.9203
 4483SOL     OW24910   0.340   1.579   3.035 -0.2107  0.1103  0.0357
 4483SOL    HW124911   0.247   1.576   3.010 -0.2632 -1.3751  0.3668
 4483SOL    HW224912   0.337   1.587   3.131 -0.6165  3.3123 -0.2667
 4484SOL     OW24913   3.487   3.816   9.350 -0.3999 -0.5944 -0.9564
 4484SOL    HW124914   3.528   3.827   9.436 -1.8002  0.1137 -0.3696
 4484SOL    HW224915   3.459   3.725   9.364 -1.6560 -0.2872 -1.4584
 4485SOL     OW24916   3.233   1.692   7.944 -0.3446  0.1021 -0.4505
 4485SOL    HW124917   3.158   1.642   7.911  0.9625 -2.3690  0.3575
 4485SOL    HW224918   3.219   1.780   7.908  0.7894  0.6476  0.4541
 4486SOL     OW24919   4.387   3.290  10.192 -0.1001 -0.4805 -0.1832
 4486SOL    HW124920   4.387   3.320  10.283  3.5732 -0.7867 -0.0768
 4486SOL    HW224921   4.480   3.296  10.168  0.2424 -0.4649  1.1446
 4487SOL     OW24922   3.699   1.741   8.227 -0.1883 -0.3071 -0.7829
 4487SOL    HW124923   3.621   1.706   8.185 -0.5386 -0.8000  0.2778
 4487SOL    HW224924   3.657   1.764   8.310 -1.0537  0.8124 -1.5232
 4488SOL     OW24925   4.610   4.651  17.354 -0.6085  0.4985  0.5532
 4488SOL    HW124926   4.675   4.669  17.286  0.9701  0.6117  2.0661
 4488SOL    HW224927   4.526   4.680  17.319 -1.8002 -1.3169  1.8836
 4489SOL     OW24928   3.687   2.408   3.309 -0.1068 -0.1972 -0.2451
 4489SOL    HW124929   3.651   2.480   3.361  1.3497  0.1835  0.2291
 4489SOL    HW224930   3.770   2.385   3.351 -0.5661  1.4202  1.5334
 4490SOL     OW24931   1.444   4.404   9.205  0.0411 -0.1936  0.5390
 4490SOL    HW124932   1.536   4.412   9.179  1.0164 -1.2494  3.5915
 4490SOL    HW224933   1.454   4.341   9.277  0.4080 -0.9856 -0.2064
 4491SOL     OW24934   0.655   0.304   8.584  0.3067 -0.3246 -0.1605
 4491SOL    HW124935   0.707   0.237   8.539  1.4290  0.6427 -0.3263
 4491SOL    HW224936   0.716   0.330   8.654 -0.3365  2.8855 -0.7629
 4492SOL     OW24937   3.535   3.495   2.520 -0.5360  0.7057  0.5028
 4492SOL    HW124938   3.520   3.417   2.467  1.6721  1.6491 -1.5119
 4492SOL    HW224939   3.542   3.447   2.603 -1.0234 -1.0027 -0.4685
 4493SOL     OW24940   4.344   2.606   0.550  0.1175 -1.3122 -0.1878
 4493SOL    HW124941   4.272   2.543   0.552 -0.7463 -0.3178  0.0161
 4493SOL    HW224942   4.359   2.611   0.645 -0.6625 -0.2676 -0.1212
 4494SOL     OW24943   1.708   0.026   3.469  0.0600 -0.1661 -0.1375
 4494SOL    HW124944   1.797   0.057   3.483  0.9250 -2.7647  0.0854
 4494SOL    HW224945   1.712   4.655   3.493 -0.5014 -0.0332  0.4695
 4495SOL     OW24946   2.482   3.945   7.275 -0.1492  0.6413 -0.2182
 4495SOL    HW124947   2.482   3.932   7.370  1.5185 -0.1686 -0.3358
 4495SOL    HW224948   2.549   3.881   7.252  0.3897  0.5292  1.6588
 4496SOL     OW24949   0.548   3.052  14.979 -0.4099 -0.1812 -0.0843
 4496SOL    HW124950   0.598   3.065  15.060  0.2686 -0.1491 -0.5092
 4496SOL    HW224951   0.511   2.965  14.990  3.6907 -1.8241  0.7541
 4497SOL     OW24952   2.629   3.031   5.156 -0.0113  0.2797  0.0333
 4497SOL    HW124953   2.720   3.006   5.166  0.0540  0.0213 -1.1456
 4497SOL    HW224954   2.597   2.946   5.126 -0.5885  1.0355 -1.5230
 4498SOL     OW24955   2.686   1.130   7.216  0.3510  0.0910 -0.0908
 4498SOL    HW124956   2.693   1.047   7.168 -0.7414 -1.4600  2.4338
 4498SOL    HW224957   2.768   1.124   7.265 -0.5635  1.1912  1.5796
 4499SOL     OW24958   1.817   2.710   1.521  0.0817  0.1318 -0.0138
 4499SOL    HW124959   1.888   2.693   1.584 -0.4123  2.2759  1.1018
 4499SOL    HW224960   1.740   2.719   1.577  1.0865  2.0291  1.0750
 4500SOL     OW24961   2.848   2.720   1.700  0.0044  0.4193  0.4097
 4500SOL    HW124962   2.838   2.689   1.790  0.7878 -0.9889  0.0133
 4500SOL    HW224963   2.921   2.665   1.671  2.2084  2.3245  2.3772
 4501SOL     OW24964   3.811   0.282   9.222  0.3502 -0.5673 -0.0400
 4501SOL    HW124965   3.894   0.243   9.193  0.4837 -1.0145  0.9493
 4501SOL    HW224966   3.829   0.374   9.241  1.3337 -0.2079 -2.6012
 4502SOL     OW24967   2.933   3.650   5.224  0.0827  0.4976  0.0936
 4502SOL    HW124968   2.900   3.632   5.312  0.0861  0.8666  0.1685
 4502SOL    HW224969   2.852   3.651   5.174 -0.5938  1.5231  1.2139
 4503SOL     OW24970   2.588   0.814   7.287  0.2721  0.1756  0.3675
 4503SOL    HW124971   2.570   0.722   7.304  2.6803 -0.0864  1.5179
 4503SOL    HW224972   2.648   0.799   7.214 -0.5615 -2.6140  0.2663
 4504SOL     OW24973   0.049   1.512  10.306  0.2122  0.3810  0.0804
 4504SOL    HW124974   4.710   1.444  10.337  1.0904  0.7105  2.5028
 4504SOL    HW224975   0.128   1.479  10.349  0.6932  1.8243  0.2751
 4505SOL     OW24976   4.573   3.702   5.804 -0.2770  0.1707  0.2212
 4505SOL    HW124977   4.537   3.728   5.889 -0.3067  0.2738  0.1773
 4505SOL    HW224978   4.525   3.755   5.741  0.3450 -0.7411 -1.0350
 4506SOL     OW24979   2.521   1.246   3.533  0.0187 -0.4306 -0.5523
 4506SOL    HW124980   2.569   1.325   3.508  0.9883 -0.7156  0.4100
 4506SOL    HW224981   2.595   1.190   3.556  0.1887 -0.3933 -1.0183
 4507SOL     OW24982   1.856   2.418   8.752  0.2048 -0.0217 -0.0556
 4507SOL    HW124983   1.950   2.401   8.763  0.2550 -1.5683 -2.7356
 4507SOL    HW224984   1.826   2.357   8.819 -0.8764  0.1390 -0.4040
 4508SOL     OW24985   1.723   1.962   3.946  0.1706 -0.9103  0.1374
 4508SOL    HW124986   1.767   1.929   3.867  2.2110  0.1382  0.8265
 4508SOL    HW224987   1.746   1.894   4.010  0.6823  1.0527  2.0169
 4509SOL     OW24988   0.837   3.365   7.038  0.3716  0.7565  0.1289
 4509SOL    HW124989   0.821   3.348   7.130 -1.2971 -1.4971 -0.5735
 4509SOL    HW224990   0.857   3.458   7.035 -0.9513  0.9815 -1.6742
 4510SOL     OW24991   0.096   1.595  13.221  0.0543  0.0022 -0.7049
 4510SOL    HW124992   0.005   1.589  13.190 -0.2407 -1.3850  0.3797
 4510SOL    HW224993   0.145   1.636  13.151  1.5215 -1.2968 -0.4532
 4511SOL     OW24994   2.881   0.296   2.736  0.3504  0.0415  0.5851
 4511SOL    HW124995   2.809   0.255   2.785  0.5134 -1.1905 -0.1959
 4511SOL    HW224996   2.832   0.355   2.678 -0.1899 -0.1968  0.7907
 4512SOL     OW24997   1.740   4.321   4.786 -0.0667 -0.2454 -0.1167
 4512SOL    HW124998   1.654   4.325   4.828 -0.4972 -0.6590 -0.9587
 4512SOL    HW224999   1.788   4.386   4.837 -0.2980 -0.3434  0.2262
 4513SOL     OW25000   3.093   2.218  11.576  0.1637 -0.0859 -0.3000
 4513SOL    HW125001   3.092   2.139  11.522  1.3496 -0.1403 -0.2278
 4513SOL    HW225002   3.000   2.244  11.577  0.7668  2.1127 -0.4990
 4514SOL     OW25003   1.194   1.943   7.409  0.0576  0.5011  1.0667
 4514SOL    HW125004   1.131   1.979   7.346 -0.4418 -0.0503  1.2496
 4514SOL    HW225005   1.195   1.854   7.375 -0.2954  0.5570  0.9067
 4515SOL     OW25006   1.445   0.980   4.553 -0.3169  0.2498 -0.0351
 4515SOL    HW125007   1.403   0.923   4.488 -0.8466  0.4576  0.1187
 4515SOL    HW225008   1.520   0.929   4.585 -0.8519  0.1117  1.0044
 4516SOL     OW25009   0.815   3.326   6.305  0.4230 -0.1635  0.8153
 4516SOL    HW125010   0.787   3.238   6.327  0.0223 -0.4963 -1.0498
 4516SOL    HW225011   0.910   3.316   6.312  0.4090  0.2144  1.5268
 4517SOL     OW25012   1.954   0.803   2.930 -0.4677  0.2417  0.8181
 4517SOL    HW125013   1.928   0.832   3.017  2.0058 -1.4659  2.1009
 4517SOL    HW225014   2.045   0.800   2.960 -1.0104 -2.6143  2.1375
 4518SOL     OW25015   2.196   3.225   1.747 -0.2067 -0.6133  0.2875
 4518SOL    HW125016   2.238   3.139   1.757  2.0351  0.2834 -1.7122
 4518SOL    HW225017   2.112   3.190   1.717 -0.9851  2.2075 -0.8450
 4519SOL     OW25018   0.688   1.169   5.490  0.5069 -0.1358  0.3089
 4519SOL    HW125019   0.708   1.128   5.574 -1.1532  0.4444  0.9975
 4519SOL    HW225020   0.752   1.236   5.467  0.3272 -0.9417 -2.5337
 4520SOL     OW25021   4.071   0.690   2.507  0.1624 -0.0612 -0.0080
 4520SOL    HW125022   4.019   0.765   2.535  0.3765  0.4097 -0.8563
 4520SOL    HW225023   4.129   0.731   2.443  0.1608 -0.3604 -0.2065
 4521SOL     OW25024   3.766   3.218   7.511 -0.1618  0.8409  0.1597
 4521SOL    HW125025   3.727   3.298   7.545  0.8793  0.9135  1.1734
 4521SOL    HW225026   3.696   3.165   7.472  0.2916  2.2504 -2.5335
 4522SOL     OW25027   2.148   3.887  10.211  0.3711 -0.0033 -0.2028
 4522SOL    HW125028   2.163   3.978  10.184  0.8193  0.5649  1.9753
 4522SOL    HW225029   2.191   3.893  10.296  0.1945  2.5003 -0.2751
 4523SOL     OW25030   1.043   0.616  14.596  0.4410  0.1942  0.3223
 4523SOL    HW125031   1.119   0.662  14.561 -1.1167  3.5091  1.2820
 4523SOL    HW225032   0.967   0.647  14.546  1.6292  0.7667 -1.1340
 4524SOL     OW25033   0.768   1.085  11.240  0.4668 -0.0342 -0.4031
 4524SOL    HW125034   0.718   1.042  11.309  2.1871  1.0880  1.5368
 4524SOL    HW225035   0.786   1.172  11.274 -3.6261 -0.0228  1.7950
 4525SOL     OW25036   0.184   1.857   3.440 -0.4413  0.2311  0.6563
 4525SOL    HW125037   0.237   1.934   3.461 -0.5963  0.1009  1.5226
 4525SOL    HW225038   0.167   1.882   3.349 -0.8011 -0.5808  0.5016
 4526SOL     OW25039   3.705   4.553   3.544  0.3567 -0.0152 -0.4231
 4526SOL    HW125040   3.669   4.494   3.610  0.6675  1.0638  0.7207
 4526SOL    HW225041   3.789   4.568   3.589 -0.4898 -0.7934  1.4362
 4527SOL     OW25042   0.185   0.268  15.731  0.0870  0.0276 -0.3154
 4527SOL    HW125043   0.279   0.262  15.748 -0.2123  0.8945  1.6125
 4527SOL    HW225044   0.172   0.346  15.785  0.1304  0.7929 -1.4074
 4528SOL     OW25045   3.173   3.414   3.061  0.5217  0.1985 -0.2731
 4528SOL    HW125046   3.095   3.459   3.028  0.1527 -0.3315 -0.1269
 4528SOL    HW225047   3.151   3.321   3.056 -1.9168  0.7155  0.7661
 4529SOL     OW25048   4.137   1.851   4.358 -0.2924  0.5132 -0.1738
 4529SOL    HW125049   4.109   1.943   4.352 -0.2941  0.5979  1.1025
 4529SOL    HW225050   4.219   1.854   4.309 -1.2996 -1.0177 -1.9188
 4530SOL     OW25051   0.281   0.515  11.827  0.0216  0.0555 -0.4778
 4530SOL    HW125052   0.244   0.557  11.904  3.3948  0.9717  0.6179
 4530SOL    HW225053   0.203   0.467  11.798  0.6680 -0.1302 -1.9219
 4531SOL     OW25054   3.970   3.598   2.430  0.1249 -0.4505  0.2432
 4531SOL    HW125055   4.017   3.676   2.400 -0.6581  0.5712  1.6699
 4531SOL    HW225056   3.948   3.610   2.522  0.9583 -1.3587  0.5528
 4532SOL     OW25057   4.175   3.323  10.518 -0.0850  0.4022  0.1590
 4532SOL    HW125058   4.153   3.415  10.529 -0.3150  0.4382 -0.5839
 4532SOL    HW225059   4.113   3.302  10.448  0.8718  0.0375 -0.5842
 4533SOL     OW25060   2.995   0.173   8.327 -0.0454 -0.6682 -0.0777
 4533SOL    HW125061   3.015   0.094   8.377 -0.1907  0.2768  1.4821
 4533SOL    HW225062   3.064   0.233   8.356 -0.1981  0.0872 -1.3056
 4534SOL     OW25063   4.364   0.565   9.674  0.0585 -0.0058  0.1484
 4534SOL    HW125064   4.392   0.651   9.705 -1.3511  0.7585 -0.6592
 4534SOL    HW225065   4.269   0.571   9.660 -0.2609  0.7842  2.7446
 4535SOL     OW25066   2.190   3.765   4.011 -0.3449 -0.2144  0.7322
 4535SOL    HW125067   2.262   3.709   4.037  0.1872  0.1267  0.0111
 4535SOL    HW225068   2.227   3.809   3.933 -1.1727  1.6887  1.4082
 4536SOL     OW25069   1.018   3.064   6.459 -0.1223  0.6244  0.0386
 4536SOL    HW125070   1.111   3.071   6.483  0.1946  1.9693 -1.5940
 4536SOL    HW225071   0.973   3.044   6.540 -1.7289  1.5862 -0.6203
 4537SOL     OW25072   3.297   1.869   8.193 -0.2508 -0.1595  0.0582
 4537SOL    HW125073   3.378   1.834   8.230 -0.8372 -0.2363  1.2670
 4537SOL    HW225074   3.308   1.867   8.098  3.2305 -1.1877  0.4937
 4538SOL     OW25075   0.494   1.467  14.949 -0.4703  0.0304 -0.1138
 4538SOL    HW125076   0.508   1.400  15.016 -1.3313  0.9064  0.9547
 4538SOL    HW225077   0.400   1.469  14.930 -0.7014 -2.2285  0.8715
 4539SOL     OW25078   3.172   1.321  16.707 -0.3617  0.0896 -0.2480
 4539SOL    HW125079   3.089   1.290  16.744  0.2380 -1.1974  0.0334
 4539SOL    HW225080   3.221   1.240  16.694  0.6630  0.5195  0.9116
 4540SOL     OW25081   2.274   3.048   6.040 -0.3966  0.4150  0.0288
 4540SOL    HW125082   2.208   3.014   6.100  0.1379  2.0029  1.5159
 4540SOL    HW225083   2.303   2.963   6.007 -2.8427  1.0765 -3.7948
 4541SOL     OW25084   2.666   0.055   9.152 -0.1761  0.4045  0.6762
 4541SOL    HW125085   2.591   0.084   9.203 -1.0591 -0.0522 -0.3611
 4541SOL    HW225086   2.723   0.064   9.228  0.4114  2.3344  0.0179
 4542SOL     OW25087   4.441   4.585   5.857  0.1520  0.4433  0.0626
 4542SOL    HW125088   4.400   4.671   5.871 -1.6320 -0.6747  1.7399
 4542SOL    HW225089   4.418   4.532   5.933 -0.8263  1.7816  0.7020
 4543SOL     OW25090   1.150   2.458  11.970 -0.1461  0.0884 -0.5970
 4543SOL    HW125091   1.142   2.407  12.050 -3.4190  1.5247 -0.0016
 4543SOL    HW225092   1.233   2.435  11.929  0.1252 -0.5809  0.3220
 4544SOL     OW25093   1.996   1.552   9.160  0.4429  0.5610 -0.1382
 4544SOL    HW125094   1.969   1.505   9.082  0.5531 -1.2137  0.8994
 4544SOL    HW225095   1.991   1.640   9.124 -1.2845  0.8516  0.8123
 4545SOL     OW25096   3.453   1.120  10.689 -0.1641 -0.0660 -0.1915
 4545SOL    HW125097   3.494   1.071  10.761  1.7635 -0.6350 -1.6928
 4545SOL    HW225098   3.412   1.048  10.640  2.4199 -1.0174 -0.9393
 4546SOL     OW25099   3.357   1.862  15.155  0.4051  0.2466  0.0256
 4546SOL    HW125100   3.406   1.803  15.212 -0.4516  0.7931  1.3283
 4546SOL    HW225101   3.427   1.925  15.133  1.3559 -0.5466  0.7781
 4547SOL     OW25102   1.611   0.256   5.081 -0.4456 -0.5358  0.2253
 4547SOL    HW125103   1.688   0.261   5.138  0.1255 -0.1617 -0.5870
 4547SOL    HW225104   1.529   0.258   5.130  0.1574  0.0084  1.2192
 4548SOL     OW25105   1.707   4.155  10.592 -0.1673  0.2347  0.1196
 4548SOL    HW125106   1.657   4.106  10.657 -0.7084  0.2022 -0.3219
 4548SOL    HW225107   1.637   4.191  10.537 -0.5317  0.4054  0.6880
 4549SOL     OW25108   4.437   3.569   6.618 -0.8353 -0.6353 -0.1999
 4549SOL    HW125109   4.352   3.612   6.621  0.5136  1.8797  1.7429
 4549SOL    HW225110   4.493   3.646   6.607 -0.1957 -1.0104  0.4551
 4550SOL     OW25111   2.621   4.233   1.353  0.4547 -0.4153 -0.2517
 4550SOL    HW125112   2.572   4.188   1.284  0.2174  1.7493 -1.4980
 4550SOL    HW225113   2.570   4.314   1.347  0.3933 -0.3893  0.7091
 4551SOL     OW25114   2.836   0.428  10.688  0.0308 -0.0668  0.4559
 4551SOL    HW125115   2.906   0.424  10.622  0.7282 -2.5228  1.3096
 4551SOL    HW225116   2.861   0.340  10.719  1.1721 -0.5228 -1.7172
 4552SOL     OW25117   0.456   2.563  11.385 -0.3438 -0.3168  0.4096
 4552SOL    HW125118   0.460   2.610  11.469  0.5946  0.0586  0.1564
 4552SOL    HW225119   0.367   2.590  11.363  0.1183  0.2389 -0.7459
 4553SOL     OW25120   0.755   2.325   9.760 -0.3139 -0.2386 -0.0525
 4553SOL    HW125121   0.755   2.419   9.742  0.6082  0.1198  1.8344
 4553SOL    HW225122   0.660   2.317   9.754 -0.1654 -2.6135  0.7201
 4554SOL     OW25123   3.352   1.725  12.705 -0.6145  0.8586  0.2377
 4554SOL    HW125124   3.388   1.810  12.730  4.6892 -1.5800  0.8357
 4554SOL    HW225125   3.387   1.672  12.776  1.5888  0.7481 -0.9386
 4555SOL     OW25126   2.115   1.388  17.248  0.5558  0.0039  0.3460
 4555SOL    HW125127   2.044   1.444  17.218  1.1173  0.5174 -0.0400
 4555SOL    HW225128   2.077   1.343  17.324 -1.0417  0.7136 -0.0434
 4556SOL     OW25129   2.807   0.582  14.739 -0.0253 -0.1887 -0.1980
 4556SOL    HW125130   2.719   0.592  14.703  0.3498  0.2081 -1.0113
 4556SOL    HW225131   2.872   0.591  14.669 -1.5597 -0.0199 -1.5813
 4557SOL     OW25132   1.421   2.333   0.233  0.4424 -0.1168  0.5541
 4557SOL    HW125133   1.412   2.279   0.155  0.6228  0.0538  0.4164
 4557SOL    HW225134   1.332   2.325   0.268  0.2181 -1.3211 -0.2863
 4558SOL     OW25135   3.115   3.788   5.704  0.4085  0.0527  0.1560
 4558SOL    HW125136   3.127   3.879   5.732 -1.6241  0.1939  0.6278
 4558SOL    HW225137   3.107   3.795   5.609 -2.0344  1.4073  0.4532
 4559SOL     OW25138   3.668   1.758   0.691 -0.6154 -0.3094 -0.2765
 4559SOL    HW125139   3.574   1.776   0.697 -0.4771  0.5405 -0.5978
 4559SOL    HW225140   3.669   1.663   0.693 -2.9301 -0.2832  1.4640
 4560SOL     OW25141   2.896   2.757   7.056 -0.4200  0.0123 -0.0567
 4560SOL    HW125142   2.923   2.845   7.081 -1.9297  0.2143  0.8622
 4560SOL    HW225143   2.891   2.724   7.145  1.5811 -1.0123 -0.3223
 4561SOL     OW25144   0.541   1.109  11.778  0.3429  0.5351 -0.1834
 4561SOL    HW125145   0.560   1.170  11.707 -0.1496  1.7372  0.7344
 4561SOL    HW225146   0.548   1.162  11.857 -1.3117  0.9854 -0.3478
 4562SOL     OW25147   4.707   2.184   2.188 -0.5397 -0.5100 -0.2751
 4562SOL    HW125148   4.653   2.119   2.143 -0.4315 -0.5606 -0.3343
 4562SOL    HW225149   4.710   2.256   2.125 -0.9466 -1.4074 -1.3173
 4563SOL     OW25150   0.393   2.059   1.574 -0.5960  0.2302  0.2371
 4563SOL    HW125151   0.344   2.034   1.495  3.2932  1.5244 -2.5913
 4563SOL    HW225152   0.363   1.990   1.634  1.5103  0.3548  1.4228
 4564SOL     OW25153   4.232   0.299   6.082 -0.3735  0.2074  0.3150
 4564SOL    HW125154   4.173   0.336   6.146  0.8498  0.0085  1.5567
 4564SOL    HW225155   4.196   0.334   6.000  0.7932 -1.7977 -1.0680
 4565SOL     OW25156   1.650   3.974  16.114  0.1915 -0.6186  0.0731
 4565SOL    HW125157   1.704   4.052  16.098 -0.0255 -0.0912  1.9018
 4565SOL    HW225158   1.613   4.004  16.197  0.3534  2.0584 -0.8288
 4566SOL     OW25159   2.068   3.263   7.302  0.1156 -0.2562 -0.2798
 4566SOL    HW125160   2.108   3.325   7.363  3.5153 -2.2708 -0.4491
 4566SOL    HW225161   2.066   3.311   7.220  3.0715  2.8409  1.4679
 4567SOL     OW25162   3.156   0.250  13.510  0.0435 -0.6201 -0.0110
 4567SOL    HW125163   3.099   0.280  13.439 -0.2051  0.0557  0.4712
 4567SOL    HW225164   3.126   0.162  13.531 -0.2783 -0.5227 -0.0577
 4568SOL     OW25165   1.238   0.951   1.542 -0.1559 -0.2612  0.3938
 4568SOL    HW125166   1.285   0.949   1.459  0.0859  0.5908  0.5108
 4568SOL    HW225167   1.271   1.031   1.583  0.1397 -0.1248 -0.1143
 4569SOL     OW25168   0.464   3.311   8.228  0.2956  0.2983  0.5979
 4569SOL    HW125169   0.416   3.334   8.307  0.0228  0.8258  0.2780
 4569SOL    HW225170   0.491   3.221   8.246 -0.7181 -0.1364 -0.0111
 4570SOL     OW25171   4.468   3.016   5.249 -0.4400 -0.3348  0.5353
 4570SOL    HW125172   4.505   3.035   5.162 -0.0327  1.2182  1.0438
 4570SOL    HW225173   4.548   3.044   5.294 -2.2759  1.4942  2.6876
 4571SOL     OW25174   0.597   2.822   4.442  0.0259  0.6554  0.0460
 4571SOL    HW125175   0.624   2.747   4.495 -1.3044 -1.3328 -2.1120
 4571SOL    HW225176   0.567   2.889   4.503 -0.2583 -1.5497  2.3494
 4572SOL     OW25177   1.180   2.740   1.827  0.6055 -0.0541  0.0985
 4572SOL    HW125178   1.152   2.711   1.740  0.7346  0.4212 -0.1014
 4572SOL    HW225179   1.094   2.775   1.850  0.2205 -1.6084  1.0159
 4573SOL     OW25180   3.786   0.199   5.343 -0.0718 -0.0143 -0.2498
 4573SOL    HW125181   3.795   0.195   5.439 -1.7462  2.8849  0.0164
 4573SOL    HW225182   3.697   0.173   5.320  0.8418 -1.7743 -1.7895
 4574SOL     OW25183   2.692   0.729  10.266 -0.2760 -0.0911  0.3777
 4574SOL    HW125184   2.728   0.808  10.307 -0.8162  0.4029 -0.1163
 4574SOL    HW225185   2.732   0.662  10.322  0.1632 -0.7379 -0.7037
 4575SOL     OW25186   1.298   2.672   1.079  0.3564 -0.2365 -0.8436
 4575SOL    HW125187   1.387   2.638   1.069  1.2086  1.0389  2.3821
 4575SOL    HW225188   1.265   2.661   0.990 -0.7768 -1.4660 -0.2671
 4576SOL     OW25189   1.463   1.749   4.592 -0.7675 -0.1175  0.1667
 4576SOL    HW125190   1.423   1.671   4.628 -0.1559 -0.9975 -1.0434
 4576SOL    HW225191   1.546   1.715   4.557 -2.0867  0.0969 -3.2044
 4577SOL     OW25192   3.720   3.672   7.707 -0.0417 -0.1810 -0.6179
 4577SOL    HW125193   3.788   3.655   7.771 -1.8474 -0.9243  1.1083
 4577SOL    HW225194   3.719   3.767   7.707 -0.3384 -0.1913  0.5032
 4578SOL     OW25195   0.928   4.124   4.861  0.5655 -0.6653 -0.4487
 4578SOL    HW125196   0.996   4.077   4.813 -0.2166 -2.6704  0.4038
 4578SOL    HW225197   0.873   4.133   4.784 -0.0553 -2.5961 -0.2323
 4579SOL     OW25198   2.212   3.521  13.008 -0.1437 -0.2006  0.1412
 4579SOL    HW125199   2.244   3.460  12.942 -0.7039  1.0863 -1.3438
 4579SOL    HW225200   2.155   3.472  13.067 -1.2854  0.0527 -0.7496
 4580SOL     OW25201   2.659   3.092  16.865 -0.2345  0.5693  0.2433
 4580SOL    HW125202   2.698   3.153  16.803  0.1828  1.0449  0.9770
 4580SOL    HW225203   2.575   3.075  16.823  0.9556  0.0561 -1.9156
 4581SOL     OW25204   4.084   4.628   7.294 -0.1166 -0.7867 -0.3474
 4581SOL    HW125205   4.011   4.576   7.261 -0.6895  0.8718 -1.6972
 4581SOL    HW225206   4.109   4.672   7.213  3.1418  2.0168  2.1504
 4582SOL     OW25207   2.377   0.436   7.664 -0.0179  0.3561  0.5704
 4582SOL    HW125208   2.426   0.363   7.704 -0.1009 -0.1591 -0.2765
 4582SOL    HW225209   2.435   0.511   7.681 -2.1372  1.4341  3.1005
 4583SOL     OW25210   4.020   1.295   5.808 -0.4798 -0.0882  0.0136
 4583SOL    HW125211   3.944   1.301   5.750 -0.5222  0.1416  0.0932
 4583SOL    HW225212   4.084   1.328   5.746 -0.5859 -1.2480 -0.7183
 4584SOL     OW25213   0.705   3.250   9.327  0.2249  0.1248 -0.2826
 4584SOL    HW125214   0.641   3.273   9.393  1.8736  0.3769  1.2403
 4584SOL    HW225215   0.702   3.155   9.327  0.7553  0.1068  0.8922
 4585SOL     OW25216   3.156   0.035   4.353 -0.1828 -0.4678 -0.2636
 4585SOL    HW125217   3.177   0.013   4.263  2.2276 -1.2379  0.5034
 4585SOL    HW225218   3.062   0.019   4.362  0.3127 -2.2325  1.7555
 4586SOL     OW25219   4.654   3.637  10.359 -0.0168  0.7695 -0.3935
 4586SOL    HW125220   4.564   3.633  10.328  0.0253 -1.2562 -0.2745
 4586SOL    HW225221   4.688   3.586  10.285  0.2311  0.6478 -0.2003
 4587SOL     OW25222   4.556   0.021   6.183 -0.3496 -0.3168  0.0575
 4587SOL    HW125223   4.575   0.051   6.272 -0.7491 -0.7027  0.2770
 4587SOL    HW225224   4.523   4.655   6.203  2.0135 -1.3105 -0.3893
 4588SOL     OW25225   1.258   0.328   7.813 -0.0950 -0.1372  0.1163
 4588SOL    HW125226   1.284   0.262   7.749 -0.4509  1.0033 -1.2323
 4588SOL    HW225227   1.336   0.333   7.867  0.2090 -1.7745 -0.1892
 4589SOL     OW25228   3.319   2.590  14.464  0.0238 -0.2929 -0.1537
 4589SOL    HW125229   3.383   2.603  14.534 -0.8101  0.8875  0.3724
 4589SOL    HW225230   3.261   2.526  14.507  0.6959  0.0310  1.2495
 4590SOL     OW25231   0.004   1.084   0.491 -0.1348  0.2710 -0.0992
 4590SOL    HW125232   4.704   1.052   0.403 -2.3811 -2.6534  1.5466
 4590SOL    HW225233   0.073   1.025   0.523  0.4406  0.2058 -1.4252
 4591SOL     OW25234   1.487   1.467   4.662  0.2616  0.2002  0.1415
 4591SOL    HW125235   1.485   1.429   4.749 -0.8135 -2.3687 -1.0102
 4591SOL    HW225236   1.564   1.428   4.619  0.7472  0.0213  1.1748
 4592SOL     OW25237   3.447   0.067   0.699 -0.4263  0.0404  0.7387
 4592SOL    HW125238   3.448   0.021   0.783 -0.1945 -0.2778  0.5609
 4592SOL    HW225239   3.365   0.116   0.706 -1.3317 -1.1381 -1.5066
 4593SOL     OW25240   4.660   0.183  16.011  0.2083  0.1244 -0.0455
 4593SOL    HW125241   4.605   0.250  15.971  0.2697 -0.8187 -1.6831
 4593SOL    HW225242   4.669   0.213  16.102 -0.0300 -0.4298  0.1624
 4594SOL     OW25243   0.634   1.520   8.019 -0.9929 -0.4876  0.0118
 4594SOL    HW125244   0.592   1.580   8.081 -2.1624 -1.5144  0.2007
 4594SOL    HW225245   0.723   1.517   8.053 -0.6057 -0.4215 -0.9720
 4595SOL     OW25246   3.768   0.851  12.692 -0.0891 -0.4235  0.6255
 4595SOL    HW125247   3.833   0.868  12.761 -1.0747  1.8529  0.9740
 4595SOL    HW225248   3.825   0.826  12.619  1.2096  1.0924  1.1241
 4596SOL     OW25249   3.456   1.621   7.764  0.1078 -0.4005  0.3084
 4596SOL    HW125250   3.374   1.615   7.813 -2.2745  0.5153 -3.6040
 4596SOL    HW225251   3.480   1.529   7.750 -2.2774 -0.9925  0.2353
 4597SOL     OW25252   4.353   0.550  16.620  0.3236  0.0376 -0.3166
 4597SOL    HW125253   4.334   0.597  16.538 -1.2195 -0.6323 -0.3339
 4597SOL    HW225254   4.269   0.519  16.653  0.2460  1.5896  0.9043
 4598SOL     OW25255   4.133   0.043   7.532 -0.4484  0.2226 -0.0212
 4598SOL    HW125256   4.133   4.717   7.450  0.1251  0.1407  0.0229
 4598SOL    HW225257   4.048   0.019   7.570  0.6604 -0.4214  2.0813
 4599SOL     OW25258   3.855   1.232   9.380 -0.2826  0.4991  0.0734
 4599SOL    HW125259   3.802   1.247   9.301  0.0852  1.4797  0.0242
 4599SOL    HW225260   3.896   1.317   9.391 -0.2096  0.4565  0.1297
 4600SOL     OW25261   0.705   0.195   7.300  0.2182  0.0630 -0.6500
 4600SOL    HW125262   0.725   0.109   7.262 -1.3421 -1.1198  1.2145
 4600SOL    HW225263   0.778   0.201   7.363  1.1022 -1.1752 -1.5664
 4601SOL     OW25264   3.036   0.379   3.875 -0.4642  0.3613  0.3474
 4601SOL    HW125265   3.017   0.308   3.936  1.5059 -0.3846  0.0685
 4601SOL    HW225266   3.095   0.335   3.814 -2.3756 -1.8742  0.1287
 4602SOL     OW25267   1.857   4.031  15.854  0.3962 -0.1573  0.1228
 4602SOL    HW125268   1.848   4.062  15.944 -3.2520  0.5949 -0.4663
 4602SOL    HW225269   1.903   4.098  15.803 -1.1332  0.6083 -0.2794
 4603SOL     OW25270   2.629   1.194   8.557  0.2960  0.2456  0.1330
 4603SOL    HW125271   2.662   1.268   8.506  0.8267 -0.0059  0.1180
 4603SOL    HW225272   2.699   1.180   8.621  0.5119  2.9232  0.4700
 4604SOL     OW25273   2.418   3.536  10.867  0.1669  0.5757  0.4200
 4604SOL    HW125274   2.385   3.489  10.791  0.1913 -1.4453  1.6573
 4604SOL    HW225275   2.497   3.489  10.893  0.1191  0.4458  0.3310
 4605SOL     OW25276   3.508   3.074  11.656 -0.1672 -0.5604  0.3269
 4605SOL    HW125277   3.418   3.097  11.635 -0.2629 -0.5631  0.7529
 4605SOL    HW225278   3.546   3.064  11.568  0.5222  2.7671  0.2448
 4606SOL     OW25279   1.858   1.889   3.719  0.4941  0.2179  0.2221
 4606SOL    HW125280   1.947   1.923   3.712  0.8946 -0.7499  0.5849
 4606SOL    HW225281   1.865   1.822   3.651  0.3336 -0.9209  1.3217
 4607SOL     OW25282   2.064   4.006   5.601  0.2999  0.3636 -0.3462
 4607SOL    HW125283   2.014   4.065   5.658  0.3481  0.1405 -0.0701
 4607SOL    HW225284   2.081   3.929   5.656  0.8640  0.5609 -0.2426
 4608SOL     OW25285   4.352   0.952   7.918  0.5485  0.6587  0.5964
 4608SOL    HW125286   4.275   0.900   7.943  1.0969 -1.8623 -2.9677
 4608SOL    HW225287   4.307   1.025   7.876  0.4179  0.4649  0.4029
 4609SOL     OW25288   1.730   3.783  15.398  0.5277  1.2685  0.0347
 4609SOL    HW125289   1.777   3.830  15.467 -0.8393 -0.8727  2.4027
 4609SOL    HW225290   1.761   3.845  15.332 -3.2477  1.0489 -1.9299
 4610SOL     OW25291   3.297   4.377  16.293  0.3518  0.1568 -0.1547
 4610SOL    HW125292   3.212   4.422  16.294 -0.4436 -1.3115 -1.6068
 4610SOL    HW225293   3.356   4.435  16.244  0.4577 -0.8638 -1.2262
 4611SOL     OW25294   0.593   1.808  11.807 -0.0014  0.4213  0.0870
 4611SOL    HW125295   0.553   1.878  11.754  0.5468  0.3888 -0.3717
 4611SOL    HW225296   0.654   1.763  11.748  0.1818  2.8898 -1.6236
 4612SOL     OW25297   1.113   4.296   3.795 -0.0546 -0.4258  0.5357
 4612SOL    HW125298   1.034   4.349   3.781  2.5108  3.0995 -0.7822
 4612SOL    HW225299   1.071   4.212   3.812 -1.8077  0.5456  0.9649
 4613SOL     OW25300   2.944   3.484   7.151  0.1704  0.5334  0.3028
 4613SOL    HW125301   3.029   3.511   7.115  0.6158 -0.5048  0.5776
 4613SOL    HW225302   2.961   3.530   7.234  1.1921  2.2458 -0.8387
 4614SOL     OW25303   0.065   3.161   6.251 -0.3599  0.0977 -0.7115
 4614SOL    HW125304   0.037   3.071   6.267  0.6194 -0.2612 -0.9733
 4614SOL    HW225305   4.704   3.207   6.251 -0.4590 -0.0790  3.3459
 4615SOL     OW25306   4.218   4.560  10.156 -0.1073 -0.1474  0.2701
 4615SOL    HW125307   4.275   4.578  10.231 -2.5472 -1.1826  2.3882
 4615SOL    HW225308   4.156   4.499  10.197  0.7217  0.9148  3.1282
 4616SOL     OW25309   1.283   3.875   0.028 -0.4827  0.3965  0.4435
 4616SOL    HW125310   1.337   3.950  17.690  0.3043 -0.3732 -0.1102
 4616SOL    HW225311   1.204   3.919  17.688 -1.6081 -0.9769  1.4116
 4617SOL     OW25312   4.526   2.997   8.719 -0.7625 -0.5745 -0.2478
 4617SOL    HW125313   4.571   3.040   8.792 -0.1483  0.5387 -1.2904
 4617SOL    HW225314   4.599   2.960   8.668 -0.0887  2.8885 -1.7929
 4618SOL     OW25315   4.312   1.424   4.730 -0.4002  0.6531 -0.0746
 4618SOL    HW125316   4.240   1.487   4.732  0.2274  1.5392 -3.9763
 4618SOL    HW225317   4.320   1.382   4.815 -3.3078 -0.6293 -0.4386
 4619SOL     OW25318   0.130   4.600   4.253 -0.0974 -0.2634 -0.2452
 4619SOL    HW125319   0.198   4.537   4.229  1.3741  1.7444 -1.3514
 4619SOL    HW225320   0.054   4.542   4.252 -0.2642 -0.0457 -0.2913
 4620SOL     OW25321   2.587   0.464  14.211  0.1596  0.5270 -0.3724
 4620SOL    HW125322   2.624   0.525  14.275 -0.2798  1.8324 -1.3629
 4620SOL    HW225323   2.503   0.440  14.249  0.9450 -0.2892  0.8770
 4621SOL     OW25324   4.142   0.585   3.933 -0.2764  0.1958 -0.0466
 4621SOL    HW125325   4.085   0.597   4.009 -0.4100  0.7856 -0.2405
 4621SOL    HW225326   4.080   0.566   3.863  1.0896 -0.6158 -1.0305
 4622SOL     OW25327   1.042   3.746   7.767  0.2678 -0.0564 -0.7987
 4622SOL    HW125328   1.116   3.789   7.809  0.5437 -2.1451  0.8434
 4622SOL    HW225329   0.986   3.732   7.844 -0.4458  2.2054 -0.9031
 4623SOL     OW25330   0.756   3.724  12.183  0.1471  0.2252  0.1118
 4623SOL    HW125331   0.707   3.774  12.249 -1.0996 -0.1454 -0.5253
 4623SOL    HW225332   0.695   3.655  12.156  0.5990  0.5111 -1.6052
 4624SOL     OW25333   2.970   0.967  13.322 -0.3979 -0.1169  0.1494
 4624SOL    HW125334   2.927   0.882  13.328 -3.2393  1.2622 -0.8402
 4624SOL    HW225335   2.899   1.020  13.285 -1.3436 -0.8940  0.8693
 4625SOL     OW25336   2.934   2.939   5.466 -0.2151 -0.5703  0.1655
 4625SOL    HW125337   3.003   3.004   5.459 -2.1595  1.3587 -1.1156
 4625SOL    HW225338   2.905   2.933   5.558 -0.5998  1.5397  0.1782
 4626SOL     OW25339   3.531   2.763   4.320  0.2769 -0.5915  0.3355
 4626SOL    HW125340   3.606   2.819   4.301  0.2436 -0.1992  1.3620
 4626SOL    HW225341   3.547   2.683   4.271  3.0808 -1.1448  2.1688
 4627SOL     OW25342   2.442   4.212   4.103 -0.5441  0.3977 -0.1001
 4627SOL    HW125343   2.354   4.175   4.106 -0.5214  0.5007  1.8610
 4627SOL    HW225344   2.418   4.298   4.136  1.8265  1.5732 -1.4093
 4628SOL     OW25345   3.634   2.870   3.644 -0.1973  0.8329  0.4024
 4628SOL    HW125346   3.611   2.843   3.556 -0.0150  2.4270 -0.1242
 4628SOL    HW225347   3.716   2.917   3.629  0.2926 -1.1830 -3.0036
 4629SOL     OW25348   1.626   3.609   2.797  0.1897 -0.1402  0.2694
 4629SOL    HW125349   1.672   3.632   2.717 -0.8192 -3.4656 -1.2671
 4629SOL    HW225350   1.573   3.687   2.814  1.6283  0.7640  0.6159
 4630SOL     OW25351   3.502   2.797  10.550  0.3703  0.1172  0.0109
 4630SOL    HW125352   3.451   2.725  10.512  1.7445 -0.8716  0.0518
 4630SOL    HW225353   3.512   2.857  10.476 -0.8016  0.5627  0.2183
 4631SOL     OW25354   2.658   2.072   2.605  0.1278  0.2371  0.4413
 4631SOL    HW125355   2.608   2.078   2.523 -1.1241 -1.0337  1.1263
 4631SOL    HW225356   2.707   1.994   2.578 -0.6914 -0.0140 -0.3337
 4632SOL     OW25357   2.942   0.348   7.486 -0.2399 -0.3144  0.3796
 4632SOL    HW125358   2.998   0.271   7.494  0.1713 -0.1046 -0.5117
 4632SOL    HW225359   2.933   0.361   7.392 -0.7125 -1.4530  0.2754
 4633SOL     OW25360   2.642   3.850   5.237  0.5051  0.2647 -1.5550
 4633SOL    HW125361   2.631   3.773   5.180  0.8429  1.0257 -2.6581
 4633SOL    HW225362   2.724   3.885   5.203  1.8614 -1.0125  0.4148
 4634SOL     OW25363   1.782   4.597   8.156 -0.0784 -0.0011  0.1334
 4634SOL    HW125364   1.851   4.653   8.190 -0.0843  0.0995 -0.0203
 4634SOL    HW225365   1.789   4.609   8.061 -1.3866 -0.3610  0.0003
 4635SOL     OW25366   0.811   4.388   8.120  0.2302 -0.3401 -0.1980
 4635SOL    HW125367   0.879   4.339   8.166 -0.3642  0.1755  1.2050
 4635SOL    HW225368   0.750   4.317   8.101 -3.1702  2.3883  0.6331
 4636SOL     OW25369   4.021   2.775   3.703  0.2370  0.3674 -0.3526
 4636SOL    HW125370   4.110   2.768   3.669  0.6215  1.7885  0.3615
 4636SOL    HW225371   4.000   2.862   3.669  1.5864  1.1764  0.9121
 4637SOL     OW25372   4.224   0.755   2.293  0.5841  0.4043  0.3327
 4637SOL    HW125373   4.218   0.749   2.198 -0.9534  0.8580  0.3955
 4637SOL    HW225374   4.317   0.737   2.307 -0.0023 -3.1900 -0.4548
 4638SOL     OW25375   1.391   0.699   4.356 -0.6122  0.8078 -0.6243
 4638SOL    HW125376   1.396   0.631   4.290  3.4929  0.8265 -0.3548
 4638SOL    HW225377   1.391   0.786   4.315  1.1665  0.7181 -0.8318
 4639SOL     OW25378   2.479   4.399   5.644  0.0848 -0.0784  0.0431
 4639SOL    HW125379   2.530   4.410   5.725 -2.6041 -0.6401  1.8056
 4639SOL    HW225380   2.468   4.491   5.618  1.2454 -0.3506 -1.4608
 4640SOL     OW25381   0.680   0.425   3.546  0.3899  0.1733 -0.1900
 4640SOL    HW125382   0.732   0.371   3.605 -1.5875  1.0346  2.3669
 4640SOL    HW225383   0.682   0.501   3.604 -3.5427  0.0395  0.1192
 4641SOL     OW25384   3.292   1.425   1.175  0.1017 -0.7931 -0.3628
 4641SOL    HW125385   3.344   1.384   1.244 -0.7940 -0.6492  0.4021
 4641SOL    HW225386   3.228   1.357   1.151 -0.2887  0.8612 -3.9559
 4642SOL     OW25387   3.435   0.713   6.057 -0.0172 -0.4907  0.8057
 4642SOL    HW125388   3.485   0.716   6.139  0.6333 -1.1316  0.4283
 4642SOL    HW225389   3.434   0.805   6.032  1.6264 -0.4074  1.0213
 4643SOL     OW25390   4.707   2.286  11.322  0.1240  0.0846  0.3986
 4643SOL    HW125391   4.625   2.325  11.293  0.1910  1.0130  1.4398
 4643SOL    HW225392   0.049   2.296  11.252 -0.9444 -0.3143 -0.6301
 4644SOL     OW25393   2.640   1.619   0.625 -0.4149 -0.6046 -0.0907
 4644SOL    HW125394   2.695   1.662   0.691 -0.5374 -1.0659  0.3069
 4644SOL    HW225395   2.681   1.534   0.609  4.3802  1.6609  0.0653
 4645SOL     OW25396   0.932   2.206   3.388  0.6663  0.4032 -0.4916
 4645SOL    HW125397   0.976   2.291   3.390  2.6063 -0.6004 -0.8382
 4645SOL    HW225398   0.897   2.192   3.476 -0.9458 -0.4199 -1.2631
 4646SOL     OW25399   4.697   0.694   9.110  0.8336 -0.3782  0.0050
 4646SOL    HW125400   4.687   0.663   9.020 -1.1781 -0.8800  0.4015
 4646SOL    HW225401   0.066   0.677   9.135  0.4815  0.0891  1.6460
 4647SOL     OW25402   3.219   2.664   2.338  0.7680  0.3337  0.1068
 4647SOL    HW125403   3.219   2.755   2.309  1.8145  0.0166 -0.8706
 4647SOL    HW225404   3.181   2.668   2.426 -0.0283  0.6704 -0.2459
 4648SOL     OW25405   2.803   1.299   8.018 -0.7795 -1.0407 -0.7191
 4648SOL    HW125406   2.854   1.230   7.975  0.5802  0.3712 -1.3472
 4648SOL    HW225407   2.801   1.265   8.107  2.7002  0.9098  0.0771
 4649SOL     OW25408   4.180   1.506   4.069  0.3741  0.2315 -0.2541
 4649SOL    HW125409   4.146   1.505   4.159 -0.2293  1.3078 -0.4659
 4649SOL    HW225410   4.110   1.526   4.007  0.1416  2.4935  0.7342
 4650SOL     OW25411   4.424   0.379   3.578  0.2418  0.0757  0.6104
 4650SOL    HW125412   4.469   0.455   3.614  0.2018  0.5020 -0.2270
 4650SOL    HW225413   4.383   0.340   3.655 -1.3772  0.5788  0.0172
 4651SOL     OW25414   2.256   3.815   2.435 -0.1190  0.0343  0.6135
 4651SOL    HW125415   2.183   3.763   2.470 -1.2709  0.6013 -0.9839
 4651SOL    HW225416   2.217   3.854   2.357 -1.3516  0.5536  1.5047
 4652SOL     OW25417   4.124   0.436   8.715  0.1076 -0.4608 -0.2404
 4652SOL    HW125418   4.095   0.454   8.805 -1.3335 -0.8305 -0.6377
 4652SOL    HW225419   4.043   0.435   8.664  0.8612 -2.0346 -1.4053
 4653SOL     OW25420   2.859   1.597   1.163 -0.0110 -0.1921 -0.0702
 4653SOL    HW125421   2.866   1.506   1.191 -0.0464  0.5651  2.4432
 4653SOL    HW225422   2.764   1.603   1.175 -0.4393 -1.0741 -2.9683
 4654SOL     OW25423   1.415   0.794  17.319 -0.4506  0.4679  0.2194
 4654SOL    HW125424   1.446   0.820  17.232  0.2595 -1.9569 -0.2455
 4654SOL    HW225425   1.393   0.702  17.304  1.3187  0.0350  0.3123
 4655SOL     OW25426   1.687   4.066   0.490  0.1809 -0.0449 -0.2143
 4655SOL    HW125427   1.706   3.983   0.534 -0.3169 -0.1129 -0.1301
 4655SOL    HW225428   1.741   4.127   0.539 -0.0755  0.8834 -1.0861
 4656SOL     OW25429   3.334   1.096   6.645 -0.3364  0.3646 -0.0916
 4656SOL    HW125430   3.429   1.100   6.645 -0.2839 -0.7568 -1.3987
 4656SOL    HW225431   3.331   1.006   6.677  2.0899  0.5028  0.5204
 4657SOL     OW25432   0.323   1.626   3.301 -0.3131 -0.4625  0.0370
 4657SOL    HW125433   0.317   1.547   3.355  1.5531 -0.2835  0.5154
 4657SOL    HW225434   0.295   1.690   3.366 -1.2541 -0.3573 -0.4620
 4658SOL     OW25435   2.106   4.358   9.647 -0.7689 -0.3374  0.1485
 4658SOL    HW125436   2.123   4.446   9.679 -1.4910  0.5130 -1.8200
 4658SOL    HW225437   2.070   4.313   9.724 -2.9378  0.6042 -0.3027
 4659SOL     OW25438   1.308   0.334   7.207  0.0541  0.6262  0.4649
 4659SOL    HW125439   1.259   0.266   7.161  1.1793  0.2589 -0.2061
 4659SOL    HW225440   1.256   0.342   7.287  0.5187  1.0660  0.7273
 4660SOL     OW25441   0.520   3.916   8.951  0.2163  0.0940 -0.5962
 4660SOL    HW125442   0.471   3.882   8.876 -2.1061  0.0525  0.9534
 4660SOL    HW225443   0.502   4.010   8.940  2.7663  0.8512  1.7056
 4661SOL     OW25444   4.175   1.794   6.297  0.1621 -0.0026 -0.5063
 4661SOL    HW125445   4.086   1.770   6.271  0.8973 -1.0937 -2.0258
 4661SOL    HW225446   4.196   1.851   6.223 -0.3285 -0.0228 -0.6611
 4662SOL     OW25447   1.531   1.227   7.055 -0.2042  0.0971 -0.0812
 4662SOL    HW125448   1.524   1.247   6.962 -3.9681 -0.7443  0.0134
 4662SOL    HW225449   1.584   1.300   7.085  3.0347 -1.3454 -2.2672
 4663SOL     OW25450   1.149   2.516   8.924  0.4308 -0.1385  0.2567
 4663SOL    HW125451   1.205   2.457   8.974 -0.8509  0.3258  2.2306
 4663SOL    HW225452   1.121   2.583   8.986  1.4447 -0.1426  0.7254
 4664SOL     OW25453   1.855   0.576  14.340 -0.2282  0.3512  0.0665
 4664SOL    HW125454   1.789   0.529  14.288  0.3978 -0.5472  0.0843
 4664SOL    HW225455   1.851   0.666  14.309  0.3695  0.3954  0.1192
 4665SOL     OW25456   0.652   1.640  10.218  0.9189 -0.6985  0.6100
 4665SOL    HW125457   0.727   1.617  10.164 -0.6430 -0.0773 -1.8390
 4665SOL    HW225458   0.684   1.617  10.305 -1.7908 -1.2472  1.4536
 4666SOL     OW25459   4.396   2.938  11.798  0.0949  0.8312 -0.1417
 4666SOL    HW125460   4.409   3.012  11.857  1.3273  1.1666 -0.8304
 4666SOL    HW225461   4.301   2.927  11.810  0.7336 -1.9682  2.1489
 4667SOL     OW25462   4.011   4.716   7.807  0.0412 -0.1281 -0.5342
 4667SOL    HW125463   4.064   0.073   7.813  1.4623 -1.1910  1.2412
 4667SOL    HW225464   4.072   4.652   7.770 -1.0441 -1.1926 -0.4837
 4668SOL     OW25465   1.863   0.718   6.474 -0.5351  0.4089 -0.0205
 4668SOL    HW125466   1.928   0.706   6.405 -2.6131  1.5191 -2.1527
 4668SOL    HW225467   1.834   0.627   6.477  0.1053  0.2659  2.1279
 4669SOL     OW25468   3.014   3.876   8.295  0.2182  0.0987  0.1851
 4669SOL    HW125469   2.939   3.849   8.348  1.7547 -1.5089  1.5550
 4669SOL    HW225470   3.085   3.891   8.358  1.4913  0.1044 -1.2686
 4670SOL     OW25471   0.558   1.103   5.923  0.2889  0.2465 -0.2499
 4670SOL    HW125472   0.582   1.165   5.992  0.4127  1.0807 -1.0465
 4670SOL    HW225473   0.467   1.125   5.904 -0.1288 -0.3183  1.1558
 4671SOL     OW25474   3.403   0.156   4.047 -0.7731  0.3922 -0.4917
 4671SOL    HW125475   3.425   0.229   3.989 -0.3767  0.8682  0.2648
 4671SOL    HW225476   3.450   0.187   4.124  0.7904  1.7429 -2.0012
 4672SOL     OW25477   4.287   1.824  16.936  0.5560  0.5146  0.2115
 4672SOL    HW125478   4.276   1.894  16.872 -0.6912  0.7454  0.6712
 4672SOL    HW225479   4.306   1.881  17.011  1.5096  1.0246 -0.4195
 4673SOL     OW25480   0.337   1.967   7.526 -0.2636 -0.0071  0.1079
 4673SOL    HW125481   0.290   1.946   7.606  2.8480 -1.9191  1.4710
 4673SOL    HW225482   0.425   1.938   7.551 -0.3017  0.6287  0.9775
 4674SOL     OW25483   2.445   0.453   6.808 -0.1944  0.8710 -0.2323
 4674SOL    HW125484   2.362   0.441   6.762 -0.7310 -2.0071  1.4713
 4674SOL    HW225485   2.494   0.506   6.745 -0.4625  0.2155 -0.9903
 4675SOL     OW25486   4.277   3.208   4.807  0.1835  0.1664  0.0999
 4675SOL    HW125487   4.188   3.226   4.775  0.4267  0.4084 -0.4539
 4675SOL    HW225488   4.327   3.215   4.725 -0.6292  1.1154 -0.3182
 4676SOL     OW25489   2.707   0.690  14.335  0.0942 -0.3526 -0.6632
 4676SOL    HW125490   2.785   0.689  14.280 -2.3728 -4.4232 -4.0368
 4676SOL    HW225491   2.674   0.774  14.302  0.0621 -0.4707 -0.9296
 4677SOL     OW25492   4.241   4.439   5.401  0.0853  0.6523 -0.4438
 4677SOL    HW125493   4.288   4.523   5.410  1.0668  0.0713 -0.1380
 4677SOL    HW225494   4.234   4.404   5.489 -0.1367 -1.0336 -1.1293
 4678SOL     OW25495   2.184   0.380   3.447 -0.1738  0.5155 -0.5691
 4678SOL    HW125496   2.229   0.462   3.427 -2.2609  1.1838 -2.6243
 4678SOL    HW225497   2.158   0.352   3.359 -2.1136 -1.0965  0.5022
 4679SOL     OW25498   3.643   2.211   8.349 -0.2813 -0.2714  0.0797
 4679SOL    HW125499   3.606   2.275   8.288 -2.8909 -0.9136  1.0181
 4679SOL    HW225500   3.672   2.144   8.287  2.5392  0.3199  0.7630
 4680SOL     OW25501   4.001   3.322  10.912  0.6716 -0.0031  0.0705
 4680SOL    HW125502   3.968   3.278  10.833 -1.0123 -1.6496  1.7069
 4680SOL    HW225503   4.001   3.250  10.974 -1.4091 -1.5033 -1.6855
 4681SOL     OW25504   3.118   3.790   0.790  0.0149  0.0778 -0.0667
 4681SOL    HW125505   3.037   3.746   0.762 -1.0269  1.6983  0.3909
 4681SOL    HW225506   3.157   3.721   0.843  0.3132 -1.0756 -1.7942
 4682SOL     OW25507   1.292   4.591   9.328 -0.3971 -0.1792 -0.1382
 4682SOL    HW125508   1.257   4.651   9.262 -1.8293  0.1790  0.9533
 4682SOL    HW225509   1.357   4.538   9.280 -0.0415  0.4484 -0.3550
 4683SOL     OW25510   3.241   4.565   7.559  0.1690  0.4149 -0.2052
 4683SOL    HW125511   3.238   4.508   7.483  3.6574 -0.2134  0.1218
 4683SOL    HW225512   3.180   4.635   7.536  0.0137  0.6852  1.0295
 4684SOL     OW25513   1.186   4.565   1.735  0.2241 -0.2519 -0.0454
 4684SOL    HW125514   1.200   4.535   1.825  2.9941 -0.8538 -0.6812
 4684SOL    HW225515   1.266   4.536   1.691 -1.8278  2.0216 -5.3343
 4685SOL     OW25516   3.540   3.258   7.235  0.3774  0.5708  0.1780
 4685SOL    HW125517   3.468   3.286   7.179 -0.1221  1.7641  1.4028
 4685SOL    HW225518   3.488   3.264   7.315 -3.4320 -0.0021 -2.2902
 4686SOL     OW25519   0.234   3.751  13.723  0.0516  0.3418  0.0696
 4686SOL    HW125520   0.195   3.795  13.799  0.3469  2.5862 -1.0918
 4686SOL    HW225521   0.328   3.767  13.726  0.2068 -0.3747 -1.3147
 4687SOL     OW25522   4.502   0.301   9.155  0.1369 -0.4200 -1.0493
 4687SOL    HW125523   4.497   0.338   9.067  0.7669 -2.7785 -2.0761
 4687SOL    HW225524   4.596   0.315   9.170 -0.3653 -0.9117  2.4585
 4688SOL     OW25525   1.681   3.961   3.406 -0.2548 -0.0578 -0.2545
 4688SOL    HW125526   1.645   4.041   3.368 -0.9008  0.3768  1.2445
 4688SOL    HW225527   1.652   3.972   3.497  0.4352 -2.8861  0.3200
 4689SOL     OW25528   1.685   2.194   4.268  0.2537  0.1586 -0.5012
 4689SOL    HW125529   1.756   2.196   4.332  1.0066 -1.4615 -1.3055
 4689SOL    HW225530   1.671   2.100   4.256  1.3331 -0.0551 -0.0646
 4690SOL     OW25531   0.195   3.270   9.885  0.6508  0.0348  0.1174
 4690SOL    HW125532   0.111   3.316   9.878  0.5942  0.3046  2.5666
 4690SOL    HW225533   0.213   3.279   9.979  0.2555  0.7415  0.1241
 4691SOL     OW25534   3.157   0.355   9.669  0.5118  0.2045 -0.3639
 4691SOL    HW125535   3.076   0.397   9.698  0.3464 -0.4684  0.1508
 4691SOL    HW225536   3.224   0.395   9.725 -0.2207 -0.6912  1.1583
 4692SOL     OW25537   0.957   4.035   3.740 -0.6683 -0.1092  0.0181
 4692SOL    HW125538   0.888   3.977   3.771  0.7846 -1.6484  0.3826
 4692SOL    HW225539   0.934   4.049   3.648  2.6063  2.1331 -0.4466
 4693SOL     OW25540   3.474   3.072   7.475 -0.0209 -0.4643  0.0893
 4693SOL    HW125541   3.462   3.080   7.569 -2.8764  1.2933 -0.4226
 4693SOL    HW225542   3.485   3.167   7.469  2.2618 -0.7624 -0.3005
 4694SOL     OW25543   1.773   2.504  15.483  0.1185 -0.5881  0.9838
 4694SOL    HW125544   1.681   2.500  15.457  0.5265  0.2259 -0.6414
 4694SOL    HW225545   1.809   2.428  15.437 -0.9631 -1.2913  1.2983
 4695SOL     OW25546   3.253   4.679   9.103  0.5388  0.1822  0.4271
 4695SOL    HW125547   3.273   4.629   9.024 -0.4081  1.0538 -0.3666
 4695SOL    HW225548   3.330   4.670   9.159  1.2310  0.5749 -0.4697
 4696SOL     OW25549   3.503   1.006   8.175  0.2753 -0.1705  0.0847
 4696SOL    HW125550   3.493   0.961   8.091  0.7755  0.3519 -0.2579
 4696SOL    HW225551   3.416   1.043   8.186 -0.3113 -1.4764 -0.1464
 4697SOL     OW25552   2.910   2.753   5.971 -0.1745  0.3688  0.5801
 4697SOL    HW125553   2.868   2.669   5.991 -0.4338  0.1841 -0.7819
 4697SOL    HW225554   2.949   2.760   6.058  3.2791 -1.4677 -0.8384
 4698SOL     OW25555   0.656   0.626   7.996  0.1375  0.5411 -0.2643
 4698SOL    HW125556   0.663   0.531   8.005 -0.9109  0.7119  2.5134
 4698SOL    HW225557   0.633   0.649   8.086  0.3983 -2.5091  0.5728
 4699SOL     OW25558   4.530   4.006   7.859  0.4304 -0.0518  0.2475
 4699SOL    HW125559   4.497   3.953   7.786  0.3213  0.2821  0.0551
 4699SOL    HW225560   4.471   3.969   7.924 -1.4378  2.4406 -0.0357
 4700SOL     OW25561   1.793   3.886   6.011  0.3586 -0.3438  0.5098
 4700SOL    HW125562   1.880   3.888   6.050  2.2984  3.3540 -4.0789
 4700SOL    HW225563   1.765   3.977   6.011 -0.8356 -0.7025 -1.8322
 4701SOL     OW25564   4.427   2.250   3.051  0.6303  0.3752  0.3367
 4701SOL    HW125565   4.509   2.256   3.100  1.3600 -2.5984 -0.5355
 4701SOL    HW225566   4.457   2.213   2.968 -0.8665 -0.9562  0.3961
 4702SOL     OW25567   1.787   3.191   5.810  0.4567  0.1624  0.6504
 4702SOL    HW125568   1.781   3.096   5.820 -0.7023  0.1713  0.0461
 4702SOL    HW225569   1.801   3.217   5.901 -0.2015  1.7590  0.2951
 4703SOL     OW25570   3.265   0.842  10.089 -0.3889  0.0715  0.8203
 4703SOL    HW125571   3.308   0.793  10.159  2.5032  1.8843  0.3135
 4703SOL    HW225572   3.315   0.820  10.010 -1.2488 -0.8990  0.5470
 4704SOL     OW25573   2.190   4.231   8.587  0.0518  0.4987 -0.5182
 4704SOL    HW125574   2.249   4.275   8.525 -1.4088 -0.2093 -2.4152
 4704SOL    HW225575   2.124   4.300   8.590 -0.1852  0.3104 -1.4451
 4705SOL     OW25576   3.797   0.523  12.199  0.8181 -0.5352  0.1641
 4705SOL    HW125577   3.883   0.544  12.162  0.8254 -1.0662 -0.1220
 4705SOL    HW225578   3.764   0.612  12.212  0.3667 -0.3688 -1.9894
 4706SOL     OW25579   0.498   1.761   8.556 -0.4736 -0.0167 -0.1351
 4706SOL    HW125580   0.460   1.771   8.643  0.9764  2.1222  0.2512
 4706SOL    HW225581   0.450   1.683   8.527 -0.8994  0.2741 -0.2169
 4707SOL     OW25582   0.109   4.167   6.311  0.8181  0.2326  0.0692
 4707SOL    HW125583   0.198   4.165   6.278  1.2054  0.1472  1.1300
 4707SOL    HW225584   0.088   4.259   6.293  0.0168  0.0055 -0.1890
 4708SOL     OW25585   2.771   0.076  12.170  0.4787 -0.0587 -0.2365
 4708SOL    HW125586   2.794   0.062  12.262  2.2215 -0.6188 -0.7530
 4708SOL    HW225587   2.857   0.078  12.127 -0.2563  0.0383 -1.7185
 4709SOL     OW25588   0.584   4.094   5.121  0.2000 -0.6148 -0.3031
 4709SOL    HW125589   0.527   4.103   5.045 -0.7413 -0.1587  0.4620
 4709SOL    HW225590   0.600   4.186   5.141  2.8617 -0.3484 -3.6153
 4710SOL     OW25591   1.833   3.783  15.740  0.0395 -0.1094  0.1029
 4710SOL    HW125592   1.846   3.878  15.740  1.5433 -0.3248  0.1103
 4710SOL    HW225593   1.741   3.775  15.766 -1.1472  1.2164 -3.6221
 4711SOL     OW25594   1.523   1.279   6.801 -0.5886 -0.4568  0.5882
 4711SOL    HW125595   1.596   1.320   6.755 -1.7643  0.5642 -0.3963
 4711SOL    HW225596   1.466   1.354   6.818 -1.9226 -1.3576  0.1170
 4712SOL     OW25597   2.055   1.311   3.164  0.0809  0.2021 -0.5740
 4712SOL    HW125598   2.016   1.295   3.079  0.2915 -0.6128 -0.5159
 4712SOL    HW225599   2.150   1.304   3.152  0.0425 -1.0479 -0.0693
 4713SOL     OW25600   3.831   0.926   9.632  0.7864 -0.0997 -0.3995
 4713SOL    HW125601   3.915   0.972   9.631  0.9967 -0.4754  0.4286
 4713SOL    HW225602   3.858   0.847   9.679  0.2341 -0.5088 -0.7753
 4714SOL     OW25603   1.067   1.315   7.201 -0.1265  0.0223  0.5200
 4714SOL    HW125604   0.985   1.356   7.228 -1.4412 -2.0057 -0.3733
 4714SOL    HW225605   1.120   1.327   7.279 -0.9000  1.1797  0.8612
 4715SOL     OW25606   0.190   2.200  11.500  0.1504 -0.0362  0.2155
 4715SOL    HW125607   0.197   2.290  11.533 -0.0712  0.1010 -0.1139
 4715SOL    HW225608   0.123   2.206  11.432 -0.0926 -1.9831  0.2933
 4716SOL     OW25609   2.544   2.002  13.221  0.0909  0.4185 -0.5067
 4716SOL    HW125610   2.618   1.945  13.241 -0.6064 -0.6184 -0.9018
 4716SOL    HW225611   2.486   1.932  13.191 -0.7805  1.2935 -0.8723
 4717SOL     OW25612   0.525   3.970  15.633 -0.2090 -0.1532  0.1016
 4717SOL    HW125613   0.550   3.893  15.685 -1.4124 -1.4097 -1.2261
 4717SOL    HW225614   0.433   3.985  15.651 -0.6808 -1.8526 -0.8975
 4718SOL     OW25615   4.055   2.519  13.668 -0.0107  0.2161 -0.4126
 4718SOL    HW125616   4.027   2.535  13.577 -0.3576 -0.0137 -0.3462
 4718SOL    HW225617   4.130   2.577  13.680 -0.9140  0.6892  3.0001
 4719SOL     OW25618   2.628   1.190  12.744  0.1432  0.4502 -0.1306
 4719SOL    HW125619   2.664   1.168  12.829 -0.2558  1.4305  0.2958
 4719SOL    HW225620   2.654   1.114  12.691  0.2647 -0.7054  1.5998
 4720SOL     OW25621   1.806   4.377  14.758  0.0291  0.4563 -0.2867
 4720SOL    HW125622   1.822   4.320  14.683 -0.4899  0.3893 -0.3503
 4720SOL    HW225623   1.792   4.457  14.706 -0.5713  0.2747 -0.4081
 4721SOL     OW25624   2.886   4.283   6.043  0.3223  0.2461  0.4877
 4721SOL    HW125625   2.846   4.229   6.111  0.8424 -0.1982  0.4390
 4721SOL    HW225626   2.823   4.276   5.972  1.5766  1.2658 -0.7282
 4722SOL     OW25627   4.320   1.319   1.811 -0.4537  0.0899 -0.0131
 4722SOL    HW125628   4.228   1.339   1.795 -0.5278  0.2330  0.6064
 4722SOL    HW225629   4.348   1.386   1.873  2.8596 -1.3732  0.0758
 4723SOL     OW25630   1.733   2.307   2.644  0.2643 -0.1561  0.1494
 4723SOL    HW125631   1.757   2.252   2.718 -2.9208 -0.9983  0.5272
 4723SOL    HW225632   1.699   2.236   2.590  1.6843 -0.8745  0.1825
 4724SOL     OW25633   3.871   2.278   3.498  0.3139  0.0762  0.4747
 4724SOL    HW125634   3.930   2.352   3.516 -1.8559  1.4480  2.0333
 4724SOL    HW225635   3.884   2.230   3.580  0.4972  0.2992  0.5796
 4725SOL     OW25636   3.857   0.915  13.649  0.7447 -0.5144 -0.7517
 4725SOL    HW125637   3.840   0.822  13.657 -0.5296 -0.0568  1.8286
 4725SOL    HW225638   3.906   0.929  13.568  1.9638  1.0085  0.2415
 4726SOL     OW25639   3.063   4.212   9.368 -0.5602  0.3852  0.2120
 4726SOL    HW125640   3.126   4.141   9.356 -0.2459  0.7817 -0.4501
 4726SOL    HW225641   3.026   4.226   9.281  0.1094 -1.5326 -0.3750
 4727SOL     OW25642   4.143   3.173  14.652 -0.2565  0.0186  0.0643
 4727SOL    HW125643   4.216   3.155  14.712 -0.6379 -3.6599 -0.6314
 4727SOL    HW225644   4.179   3.249  14.606  0.5918  0.5820  1.6288
 4728SOL     OW25645   0.078   4.389  11.591 -0.3173  0.3587  0.5845
 4728SOL    HW125646   0.160   4.345  11.613 -0.9812 -0.8817  0.5657
 4728SOL    HW225647   0.118   4.438  11.519 -0.4160  0.2194  0.4345
 4729SOL     OW25648   1.905   2.367   3.636  0.1705  0.8019  0.7260
 4729SOL    HW125649   1.876   2.294   3.582 -0.8662  1.8978 -0.2058
 4729SOL    HW225650   1.988   2.389   3.593  0.8347 -0.0722  1.5443
 4730SOL     OW25651   2.313   1.656   6.023 -0.0391  0.1406 -0.7860
 4730SOL    HW125652   2.343   1.728   5.969  0.4545  2.4165  2.5190
 4730SOL    HW225653   2.353   1.682   6.106  0.4121  2.5112 -1.7644
 4731SOL     OW25654   2.011   1.882   4.235  0.0803 -0.4579 -0.2415
 4731SOL    HW125655   1.941   1.928   4.281  0.6212  0.3671 -0.2445
 4731SOL    HW225656   2.072   1.845   4.299  1.7108  0.7319 -1.1024
 4732SOL     OW25657   3.409   4.469   3.338  0.3376  0.2172 -0.8240
 4732SOL    HW125658   3.391   4.523   3.415  2.1736 -0.8723  0.3733
 4732SOL    HW225659   3.413   4.538   3.272  1.5652  1.5867  0.7065
 4733SOL     OW25660   0.119   0.508   4.981  0.2580  0.6951  0.3843
 4733SOL    HW125661   0.115   0.448   5.056 -1.8841  1.5249  0.9408
 4733SOL    HW225662   0.085   0.589   5.019  0.3734 -0.1484  2.2716
 4734SOL     OW25663   3.107   3.709   3.828 -0.3449  0.1791 -0.1001
 4734SOL    HW125664   3.064   3.715   3.743 -0.3177 -0.8245 -0.1858
 4734SOL    HW225665   3.137   3.797   3.851 -0.8288 -0.2382  2.1784
 4735SOL     OW25666   3.053   0.064   7.569  0.2321  0.0312  0.1417
 4735SOL    HW125667   3.084   0.118   7.642  3.4885 -0.2001 -1.0679
 4735SOL    HW225668   2.983   0.013   7.610 -0.9394  0.1415 -1.7072
 4736SOL     OW25669   1.202   2.478  14.619 -0.0425 -0.0690  0.4135
 4736SOL    HW125670   1.147   2.412  14.662 -1.5299  0.6035 -0.4492
 4736SOL    HW225671   1.269   2.486  14.687 -1.2630 -0.9278  1.7129
 4737SOL     OW25672   0.719   2.621  13.010 -0.0487 -0.2645 -0.5024
 4737SOL    HW125673   0.744   2.661  12.927  0.4262 -1.2751 -0.8356
 4737SOL    HW225674   0.658   2.695  13.021 -1.0194 -1.0999 -0.2931
 4738SOL     OW25675   3.080   1.552   5.422 -0.5616  0.1674 -0.2154
 4738SOL    HW125676   3.114   1.463   5.411  0.7212  0.2838  2.5659
 4738SOL    HW225677   3.159   1.591   5.458  0.5881 -0.6715 -1.8241
 4739SOL     OW25678   0.542   4.277  16.717  0.2574 -0.2932 -0.2971
 4739SOL    HW125679   0.500   4.200  16.756 -0.7151 -0.1360 -1.0531
 4739SOL    HW225680   0.482   4.310  16.651  0.0551  0.8230  0.4326
 4740SOL     OW25681   3.189   2.360  17.048  0.6752 -0.6711  0.2207
 4740SOL    HW125682   3.208   2.316  17.131 -0.5667 -1.2467  0.1929
 4740SOL    HW225683   3.114   2.406  17.084 -0.7205 -1.6558 -1.4312
 4741SOL     OW25684   2.679   0.993  14.361 -0.2132 -0.1278 -0.0371
 4741SOL    HW125685   2.736   1.004  14.285  0.5099  2.1418  0.8334
 4741SOL    HW225686   2.598   0.964  14.319 -0.1292  0.0335 -0.3036
 4742SOL     OW25687   2.488   3.349  16.259  0.3962  0.2398 -0.4469
 4742SOL    HW125688   2.531   3.348  16.345  0.8196 -0.6451 -0.6690
 4742SOL    HW225689   2.563   3.341  16.200 -1.1502 -1.2226 -2.1860
 4743SOL     OW25690   4.124   2.162  14.047 -0.0470  0.3570  0.3037
 4743SOL    HW125691   4.130   2.159  14.142  1.2113 -0.2274  0.2126
 4743SOL    HW225692   4.106   2.071  14.024  2.8815  0.0241 -0.6941
 4744SOL     OW25693   3.941   2.071  14.520 -0.5376 -0.0983 -0.0105
 4744SOL    HW125694   3.890   2.145  14.553  0.7081  1.1288 -0.8339
 4744SOL    HW225695   3.881   2.000  14.496 -0.1849 -0.1186 -0.8289
 4745SOL     OW25696   3.364   1.640   3.747 -0.3430 -0.2847 -0.6262
 4745SOL    HW125697   3.299   1.661   3.814 -1.8300 -0.3424 -2.0363
 4745SOL    HW225698   3.347   1.712   3.686  0.3822 -0.6292 -1.2384
 4746SOL     OW25699   1.379   0.146   8.963 -0.1480  0.1419  0.7541
 4746SOL    HW125700   1.350   0.186   8.881  0.1482 -0.5971  0.2822
 4746SOL    HW225701   1.302   0.090   8.972  0.2294 -0.4916  0.0539
 4747SOL     OW25702   2.961   4.385  16.122  0.4361 -0.4298  0.0721
 4747SOL    HW125703   2.969   4.292  16.143  0.8018 -1.0603 -2.8413
 4747SOL    HW225704   2.969   4.418  16.212  0.3238 -0.6217  0.1517
 4748SOL     OW25705   2.082   3.218   6.836 -0.4188  0.3055 -0.0108
 4748SOL    HW125706   2.067   3.124   6.826  1.3619 -0.0345  0.4787
 4748SOL    HW225707   2.096   3.247   6.746 -0.5368  2.0310  0.5229
 4749SOL     OW25708   0.921   1.115   2.216  0.0135 -0.3961  0.7394
 4749SOL    HW125709   0.962   1.165   2.286  0.6028  0.1294  0.0133
 4749SOL    HW225710   0.990   1.049   2.205  1.2354  1.1328 -0.7122
 4750SOL     OW25711   4.680   0.620   7.360 -0.1492 -0.1360 -0.7237
 4750SOL    HW125712   4.716   0.533   7.343 -1.0469 -0.4528 -0.9849
 4750SOL    HW225713   0.032   0.675   7.335 -0.0758  0.5033  0.8940
 4751SOL     OW25714   4.524   1.225   8.386  0.0815  0.1199 -0.0297
 4751SOL    HW125715   4.506   1.144   8.337 -0.1967  0.2561 -0.1506
 4751SOL    HW225716   4.450   1.229   8.446 -0.9734  2.0724 -1.4516
 4752SOL     OW25717   0.660   1.996   1.763 -0.2627 -0.6909 -0.3729
 4752SOL    HW125718   0.632   2.028   1.849 -0.4317 -0.1082 -0.6439
 4752SOL    HW225719   0.650   2.078   1.716 -1.9654 -0.8744 -0.3427
 4753SOL     OW25720   0.309   0.300   9.514 -0.7748  0.7068  0.6727
 4753SOL    HW125721   0.216   0.284   9.498 -0.4038 -1.1888  0.5092
 4753SOL    HW225722   0.339   0.283   9.425 -1.1010  0.0194  0.6955
 4754SOL     OW25723   3.013   1.398   4.734 -0.2764  0.1450  0.0983
 4754SOL    HW125724   3.069   1.431   4.805 -1.0881  2.1313 -0.1941
 4754SOL    HW225725   3.070   1.404   4.657  0.5079  0.9002  0.7299
 4755SOL     OW25726   0.447   1.865   4.694  0.1014  0.2935  0.2995
 4755SOL    HW125727   0.482   1.879   4.782 -1.1894  1.9803  0.5313
 4755SOL    HW225728   0.365   1.817   4.708 -0.2896  0.5531 -1.1617
 4756SOL     OW25729   0.906   2.567   6.768 -0.0883 -0.2607 -0.0763
 4756SOL    HW125730   0.905   2.568   6.864 -2.9671 -0.5141 -0.0909
 4756SOL    HW225731   0.999   2.550   6.751 -0.2129 -1.2029  0.1652
 4757SOL     OW25732   2.046   0.303   5.392 -1.0862  0.3843  0.2362
 4757SOL    HW125733   2.070   0.390   5.359 -0.3505  0.9620  2.3140
 4757SOL    HW225734   2.133   0.273   5.418 -0.6047  0.6544 -1.0620
 4758SOL     OW25735   3.427   1.784  16.433  0.0142 -0.6386  0.2014
 4758SOL    HW125736   3.344   1.825  16.457  0.3831 -0.8180  1.7608
 4758SOL    HW225737   3.469   1.864  16.400 -4.0327  0.7412 -1.5310
 4759SOL     OW25738   1.093   3.718   0.322  0.0483  0.1628 -0.0048
 4759SOL    HW125739   1.063   3.639   0.368 -0.5516 -0.0469 -0.7665
 4759SOL    HW225740   1.039   3.789   0.358 -0.3791 -0.8816  1.4063
 4760SOL     OW25741   3.549   2.927   3.051  0.4594 -0.5146 -0.0680
 4760SOL    HW125742   3.588   3.001   3.005  0.9245  0.0840  1.3020
 4760SOL    HW225743   3.623   2.883   3.093  0.4082 -0.3918  0.1481
 4761SOL     OW25744   1.472   2.321  16.038  0.0363  0.0967 -0.3827
 4761SOL    HW125745   1.383   2.348  16.014  0.0213 -0.6541 -1.1694
 4761SOL    HW225746   1.490   2.282  15.952 -1.4914 -3.1242  0.7554
 4762SOL     OW25747   0.388   0.155   8.553  0.1707  0.1238 -0.1769
 4762SOL    HW125748   0.358   0.183   8.640  0.9416  1.7295 -0.4280
 4762SOL    HW225749   0.482   0.146   8.566  0.1800  2.4123  1.2586
 4763SOL     OW25750   1.306   0.534   6.431 -0.2015 -0.5511  0.4536
 4763SOL    HW125751   1.335   0.580   6.510  0.2573 -1.3708  0.7601
 4763SOL    HW225752   1.219   0.501   6.452 -0.5941 -0.1067 -0.4688
 4764SOL     OW25753   4.422   2.116   8.635 -0.0621 -0.2149 -0.0949
 4764SOL    HW125754   4.449   2.196   8.589  1.9451 -1.0303 -0.3286
 4764SOL    HW225755   4.462   2.138   8.719 -0.0320 -0.6754  0.0102
 4765SOL     OW25756   1.677   2.876  12.704  0.2374 -0.3727 -0.1730
 4765SOL    HW125757   1.669   2.953  12.648 -1.3434 -2.5069 -2.9107
 4765SOL    HW225758   1.758   2.897  12.751  0.0821 -0.2406  0.0316
 4766SOL     OW25759   0.753   1.479   9.492 -0.1342  0.2185 -0.2531
 4766SOL    HW125760   0.698   1.527   9.430  0.2777  0.3514 -0.5207
 4766SOL    HW225761   0.771   1.394   9.452  2.3954  1.1835 -1.1665
 4767SOL     OW25762   2.920   0.888   9.076 -0.4928  0.0828  0.2610
 4767SOL    HW125763   2.885   0.955   9.135  0.6904 -1.1712  2.3942
 4767SOL    HW225764   2.836   0.851   9.049  0.3949 -0.6484 -1.5009
 4768SOL     OW25765   0.689   0.167   2.052 -0.4583 -0.6763 -0.4164
 4768SOL    HW125766   0.691   0.146   2.145 -0.4703 -0.0711 -0.2853
 4768SOL    HW225767   0.778   0.202   2.045 -0.0381 -1.5570  0.5382
 4769SOL     OW25768   1.326   1.917   5.223 -0.3362  0.0711 -0.0718
 4769SOL    HW125769   1.285   1.831   5.211 -1.3416  0.6786 -0.9876
 4769SOL    HW225770   1.277   1.975   5.165 -0.0223 -1.8100 -2.2254
 4770SOL     OW25771   3.836   1.833   0.469 -0.0332  0.0070 -0.0967
 4770SOL    HW125772   3.763   1.851   0.410 -1.5532  1.0997  2.1131
 4770SOL    HW225773   3.779   1.816   0.544 -1.1043  0.9141 -0.7045
 4771SOL     OW25774   4.247   0.697   3.687  0.2090 -0.3550 -0.1074
 4771SOL    HW125775   4.336   0.670   3.662  1.6258  0.8453  3.5948
 4771SOL    HW225776   4.238   0.672   3.779 -0.4223 -0.3022 -0.1559
 4772SOL     OW25777   4.713   4.058   0.773  0.0920  0.5408  0.0854
 4772SOL    HW125778   4.667   4.142   0.779 -1.6362 -0.3149 -1.3807
 4772SOL    HW225779   0.042   4.072   0.693 -0.2230  1.2366  0.0113
 4773SOL     OW25780   2.492   0.124   2.860 -0.5141 -0.1085 -0.6335
 4773SOL    HW125781   2.587   0.119   2.859 -0.6919 -3.4699 -1.3615
 4773SOL    HW225782   2.455   0.036   2.866  0.7190 -0.6303 -0.7418
 4774SOL     OW25783   1.302   1.199  15.012 -0.3359  0.4687  0.0414
 4774SOL    HW125784   1.212   1.202  14.980 -0.0953  0.5281 -0.6175
 4774SOL    HW225785   1.310   1.288  15.049 -2.1522  0.3606  0.6890
 4775SOL     OW25786   2.471   2.142   7.722  0.1230 -0.1676  0.6519
 4775SOL    HW125787   2.555   2.164   7.681  0.9530  0.3189  2.6004
 4775SOL    HW225788   2.495   2.154   7.814  2.3906  0.4095 -0.0062
 4776SOL     OW25789   3.322   1.602   0.610 -0.5825  0.3838 -0.8490
 4776SOL    HW125790   3.296   1.532   0.670 -0.8853  0.3613 -1.0086
 4776SOL    HW225791   3.244   1.630   0.562 -0.9057  2.2525  0.7909
 4777SOL     OW25792   3.191   1.786   3.575  0.4482  0.0028  0.0803
 4777SOL    HW125793   3.098   1.769   3.592  0.1075 -0.1066 -1.9953
 4777SOL    HW225794   3.191   1.812   3.483 -1.0020  1.2929  0.4453
 4778SOL     OW25795   0.385   3.728   6.904  0.7358  0.0410 -0.9817
 4778SOL    HW125796   0.346   3.790   6.965  0.7215 -0.2596 -0.6861
 4778SOL    HW225797   0.309   3.671   6.893 -0.0468  0.6063  1.5801
 4779SOL     OW25798   1.761   3.130   4.058  0.0355  0.0115  0.3475
 4779SOL    HW125799   1.688   3.089   4.105 -1.6833  2.7596  0.0709
 4779SOL    HW225800   1.838   3.077   4.079 -0.3732 -1.8588 -2.8762
 4780SOL     OW25801   2.634   2.029   4.856  0.6527 -0.3239 -0.0641
 4780SOL    HW125802   2.648   1.944   4.814  1.8933 -0.4035  0.5160
 4780SOL    HW225803   2.719   2.043   4.899  1.1787  0.4059 -1.3322
 4781SOL     OW25804   1.042   1.616  17.253 -0.0056  0.7330 -0.1642
 4781SOL    HW125805   1.008   1.656  17.332  1.4778  2.5624 -0.4467
 4781SOL    HW225806   1.065   1.687  17.193 -4.0659  1.8716 -0.3877
 4782SOL     OW25807   0.648   0.977   5.692  0.2169 -0.1796  0.6806
 4782SOL    HW125808   0.576   0.920   5.666 -0.4417  0.1863  1.7169
 4782SOL    HW225809   0.615   1.017   5.772  1.2690  0.9990  0.5261
 4783SOL     OW25810   3.326   4.588   5.900 -0.0598  0.6059  0.1285
 4783SOL    HW125811   3.270   4.573   5.823  1.3641  2.1339 -1.2025
 4783SOL    HW225812   3.396   4.635   5.855  0.9078  0.2619  1.2895
 4784SOL     OW25813   1.886   4.533   6.591  0.5377 -0.1914 -0.6584
 4784SOL    HW125814   1.859   4.470   6.524  0.6089 -0.5126 -0.3836
 4784SOL    HW225815   1.877   4.489   6.675  0.2089 -0.9185 -1.0654
 4785SOL     OW25816   2.808   0.405   4.945  0.1752  0.2413  0.1358
 4785SOL    HW125817   2.736   0.412   5.008 -1.0324  0.2842 -1.2703
 4785SOL    HW225818   2.778   0.453   4.868  0.1787  1.3615  0.8305
 4786SOL     OW25819   0.397   0.116  12.835  0.3236 -1.0088 -0.6450
 4786SOL    HW125820   0.441   0.199  12.815 -2.4171  0.5567 -0.2386
 4786SOL    HW225821   0.339   0.148  12.904 -1.0877 -0.1268 -2.2353
 4787SOL     OW25822   3.496   3.786   2.843  0.5766 -0.1041 -0.3494
 4787SOL    HW125823   3.521   3.749   2.928 -1.5912 -0.2187  0.2348
 4787SOL    HW225824   3.446   3.713   2.807  0.5156  0.8206 -2.1465
 4788SOL     OW25825   0.360   2.139   5.920  0.2048 -0.3671 -0.1467
 4788SOL    HW125826   0.380   2.047   5.901 -0.6658 -0.8999  1.4797
 4788SOL    HW225827   0.342   2.123   6.012 -3.2272 -0.2067 -0.7859
 4789SOL     OW25828   1.030   0.413   6.865  0.2551  0.1263 -0.2110
 4789SOL    HW125829   1.036   0.492   6.811 -1.3158 -0.2509 -0.9270
 4789SOL    HW225830   1.077   0.449   6.941 -0.3742  0.0018  0.2325
 4790SOL     OW25831   3.884   2.784  10.272 -0.4921  0.5781 -0.0030
 4790SOL    HW125832   3.814   2.719  10.266 -1.5201  1.5827  1.1054
 4790SOL    HW225833   3.900   2.799  10.179 -0.1299  2.6121  0.3935
 4791SOL     OW25834   0.629   1.365   5.051  0.5256  0.6426 -0.7913
 4791SOL    HW125835   0.572   1.293   5.079  1.7886  0.0791  0.3099
 4791SOL    HW225836   0.605   1.364   4.958  0.1658  0.0469 -0.6978
 4792SOL     OW25837   0.052   0.071   2.836 -0.2458 -0.2284 -0.1688
 4792SOL    HW125838   0.144   0.045   2.842 -0.6197 -1.0663  1.7386
 4792SOL    HW225839   0.067   0.147   2.780 -2.3683  0.3086 -0.0304
 4793SOL     OW25840   1.480   0.480   8.858 -0.0164  0.0544 -0.4483
 4793SOL    HW125841   1.566   0.461   8.896  0.8151  0.0645 -2.3460
 4793SOL    HW225842   1.458   0.396   8.819 -0.9898  0.0413  0.1336
 4794SOL     OW25843   4.707   3.143  15.095 -0.6116  0.3507  0.4777
 4794SOL    HW125844   4.694   3.154  15.000  2.2432  0.1074  0.0541
 4794SOL    HW225845   0.080   3.135  15.088 -0.6744 -0.0943  0.1080
 4795SOL     OW25846   0.203   0.584   1.956 -0.4260 -0.0824 -0.2390
 4795SOL    HW125847   0.162   0.502   1.982  0.6221 -0.5260 -0.0160
 4795SOL    HW225848   0.124   0.634   1.978  0.2950  0.2663  1.5915
 4796SOL     OW25849   4.319   4.294   4.417 -0.0319  0.0951  0.7291
 4796SOL    HW125850   4.401   4.321   4.375 -0.7096  1.4573  0.2534
 4796SOL    HW225851   4.263   4.370   4.431  0.8713  0.9714 -0.3622
 4797SOL     OW25852   0.876   1.659   5.352 -0.3741 -0.4048  0.2279
 4797SOL    HW125853   0.794   1.636   5.309 -0.2291 -1.5482  0.5766
 4797SOL    HW225854   0.873   1.597   5.424  1.0278 -1.9382 -1.0447
 4798SOL     OW25855   3.248   3.706   1.203  0.8608 -0.3651  0.0624
 4798SOL    HW125856   3.199   3.787   1.193 -0.8288 -1.6343 -1.9193
 4798SOL    HW225857   3.281   3.706   1.293  0.4220 -1.1665  0.2235
 4799SOL     OW25858   0.892   0.581   3.820 -0.1471  0.3684  0.2591
 4799SOL    HW125859   0.896   0.489   3.844 -0.2819  0.0991 -0.7788
 4799SOL    HW225860   0.973   0.612   3.862 -0.4685 -0.7270  1.7041
 4800SOL     OW25861   3.899   1.902   4.819 -0.5132  0.1754  0.3189
 4800SOL    HW125862   3.928   1.955   4.745 -0.4914  0.1824  0.3323
 4800SOL    HW225863   3.842   1.961   4.869  0.5813  1.7123 -0.2636
 4801SOL     OW25864   0.633   0.685  10.809 -0.1038 -0.1026  0.2292
 4801SOL    HW125865   0.540   0.707  10.800 -0.7349 -2.5311  0.8488
 4801SOL    HW225866   0.652   0.730  10.727  1.8246 -0.5537  0.4358
 4802SOL     OW25867   2.162   2.749   2.758  0.0012  0.1938  0.3057
 4802SOL    HW125868   2.168   2.672   2.815  2.8125  1.0118  1.0939
 4802SOL    HW225869   2.204   2.709   2.681  0.3317  0.3880  0.3879
 4803SOL     OW25870   3.652   3.325   6.488  0.8251 -0.7934 -0.1185
 4803SOL    HW125871   3.742   3.351   6.505  0.6673 -0.2296 -0.1352
 4803SOL    HW225872   3.665   3.236   6.456 -2.6153 -1.5649  0.5880
 4804SOL     OW25873   3.894   3.581   8.892  0.1003 -0.3400  0.3897
 4804SOL    HW125874   3.990   3.580   8.884  0.0189  0.2484 -0.7499
 4804SOL    HW225875   3.885   3.645   8.963  1.0379  0.9027 -0.5915
 4805SOL     OW25876   2.624   4.474   6.912 -0.2376  0.0916  0.4319
 4805SOL    HW125877   2.614   4.454   6.819 -0.5053 -2.1156  0.9408
 4805SOL    HW225878   2.530   4.472   6.931 -0.7957 -0.6180 -2.3822
 4806SOL     OW25879   3.462   0.685   8.934  0.0969 -0.1193 -0.3864
 4806SOL    HW125880   3.486   0.656   9.021 -0.2974  0.0624 -0.2139
 4806SOL    HW225881   3.541   0.732   8.909  0.3361 -1.0526 -1.3816
 4807SOL     OW25882   2.377   0.137  10.776 -0.0282  0.2643 -0.3078
 4807SOL    HW125883   2.470   0.142  10.753 -0.6391  1.7040 -2.4381
 4807SOL    HW225884   2.377   0.186  10.859  0.7191  0.2455 -0.2940
 4808SOL     OW25885   3.217   2.069   3.494  0.4821 -0.2411  0.3219
 4808SOL    HW125886   3.212   2.012   3.418  1.8978 -2.4069  1.8723
 4808SOL    HW225887   3.234   2.152   3.449  1.0027 -1.5095 -1.8048
 4809SOL     OW25888   2.064   1.967   0.337  0.1826  0.2975  0.6368
 4809SOL    HW125889   2.023   2.045   0.373 -0.3457 -0.3990  1.5544
 4809SOL    HW225890   1.986   1.912   0.325  0.3939  0.3905 -1.1492
 4810SOL     OW25891   1.859   3.874   7.631  0.2664  0.2826 -0.1167
 4810SOL    HW125892   1.821   3.961   7.634 -0.7608 -0.2447  1.8338
 4810SOL    HW225893   1.915   3.874   7.708  1.3823 -2.0937 -0.9273
 4811SOL     OW25894   0.572   0.493  11.229 -0.1404  0.5670  0.3202
 4811SOL    HW125895   0.528   0.563  11.277 -0.3237  1.5822 -1.3069
 4811SOL    HW225896   0.511   0.459  11.163  1.3566 -2.1958  0.3460
 4812SOL     OW25897   3.300   2.974  10.736 -0.0568  0.0719  0.2294
 4812SOL    HW125898   3.218   2.927  10.756  1.6651 -3.6231 -1.4124
 4812SOL    HW225899   3.267   3.054  10.695  0.4054  0.0957 -0.0914
 4813SOL     OW25900   0.950   3.492   4.067  0.3725 -0.4161  0.4017
 4813SOL    HW125901   0.954   3.546   3.989  0.1044  1.5316  1.7441
 4813SOL    HW225902   1.000   3.541   4.133  3.1357 -0.5728 -1.5631
 4814SOL     OW25903   3.930   2.752   9.394 -0.0523 -0.0271 -0.2801
 4814SOL    HW125904   3.986   2.739   9.471 -0.5625 -0.1306  0.0783
 4814SOL    HW225905   3.847   2.710   9.417 -0.6926  0.5014 -1.6482
 4815SOL     OW25906   2.018   2.710   7.829 -0.1467 -0.5904  0.0741
 4815SOL    HW125907   1.959   2.645   7.793 -2.1325  0.4111  1.5488
 4815SOL    HW225908   2.011   2.788   7.773  0.3071 -1.0114 -0.5760
 4816SOL     OW25909   4.402   1.441   7.128 -0.0507  0.1598 -0.3214
 4816SOL    HW125910   4.345   1.450   7.052 -0.7853 -4.6636 -0.3038
 4816SOL    HW225911   4.481   1.470   7.082 -0.3370 -1.7786 -2.0259
 4817SOL     OW25912   1.940   4.017  17.202 -0.3742  0.2036 -0.1202
 4817SOL    HW125913   1.988   4.069  17.137 -1.4253  2.1977  0.7152
 4817SOL    HW225914   1.922   3.937  17.152  1.5291 -0.1775 -0.2038
 4818SOL     OW25915   2.504   2.886  17.461  0.4906 -0.3276  0.3056
 4818SOL    HW125916   2.472   2.919  17.545  2.9902  1.4802  0.5201
 4818SOL    HW225917   2.591   2.857  17.488  0.7910  0.7701  0.5375
 4819SOL     OW25918   0.359   3.908   9.355 -0.6570 -0.3531 -0.3553
 4819SOL    HW125919   0.444   3.922   9.313 -0.1915 -0.3121  0.6090
 4819SOL    HW225920   0.369   3.953   9.439 -0.5725 -1.5394  0.2736
 4820SOL     OW25921   2.772   3.283   2.135  0.0334 -0.1239 -1.0673
 4820SOL    HW125922   2.739   3.196   2.113  0.9586 -0.1627 -2.3322
 4820SOL    HW225923   2.725   3.296   2.217 -0.7413 -1.4106 -1.3056
 4821SOL     OW25924   1.639   0.899   1.161  0.6763  0.2148 -0.2939
 4821SOL    HW125925   1.594   0.981   1.139 -0.0982  0.2063  1.2725
 4821SOL    HW225926   1.695   0.930   1.232 -2.2886 -0.4253  2.3002
 4822SOL     OW25927   3.437   3.989   6.114 -0.0577  0.0013 -0.5158
 4822SOL    HW125928   3.529   4.016   6.121  0.6192 -2.9238  1.7840
 4822SOL    HW225929   3.412   4.002   6.022  0.5579  0.2543 -0.6459
 4823SOL     OW25930   3.335   2.690  14.205 -0.4308 -0.6804 -0.2087
 4823SOL    HW125931   3.393   2.752  14.248  1.2488 -0.7187 -2.4077
 4823SOL    HW225932   3.319   2.622  14.270  1.1210 -0.4512  0.4206
 4824SOL     OW25933   4.678   0.656  16.246  0.4653  0.0546  0.6064
 4824SOL    HW125934   4.680   0.714  16.170  0.1274  0.0799  0.6170
 4824SOL    HW225935   0.021   0.598  16.206 -0.2810  1.6624 -2.9420
 4825SOL     OW25936   2.219   1.327   8.716 -0.2832  0.2615  0.0389
 4825SOL    HW125937   2.203   1.383   8.791  2.1723  0.1326  0.6751
 4825SOL    HW225938   2.243   1.246   8.762 -0.9352  0.1954  0.2615
 4826SOL     OW25939   0.676   0.490  13.164 -0.5633 -0.1659 -0.1754
 4826SOL    HW125940   0.594   0.538  13.153 -0.2303  0.2028 -1.0605
 4826SOL    HW225941   0.696   0.477  13.072  0.3600  0.5939 -0.0786
 4827SOL     OW25942   2.839   3.406   2.526 -0.7106  0.5856  0.2959
 4827SOL    HW125943   2.767   3.353   2.560 -0.3812 -0.8702 -1.2486
 4827SOL    HW225944   2.797   3.487   2.497  0.8127  1.4217  0.4428
 4828SOL     OW25945   0.135   2.287  15.228  0.6423 -0.0066 -0.1689
 4828SOL    HW125946   0.057   2.310  15.278  0.5455  1.2645 -0.9223
 4828SOL    HW225947   0.082   2.258  15.154  0.6585 -2.2597  0.6877
 4829SOL     OW25948   2.115   3.197   4.303  0.7910  0.9056  0.3611
 4829SOL    HW125949   2.126   3.188   4.398  1.5693  1.1518  0.2951
 4829SOL    HW225950   2.105   3.106   4.275  0.6409  0.8775  0.5056
 4830SOL     OW25951   0.943   4.489   1.586 -0.4265  0.0734  0.2367
 4830SOL    HW125952   1.006   4.509   1.655 -1.0218 -0.0474  0.8093
 4830SOL    HW225953   1.000   4.438   1.528 -2.5578 -1.6192 -0.3540
 4831SOL     OW25954   1.633   2.551   8.684  0.5198 -0.0753 -0.1706
 4831SOL    HW125955   1.718   2.507   8.692  0.2676 -0.4258  0.6592
 4831SOL    HW225956   1.577   2.483   8.724  0.8669 -0.1686  0.1562
 4832SOL     OW25957   1.854   2.440  16.194  0.0836 -0.2681  0.1667
 4832SOL    HW125958   1.907   2.364  16.219  1.9783  1.0682  0.1950
 4832SOL    HW225959   1.766   2.411  16.219 -0.4730  1.1302 -0.1846
 4833SOL     OW25960   0.370   2.084  12.891  0.5475  0.1854  1.2238
 4833SOL    HW125961   0.401   2.055  12.805 -2.3640 -1.0834  0.5917
 4833SOL    HW225962   0.432   2.157  12.901  0.9801  0.0019 -0.1256
 4834SOL     OW25963   0.474   1.851   0.520  0.3986  0.4090  0.2303
 4834SOL    HW125964   0.540   1.796   0.562  0.9262  1.7760  1.1665
 4834SOL    HW225965   0.421   1.871   0.597 -0.4234 -2.0056  0.2926
 4835SOL     OW25966   1.472   2.289   5.528  0.5497  0.2745 -0.6304
 4835SOL    HW125967   1.448   2.200   5.503  0.7538  0.1538 -0.3944
 4835SOL    HW225968   1.388   2.332   5.515 -0.6514 -2.1396 -0.8895
 4836SOL     OW25969   0.635   3.203  16.632  0.2591 -0.4091  0.3676
 4836SOL    HW125970   0.730   3.214  16.631 -0.0609  2.3518  0.1461
 4836SOL    HW225971   0.607   3.256  16.558  1.2998 -0.6407 -0.1795
 4837SOL     OW25972   1.537   0.813   9.252 -0.0606  0.0266 -0.2734
 4837SOL    HW125973   1.487   0.872   9.308  0.8700  1.7290 -1.2082
 4837SOL    HW225974   1.580   0.875   9.193 -2.1769 -1.3113 -3.1764
 4838SOL     OW25975   1.004   0.727  11.399  0.1316 -0.3123  0.5012
 4838SOL    HW125976   0.945   0.686  11.336  2.6368 -1.3369 -1.1792
 4838SOL    HW225977   0.963   0.716  11.485  0.4471 -1.3088  0.5214
 4839SOL     OW25978   3.757   1.772   3.890 -0.0245  0.0761  0.0034
 4839SOL    HW125979   3.741   1.730   3.975 -0.2017  0.2089  0.0352
 4839SOL    HW225980   3.849   1.745   3.885 -0.1988 -0.7051  0.9254
 4840SOL     OW25981   2.378   1.924   4.575 -0.1746 -0.0001 -0.0200
 4840SOL    HW125982   2.370   1.887   4.663 -1.1684  0.0074 -0.1115
 4840SOL    HW225983   2.462   1.885   4.551 -1.0454 -2.2795  0.6049
 4841SOL     OW25984   3.730   2.657   7.339 -0.7301  0.0739  0.3618
 4841SOL    HW125985   3.694   2.702   7.416 -1.7780 -1.0098  0.5131
 4841SOL    HW225986   3.824   2.655   7.355 -0.1549 -1.9278 -3.2242
 4842SOL     OW25987   4.573   0.433   5.162  0.6733 -0.3328  0.1015
 4842SOL    HW125988   4.630   0.376   5.213  1.5038  0.8085  0.4492
 4842SOL    HW225989   4.622   0.516   5.166  0.2779 -0.1479  1.2109
 4843SOL     OW25990   0.537   2.697  16.907  0.7115  0.1416 -0.8276
 4843SOL    HW125991   0.549   2.752  16.829  1.8211 -2.2661 -2.3786
 4843SOL    HW225992   0.458   2.730  16.948  0.7357  1.0368 -1.5128
 4844SOL     OW25993   2.959   2.725  16.286 -0.5967  0.0879 -0.7549
 4844SOL    HW125994   2.895   2.654  16.282 -0.6487  0.2657 -2.8327
 4844SOL    HW225995   2.932   2.771  16.365  0.6260 -0.3078 -0.1134
 4845SOL     OW25996   4.561   1.328   2.857  0.0589 -0.2513 -0.7353
 4845SOL    HW125997   4.534   1.373   2.777  1.5407  1.9712  0.0262
 4845SOL    HW225998   4.628   1.382   2.899 -0.1184 -1.1929  0.7764
 4846SOL     OW25999   2.744   0.433   3.200  0.0244  0.0007  0.0815
 4846SOL    HW126000   2.723   0.341   3.183  0.0647 -0.0320  0.2079
 4846SOL    HW226001   2.699   0.486   3.135  0.7685  0.4912 -0.0343
 4847SOL     OW26002   4.381   1.799   5.288  0.0073 -0.0391  0.5273
 4847SOL    HW126003   4.325   1.735   5.334  1.3745 -1.0793  0.7640
 4847SOL    HW226004   4.319   1.841   5.228 -0.8198 -2.7522 -0.5607
 4848SOL     OW26005   0.437   0.727  16.370  0.9064 -0.1812 -0.2393
 4848SOL    HW126006   0.437   0.805  16.426 -0.3894 -0.7198  0.4957
 4848SOL    HW226007   0.434   0.771  16.285 -1.1331 -0.2202 -0.1875
 4849SOL     OW26008   2.246   1.468   7.855  0.3918  0.2938 -0.3267
 4849SOL    HW126009   2.164   1.512   7.878 -0.3564 -0.2699 -1.9105
 4849SOL    HW226010   2.307   1.521   7.906 -2.8862  2.9456  0.8383
 4850SOL     OW26011   0.362   3.863   6.390 -0.4272 -0.6636  0.8262
 4850SOL    HW126012   0.313   3.804   6.332  0.3078  0.9971 -1.5071
 4850SOL    HW226013   0.437   3.812   6.420  0.6218  0.3484 -0.0820
 4851SOL     OW26014   0.256   2.874   1.463  0.3319 -0.1830  0.1021
 4851SOL    HW126015   0.174   2.824   1.466  1.0174 -1.2989  0.6940
 4851SOL    HW226016   0.226   2.964   1.452  1.1013 -0.0226 -0.6463
 4852SOL     OW26017   1.279   4.033   4.885 -0.1290  0.0182  0.0292
 4852SOL    HW126018   1.359   3.985   4.906 -0.2882  0.2748  1.2238
 4852SOL    HW226019   1.223   4.001   4.956  0.0297  0.3666  0.3140
 4853SOL     OW26020   1.782   0.047  17.460 -0.7282  0.4043  0.1825
 4853SOL    HW126021   1.762   0.071  17.370 -2.0986 -2.0462 -0.1730
 4853SOL    HW226022   1.874   0.071  17.468 -0.7733  0.5318  0.3212
 4854SOL     OW26023   1.898   4.369   4.549 -0.4921 -0.1132 -1.7566
 4854SOL    HW126024   1.820   4.367   4.605  0.2726 -1.3486 -0.7412
 4854SOL    HW226025   1.959   4.388   4.621 -2.5462 -0.1570 -0.0018
 4855SOL     OW26026   2.598   2.480   5.253  0.2287  0.5793 -0.4550
 4855SOL    HW126027   2.578   2.516   5.339  0.1222  0.1525 -0.3000
 4855SOL    HW226028   2.582   2.558   5.200 -2.3105  0.2383 -0.1800
 4856SOL     OW26029   0.275   2.787   7.014  0.6203  0.2036 -0.1093
 4856SOL    HW126030   0.192   2.783   7.062  0.4448  1.6365 -0.3126
 4856SOL    HW226031   0.325   2.842   7.075 -1.6116  1.3511  0.6717
 4857SOL     OW26032   3.500   0.070   5.799 -1.0444 -0.4253  0.3544
 4857SOL    HW126033   3.493   0.099   5.708 -0.1809  0.1685  0.4871
 4857SOL    HW226034   3.588   0.100   5.820 -0.0617 -1.5267 -2.1160
 4858SOL     OW26035   1.450   0.087   3.434  0.4114 -0.5596  0.2056
 4858SOL    HW126036   1.425   0.024   3.366  1.1551 -0.3883 -0.2255
 4858SOL    HW226037   1.546   0.082   3.433  0.4618  0.3786  0.6744
 4859SOL     OW26038   0.872   0.488  15.021 -0.4534 -0.5018 -0.2301
 4859SOL    HW126039   0.825   0.569  14.999 -1.9528 -1.1621  0.5400
 4859SOL    HW226040   0.896   0.466  14.931 -1.0856  0.7389 -0.7101
 4860SOL     OW26041   3.006   3.138  10.809  0.2177 -0.8123 -0.4619
 4860SOL    HW126042   2.931   3.197  10.809  0.9495  0.1026  1.6152
 4860SOL    HW226043   3.030   3.148  10.717 -2.5082  1.0171 -0.9562
 4861SOL     OW26044   0.786   2.474   6.320  0.4862  0.7954  0.2304
 4861SOL    HW126045   0.744   2.548   6.276  0.8367 -0.5611 -2.3862
 4861SOL    HW226046   0.826   2.423   6.250  0.3702 -1.0709  1.5333
 4862SOL     OW26047   3.213   3.987  11.882  0.3063 -0.4527  0.1424
 4862SOL    HW126048   3.299   3.970  11.920 -0.0193  1.2079  1.6420
 4862SOL    HW226049   3.228   4.026  11.796 -0.0170  0.8801  0.6901
 4863SOL     OW26050   0.297   1.413  11.573 -0.1594  0.3632  0.1494
 4863SOL    HW126051   0.310   1.490  11.628  1.3560 -0.9710  1.6667
 4863SOL    HW226052   0.273   1.456  11.491  1.2534 -1.6527 -1.3184
 4864SOL     OW26053   2.702   4.042  10.786  0.0492  0.2705  0.6986
 4864SOL    HW126054   2.708   3.966  10.729 -0.4484 -0.3180  1.4425
 4864SOL    HW226055   2.618   4.022  10.827  0.3287 -3.0668 -0.3609
 4865SOL     OW26056   2.380   4.416   7.522 -0.0006 -0.0648 -0.3494
 4865SOL    HW126057   2.450   4.431   7.585 -1.6184  1.0599  1.1623
 4865SOL    HW226058   2.398   4.474   7.448  0.1364  2.7555  1.8688
 4866SOL     OW26059   4.015   3.472   3.316  0.2844  0.1115  0.2293
 4866SOL    HW126060   3.980   3.441   3.399 -0.4622 -1.5812 -0.7266
 4866SOL    HW226061   4.108   3.481   3.338  0.3070  0.0635  0.1557
 4867SOL     OW26062   0.518   3.200  13.192  0.1053  0.5076 -0.1065
 4867SOL    HW126063   0.486   3.275  13.243  0.8822  0.3105  0.6854
 4867SOL    HW226064   0.596   3.179  13.244 -1.0468  0.6998  1.7277
 4868SOL     OW26065   4.023   3.498  11.210  0.4948 -0.0666  0.0286
 4868SOL    HW126066   4.007   3.531  11.299  2.1332  1.2500 -0.1566
 4868SOL    HW226067   3.991   3.408  11.206 -0.1372  0.1453  0.4077
 4869SOL     OW26068   4.360   4.637  14.131  0.0219 -0.0152  0.6434
 4869SOL    HW126069   4.312   4.720  14.129  0.5940  0.3438  1.3970
 4869SOL    HW226070   4.376   4.629  14.037 -0.3463  1.7620  0.4197
 4870SOL     OW26071   1.149   0.567   7.067 -0.0370  0.1833  0.0940
 4870SOL    HW126072   1.111   0.648   7.101  0.1397 -0.4915  1.8987
 4870SOL    HW226073   1.231   0.560   7.115  0.4329 -0.1446 -0.7495
 4871SOL     OW26074   2.617   3.696   7.190  0.0046 -0.0242  0.2396
 4871SOL    HW126075   2.633   3.607   7.222  0.4327 -0.0841 -0.1473
 4871SOL    HW226076   2.697   3.743   7.214  0.0360 -0.2056  0.4967
 4872SOL     OW26077   2.227   4.160   6.049 -0.0405  0.2778  0.5970
 4872SOL    HW126078   2.250   4.083   6.101 -0.0796 -0.4209 -0.4384
 4872SOL    HW226079   2.147   4.181   6.097 -1.0601  1.5579 -1.6481
 4873SOL     OW26080   0.022   3.064   9.257  0.2611  0.3470 -0.1474
 4873SOL    HW126081   4.675   3.006   9.288  1.3558 -1.0335 -0.2824
 4873SOL    HW226082   4.705   3.149   9.278  0.7282  0.7533 -0.9212
 4874SOL     OW26083   4.021   3.673   5.973  0.2593  0.2194  0.0700
 4874SOL    HW126084   3.994   3.585   6.000 -0.2256 -0.3001 -2.1420
 4874SOL    HW226085   3.939   3.713   5.946  0.6282  0.9215 -0.0224
 4875SOL     OW26086   2.033   4.695   8.117  0.4249  0.3806 -0.5060
 4875SOL    HW126087   2.009   4.714   8.026  2.7325  1.4183 -0.8987
 4875SOL    HW226088   2.074   4.608   8.110  1.9526  1.0166  0.4630
 4876SOL     OW26089   0.758   1.029   0.352 -0.1698 -0.0848 -0.2126
 4876SOL    HW126090   0.746   0.965   0.423 -2.1341  0.9099  0.3596
 4876SOL    HW226091   0.758   1.114   0.395 -2.3586 -0.7312  1.0807
 4877SOL     OW26092   4.392   4.570  13.369  0.3870  0.1815 -0.1811
 4877SOL    HW126093   4.353   4.527  13.293 -1.6801 -0.4429  1.2211
 4877SOL    HW226094   4.421   4.492  13.418  2.8806  2.0609  1.3441
 4878SOL     OW26095   4.393   0.012   6.724 -0.1544 -0.0396  0.0065
 4878SOL    HW126096   4.330   0.078   6.696  0.0738  0.3369  0.3832
 4878SOL    HW226097   4.459   0.068   6.764 -0.7333  0.4591  0.2475
 4879SOL     OW26098   4.325   3.532  15.731 -0.0442 -0.3058  0.0581
 4879SOL    HW126099   4.237   3.505  15.757  0.0343 -1.5177 -0.9262
 4879SOL    HW226100   4.320   3.618  15.773 -2.3328 -0.4302  0.0569
 4880SOL     OW26101   1.683   1.084  13.590 -0.5651  0.1140  0.3160
 4880SOL    HW126102   1.626   1.084  13.666 -0.8232 -0.7076  0.1168
 4880SOL    HW226103   1.720   1.173  13.592 -1.6392  0.5383  1.0553
 4881SOL     OW26104   4.425   1.419   7.636 -0.2280  0.2049  0.0391
 4881SOL    HW126105   4.411   1.359   7.710 -1.4360 -1.0286 -1.1908
 4881SOL    HW226106   4.521   1.415   7.629 -0.2208 -1.2879  0.9926
 4882SOL     OW26107   4.567   3.454   7.824 -0.0213 -0.0093 -0.6876
 4882SOL    HW126108   4.620   3.526   7.788 -0.5391  0.3663 -0.7013
 4882SOL    HW226109   4.551   3.490   7.911  1.5578 -2.8281  0.7661
 4883SOL     OW26110   1.582   3.203  13.810 -0.0402  0.1156  0.9017
 4883SOL    HW126111   1.504   3.147  13.811 -1.3787  2.0061  0.9999
 4883SOL    HW226112   1.543   3.286  13.836  0.1138  1.9146 -4.5616
 4884SOL     OW26113   0.106   1.022   4.392  0.1409 -0.4684 -0.0483
 4884SOL    HW126114   0.193   1.011   4.430 -0.6388 -0.0394  1.8423
 4884SOL    HW226115   0.106   1.115   4.369 -0.9336  0.1858  2.7010
 4885SOL     OW26116   0.170   4.533   7.486 -0.4715 -0.4594 -0.1031
 4885SOL    HW126117   0.198   4.487   7.565  1.2944 -0.3382 -0.6781
 4885SOL    HW226118   0.253   4.558   7.446  0.0852 -0.6627  0.9246
 4886SOL     OW26119   0.790   4.050   8.718 -0.4591  0.1273  0.3015
 4886SOL    HW126120   0.803   4.116   8.650 -0.7736 -3.2297 -3.0120
 4886SOL    HW226121   0.854   3.985   8.690 -1.4896 -1.0071  0.5919
 4887SOL     OW26122   0.343   2.253  12.552 -0.0753  0.2413 -0.1016
 4887SOL    HW126123   0.289   2.236  12.474  0.0218 -0.8876  0.0807
 4887SOL    HW226124   0.364   2.162  12.574  2.8674  0.9808  0.0181
 4888SOL     OW26125   0.751   2.421  12.066 -0.1527 -0.2179  0.1933
 4888SOL    HW126126   0.741   2.416  12.161  1.2843 -1.8564  0.2708
 4888SOL    HW226127   0.675   2.367  12.041 -1.6206  1.3886  1.2179
 4889SOL     OW26128   1.453   2.497  17.453  0.0053 -0.6995 -0.2339
 4889SOL    HW126129   1.418   2.430  17.511 -1.3726  2.7253  2.8636
 4889SOL    HW226130   1.380   2.517  17.394  1.1516  0.4956 -1.2529
 4890SOL     OW26131   0.496   2.909  11.419 -0.0909 -0.5903  0.6512
 4890SOL    HW126132   0.483   2.972  11.490  1.5288  0.6275 -0.1253
 4890SOL    HW226133   0.419   2.854  11.431  0.6819 -1.3537  2.0510
 4891SOL     OW26134   3.997   0.271   6.865  0.7896 -0.3619 -0.1259
 4891SOL    HW126135   3.982   0.363   6.848 -0.6923 -0.0967  2.6100
 4891SOL    HW226136   4.029   0.241   6.780 -1.9009  0.8026 -1.5311
 4892SOL     OW26137   2.115   0.494   4.631 -0.4116  0.1132  0.2642
 4892SOL    HW126138   2.201   0.472   4.666 -0.5645 -3.4606 -1.6622
 4892SOL    HW226139   2.130   0.587   4.618 -0.4553 -0.0765 -1.0842
 4893SOL     OW26140   4.515   4.340  15.671 -0.1486 -0.1381  0.6012
 4893SOL    HW126141   4.481   4.277  15.735  0.3238  0.7398  1.7234
 4893SOL    HW226142   4.607   4.316  15.658 -0.2163  0.1919 -0.4343
 4894SOL     OW26143   2.424   4.322   7.874  0.1851 -0.1530 -0.1807
 4894SOL    HW126144   2.386   4.235   7.891 -0.2495 -0.3447 -2.1100
 4894SOL    HW226145   2.518   4.307   7.866  0.6955  1.9212  1.8632
 4895SOL     OW26146   3.077   2.078   3.735  0.4011 -0.1102 -0.2843
 4895SOL    HW126147   3.106   2.063   3.644  0.4473  1.2428 -0.5043
 4895SOL    HW226148   3.152   2.126   3.771  0.5850 -0.7587  0.1902
 4896SOL     OW26149   3.114   4.074   6.624 -0.1528 -0.0728  1.0318
 4896SOL    HW126150   3.056   4.143   6.592  2.0902  0.2171 -2.4038
 4896SOL    HW226151   3.204   4.106   6.612  0.1562 -1.3197 -0.0697
 4897SOL     OW26152   4.072   3.052   3.576  0.0742  0.4623  0.3048
 4897SOL    HW126153   4.156   3.006   3.573 -0.9103 -1.5063  2.9365
 4897SOL    HW226154   4.060   3.079   3.485  3.1025  1.4718  0.2125
 4898SOL     OW26155   0.070   4.441  15.954  0.2924  0.1879  0.0210
 4898SOL    HW126156   0.010   4.465  15.883  0.5186  0.3880 -0.1022
 4898SOL    HW226157   0.026   4.456  16.037  1.1203 -0.0410  0.5014
 4899SOL     OW26158   1.222   2.555  10.316 -0.7132 -0.6792 -0.2002
 4899SOL    HW126159   1.136   2.530  10.282 -0.0556 -1.1057 -1.5488
 4899SOL    HW226160   1.261   2.593  10.237  1.4468  0.2913  1.3280
 4900SOL     OW26161   2.049   1.676   8.010 -0.1471 -0.1706 -0.0806
 4900SOL    HW126162   1.971   1.731   8.005 -0.5940 -0.8711 -0.9131
 4900SOL    HW226163   1.994   1.598   8.020 -1.1221  0.9423  3.0490
 4901SOL     OW26164   3.982   1.807   9.328  0.6420  0.1345 -0.2141
 4901SOL    HW126165   3.907   1.750   9.314  0.5147 -0.4366  2.8267
 4901SOL    HW226166   4.007   1.768   9.412  1.2793  0.5375 -0.2138
 4902SOL     OW26167   1.492   3.146   4.163 -0.0555 -0.2332 -0.4370
 4902SOL    HW126168   1.436   3.084   4.209  1.0397 -1.0115 -0.1705
 4902SOL    HW226169   1.436   3.194   4.100 -0.1413 -0.3804 -0.4724
 4903SOL     OW26170   3.692   0.797   8.315  0.0263 -0.2849 -0.4080
 4903SOL    HW126171   3.678   0.863   8.247 -0.3705 -0.9488 -0.9714
 4903SOL    HW226172   3.612   0.746   8.304 -0.3920  0.2934 -0.0842
 4904SOL     OW26173   3.627   2.527  11.841  0.2000 -0.0927 -0.5946
 4904SOL    HW126174   3.706   2.475  11.853 -0.1892 -0.9411 -1.7023
 4904SOL    HW226175   3.644   2.575  11.760 -2.5224  0.7634 -0.6800
 4905SOL     OW26176   0.517   4.290   1.765  0.0514  0.5437 -0.0999
 4905SOL    HW126177   0.591   4.348   1.746  0.3172 -0.1089 -1.0463
 4905SOL    HW226178   0.457   4.317   1.696 -0.2453  1.3832  0.4798
 4906SOL     OW26179   3.944   0.560   6.979 -0.1195  0.5650  0.1093
 4906SOL    HW126180   3.863   0.549   7.028 -0.6428  0.3590 -0.8029
 4906SOL    HW226181   3.932   0.651   6.952 -4.7554 -0.8530 -2.5023
 4907SOL     OW26182   1.513   1.714  15.171  0.6051 -0.0377  0.3757
 4907SOL    HW126183   1.454   1.687  15.101  0.2406  0.0597  0.6459
 4907SOL    HW226184   1.542   1.796  15.130  2.3846  0.0282  1.7662
 4908SOL     OW26185   4.431   2.952  11.291 -0.2967  0.0229  0.4934
 4908SOL    HW126186   4.430   2.909  11.376 -0.3828 -0.1209  0.4199
 4908SOL    HW226187   4.505   3.011  11.304  0.1574 -0.2236 -0.8991
 4909SOL     OW26188   0.371   0.757   6.712  0.5950 -0.5459 -0.3081
 4909SOL    HW126189   0.370   0.832   6.652  3.0128  1.5185  2.2360
 4909SOL    HW226190   0.447   0.718   6.669  2.2118  1.2066  0.9380
 4910SOL     OW26191   0.579   2.182  16.814 -0.8767  0.4137  0.1107
 4910SOL    HW126192   0.498   2.156  16.858  0.2703 -0.5651  1.6443
 4910SOL    HW226193   0.551   2.268  16.782  2.0579 -0.1361 -3.8966
 4911SOL     OW26194   3.998   1.543  17.636 -0.3921  0.2017  0.1843
 4911SOL    HW126195   3.999   1.638  17.625 -0.6956  0.1752 -0.0829
 4911SOL    HW226196   3.971   1.510  17.550 -0.5026  2.7353 -0.7622
 4912SOL     OW26197   1.012   0.562   5.707  0.5412 -0.1023 -0.7200
 4912SOL    HW126198   0.920   0.576   5.684  0.5362 -0.0099 -0.6456
 4912SOL    HW226199   1.018   0.467   5.719  0.9678  0.0566  0.2880
 4913SOL     OW26200   3.498   4.430   4.527  1.0791 -0.1366 -0.2549
 4913SOL    HW126201   3.520   4.450   4.436  0.6622 -0.0988 -0.3458
 4913SOL    HW226202   3.552   4.498   4.569 -1.1837  1.0817  0.6980
 4914SOL     OW26203   3.627   3.812  10.197 -0.4179  0.5509 -0.0620
 4914SOL    HW126204   3.571   3.827  10.121 -2.7983 -1.8314  1.2438
 4914SOL    HW226205   3.577   3.758  10.259 -0.9405  1.7299  0.5344
 4915SOL     OW26206   0.367   1.013   0.950  0.2173 -0.1248 -0.1394
 4915SOL    HW126207   0.329   0.934   0.988 -0.2098  0.7233  1.1727
 4915SOL    HW226208   0.344   1.081   1.013 -1.5424 -1.0679  0.2176
 4916SOL     OW26209   2.061   1.948  13.966 -0.3326  0.0692  0.0820
 4916SOL    HW126210   2.057   1.907  14.053 -2.7943  2.1197  0.9409
 4916SOL    HW226211   2.109   2.027  13.991  2.6668 -1.6760 -0.1903
 4917SOL     OW26212   4.194   0.101   4.561 -0.1070  0.1893  0.7789
 4917SOL    HW126213   4.200   0.070   4.471 -0.9430  2.0004  0.0883
 4917SOL    HW226214   4.287   0.103   4.584  0.8712  1.1271 -3.2131
 4918SOL     OW26215   1.824   3.750   3.305  0.4753  0.5576  0.1355
 4918SOL    HW126216   1.755   3.805   3.343  0.9481 -0.1666  2.0334
 4918SOL    HW226217   1.818   3.680   3.370  1.5864  0.5658  0.2453
 4919SOL     OW26218   0.338   1.323  11.973 -0.6441 -0.0039  0.3052
 4919SOL    HW126219   0.418   1.288  12.011 -1.3034 -1.9908 -0.1214
 4919SOL    HW226220   0.300   1.248  11.927 -0.5923  0.6467 -0.8206
 4920SOL     OW26221   2.406   2.461  16.990  0.1829 -0.0405  0.5883
 4920SOL    HW126222   2.484   2.414  17.021 -0.4726 -0.8587  0.9894
 4920SOL    HW226223   2.433   2.505  16.909 -0.2542  0.0077  0.4662
 4921SOL     OW26224   1.884   2.146   7.107 -0.2489  0.1532  0.3736
 4921SOL    HW126225   1.841   2.089   7.170 -0.4589  0.6571  0.6803
 4921SOL    HW226226   1.968   2.161   7.151 -0.0868  0.2229  0.0437
 4922SOL     OW26227   0.754   3.026   5.147  0.2504 -0.2009 -0.3088
 4922SOL    HW126228   0.804   3.006   5.068  0.6609 -2.2128  0.4723
 4922SOL    HW226229   0.700   2.947   5.153 -1.0618  0.7775  0.7982
 4923SOL     OW26230   0.006   3.227   6.845  0.3288  0.2114 -0.0985
 4923SOL    HW126231   4.662   3.282   6.803  0.9949  1.6143  0.7032
 4923SOL    HW226232   4.681   3.147   6.867  1.0386  0.2018  1.3753
 4924SOL     OW26233   2.153   0.407   6.681  0.1691  0.0979 -0.2326
 4924SOL    HW126234   2.146   0.442   6.770  1.6404 -1.1479  0.3858
 4924SOL    HW226235   2.087   0.338   6.678  0.0971  0.1613 -0.1085
 4925SOL     OW26236   0.554   2.373  11.078 -0.0797 -1.0313 -0.1983
 4925SOL    HW126237   0.479   2.432  11.080  0.8290  0.0807  2.0894
 4925SOL    HW226238   0.568   2.369  11.173 -0.4443 -1.6936 -0.1726
 4926SOL     OW26239   0.211   4.385   6.015  0.1224 -0.1905  0.1136
 4926SOL    HW126240   0.118   4.375   5.992 -0.2645 -0.6655  1.8481
 4926SOL    HW226241   0.217   4.477   5.992  0.2132 -0.0545  0.6916
 4927SOL     OW26242   4.278   2.401   5.576  0.1352  0.4349  0.5178
 4927SOL    HW126243   4.217   2.424   5.505 -0.4866  0.8025  1.1710
 4927SOL    HW226244   4.358   2.449   5.556 -0.0435  0.2430 -0.6924
 4928SOL     OW26245   4.273   3.048   8.653  0.1366 -0.3625 -0.1690
 4928SOL    HW126246   4.255   3.088   8.739 -0.0951 -1.5534  0.3418
 4928SOL    HW226247   4.368   3.033   8.652  0.3726  1.3424 -2.5887
 4929SOL     OW26248   1.604   0.088   4.230 -0.2484  0.4789  0.0031
 4929SOL    HW126249   1.646   0.086   4.317  2.0075 -0.1141 -1.0843
 4929SOL    HW226250   1.529   0.031   4.244  0.4686 -0.9100 -1.8637
 4930SOL     OW26251   1.640   1.031   8.330 -0.4049  0.1343  0.4214
 4930SOL    HW126252   1.587   1.095   8.377 -0.3522  0.4758  0.0166
 4930SOL    HW226253   1.724   1.053   8.371  0.3897  1.3836 -1.8414
 4931SOL     OW26254   3.160   4.523   5.712  0.0614  0.2362  0.1834
 4931SOL    HW126255   3.115   4.439   5.708 -2.0647  1.2559  2.6789
 4931SOL    HW226256   3.125   4.570   5.636  2.2134 -1.0682 -1.6156
 4932SOL     OW26257   2.361   1.489   3.684 -0.5671  0.2038 -0.2747
 4932SOL    HW126258   2.449   1.471   3.718 -0.9969 -2.1671 -0.3801
 4932SOL    HW226259   2.364   1.455   3.595 -2.1198  1.7000 -0.8735
 4933SOL     OW26260   4.162   1.523  10.937  0.0177  0.0851  0.3445
 4933SOL    HW126261   4.232   1.458  10.939  0.7489  0.8582 -0.1332
 4933SOL    HW226262   4.182   1.575  10.859 -1.1714  1.1760  0.7536
 4934SOL     OW26263   1.411   3.545  10.989 -0.5190 -0.7882 -0.5279
 4934SOL    HW126264   1.395   3.639  10.997  1.9453 -0.1655 -2.8455
 4934SOL    HW226265   1.368   3.508  11.066 -0.2357 -1.0107 -0.4768
 4935SOL     OW26266   2.930   3.470   8.402 -0.5193 -0.4793 -0.3962
 4935SOL    HW126267   2.878   3.512   8.333 -0.8293  1.0619  0.7767
 4935SOL    HW226268   2.909   3.377   8.394 -1.5719 -0.3786  1.3703
 4936SOL     OW26269   0.343   0.248   3.601 -0.3400 -0.4738 -0.4289
 4936SOL    HW126270   0.414   0.274   3.542  0.5310 -1.9783 -0.0577
 4936SOL    HW226271   0.392   0.202   3.670  0.7894  0.7114 -0.4212
 4937SOL     OW26272   4.662   4.249   5.735  0.2664  0.0619 -0.0633
 4937SOL    HW126273   4.571   4.224   5.719 -0.1373  2.0854 -0.9729
 4937SOL    HW226274   4.699   4.162   5.745 -1.2977 -0.4164  1.5042
 4938SOL     OW26275   2.587   0.458  11.250 -0.3455 -0.0870 -0.1263
 4938SOL    HW126276   2.535   0.537  11.234  2.4924  1.7167 -0.3643
 4938SOL    HW226277   2.572   0.398  11.176 -2.8198  1.0456 -0.5425
 4939SOL     OW26278   2.170   3.069   7.166  0.0410  0.4171 -0.1001
 4939SOL    HW126279   2.138   3.140   7.221 -1.0466 -0.7982  0.8339
 4939SOL    HW226280   2.131   3.089   7.081  1.2287 -1.9273 -1.1829
 4940SOL     OW26281   1.443   2.900   3.806 -0.0184  0.5685 -0.6081
 4940SOL    HW126282   1.418   2.961   3.737 -4.0675 -0.6394 -0.2047
 4940SOL    HW226283   1.489   2.834   3.754 -1.3364 -0.9161  0.0928
 4941SOL     OW26284   4.367   4.083   9.960  0.3898  0.2460 -0.3831
 4941SOL    HW126285   4.409   4.149  10.014 -0.3617  0.7950 -0.4648
 4941SOL    HW226286   4.290   4.051  10.007  0.4119  1.3814  0.4045
 4942SOL     OW26287   3.726   3.354  16.397 -0.0080  0.8329 -0.1387
 4942SOL    HW126288   3.779   3.356  16.317 -1.1616  0.5904 -0.9241
 4942SOL    HW226289   3.648   3.394  16.358 -0.5372 -0.5554 -0.4954
 4943SOL     OW26290   0.833   0.447   9.245 -0.3420  0.6755  0.1654
 4943SOL    HW126291   0.755   0.487   9.284 -1.4720 -0.2455 -1.1625
 4943SOL    HW226292   0.898   0.515   9.265 -0.2674  1.4041 -2.4770
 4944SOL     OW26293   4.007   4.643   2.506  0.4390  0.7858 -0.0439
 4944SOL    HW126294   3.968   4.591   2.576  2.4399  0.6984  0.9808
 4944SOL    HW226295   3.996   4.595   2.424  1.0744 -0.2153  0.4579
 4945SOL     OW26296   1.723   3.426   9.201  0.1521  0.0494  0.0488
 4945SOL    HW126297   1.728   3.514   9.163  0.1345 -1.6350 -3.7931
 4945SOL    HW226298   1.635   3.432   9.236 -0.5848 -0.4933 -1.7240
 4946SOL     OW26299   0.700   1.573   8.306  0.2248 -0.3734  0.2086
 4946SOL    HW126300   0.739   1.504   8.253 -0.2614 -1.8762  1.8486
 4946SOL    HW226301   0.685   1.541   8.395  0.0401  2.3337  1.1732
 4947SOL     OW26302   2.558   3.154   6.371 -0.5325 -0.3402  0.1127
 4947SOL    HW126303   2.476   3.174   6.326  0.1990 -0.1463 -1.1403
 4947SOL    HW226304   2.553   3.191   6.459  0.1205 -0.1473  0.0695
 4948SOL     OW26305   4.518   0.547   5.616 -0.4553 -0.1149 -0.4308
 4948SOL    HW126306   4.496   0.549   5.709 -0.7214 -3.1297 -0.4436
 4948SOL    HW226307   4.485   0.459   5.598 -1.4614 -0.0135  0.9585
 4949SOL     OW26308   1.029   0.853  14.042 -0.0924  0.5718 -0.1979
 4949SOL    HW126309   1.028   0.918  13.971  0.7023  0.5723 -0.2067
 4949SOL    HW226310   0.941   0.859  14.079 -0.4319 -0.5626 -0.8206
 4950SOL     OW26311   2.638   0.563   7.406 -0.7227 -0.0210  0.4722
 4950SOL    HW126312   2.625   0.510   7.328 -2.4060 -0.8689  1.3070
 4950SOL    HW226313   2.732   0.554   7.418 -0.4678  1.2686 -0.6988
 4951SOL     OW26314   0.138   4.638   8.877  0.7084 -0.3197 -0.2033
 4951SOL    HW126315   0.118   0.009   8.884 -1.5462 -0.7986 -0.1426
 4951SOL    HW226316   0.088   4.605   8.952  1.0790 -1.3915 -0.4303
 4952SOL     OW26317   1.662   1.628   4.152  0.4926  0.4678  0.1929
 4952SOL    HW126318   1.660   1.533   4.145  2.6475  0.3432  1.0557
 4952SOL    HW226319   1.723   1.650   4.081  1.4218 -0.5568  0.6672
 4953SOL     OW26320   2.039   2.966  11.337 -0.7208  0.0300  0.3437
 4953SOL    HW126321   2.064   2.888  11.288 -0.7133 -0.1658  0.6562
 4953SOL    HW226322   1.995   2.937  11.417  0.0252 -1.4112  0.2446
 4954SOL     OW26323   2.543   2.746   5.109  0.3820 -0.5700  0.6029
 4954SOL    HW126324   2.537   2.730   5.015  0.9715 -0.4384  0.5435
 4954SOL    HW226325   2.451   2.738   5.134 -0.5345  0.2262 -2.5321
 4955SOL     OW26326   4.130   0.448   8.067  0.0490  0.7804  0.2889
 4955SOL    HW126327   4.058   0.424   8.126 -0.0529  0.4517  0.0287
 4955SOL    HW226328   4.143   0.536   8.103  0.8889  0.3562  1.0224
 4956SOL     OW26329   2.053   3.919   4.945 -0.5565 -0.9019  0.1515
 4956SOL    HW126330   2.006   3.911   5.028 -0.6289  0.7900  0.2726
 4956SOL    HW226331   2.008   3.984   4.892 -0.0138 -1.1685 -0.6397
 4957SOL     OW26332   4.050   4.142   6.488 -0.3029  0.2227 -0.4796
 4957SOL    HW126333   4.101   4.096   6.554 -0.2589  0.9307 -0.0160
 4957SOL    HW226334   3.972   4.089   6.470 -0.4682 -0.6237  2.8458
 4958SOL     OW26335   3.392   1.788   0.916 -0.1908  0.5421 -0.4084
 4958SOL    HW126336   3.457   1.750   0.975 -0.6241  0.9431  0.3264
 4958SOL    HW226337   3.322   1.726   0.937 -0.1628  0.3547 -0.8683
 4959SOL     OW26338   4.108   2.983   8.314  0.0363  0.0721 -0.1518
 4959SOL    HW126339   4.203   2.990   8.329  0.0412 -1.0615  0.3420
 4959SOL    HW226340   4.083   3.039   8.240  1.2710  0.6276 -0.1519
 4960SOL     OW26341   2.032   3.607   7.752 -0.6122 -0.0056 -0.1466
 4960SOL    HW126342   2.091   3.675   7.786  1.0603 -1.1450 -0.7498
 4960SOL    HW226343   2.010   3.553   7.829 -0.6939  1.8603  1.1277
 4961SOL     OW26344   0.398   3.051   6.320 -0.0533 -0.1205  0.1834
 4961SOL    HW126345   0.364   3.130   6.362 -1.0464 -1.4522  1.8647
 4961SOL    HW226346   0.341   2.986   6.358  0.7274 -0.8740  0.0651
 4962SOL     OW26347   2.626   1.829   4.510  0.7965  0.2622  0.0368
 4962SOL    HW126348   2.659   1.798   4.595  1.8256  0.5729 -0.2411
 4962SOL    HW226349   2.700   1.866   4.461 -0.9406  1.4766 -1.6372
 4963SOL     OW26350   2.665   4.615   3.389 -0.9857 -0.0050 -0.1551
 4963SOL    HW126351   2.620   4.693   3.356 -0.5005 -0.5361 -2.1206
 4963SOL    HW226352   2.633   4.544   3.333 -2.3471  0.7125 -0.2815
 4964SOL     OW26353   4.076   3.346   2.410 -0.0714 -0.2509 -0.5852
 4964SOL    HW126354   4.042   3.319   2.325 -0.3146  0.3700 -0.6876
 4964SOL    HW226355   4.054   3.439   2.414  0.5564 -0.0894 -0.7578
 4965SOL     OW26356   0.881   4.687  15.956 -0.1182 -0.0952  0.0797
 4965SOL    HW126357   0.971   4.707  15.929  0.9172  1.2057  4.5020
 4965SOL    HW226358   0.877   4.592  15.964  1.9626 -0.4138 -2.5067
 4966SOL     OW26359   1.498   2.532  11.244  0.0002  0.4081 -0.4410
 4966SOL    HW126360   1.457   2.446  11.253  0.4892  0.1711 -0.4537
 4966SOL    HW226361   1.583   2.518  11.288 -0.4577 -2.5623 -0.5030
 4967SOL     OW26362   0.164   0.716  14.192 -0.2692  0.0920 -0.7599
 4967SOL    HW126363   0.076   0.753  14.191 -0.1986  0.2572 -1.0542
 4967SOL    HW226364   0.176   0.744  14.283 -0.7776  0.9125 -0.9454
 4968SOL     OW26365   2.876   0.213   4.009  0.0947  0.3169 -0.1685
 4968SOL    HW126366   2.855   0.121   3.992  1.4676 -0.4781  2.4452
 4968SOL    HW226367   2.796   0.243   4.052  0.5396  1.1265  0.0985
 4969SOL     OW26368   2.427   3.452   1.205 -0.2078  0.0943  0.4602
 4969SOL    HW126369   2.390   3.507   1.274 -2.2963 -0.7682  0.0383
 4969SOL    HW226370   2.389   3.493   1.128  0.5831 -2.0250 -1.0831
 4970SOL     OW26371   2.146   4.252   8.192  0.0220 -0.1173  0.1031
 4970SOL    HW126372   2.232   4.280   8.223 -0.3366  1.3068 -0.2186
 4970SOL    HW226373   2.167   4.166   8.156  2.1100  0.3659  0.1843
 4971SOL     OW26374   0.986   0.620  12.096 -0.1139 -0.5135 -0.2425
 4971SOL    HW126375   1.032   0.538  12.116 -1.0510 -1.4602 -1.9565
 4971SOL    HW226376   1.050   0.656  12.035 -1.3438  2.1207 -0.0064
 4972SOL     OW26377   0.295   4.441  16.845 -0.4147 -0.2317 -0.3010
 4972SOL    HW126378   0.329   4.530  16.856 -2.1793  0.3042  0.9937
 4972SOL    HW226379   0.336   4.411  16.764  1.7302  1.1445  0.2694
 4973SOL     OW26380   2.330   2.812  16.736  0.3761  0.2990 -0.0883
 4973SOL    HW126381   2.394   2.753  16.776  0.9606  0.6904 -0.4332
 4973SOL    HW226382   2.257   2.799  16.796  2.0645 -0.3720  1.8586
 4974SOL     OW26383   0.776   1.744   3.926 -0.0708  0.0377 -0.6522
 4974SOL    HW126384   0.730   1.739   4.010 -0.6635 -1.2815 -1.0492
 4974SOL    HW226385   0.806   1.834   3.936  0.8688 -0.3177 -0.2998
 4975SOL     OW26386   0.449   1.712  13.075 -0.6723 -0.3701 -0.0030
 4975SOL    HW126387   0.494   1.775  13.019 -1.4399  1.7918  1.8034
 4975SOL    HW226388   0.478   1.733  13.164  1.5830  1.5595 -1.1841
 4976SOL     OW26389   3.078   1.455   8.384  0.0770 -0.0504 -0.5587
 4976SOL    HW126390   3.106   1.545   8.369 -0.2703  0.2942  0.8497
 4976SOL    HW226391   3.158   1.421   8.343 -0.1706 -1.8841  0.5206
 4977SOL     OW26392   2.216   2.931   6.624  0.0095 -0.4388  0.7267
 4977SOL    HW126393   2.179   2.922   6.711 -0.9886 -0.5246  0.2895
 4977SOL    HW226394   2.288   2.868   6.636 -0.1251 -0.9627 -1.1447
 4978SOL     OW26395   2.588   2.674  15.389  0.4782  0.1658  0.0674
 4978SOL    HW126396   2.676   2.709  15.380  0.5159 -0.4059 -1.7730
 4978SOL    HW226397   2.579   2.601  15.329 -1.6829 -1.1194  1.9500
 4979SOL     OW26398   0.935   1.606   8.114 -0.2658 -0.0571 -0.6853
 4979SOL    HW126399   0.975   1.686   8.148 -1.1224 -0.1525  0.5124
 4979SOL    HW226400   1.006   1.545   8.131 -1.8777 -0.9307  2.8899
 4980SOL     OW26401   0.336   3.647   2.801  0.3769  0.0074  0.0145
 4980SOL    HW126402   0.321   3.741   2.806 -0.8178 -0.2169  0.7626
 4980SOL    HW226403   0.259   3.608   2.843  0.6380 -0.5262  0.0033
 4981SOL     OW26404   0.108   0.968   4.085  0.3516 -0.2070  0.1155
 4981SOL    HW126405   0.102   0.975   4.180  0.0660 -0.6326  0.1277
 4981SOL    HW226406   0.019   0.938   4.069  0.4007  0.0791 -0.7071
 4982SOL     OW26407   0.719   0.903  11.712 -0.1389 -0.0707 -0.1037
 4982SOL    HW126408   0.650   0.839  11.732 -1.5451  1.4850  0.0291
 4982SOL    HW226409   0.677   0.989  11.719 -1.0098 -0.6610  1.8950
 4983SOL     OW26410   1.441   4.555   7.039 -0.3595  0.2835  0.5325
 4983SOL    HW126411   1.365   4.610   7.056 -0.6643  0.3678 -1.1493
 4983SOL    HW226412   1.411   4.500   6.967  0.9338 -1.4213  1.2930
 4984SOL     OW26413   0.341   4.332   8.373 -0.1938  0.1003  0.2098
 4984SOL    HW126414   0.331   4.425   8.391 -0.1633  0.1896 -0.2431
 4984SOL    HW226415   0.437   4.337   8.374 -0.1720 -0.4374  1.7067
 4985SOL     OW26416   0.042   2.407  13.523  0.5752  0.0889 -0.0981
 4985SOL    HW126417   0.057   2.315  13.502 -2.6494 -0.7487  1.1705
 4985SOL    HW226418   0.133   2.432  13.533  1.0866 -0.7523 -2.6769
 4986SOL     OW26419   4.216   3.760   3.580  0.7498 -0.5758  0.2173
 4986SOL    HW126420   4.275   3.799   3.515  0.2814 -0.2462 -0.0085
 4986SOL    HW226421   4.184   3.843   3.615  4.2550  0.5448  0.7660
 4987SOL     OW26422   4.589   0.633   3.178 -0.4330  0.1820  0.0505
 4987SOL    HW126423   4.613   0.540   3.176 -2.3954 -0.2846 -1.1925
 4987SOL    HW226424   4.571   0.652   3.086 -2.5436 -0.9171  0.2434
 4988SOL     OW26425   4.164   1.800   7.939 -0.0342 -0.0057  0.7704
 4988SOL    HW126426   4.132   1.735   8.002 -1.9821  0.7044  0.5039
 4988SOL    HW226427   4.226   1.843   7.998  1.8268  0.7237 -1.7205
 4989SOL     OW26428   1.993   1.318  10.310  0.6422  0.2609  0.1972
 4989SOL    HW126429   2.045   1.399  10.316 -2.0605  1.8482  2.2217
 4989SOL    HW226430   1.944   1.337  10.230 -0.2433 -3.0081 -0.0220
 4990SOL     OW26431   0.507   4.230   9.584 -0.3980  0.3550 -0.4369
 4990SOL    HW126432   0.518   4.296   9.652  0.5358 -2.1341  1.8359
 4990SOL    HW226433   0.601   4.227   9.566 -0.5107 -3.2423 -0.3058
 4991SOL     OW26434   3.208   3.315   9.119 -0.0072  0.3986 -0.3143
 4991SOL    HW126435   3.153   3.238   9.133 -1.7448  1.8967  1.0053
 4991SOL    HW226436   3.234   3.339   9.208  1.4258 -3.2188  0.2314
 4992SOL     OW26437   0.989   4.068   5.641  0.3134 -0.4318  0.5808
 4992SOL    HW126438   0.951   4.094   5.724  0.5295  1.2918  0.1418
 4992SOL    HW226439   1.028   3.982   5.657  0.6055 -0.1385  1.4282
 4993SOL     OW26440   2.059   0.256  16.236  0.1576 -0.1372 -0.4489
 4993SOL    HW126441   2.130   0.192  16.224  0.7078  0.4562 -0.3681
 4993SOL    HW226442   2.113   0.335  16.231 -0.2266  0.0973 -0.8168
 4994SOL     OW26443   2.242   2.244   7.501  0.5366 -0.5718  0.3601
 4994SOL    HW126444   2.336   2.249   7.482  0.1913  0.0919 -1.1176
 4994SOL    HW226445   2.245   2.271   7.593 -1.0253 -0.8737  0.5045
 4995SOL     OW26446   1.569   3.779   2.222  0.3741 -0.1840  0.0070
 4995SOL    HW126447   1.652   3.805   2.182  0.4897  0.8037  0.8994
 4995SOL    HW226448   1.514   3.755   2.147 -0.9607 -0.3671  1.0533
 4996SOL     OW26449   3.852   0.679   8.637 -0.2722  0.1341  0.2258
 4996SOL    HW126450   3.884   0.627   8.563 -0.8258 -0.6039  0.5143
 4996SOL    HW226451   3.880   0.765   8.606 -0.0646  0.1512  0.4586
 4997SOL     OW26452   1.860   4.615   3.053 -0.0286 -0.0829  0.1405
 4997SOL    HW126453   1.832   4.698   3.013  0.4362 -1.9463 -4.0297
 4997SOL    HW226454   1.938   4.644   3.099 -0.6879  0.1781  1.0994
 4998SOL     OW26455   1.353   4.227   0.778  0.4745 -0.6218  0.0292
 4998SOL    HW126456   1.377   4.320   0.774  0.0323 -0.4469  1.6345
 4998SOL    HW226457   1.324   4.210   0.867  0.7432  0.1548  0.2669
 4999SOL     OW26458   1.463   3.115   6.815 -0.4771 -0.3256 -0.6287
 4999SOL    HW126459   1.419   3.103   6.900 -0.6739 -2.5118 -1.0310
 4999SOL    HW226460   1.432   3.204   6.800  0.9016  0.2677 -0.0207
 5000SOL     OW26461   3.628   4.002   6.628 -0.1276  0.3379  0.0712
 5000SOL    HW126462   3.593   3.976   6.543 -0.5025  0.2365  0.2537
 5000SOL    HW226463   3.603   4.095   6.628 -2.0474 -0.1635 -0.7800
 5001SOL     OW26464   2.078   3.106  12.727  0.2323 -0.1603  0.1754
 5001SOL    HW126465   2.126   3.032  12.689 -0.7392 -1.1249  0.8478
 5001SOL    HW226466   2.040   3.150  12.651  3.5936  0.8710 -0.9355
 5002SOL     OW26467   1.072   1.260  14.907  0.3125  0.6454 -0.2539
 5002SOL    HW126468   1.043   1.344  14.871  1.1130  1.3089  0.6501
 5002SOL    HW226469   1.048   1.199  14.838  0.0489 -0.1933  0.5870
 5003SOL     OW26470   1.884   2.081   8.624 -0.2145 -0.3560  0.0189
 5003SOL    HW126471   1.866   2.147   8.690  0.3365  0.5674 -0.7592
 5003SOL    HW226472   1.964   2.053   8.668 -0.6267  0.3493  1.2117
 5004SOL     OW26473   4.598   3.514  10.604  0.3612  0.2905 -0.5792
 5004SOL    HW126474   4.611   3.560  10.522 -0.5593  0.0713 -0.8511
 5004SOL    HW226475   4.690   3.504  10.630  0.0601 -1.6747 -0.2497
 5005SOL     OW26476   0.379   0.367   2.916 -0.3023  0.5944  0.3339
 5005SOL    HW126477   0.307   0.347   2.857 -0.6978  2.4090  0.2237
 5005SOL    HW226478   0.331   0.384   2.997 -1.5970  1.6565 -0.6630
 5006SOL     OW26479   3.654   3.124   8.370  0.6935 -0.1510  0.3533
 5006SOL    HW126480   3.595   3.186   8.328  0.7034  0.9328  1.9142
 5006SOL    HW226481   3.613   3.119   8.457 -0.1624 -0.1973 -0.0505
 5007SOL     OW26482   4.107   0.100  10.188 -0.3521 -0.5902  0.4721
 5007SOL    HW126483   4.167   0.171  10.210 -0.3227 -1.0467  1.8398
 5007SOL    HW226484   4.171   0.028  10.181 -2.0746 -2.1725  0.8949
 5008SOL     OW26485   0.954   3.015   6.179  0.2118  0.3472  0.5470
 5008SOL    HW126486   0.862   2.996   6.163  0.4930 -0.3359 -0.2568
 5008SOL    HW226487   0.960   3.011   6.275 -0.5782  2.1322  0.6647
 5009SOL     OW26488   2.474   4.404   2.741  0.0559 -0.3567 -0.0699
 5009SOL    HW126489   2.565   4.410   2.770  0.1165  1.3301 -0.6028
 5009SOL    HW226490   2.471   4.322   2.690  0.3336  0.4458 -1.3885
 5010SOL     OW26491   1.787   2.460   0.599 -0.0984 -0.1606 -0.3027
 5010SOL    HW126492   1.707   2.482   0.551 -0.9660 -1.7731  0.4086
 5010SOL    HW226493   1.852   2.522   0.567  0.3145 -0.7378 -0.5812
 5011SOL     OW26494   2.688   1.067  17.285 -0.4582  0.0008  0.6308
 5011SOL    HW126495   2.769   1.048  17.238 -1.8966 -1.6100 -1.1770
 5011SOL    HW226496   2.656   0.978  17.296 -1.4273  0.2896  0.1258
 5012SOL     OW26497   3.393   0.879   3.392 -0.2794 -0.7849  0.4897
 5012SOL    HW126498   3.481   0.850   3.371 -0.9985 -0.6129 -2.6783
 5012SOL    HW226499   3.344   0.797   3.377  0.9337 -1.5076  0.5173
 5013SOL     OW26500   1.084   1.563   5.754 -0.2097  0.0382 -0.0862
 5013SOL    HW126501   1.121   1.646   5.723  0.2918  0.2871  1.1808
 5013SOL    HW226502   1.144   1.540   5.825  0.6031 -2.0232 -1.4419
 5014SOL     OW26503   0.443   2.220   6.221 -0.3263  0.1831 -0.7031
 5014SOL    HW126504   0.372   2.164   6.252  1.0347 -0.6951  0.8429
 5014SOL    HW226505   0.403   2.306   6.232 -0.5495  0.0109 -0.1607
 5015SOL     OW26506   1.331   2.514   5.759  0.1495  0.3584 -0.1735
 5015SOL    HW126507   1.405   2.566   5.729  0.6163  0.5240  1.2745
 5015SOL    HW226508   1.374   2.440   5.802 -2.3994  0.0766  1.9550
 5016SOL     OW26509   0.547   3.809   7.637 -0.2637  0.2851 -0.3772
 5016SOL    HW126510   0.606   3.825   7.563  1.6922 -1.6711  0.7586
 5016SOL    HW226511   0.515   3.729   7.596  0.7818  0.1222 -0.8847
 5017SOL     OW26512   1.266   1.609  13.807  0.2360 -0.2707  0.5124
 5017SOL    HW126513   1.222   1.590  13.724  2.2248 -1.4075 -0.2689
 5017SOL    HW226514   1.288   1.701  13.795 -2.8531  0.4066  0.0412
 5018SOL     OW26515   4.030   3.339   7.548  0.3145 -0.5593 -0.2524
 5018SOL    HW126516   3.959   3.289   7.588 -1.3668  0.4721 -1.9548
 5018SOL    HW226517   4.061   3.387   7.625 -1.4006  1.4180 -0.7940
 5019SOL     OW26518   2.075   2.343   8.302  0.0638  0.2518  0.0017
 5019SOL    HW126519   2.135   2.309   8.368 -0.9634  0.7237  1.1613
 5019SOL    HW226520   2.007   2.382   8.356  0.6671 -0.4268  1.2381
 5020SOL     OW26521   2.838   4.626   7.011  0.3905  0.2680 -0.2966
 5020SOL    HW126522   2.773   4.687   7.045 -0.6840 -0.0026 -1.8288
 5020SOL    HW226523   2.773   4.569   6.970  0.1220  0.4810 -0.1615
 5021SOL     OW26524   3.101   0.896   6.235  0.5685  0.1742 -0.5127
 5021SOL    HW126525   3.043   0.914   6.309 -0.3225 -1.8758 -0.7041
 5021SOL    HW226526   3.044   0.851   6.173  0.2776 -0.5435  0.2753
 5022SOL     OW26527   0.600   4.503   3.133 -0.3095  0.0286 -0.2349
 5022SOL    HW126528   0.600   4.447   3.055 -0.7907 -2.6354  1.6554
 5022SOL    HW226529   0.595   4.595   3.107 -1.0548 -0.3071 -1.2558
 5023SOL     OW26530   3.361   3.681   6.612  0.1472  0.6722  0.1025
 5023SOL    HW126531   3.388   3.740   6.682  0.6550  0.1259  0.3730
 5023SOL    HW226532   3.308   3.623   6.666  0.1207  0.3368 -0.2779
 5024SOL     OW26533   0.877   2.818   0.794 -0.0450 -0.4005 -0.1580
 5024SOL    HW126534   0.783   2.820   0.812  0.2376 -0.4071  1.3107
 5024SOL    HW226535   0.909   2.872   0.866  1.4217 -0.6893 -0.5860
 5025SOL     OW26536   1.070   1.794   5.998 -0.8690 -0.1282  0.3794
 5025SOL    HW126537   1.161   1.810   5.971 -1.0254  2.0266  1.1330
 5025SOL    HW226538   1.019   1.812   5.919 -1.8713  1.0973  1.3140
 5026SOL     OW26539   3.970   1.373   4.858 -0.0830  0.1650 -0.3204
 5026SOL    HW126540   4.011   1.459   4.868  1.4401 -0.7320  1.2227
 5026SOL    HW226541   3.986   1.354   4.766  0.7740 -0.3048 -0.0683
 5027SOL     OW26542   3.047   0.721   2.409 -0.4726 -0.4640  0.6799
 5027SOL    HW126543   2.976   0.681   2.358 -1.0883 -0.9409  1.9163
 5027SOL    HW226544   3.108   0.749   2.341 -0.1102 -0.4613  1.0069
 5028SOL     OW26545   1.929   4.253   5.395 -0.2963  0.1867  0.0852
 5028SOL    HW126546   1.856   4.193   5.380 -0.7196  0.3808  1.4088
 5028SOL    HW226547   1.982   4.207   5.460 -0.1119 -0.4626 -0.5203
 5029SOL     OW26548   0.626   3.729   7.158  0.2220 -0.1419 -0.1433
 5029SOL    HW126549   0.622   3.776   7.074  0.7171 -1.7916 -1.0816
 5029SOL    HW226550   0.648   3.643   7.122 -1.4942 -1.0903  1.1191
 5030SOL     OW26551   3.814   0.344  17.209  0.4715 -0.3334 -0.3371
 5030SOL    HW126552   3.762   0.264  17.217  0.1175  0.0915  1.8140
 5030SOL    HW226553   3.750   0.415  17.206  2.3141  1.2723 -1.7455
 5031SOL     OW26554   3.010   2.320  14.797  0.3874 -0.2595 -0.4498
 5031SOL    HW126555   3.024   2.240  14.847  1.5505  0.4827  0.4120
 5031SOL    HW226556   2.966   2.374  14.863  0.4306  1.4031 -1.7631
 5032SOL     OW26557   1.935   0.588   9.841 -0.2179 -0.0632 -0.1969
 5032SOL    HW126558   1.884   0.634   9.908 -0.8518 -0.1427 -0.6219
 5032SOL    HW226559   1.931   0.643   9.763 -0.6983  1.1779  0.7020
 5033SOL     OW26560   4.445   2.526  17.674  0.5242  0.2937  0.3717
 5033SOL    HW126561   4.374   2.558  17.618  0.3729  1.1473  1.0484
 5033SOL    HW226562   4.423   2.571   0.066 -0.9346  1.8845 -0.8773
 5034SOL     OW26563   0.572   4.463   7.507 -0.0437 -0.6001 -0.2668
 5034SOL    HW126564   0.547   4.420   7.589 -0.9726  0.1091 -0.1737
 5034SOL    HW226565   0.541   4.413   7.431 -2.0158  1.6292 -0.9403
 5035SOL     OW26566   2.546   4.120  11.530 -0.3648  0.0258  0.2414
 5035SOL    HW126567   2.513   4.034  11.503  0.3915 -0.0332 -0.5016
 5035SOL    HW226568   2.621   4.137  11.474 -1.3640  0.7309 -0.8931
 5036SOL     OW26569   1.878   4.358   6.820  0.1582  0.0238  0.2232
 5036SOL    HW126570   1.916   4.396   6.900  1.4782  1.8906 -1.2861
 5036SOL    HW226571   1.796   4.318   6.849  1.1333 -0.3093  2.5200
 5037SOL     OW26572   2.854   3.926  12.797  0.3010  0.6558 -0.1420
 5037SOL    HW126573   2.910   3.867  12.745  0.6287  0.3359  0.5811
 5037SOL    HW226574   2.782   3.869  12.824  0.8548 -0.7254 -1.5313
 5038SOL     OW26575   2.861   2.299  16.415 -0.1947 -0.5557  0.5342
 5038SOL    HW126576   2.927   2.327  16.478  1.4669 -1.0388 -0.9549
 5038SOL    HW226577   2.806   2.246  16.473 -0.5799 -2.6140 -1.6820
 5039SOL     OW26578   3.524   1.961   8.678 -0.0816 -0.7046  0.6139
 5039SOL    HW126579   3.492   1.900   8.743  0.0664  0.0112  1.3565
 5039SOL    HW226580   3.589   1.904   8.635  0.3852  1.1045 -1.1028
 5040SOL     OW26581   0.129   2.509   8.603 -0.3220  0.1532  0.9311
 5040SOL    HW126582   0.142   2.415   8.593 -3.1857  0.0350 -1.7377
 5040SOL    HW226583   0.187   2.524   8.678  1.7793 -2.0055 -0.2819
 5041SOL     OW26584   4.313   1.337  14.961 -0.4416  0.5961 -0.0409
 5041SOL    HW126585   4.366   1.386  15.024  1.1230 -0.6951 -0.3513
 5041SOL    HW226586   4.362   1.354  14.880  0.3622 -0.5956  0.1976
 5042SOL     OW26587   0.695   1.693   7.612 -0.2554 -0.2747 -0.0682
 5042SOL    HW126588   0.773   1.684   7.666  0.9965  1.6926 -1.5337
 5042SOL    HW226589   0.747   1.734   7.543  0.3638 -0.0022  0.5687
 5043SOL     OW26590   0.849   1.429   7.760  0.6608  0.2740  0.1419
 5043SOL    HW126591   0.838   1.383   7.676 -0.1419  1.2028 -0.2681
 5043SOL    HW226592   0.891   1.359   7.809  0.0965 -0.1091  0.0832
 5044SOL     OW26593   2.399   4.106   3.791  0.3686 -0.0553  0.0200
 5044SOL    HW126594   2.430   4.176   3.849 -1.6961 -1.4426  2.7687
 5044SOL    HW226595   2.317   4.143   3.759  0.7780 -0.5246 -1.5486
 5045SOL     OW26596   1.905   3.813   9.169  0.2434 -0.4262  0.0048
 5045SOL    HW126597   1.823   3.813   9.219  1.6660  1.5352  2.2953
 5045SOL    HW226598   1.972   3.769   9.221  0.4359  1.7396  1.5924
 5046SOL     OW26599   1.887   1.011   1.627 -0.3855 -0.9616  0.5574
 5046SOL    HW126600   1.939   0.931   1.616 -0.3730 -0.9772  0.7426
 5046SOL    HW226601   1.810   1.001   1.570  0.1340  1.4186 -0.5735
 5047SOL     OW26602   2.891   4.663   8.986 -0.3140 -0.2616  0.3812
 5047SOL    HW126603   2.901   4.627   9.074 -2.1438  0.1547  0.7464
 5047SOL    HW226604   2.810   4.713   8.993  1.2569  2.2385  0.5287
 5048SOL     OW26605   2.415   1.436  10.564  0.1004 -0.2954  0.4526
 5048SOL    HW126606   2.379   1.366  10.509 -1.7383  2.1150 -1.3462
 5048SOL    HW226607   2.343   1.497  10.570 -1.0733 -1.3092 -3.4562
 5049SOL     OW26608   4.267   0.291   2.412  0.3547  0.2854 -0.1940
 5049SOL    HW126609   4.327   0.322   2.345  2.1155 -1.3516  0.6065
 5049SOL    HW226610   4.195   0.260   2.358 -0.7676  0.9138  0.9210
 5050SOL     OW26611   1.406   3.791   3.877 -0.3697 -0.5893  0.2623
 5050SOL    HW126612   1.338   3.854   3.852 -0.1867 -0.2370  0.6691
 5050SOL    HW226613   1.351   3.719   3.906 -0.6581 -0.7900 -0.7540
 5051SOL     OW26614   2.725   0.807   4.285 -0.2831  0.5708 -0.3863
 5051SOL    HW126615   2.692   0.819   4.196  0.9291 -0.2047 -0.9409
 5051SOL    HW226616   2.813   0.844   4.277  0.5812 -1.1983  0.8380
 5052SOL     OW26617   1.581   2.802  16.368 -0.1839  0.0950  0.2198
 5052SOL    HW126618   1.537   2.810  16.453 -1.7505  2.0460 -0.7867
 5052SOL    HW226619   1.534   2.730  16.326 -0.6946  1.0000 -0.7542
 5053SOL     OW26620   4.133   0.830  10.102  0.3458 -0.1469  0.1587
 5053SOL    HW126621   4.062   0.765  10.100 -0.4460  0.7168  0.2679
 5053SOL    HW226622   4.091   0.910  10.133  2.9347  1.2567  0.0596
 5054SOL     OW26623   4.699   3.843   8.039 -0.0422 -0.1312 -0.1697
 5054SOL    HW126624   4.645   3.778   7.994 -1.5144 -0.4327  2.0126
 5054SOL    HW226625   0.001   3.908   7.974 -0.9897  1.7064  1.3364
 5055SOL     OW26626   0.588   1.992  12.021 -0.2732 -0.2620  0.1853
 5055SOL    HW126627   0.516   1.966  12.079 -2.2608 -0.0113 -2.1909
 5055SOL    HW226628   0.587   2.087  12.006  0.6213 -0.4094 -0.7344
 5056SOL     OW26629   0.068   3.389   7.109 -0.1376 -0.3451 -0.1290
 5056SOL    HW126630   0.095   3.339   7.186  0.2729  1.0571  0.6363
 5056SOL    HW226631   4.717   3.341   7.070 -0.6601 -0.0785  0.5342
 5057SOL     OW26632   2.887   3.272   3.004  0.3659 -0.4190  0.0980
 5057SOL    HW126633   2.880   3.351   2.950 -4.2566  1.3556  3.2792
 5057SOL    HW226634   2.934   3.210   2.948  0.5444 -0.3692  0.1914
 5058SOL     OW26635   2.602   1.887   1.307  0.0203 -0.4289 -0.0340
 5058SOL    HW126636   2.535   1.944   1.344  0.8592  1.7968 -1.9540
 5058SOL    HW226637   2.541   1.838   1.252  1.4249 -0.9828 -1.0965
 5059SOL     OW26638   1.217   4.258   6.527  0.1264  0.0988 -0.7552
 5059SOL    HW126639   1.185   4.168   6.521 -0.4658  0.1336  2.0386
 5059SOL    HW226640   1.285   4.260   6.459  1.6858 -0.8837  0.7548
 5060SOL     OW26641   4.285   2.124  10.063  0.4398 -0.0808  0.2000
 5060SOL    HW126642   4.320   2.089   9.981 -1.7334 -1.7790  0.0057
 5060SOL    HW226643   4.309   2.215  10.049  1.7523 -0.2569  1.2981
 5061SOL     OW26644   2.774   3.283  10.787  0.0190 -0.3545 -0.0842
 5061SOL    HW126645   2.715   3.314  10.856 -0.0718  1.5539 -1.0181
 5061SOL    HW226646   2.836   3.355  10.782 -2.0238  1.3065 -1.6491
 5062SOL     OW26647   1.470   3.118   2.766 -0.6075 -0.1126  0.1441
 5062SOL    HW126648   1.514   3.192   2.809 -1.2661  0.0808  0.4956
 5062SOL    HW226649   1.512   3.124   2.681 -0.0184  0.9568  0.5087
 5063SOL     OW26650   3.168   2.835  14.449  0.2895 -0.5445  0.3962
 5063SOL    HW126651   3.187   2.896  14.520 -2.6239 -0.3846  1.0619
 5063SOL    HW226652   3.239   2.771  14.457 -0.5701 -1.6289 -0.4430
 5064SOL     OW26653   3.792   2.053   7.773  0.2887 -0.3772 -0.0441
 5064SOL    HW126654   3.760   2.133   7.815 -2.3866 -0.3803 -2.0673
 5064SOL    HW226655   3.816   2.082   7.685  1.4860 -0.8831  0.1246
 5065SOL     OW26656   3.564   3.265   3.051 -0.2394 -0.0464  0.7622
 5065SOL    HW126657   3.524   3.351   3.040 -2.5509 -1.2490 -0.3420
 5065SOL    HW226658   3.529   3.250   3.139  0.6789  1.2486  1.3491
 5066SOL     OW26659   0.829   1.204   2.508  0.3870  0.3072 -0.4648
 5066SOL    HW126660   0.843   1.269   2.578 -0.8323 -0.0642  0.1215
 5066SOL    HW226661   0.918   1.178   2.484  0.6003  1.9198 -1.4577
 5067SOL     OW26662   4.627   1.178   7.308  0.3336 -0.2849  0.1128
 5067SOL    HW126663   4.670   1.262   7.292 -3.9324  1.6312 -1.3165
 5067SOL    HW226664   4.687   1.144   7.375  1.8781  0.8665 -0.6854
 5068SOL     OW26665   0.207   2.551   1.305  0.0492 -0.4435 -0.0859
 5068SOL    HW126666   0.129   2.510   1.266 -1.6083  0.1853  2.5967
 5068SOL    HW226667   0.164   2.598   1.376  0.1747  1.3449 -1.1796
 5069SOL     OW26668   0.256   4.186   4.324 -0.0244  0.3171 -0.3840
 5069SOL    HW126669   0.238   4.140   4.406  1.3354 -0.1443 -0.3588
 5069SOL    HW226670   0.209   4.264   4.355  0.2527  0.0766  0.6422
 5070SOL     OW26671   1.854   4.652   2.547 -0.1793  0.7495 -0.1017
 5070SOL    HW126672   1.836   0.013   2.591  0.9882  0.7778  0.3132
 5070SOL    HW226673   1.887   4.602   2.621 -0.3636 -1.2078 -1.3365
 5071SOL     OW26674   4.001   2.259   7.262 -0.0097  0.4905 -0.2095
 5071SOL    HW126675   3.933   2.200   7.228 -0.0053  0.0037  0.6165
 5071SOL    HW226676   4.011   2.310   7.182 -0.5724  3.2302  1.4879
 5072SOL     OW26677   4.098   3.222   8.193 -0.1932  0.5655  0.3632
 5072SOL    HW126678   4.007   3.198   8.177 -0.5455  0.1389  2.9811
 5072SOL    HW226679   4.077   3.298   8.249 -2.7424 -1.7228  2.5277
 5073SOL     OW26680   3.893   2.496   8.449  0.4383 -0.2663  0.7063
 5073SOL    HW126681   3.846   2.533   8.524  0.2950  0.9411  0.0257
 5073SOL    HW226682   3.891   2.561   8.379 -3.5474 -0.2623  0.7774
 5074SOL     OW26683   3.191   0.254   2.050 -0.2881  0.9996 -0.1586
 5074SOL    HW126684   3.183   0.326   1.988  1.2728  2.0415  0.8576
 5074SOL    HW226685   3.210   0.302   2.131  3.5917 -0.3254 -0.2981
 5075SOL     OW26686   3.717   2.647   8.164 -0.4642  0.0957  0.4260
 5075SOL    HW126687   3.798   2.692   8.140  1.5740 -3.7493  0.1485
 5075SOL    HW226688   3.672   2.713   8.215  0.5194  0.3255  0.9957
 5076SOL     OW26689   4.262   0.009  15.920 -0.1255  1.0804  0.7788
 5076SOL    HW126690   4.356   4.713  15.915 -0.7193 -1.9504  0.2967
 5076SOL    HW226691   4.217   4.650  15.898 -0.9027  1.2551  1.7157
 5077SOL     OW26692   0.012   3.394   3.174  0.0687 -0.8217 -0.5459
 5077SOL    HW126693   4.713   3.479   3.135 -1.4998 -1.2782 -0.7051
 5077SOL    HW226694   4.701   3.418   3.261  0.3597 -1.7685 -0.1824
 5078SOL     OW26695   1.216   1.229   4.721 -0.4108  0.3743  0.8212
 5078SOL    HW126696   1.224   1.300   4.785  1.7881  0.9710 -0.1082
 5078SOL    HW226697   1.121   1.221   4.728 -0.2787 -0.7409  1.3128
 5079SOL     OW26698   1.540   1.393  17.100  0.0007 -0.6350  0.1275
 5079SOL    HW126699   1.482   1.424  17.170 -0.6624 -1.9930  0.1804
 5079SOL    HW226700   1.537   1.447  17.022 -0.3111  0.7316  1.0796
 5080SOL     OW26701   3.846   3.136   8.169 -0.4296  0.1464  0.2128
 5080SOL    HW126702   3.773   3.137   8.231 -0.0578 -1.0790  0.6491
 5080SOL    HW226703   3.803   3.118   8.085  0.0673  1.1154 -0.2524
 5081SOL     OW26704   0.516   4.200   4.078 -0.2743  0.3807  0.4525
 5081SOL    HW126705   0.556   4.118   4.107  1.3555  1.3977  1.0384
 5081SOL    HW226706   0.425   4.168   4.080 -0.0570 -0.2446  0.3084
 5082SOL     OW26707   0.620   1.201   9.708 -0.1379 -0.2884  0.1682
 5082SOL    HW126708   0.677   1.148   9.652  0.1618  1.3679 -1.0714
 5082SOL    HW226709   0.579   1.135   9.765  0.6248 -0.0745  0.9767
 5083SOL     OW26710   4.209   1.856  12.591 -0.3408  0.2150  0.7077
 5083SOL    HW126711   4.233   1.929  12.648 -0.2547 -0.6693  1.8229
 5083SOL    HW226712   4.256   1.784  12.633 -0.0486  0.3193  0.5598
 5084SOL     OW26713   2.017   2.396   2.686  0.1563  0.5294  0.8229
 5084SOL    HW126714   1.938   2.394   2.632  1.1196  0.2701 -0.5773
 5084SOL    HW226715   2.075   2.452   2.634  0.2100  0.7879  1.1541
 5085SOL     OW26716   1.774   2.130   6.399 -0.1710  0.2238 -0.2415
 5085SOL    HW126717   1.694   2.076   6.396  0.5228 -0.8144  0.1128
 5085SOL    HW226718   1.769   2.163   6.309 -0.5891  1.7649  0.3499
 5086SOL     OW26719   0.312   0.658  13.964  0.6217 -0.5526  0.0521
 5086SOL    HW126720   0.306   0.573  13.920  2.7532 -1.0924  0.8125
 5086SOL    HW226721   0.235   0.660  14.021 -0.0701 -0.8024 -0.8831
 5087SOL     OW26722   0.777   0.641   7.756 -0.1559 -0.8210  0.3113
 5087SOL    HW126723   0.740   0.619   7.842 -1.3757 -0.4852 -0.1288
 5087SOL    HW226724   0.697   0.666   7.710 -0.7475 -0.0592  1.7462
 5088SOL     OW26725   3.888   3.724   9.139  0.0526  0.6039 -0.0920
 5088SOL    HW126726   3.960   3.742   9.200 -1.1093  0.9668  1.1776
 5088SOL    HW226727   3.822   3.781   9.179  0.3259  1.1973 -0.5085
 5089SOL     OW26728   0.811   2.401   1.752  0.0349  0.3442  0.0641
 5089SOL    HW126729   0.865   2.322   1.746  2.6377  2.3175 -2.6342
 5089SOL    HW226730   0.729   2.352   1.750  1.2210 -1.5575 -2.4254
 5090SOL     OW26731   4.033   1.564   1.533  0.2514 -0.1745 -0.3776
 5090SOL    HW126732   3.947   1.606   1.534  0.5941  0.5449 -1.1357
 5090SOL    HW226733   4.019   1.481   1.489  0.3975 -0.6538  0.4780
 5091SOL     OW26734   2.733   3.095  13.305  0.3669 -0.2668  0.6631
 5091SOL    HW126735   2.676   3.126  13.234  1.4144 -1.0805 -0.5510
 5091SOL    HW226736   2.657   3.060  13.351 -1.2906  3.1695  0.4861
 5092SOL     OW26737   0.251   3.002   8.372  0.0971 -0.6321 -0.2311
 5092SOL    HW126738   0.241   2.907   8.371 -1.8966 -0.4135  0.5090
 5092SOL    HW226739   0.320   3.016   8.437 -0.5108 -0.0467  0.2916
 5093SOL     OW26740   0.652   3.727   4.414  0.0915 -0.0939  0.5451
 5093SOL    HW126741   0.718   3.761   4.353 -0.4149 -1.6098 -0.8546
 5093SOL    HW226742   0.635   3.641   4.376  1.4617 -0.6950  1.3248
 5094SOL     OW26743   3.259   3.472   3.678 -0.2139 -0.0291  0.1285
 5094SOL    HW126744   3.235   3.550   3.729  0.8455  1.3399 -1.4462
 5094SOL    HW226745   3.218   3.513   3.602  1.2500 -1.8954 -1.6553
 5095SOL     OW26746   3.810   1.353   1.231  0.5481 -0.2648 -1.0307
 5095SOL    HW126747   3.746   1.291   1.266  1.5911  1.1748  3.5416
 5095SOL    HW226748   3.892   1.331   1.275 -0.2906 -1.8245 -0.2532
 5096SOL     OW26749   0.015   0.321   7.612  0.1439  0.2553  0.4409
 5096SOL    HW126750   4.680   0.303   7.686 -1.0676  0.7843 -0.3670
 5096SOL    HW226751   0.100   0.335   7.655  0.0911  1.2978  0.2129
 5097SOL     OW26752   0.473   0.584   5.888  0.5057  0.0414 -0.2312
 5097SOL    HW126753   0.383   0.612   5.905  0.7677  1.0376 -0.4267
 5097SOL    HW226754   0.497   0.567   5.979 -0.2793 -3.7366 -0.7336
 5098SOL     OW26755   0.391   3.835  16.196 -0.2580  0.0056 -0.4940
 5098SOL    HW126756   0.451   3.862  16.266  0.0787 -0.0321 -0.7694
 5098SOL    HW226757   0.322   3.902  16.194 -1.2633 -1.0108 -0.2947
 5099SOL     OW26758   1.083   3.237   6.914  0.2229 -0.1823  0.7622
 5099SOL    HW126759   0.998   3.199   6.934 -0.0593 -0.0139 -0.1261
 5099SOL    HW226760   1.064   3.321   6.873  0.9059  0.1712  1.1612
 5100SOL     OW26761   1.177   2.066   8.272 -0.0257 -0.2603 -0.2069
 5100SOL    HW126762   1.123   2.120   8.329  2.0686  0.7742  0.8074
 5100SOL    HW226763   1.211   1.994   8.325 -0.9386 -0.4091  0.1694
 5101SOL     OW26764   4.585   3.701   4.966 -0.6926  0.2434  0.2342
 5101SOL    HW126765   4.562   3.785   5.006 -2.0222  0.0528 -0.1311
 5101SOL    HW226766   4.495   3.673   4.950 -0.2480 -0.8394 -0.4471
 5102SOL     OW26767   2.309   1.857  12.112 -0.0028  0.0627  0.2768
 5102SOL    HW126768   2.254   1.925  12.152  0.5437  1.1204 -0.7781
 5102SOL    HW226769   2.352   1.913  12.048  1.8654 -0.0099  1.4538
 5103SOL     OW26770   1.933   0.408   8.271 -0.4875 -0.3745 -0.1291
 5103SOL    HW126771   1.951   0.480   8.210  1.4982 -0.1261  0.7397
 5103SOL    HW226772   1.973   0.333   8.228 -1.6117 -1.9762  1.6316
 5104SOL     OW26773   1.670   0.208  14.790  0.7301  0.3880  0.0337
 5104SOL    HW126774   1.750   0.158  14.774 -1.0491 -2.6112  0.6347
 5104SOL    HW226775   1.606   0.152  14.746  2.5541 -1.1370 -0.6737
 5105SOL     OW26776   4.557   0.385  11.264 -0.2943 -0.7729 -0.4344
 5105SOL    HW126777   4.482   0.411  11.317  1.1664  0.1316  1.1791
 5105SOL    HW226778   4.554   0.289  11.260  0.7130 -0.6968 -3.2700
 5106SOL     OW26779   1.656   3.863  14.018  0.0389 -0.4825  0.1622
 5106SOL    HW126780   1.688   3.854  14.108  1.1836 -0.2358 -0.2208
 5106SOL    HW226781   1.612   3.948  14.017  0.4148 -0.2965 -0.2729
 5107SOL     OW26782   4.204   4.601   6.523  0.0248  0.1018 -0.1740
 5107SOL    HW126783   4.195   4.629   6.431 -3.5130 -3.0664 -0.7827
 5107SOL    HW226784   4.127   4.643   6.561 -1.1897 -1.9599 -0.3836
 5108SOL     OW26785   0.086   1.352   9.763 -0.0990 -0.2259  0.8671
 5108SOL    HW126786   0.173   1.318   9.746 -0.3471 -0.7502  0.6455
 5108SOL    HW226787   0.037   1.289   9.711 -1.0145  1.3212 -0.1472
 5109SOL     OW26788   2.808   2.443   7.401 -0.0351 -0.6032 -0.0449
 5109SOL    HW126789   2.804   2.539   7.396 -0.8931 -0.5449  1.8801
 5109SOL    HW226790   2.865   2.418   7.328  2.6855 -1.2538  2.3300
 5110SOL     OW26791   3.625   3.786   3.700  0.2282  0.0515 -0.5135
 5110SOL    HW126792   3.584   3.777   3.786  3.0939  0.8136  0.9375
 5110SOL    HW226793   3.555   3.774   3.636 -0.2514  0.8112 -0.1304
 5111SOL     OW26794   0.024   1.097   9.453 -0.2298 -0.2745 -0.1862
 5111SOL    HW126795   4.702   1.026   9.406  0.5284 -0.4757 -0.5837
 5111SOL    HW226796   4.690   1.110   9.530  0.6369  4.4848 -0.3432
 5112SOL     OW26797   3.208   2.920   2.229  0.6666  0.0302  0.4056
 5112SOL    HW126798   3.163   2.965   2.300 -0.6825 -0.2425 -0.2819
 5112SOL    HW226799   3.184   2.992   2.170  1.9098 -0.8045 -1.1305
 5113SOL     OW26800   3.407   4.700  15.851  0.3537  0.2589  0.5050
 5113SOL    HW126801   3.399   4.693  15.756 -0.1133 -1.6982  0.6945
 5113SOL    HW226802   3.411   4.607  15.872 -0.1099  0.2440  0.5273
 5114SOL     OW26803   2.796   0.140   3.150 -0.0598 -0.0532 -0.2858
 5114SOL    HW126804   2.713   0.124   3.195 -0.1872  0.7829 -0.2288
 5114SOL    HW226805   2.875   0.110   3.195 -0.2384 -0.0725  0.0133
 5115SOL     OW26806   3.105   2.724  15.502 -0.1059 -0.1117  0.5011
 5115SOL    HW126807   3.130   2.712  15.593 -2.8429  0.4570  1.3348
 5115SOL    HW226808   3.167   2.667  15.457 -0.6611 -0.4451  0.1531
 5116SOL     OW26809   4.317   3.920   6.245  0.2609 -0.5332  0.0991
 5116SOL    HW126810   4.329   4.011   6.272 -0.8876 -1.3310  3.3714
 5116SOL    HW226811   4.223   3.906   6.234  0.3232  0.0554 -1.1626
 5117SOL     OW26812   4.366   2.781  16.773  0.0625 -0.1417 -0.4407
 5117SOL    HW126813   4.320   2.839  16.713  2.6209  0.2833 -2.0065
 5117SOL    HW226814   4.367   2.835  16.853 -0.2479  0.9421 -1.1633
 5118SOL     OW26815   4.351   1.454   2.315 -0.2173 -0.4217  0.5129
 5118SOL    HW126816   4.378   1.362   2.318 -1.7829 -0.9545 -1.6097
 5118SOL    HW226817   4.281   1.448   2.380  0.1074 -3.1872  0.6160
 5119SOL     OW26818   1.769   1.992   7.331  0.6273  0.8277 -0.6969
 5119SOL    HW126819   1.739   1.959   7.416 -0.7061  0.5723 -1.2632
 5119SOL    HW226820   1.851   1.943   7.323  0.8453  0.7303  1.9648
 5120SOL     OW26821   3.070   4.538   2.237  0.1857  0.1350 -0.1666
 5120SOL    HW126822   3.076   4.627   2.204 -2.2735  1.3588  2.6578
 5120SOL    HW226823   2.999   4.546   2.301  0.1493  3.3621 -0.5982
 5121SOL     OW26824   4.201   0.418   4.425  0.0956 -0.2137  0.2277
 5121SOL    HW126825   4.193   0.347   4.489 -0.3112 -0.1014  0.2999
 5121SOL    HW226826   4.234   0.373   4.347 -0.1997 -0.2791  0.1388
 5122SOL     OW26827   0.495   3.279   5.022 -0.2160  0.0372  0.3398
 5122SOL    HW126828   0.472   3.254   4.933  0.4751 -0.5970  0.3393
 5122SOL    HW226829   0.478   3.193   5.061  1.2720 -0.2414  0.3967
 5123SOL     OW26830   0.308   0.496   7.923  0.1400 -0.6798  0.2812
 5123SOL    HW126831   0.325   0.458   7.837 -0.0391  0.2944 -0.1924
 5123SOL    HW226832   0.215   0.472   7.926  0.6313 -2.6446 -0.3837
 5124SOL     OW26833   2.438   3.108  17.307  0.9928  0.5287 -0.5430
 5124SOL    HW126834   2.377   3.082  17.238 -0.0918 -0.9512  0.9764
 5124SOL    HW226835   2.467   3.030  17.354 -0.7212  0.5132  0.4705
 5125SOL     OW26836   0.218   0.409   8.615  0.0422  0.1565  0.0478
 5125SOL    HW126837   0.313   0.417   8.602 -0.1619  1.0877 -0.8814
 5125SOL    HW226838   0.209   0.471   8.688  2.0577  0.7661 -0.2216
 5126SOL     OW26839   3.341   4.194   4.468 -0.2616  0.2136 -0.1800
 5126SOL    HW126840   3.348   4.130   4.397  0.5110 -0.7298  0.7323
 5126SOL    HW226841   3.374   4.279   4.440  1.8055 -0.0932  1.2786
 5127SOL     OW26842   2.583   3.776   3.911 -1.0546  0.3120  0.7492
 5127SOL    HW126843   2.580   3.863   3.950 -1.6041 -0.0166  1.4297
 5127SOL    HW226844   2.665   3.752   3.954 -2.1176 -0.3746  2.3786
 5128SOL     OW26845   0.709   1.969   3.128 -0.1010 -0.6018  0.3318
 5128SOL    HW126846   0.669   1.907   3.189  0.1707  1.7477  2.9017
 5128SOL    HW226847   0.641   1.976   3.061  0.3981  3.2491  0.2396
 5129SOL     OW26848   3.235   2.357   4.129  0.2477  0.2337 -0.2141
 5129SOL    HW126849   3.265   2.394   4.046  0.1307 -0.3935 -0.5350
 5129SOL    HW226850   3.266   2.267   4.131 -0.7416 -0.1128 -0.4545
 5130SOL     OW26851   4.025   3.828   9.978 -0.2165 -0.1290 -0.1563
 5130SOL    HW126852   4.092   3.761   9.967  1.4654  1.5947 -0.3227
 5130SOL    HW226853   4.024   3.893   9.908 -1.2460 -0.0788 -0.0963
 5131SOL     OW26854   3.725   3.557   8.408 -0.4111  0.1555 -0.4927
 5131SOL    HW126855   3.634   3.532   8.392 -1.7163  3.0922  2.2858
 5131SOL    HW226856   3.714   3.650   8.431  0.8613  0.8440 -2.6699
 5132SOL     OW26857   0.925   2.564  10.580 -0.3908 -0.1912  0.1962
 5132SOL    HW126858   0.961   2.641  10.535 -0.0365 -1.5403 -1.8134
 5132SOL    HW226859   0.933   2.591  10.672 -4.0087 -1.0222  0.7377
 5133SOL     OW26860   1.294   1.097   6.738 -0.1656  0.1116  0.0712
 5133SOL    HW126861   1.264   1.177   6.781 -0.3749 -0.7102  1.4547
 5133SOL    HW226862   1.386   1.123   6.730  0.2828 -0.7649  2.4325
 5134SOL     OW26863   4.410   2.344   9.970 -0.2100 -0.2848  0.2736
 5134SOL    HW126864   4.446   2.433   9.972 -0.5601 -0.0773 -2.6470
 5134SOL    HW226865   4.370   2.341   9.883  0.0263 -1.4881  0.2057
 5135SOL     OW26866   0.361   3.957   4.718  0.4681 -0.0949  0.5523
 5135SOL    HW126867   0.376   3.885   4.780  0.1920 -0.4629  0.1931
 5135SOL    HW226868   0.376   3.908   4.637  1.1521 -1.4659  1.5050
 5136SOL     OW26869   3.830   4.177   4.822 -0.0040  0.0257 -0.4869
 5136SOL    HW126870   3.858   4.220   4.741 -1.7698  1.1788 -0.4876
 5136SOL    HW226871   3.821   4.249   4.884  0.1967 -1.2776  1.0462
 5137SOL     OW26872   2.367   4.613  16.654 -0.2035 -0.2695 -0.6993
 5137SOL    HW126873   2.387   4.693  16.605 -2.7326 -1.1585 -3.2148
 5137SOL    HW226874   2.275   4.633  16.674  0.5841  0.0074  2.6279
 5138SOL     OW26875   3.887   3.932   1.175 -0.4841  0.0364 -0.2415
 5138SOL    HW126876   3.815   3.989   1.146 -0.4489 -0.0255 -0.4554
 5138SOL    HW226877   3.956   3.949   1.110  0.2303  1.3880  0.8644
 5139SOL     OW26878   4.075   3.276   6.403  0.1604  0.3630  0.7079
 5139SOL    HW126879   4.143   3.325   6.357 -1.2272 -0.5346 -2.2958
 5139SOL    HW226880   4.133   3.229   6.463  0.0708 -0.2568  0.3107
 5140SOL     OW26881   4.498   3.865   9.054 -0.1404  0.2365  0.4522
 5140SOL    HW126882   4.575   3.861   9.111 -0.5844  0.6599  1.0696
 5140SOL    HW226883   4.513   3.947   9.007  0.8204  0.6011  1.3997
 5141SOL     OW26884   3.657   3.007  12.845  0.4243  0.0833  0.3838
 5141SOL    HW126885   3.622   3.024  12.757 -1.3523 -0.1892  1.0375
 5141SOL    HW226886   3.740   2.965  12.824 -0.4570 -2.0850  1.2850
 5142SOL     OW26887   4.113   1.370   5.150 -0.5709  0.1893  0.1623
 5142SOL    HW126888   4.085   1.362   5.059 -0.9217 -0.8550  0.3658
 5142SOL    HW226889   4.036   1.402   5.197 -1.2419  0.6161 -1.2033
 5143SOL     OW26890   0.111   0.648  12.031 -0.1396  0.1369  0.2753
 5143SOL    HW126891   0.113   0.691  11.946 -0.6192 -1.0355 -0.3346
 5143SOL    HW226892   0.017   0.641  12.048 -0.0851  2.7626  1.6401
 5144SOL     OW26893   2.537   3.944   7.570 -0.2346  0.3209 -0.0712
 5144SOL    HW126894   2.597   3.997   7.623  2.3664 -2.0361 -0.6988
 5144SOL    HW226895   2.455   3.949   7.619 -1.0879  0.2627 -1.4794
 5145SOL     OW26896   2.560   0.861   3.192 -0.2772  0.4094  0.1570
 5145SOL    HW126897   2.548   0.856   3.097 -0.5629 -0.2579  0.2309
 5145SOL    HW226898   2.653   0.881   3.194  0.2803 -2.0335 -1.0204
 5146SOL     OW26899   4.101   0.424  12.276  0.1369 -0.4299  0.7085
 5146SOL    HW126900   4.152   0.357  12.231 -0.5964 -0.9258  0.6018
 5146SOL    HW226901   4.063   0.469  12.201  0.4771  1.6522  1.7668
 5147SOL     OW26902   1.522   0.870   5.983 -0.5325  0.8782  0.2364
 5147SOL    HW126903   1.493   0.907   6.066 -0.1146 -0.8792  1.1668
 5147SOL    HW226904   1.616   0.862   6.000 -1.3184 -2.0648  3.2058
 5148SOL     OW26905   3.044   2.892   7.432 -0.0899 -0.0092 -0.0343
 5148SOL    HW126906   2.949   2.894   7.446 -0.2971 -2.4680 -1.0012
 5148SOL    HW226907   3.080   2.947   7.501 -0.9475 -0.8133  1.0634
 5149SOL     OW26908   3.027   4.285   8.571 -0.2131 -0.1352  0.0729
 5149SOL    HW126909   3.115   4.307   8.602  0.1275  0.6710 -1.4623
 5149SOL    HW226910   3.025   4.335   8.489  0.4180  1.4299  1.0015
 5150SOL     OW26911   0.352   2.485   6.269  0.2680 -0.1914  1.2209
 5150SOL    HW126912   0.417   2.551   6.293  0.3670  0.5743 -1.1678
 5150SOL    HW226913   0.270   2.531   6.287 -0.8886 -2.5408  2.0208
 5151SOL     OW26914   2.112   2.016  11.917  0.4197  0.5252  0.2639
 5151SOL    HW126915   2.170   2.088  11.892 -0.6002  0.3341 -2.6905
 5151SOL    HW226916   2.044   2.061  11.966  0.4445  1.7887 -0.8864
 5152SOL     OW26917   0.700   3.111   2.752 -0.5933  0.0118  0.2545
 5152SOL    HW126918   0.693   3.020   2.724  2.8648  0.6786 -2.6903
 5152SOL    HW226919   0.695   3.167   2.674 -1.2222 -1.2236 -0.5916
 5153SOL     OW26920   2.826   3.127  14.430  0.0344  0.6762  0.1316
 5153SOL    HW126921   2.864   3.189  14.368 -0.8527  0.6485 -0.4396
 5153SOL    HW226922   2.780   3.076  14.363 -0.8845  1.5539  0.0933
 5154SOL     OW26923   3.526   3.784  10.567  0.2046 -0.1757  0.1466
 5154SOL    HW126924   3.534   3.693  10.537  1.7627 -0.4776  1.4605
 5154SOL    HW226925   3.570   3.771  10.651  0.4511 -2.4845 -0.3235
 5155SOL     OW26926   2.415   2.727  12.576  0.0382  0.7657  0.4075
 5155SOL    HW126927   2.456   2.652  12.618 -1.3994 -0.2643  0.0036
 5155SOL    HW226928   2.490   2.785  12.560  2.2059 -1.3999  2.7762
 5156SOL     OW26929   4.668   3.112  10.434  0.2564  0.2649  0.8416
 5156SOL    HW126930   4.584   3.159  10.436  0.1951  0.1283  1.4858
 5156SOL    HW226931   4.674   3.074  10.522 -0.0070  0.1967  0.8329
 5157SOL     OW26932   4.001   4.463   9.613 -0.0358  0.1112 -0.4394
 5157SOL    HW126933   3.980   4.556   9.618  2.5036  0.7244 -0.7068
 5157SOL    HW226934   4.000   4.439   9.705  0.9901 -0.0823 -0.4682
 5158SOL     OW26935   0.361   2.071  13.567 -0.2239 -0.0352  0.0408
 5158SOL    HW126936   0.322   2.150  13.605  1.2109  0.4012  0.5853
 5158SOL    HW226937   0.430   2.101  13.508 -0.5548 -1.5272 -1.1222
 5159SOL     OW26938   3.788   3.709   5.837  0.0807 -0.5184 -0.0249
 5159SOL    HW126939   3.711   3.652   5.843 -1.0580  1.0639  0.6974
 5159SOL    HW226940   3.746   3.793   5.856  0.4622 -0.1550 -0.7847
 5160SOL     OW26941   0.545   1.546  11.661  0.0361 -0.6155 -0.0795
 5160SOL    HW126942   0.460   1.538  11.705  0.4566  2.9228  1.3562
 5160SOL    HW226943   0.555   1.460  11.620  0.8022  0.3860 -1.9740
 5161SOL     OW26944   0.553   3.408   7.876  0.1893 -0.9159 -0.2963
 5161SOL    HW126945   0.526   3.460   7.952  1.9680 -0.4880  0.0486
 5161SOL    HW226946   0.478   3.349   7.871  0.1411 -0.8183 -0.7537
 5162SOL     OW26947   0.261   4.463  13.561  0.3769  0.0826 -0.0738
 5162SOL    HW126948   0.187   4.404  13.545 -2.0298  3.6529 -2.0794
 5162SOL    HW226949   0.331   4.399  13.552  0.8863  0.6627 -0.2128
 5163SOL     OW26950   3.617   0.526   7.874  0.5653 -0.3344 -0.0262
 5163SOL    HW126951   3.562   0.557   7.801  1.3764 -0.0661 -0.5251
 5163SOL    HW226952   3.554   0.493   7.938 -0.4017  1.9604  0.2061
 5164SOL     OW26953   0.550   0.747   9.538  0.4410 -0.7477  0.1818
 5164SOL    HW126954   0.525   0.703   9.618  1.6010 -0.5478  0.6528
 5164SOL    HW226955   0.639   0.774   9.562  1.1352 -1.9342 -1.0229
 5165SOL     OW26956   3.573   1.004  13.269 -0.2701  0.1691  0.2842
 5165SOL    HW126957   3.644   0.941  13.279  1.1183  1.5584 -0.7023
 5165SOL    HW226958   3.596   0.999  13.176  0.7810 -3.2687  0.7321
 5166SOL     OW26959   3.325   0.312  11.963 -0.2129 -0.1199 -0.2387
 5166SOL    HW126960   3.316   0.374  12.036  1.4007  1.3734 -1.3093
 5166SOL    HW226961   3.384   0.366  11.910  2.9463 -2.6102  0.7755
 5167SOL     OW26962   2.578   1.796  13.604 -0.0051  0.1997  0.3120
 5167SOL    HW126963   2.518   1.784  13.678 -0.9146 -1.2555 -0.6600
 5167SOL    HW226964   2.536   1.731  13.547  0.6381 -0.4927  0.6207
 5168SOL     OW26965   4.182   1.680   9.145  0.0723  0.0622  0.9105
 5168SOL    HW126966   4.125   1.616   9.103 -0.0555  1.1074 -0.5172
 5168SOL    HW226967   4.115   1.731   9.192 -1.0631 -0.4528 -0.1482
 5169SOL     OW26968   0.061   3.680   8.717  0.1001 -0.4753 -1.0962
 5169SOL    HW126969   0.045   3.586   8.726 -0.9987  0.0562  2.6184
 5169SOL    HW226970   4.696   3.720   8.722  0.4627  0.4073 -1.9296
 5170SOL     OW26971   3.659   3.057  16.255 -0.0227  0.0328 -0.1679
 5170SOL    HW126972   3.648   3.002  16.333  0.0497  0.7173  0.3253
 5170SOL    HW226973   3.668   2.987  16.190 -2.8226 -0.4990 -0.0032
 5171SOL     OW26974   2.925   3.233   6.745  0.4110 -0.1649 -0.2582
 5171SOL    HW126975   2.896   3.280   6.823  1.8446 -1.4569  1.0525
 5171SOL    HW226976   2.847   3.179   6.730  0.3366  0.2729 -1.4209
 5172SOL     OW26977   0.904   0.975   4.134 -0.1518  0.1141 -0.2954
 5172SOL    HW126978   0.870   1.014   4.053  0.3187  1.3310  0.0938
 5172SOL    HW226979   0.971   0.914   4.105 -1.7684 -1.6440 -0.3690
 5173SOL     OW26980   1.400   3.777   2.819 -0.5839 -0.2698 -0.6279
 5173SOL    HW126981   1.401   3.760   2.725  1.1728 -1.0617 -0.4679
 5173SOL    HW226982   1.315   3.735   2.827 -0.7252 -0.6694 -4.4581
 5174SOL     OW26983   1.561   3.001   8.486 -0.6964  0.0311  0.5095
 5174SOL    HW126984   1.580   2.957   8.569 -1.5528 -0.8851  0.2239
 5174SOL    HW226985   1.510   2.931   8.445  1.1448 -0.7062 -0.4771
 5175SOL     OW26986   3.059   2.100   2.829 -0.2051 -0.0992 -0.1843
 5175SOL    HW126987   2.993   2.145   2.777 -3.5393 -4.2216  0.4933
 5175SOL    HW226988   3.106   2.173   2.867  3.1089 -1.4237 -1.7032
 5176SOL     OW26989   2.428   2.979   7.989  0.1826  0.1089  0.2548
 5176SOL    HW126990   2.358   2.920   8.015 -0.1485  0.3383 -0.1179
 5176SOL    HW226991   2.507   2.925   7.997  1.7308  2.0716 -1.7060
 5177SOL     OW26992   0.847   4.363  15.032  0.0068  0.3632  0.0956
 5177SOL    HW126993   0.877   4.362  15.123 -0.7004  2.1880  0.3435
 5177SOL    HW226994   0.774   4.300  15.029 -1.7988  2.3675  1.6142
 5178SOL     OW26995   3.711   3.073  17.570 -0.1733 -0.2514 -0.7942
 5178SOL    HW126996   3.721   3.157  17.614 -0.4542 -0.5607 -0.1264
 5178SOL    HW226997   3.624   3.077  17.530 -0.6386  1.3824  0.3992
 5179SOL     OW26998   0.499   2.151   2.510  0.1456  0.2080 -0.9038
 5179SOL    HW126999   0.559   2.081   2.535 -2.2201 -0.3621  3.0056
 5179SOL    HW227000   0.475   2.138   2.418  1.8302 -1.4710 -1.1009
 5180SOL     OW27001   1.258   0.110   1.787 -0.3330  0.2861 -0.2321
 5180SOL    HW127002   1.209   0.028   1.777  0.2723 -0.2729  1.3036
 5180SOL    HW227003   1.212   0.155   1.717  0.0689 -0.4188 -0.9483
 5181SOL     OW27004   4.550   0.795   7.596 -0.0755  0.3107 -0.3467
 5181SOL    HW127005   4.589   0.863   7.651  0.5251 -2.0411  2.1682
 5181SOL    HW227006   4.633   0.749   7.589  0.6383  1.3584  1.1281
 5182SOL     OW27007   3.555   2.812  14.032 -0.0280  0.3745  0.2922
 5182SOL    HW127008   3.620   2.748  14.062  0.0888  1.3038  1.9950
 5182SOL    HW227009   3.502   2.810  14.111 -0.1132  0.8168  0.2450
 5183SOL     OW27010   0.645   0.869   6.030  0.3042 -0.1486  0.0650
 5183SOL    HW127011   0.656   0.912   6.115 -3.4305  0.0038  0.4658
 5183SOL    HW227012   0.596   0.939   5.986 -0.7241 -1.2035 -0.4873
 5184SOL     OW27013   4.480   1.741  13.902  0.0443  0.0323 -0.6081
 5184SOL    HW127014   4.561   1.747  13.852 -0.1005 -1.2144 -0.9933
 5184SOL    HW227015   4.449   1.832  13.908  0.6805  0.1054  1.5938
 5185SOL     OW27016   0.360   4.266  16.228 -0.3948  0.3358  0.0099
 5185SOL    HW127017   0.357   4.356  16.263  0.5019  0.2503  0.3076
 5185SOL    HW227018   0.434   4.235  16.280 -0.0723  0.2820 -0.4912
 5186SOL     OW27019   2.709   4.628  15.774 -0.1265  0.0303 -0.0810
 5186SOL    HW127020   2.625   4.673  15.778  0.0204  0.1178  2.2383
 5186SOL    HW227021   2.766   4.701  15.751  1.1263 -0.8342  0.2990
 5187SOL     OW27022   1.965   4.019   3.390 -0.1517  0.7140  1.1395
 5187SOL    HW127023   1.986   4.004   3.482  1.3067 -3.4305  0.1203
 5187SOL    HW227024   1.876   4.055   3.397 -0.3184  0.4961  0.0989
 5188SOL     OW27025   2.227   1.255   7.654 -0.3804 -0.2241  0.4570
 5188SOL    HW127026   2.224   1.333   7.711  0.6071  1.4492 -1.7824
 5188SOL    HW227027   2.311   1.217   7.678 -0.1111 -1.5083 -2.4840
 5189SOL     OW27028   1.809   2.599   8.036  0.0265 -0.9123  0.5269
 5189SOL    HW127029   1.813   2.564   7.947  0.2171  0.3402  0.0324
 5189SOL    HW227030   1.728   2.561   8.070  0.0937 -0.9753  0.6157
 5190SOL     OW27031   1.455   2.547   2.938  0.2306  0.2659  0.3423
 5190SOL    HW127032   1.397   2.499   2.879  1.1395 -1.6403  0.9700
 5190SOL    HW227033   1.495   2.605   2.873  2.0014 -2.7961 -1.3376
 5191SOL     OW27034   1.889   3.826   6.947 -0.1832  0.1714  0.0597
 5191SOL    HW127035   1.836   3.871   6.881 -1.5635  0.0573  1.0763
 5191SOL    HW227036   1.951   3.897   6.966  2.0531 -1.4445 -1.2737
 5192SOL     OW27037   4.708   2.106   6.653 -0.1407 -0.2400  0.0605
 5192SOL    HW127038   0.046   2.129   6.724  0.0067  1.4997 -0.6417
 5192SOL    HW227039   4.640   2.045   6.684 -0.1236 -0.2397  0.0987
 5193SOL     OW27040   3.249   2.290   8.664  0.1632  0.3135 -0.2751
 5193SOL    HW127041   3.159   2.258   8.663  0.1456  0.4011 -2.4691
 5193SOL    HW227042   3.289   2.223   8.608  0.0720 -0.6077  0.7594
 5194SOL     OW27043   2.987   0.496  14.902 -0.2490  0.2417 -0.2236
 5194SOL    HW127044   2.924   0.521  14.834 -1.0292  0.6671  0.6479
 5194SOL    HW227045   2.939   0.423  14.941  0.4816 -0.2546 -0.2653
 5195SOL     OW27046   4.284   2.231   4.276 -0.0803  0.0596  0.2670
 5195SOL    HW127047   4.281   2.300   4.211 -0.3560  0.2903  0.5228
 5195SOL    HW227048   4.257   2.145   4.241  3.0084 -0.1995 -1.4183
 5196SOL     OW27049   2.320   2.112   2.918 -0.1246  0.5778 -0.3984
 5196SOL    HW127050   2.293   2.046   2.855 -0.6115 -0.0386  0.4540
 5196SOL    HW227051   2.243   2.168   2.906 -0.2439  0.9549  1.9769
 5197SOL     OW27052   3.433   0.242   9.417 -0.0992 -0.2215 -0.2202
 5197SOL    HW127053   3.518   0.211   9.449 -0.7816 -0.6909  1.1032
 5197SOL    HW227054   3.386   0.219   9.496 -2.6421  0.4812 -1.5405
 5198SOL     OW27055   4.472   0.655  13.266  0.2672  0.1535 -0.6000
 5198SOL    HW127056   4.504   0.615  13.185 -1.5202  0.7805 -1.6092
 5198SOL    HW227057   4.498   0.746  13.252 -2.6055  1.0703 -0.0300
 5199SOL     OW27058   1.100   1.428  13.981  0.0875 -0.2567 -0.4844
 5199SOL    HW127059   1.056   1.432  13.896 -2.4571 -0.0273  0.8453
 5199SOL    HW227060   1.101   1.333  13.995 -0.6788 -0.1666  0.2239
 5200SOL     OW27061   1.242   0.763   7.527 -0.1426 -0.5951  0.2385
 5200SOL    HW127062   1.162   0.756   7.475  0.2342 -1.7112 -0.1948
 5200SOL    HW227063   1.226   0.687   7.582  1.3064 -0.0592  1.4143
 5201SOL     OW27064   1.058   2.346   5.421 -0.4304 -0.3958  0.1079
 5201SOL    HW127065   1.146   2.372   5.393 -0.5204 -0.4921 -0.2678
 5201SOL    HW227066   1.064   2.405   5.496  0.1661 -1.4829  0.9133
 5202SOL     OW27067   1.569   0.852   9.943 -0.3051 -0.0209 -0.6222
 5202SOL    HW127068   1.648   0.899   9.969 -0.7040  0.9468 -1.1559
 5202SOL    HW227069   1.554   0.788  10.012 -1.8158  0.1185 -0.8158
 5203SOL     OW27070   2.871   0.527   3.637  0.3162  0.6673  0.5321
 5203SOL    HW127071   2.877   0.532   3.542 -2.5708 -0.9937  0.2735
 5203SOL    HW227072   2.921   0.605   3.660  1.6741 -0.4895  1.5393
 5204SOL     OW27073   2.605   0.266   5.760 -0.1597  0.5388 -0.5066
 5204SOL    HW127074   2.663   0.207   5.712  3.2598  1.6492  2.2167
 5204SOL    HW227075   2.552   0.206   5.811 -0.3087  2.4536  1.6131
 5205SOL     OW27076   1.601   3.026  16.125  0.1270  0.0636  0.1485
 5205SOL    HW127077   1.569   3.081  16.196  0.4753  0.2446  0.1690
 5205SOL    HW227078   1.657   2.961  16.168  1.6301  0.4978 -1.1585
 5206SOL     OW27079   2.953   2.843   3.251  0.2356 -0.6102 -0.0453
 5206SOL    HW127080   2.868   2.809   3.278  1.8807 -2.3661  2.8629
 5206SOL    HW227081   2.931   2.935   3.239  1.6797 -0.3395 -0.5649
 5207SOL     OW27082   0.093   0.604   2.754 -0.0833  0.2674 -0.2319
 5207SOL    HW127083   0.145   0.647   2.686 -0.7314  1.3878 -0.0272
 5207SOL    HW227084   0.003   0.609   2.721  0.1230  2.0301 -0.5236
 5208SOL     OW27085   2.674   4.178   3.673  0.5262  0.2118  0.2384
 5208SOL    HW127086   2.625   4.096   3.669 -1.2177  1.2096  0.9492
 5208SOL    HW227087   2.602   4.239   3.655 -0.0951 -1.2875 -2.3456
 5209SOL     OW27088   0.289   2.603   1.785  0.4457 -0.0083 -0.0472
 5209SOL    HW127089   0.228   2.580   1.714  0.3635  0.3869 -0.1044
 5209SOL    HW227090   0.230   2.600   1.861 -0.0888  0.6442 -0.4388
 5210SOL     OW27091   1.256   3.349   2.795 -0.6160  0.2567 -0.5053
 5210SOL    HW127092   1.351   3.355   2.810 -0.9181  0.6832  1.1926
 5210SOL    HW227093   1.229   3.439   2.776 -1.7693  0.3259  1.4638
 5211SOL     OW27094   3.752   0.798   7.638  0.1448 -0.2982  0.4178
 5211SOL    HW127095   3.795   0.720   7.604  0.3927  0.2126 -0.4608
 5211SOL    HW227096   3.720   0.838   7.557  1.6263  1.4341  0.6715
 5212SOL     OW27097   4.541   4.524  10.449 -0.5609  0.1027 -0.2712
 5212SOL    HW127098   4.627   4.566  10.452  0.0526 -1.1467 -0.3755
 5212SOL    HW227099   4.529   4.503  10.541 -1.1290  1.1771 -0.1027
 5213SOL     OW27100   0.010   1.474   3.012 -0.2348  0.0520 -0.1358
 5213SOL    HW127101   0.057   1.431   3.084 -1.0946 -0.1620  0.2956
 5213SOL    HW227102   0.016   1.565   3.039  1.1269 -0.5592  1.6653
 5214SOL     OW27103   0.567   2.123   4.697  0.2755 -0.2902  0.1332
 5214SOL    HW127104   0.622   2.047   4.680  1.1527  0.5600 -0.8818
 5214SOL    HW227105   0.489   2.107   4.643  0.0100 -0.2248  0.4963
 5215SOL     OW27106   2.002   2.868   2.172  0.1153  0.3233 -0.0052
 5215SOL    HW127107   1.912   2.888   2.199 -0.1445  0.4764 -0.9900
 5215SOL    HW227108   1.985   2.819   2.092  0.0782 -1.2153  0.9499
 5216SOL     OW27109   0.384   2.550   2.805 -0.2378 -0.1207  0.3157
 5216SOL    HW127110   0.409   2.521   2.717 -0.7832 -0.0396  0.1341
 5216SOL    HW227111   0.293   2.580   2.801  0.1098  1.3552  3.3679
 5217SOL     OW27112   2.450   1.562   2.727  0.2659  0.8440  0.4562
 5217SOL    HW127113   2.405   1.512   2.659 -0.4133  3.4355 -0.9988
 5217SOL    HW227114   2.498   1.628   2.677  1.1233 -0.2809 -0.2137
 5218SOL     OW27115   0.018   1.853   0.596  0.1781  0.2800  0.1749
 5218SOL    HW127116   0.071   1.778   0.568  0.5532  0.3089  0.7926
 5218SOL    HW227117   4.652   1.829   0.569 -0.3660  3.0681 -0.4689
 5219SOL     OW27118   0.372   2.405  17.002  0.1576  0.3187  0.3811
 5219SOL    HW127119   0.357   2.313  16.980  0.2891  0.6227 -0.9816
 5219SOL    HW227120   0.420   2.430  16.923 -1.6894 -2.5158 -1.6578
 5220SOL     OW27121   2.266   1.292   3.837 -0.3158  0.4767  0.2215
 5220SOL    HW127122   2.261   1.235   3.761  1.2008 -0.8390  1.1119
 5220SOL    HW227123   2.272   1.379   3.797 -1.2124  0.3096 -0.2915
 5221SOL     OW27124   0.486   4.281   7.814 -0.3166 -0.3030  0.1752
 5221SOL    HW127125   0.570   4.251   7.847  0.3920 -0.9764 -2.2177
 5221SOL    HW227126   0.496   4.244   7.726  1.3382  1.9792 -0.6211
 5222SOL     OW27127   2.839   0.547   2.274 -0.0282 -0.6916  0.2818
 5222SOL    HW127128   2.748   0.555   2.244  0.2460 -1.5914 -0.8002
 5222SOL    HW227129   2.837   0.454   2.297 -0.0175 -0.2776  1.9949
 5223SOL     OW27130   3.251   3.207   8.861 -0.2770 -0.1680 -0.4817
 5223SOL    HW127131   3.340   3.180   8.841 -1.0036 -0.7338 -3.0372
 5223SOL    HW227132   3.251   3.243   8.949 -0.0259 -1.0520 -0.1247
 5224SOL     OW27133   2.297   1.603   4.363 -0.1364  0.4880 -0.0996
 5224SOL    HW127134   2.335   1.518   4.339 -2.1046 -0.6049  0.6424
 5224SOL    HW227135   2.288   1.594   4.458 -0.7135 -1.0766 -0.2935
 5225SOL     OW27136   3.744   4.670  13.266  0.0903  0.1578 -0.8589
 5225SOL    HW127137   3.707   4.593  13.222  2.1945 -0.3498 -1.7107
 5225SOL    HW227138   3.833   4.639  13.282  0.2092  0.4527 -0.9569
 5226SOL     OW27139   3.242   2.269  12.325  0.1665  0.2471  0.3092
 5226SOL    HW127140   3.276   2.281  12.237  0.5254  1.5275  0.6277
 5226SOL    HW227141   3.284   2.337  12.377 -2.1051  1.3915  0.6670
 5227SOL     OW27142   4.625   1.935   5.289 -0.1032  0.2537  0.0445
 5227SOL    HW127143   4.546   1.908   5.243 -0.7278  0.0101  1.2723
 5227SOL    HW227144   4.629   1.859   5.347 -1.1536  1.0352  1.1252
 5228SOL     OW27145   2.450   0.165   2.452 -0.3652 -0.3471  0.0575
 5228SOL    HW127146   2.361   0.140   2.478 -0.1546 -1.5439 -0.3386
 5228SOL    HW227147   2.494   0.079   2.449  1.6744  0.6032  2.8269
 5229SOL     OW27148   1.553   4.576   5.113  0.3804 -0.1496  0.4534
 5229SOL    HW127149   1.634   4.564   5.162 -0.2605  0.2865  1.6385
 5229SOL    HW227150   1.495   4.615   5.179  1.1103  1.3863  0.1907
 5230SOL     OW27151   1.350   0.895   2.732 -0.5532  0.1484  0.4208
 5230SOL    HW127152   1.410   0.967   2.712 -1.0516  0.4599  0.0342
 5230SOL    HW227153   1.263   0.933   2.719 -0.9341 -0.9849 -0.2849
 5231SOL     OW27154   0.171   1.975   9.965  0.0406 -0.4373 -0.4675
 5231SOL    HW127155   0.165   2.016  10.052  0.2030 -1.6481  0.1054
 5231SOL    HW227156   0.250   2.010   9.925 -0.2800  0.4184 -0.3524
 5232SOL     OW27157   4.073   1.256   8.491 -0.3741 -0.6311  0.4742
 5232SOL    HW127158   4.011   1.321   8.525  1.2252  0.1179  1.9319
 5232SOL    HW227159   4.014   1.188   8.459 -0.6406 -0.6765  1.0721
 5233SOL     OW27160   0.136   2.001  12.958  0.0959 -0.1533  0.3183
 5233SOL    HW127161   0.169   1.911  12.966 -0.5117 -0.5743 -1.9317
 5233SOL    HW227162   0.220   2.047  12.953  0.2111 -0.5547 -1.5878
 5234SOL     OW27163   3.788   3.124   2.969  0.0847  0.1155  0.1613
 5234SOL    HW127164   3.744   3.186   3.026 -0.8298 -0.4653  0.0926
 5234SOL    HW227165   3.844   3.086   3.036 -2.2937 -0.8346  1.6092
 5235SOL     OW27166   2.216   3.351   3.364  0.2801 -0.0133 -0.1195
 5235SOL    HW127167   2.161   3.428   3.381  1.0579  0.1718  1.5961
 5235SOL    HW227168   2.222   3.365   3.270 -0.3868 -2.1200 -0.4767
 5236SOL     OW27169   2.769   3.276  16.701 -1.0503 -0.0874 -0.4714
 5236SOL    HW127170   2.792   3.265  16.609 -0.5413 -1.2442 -0.1980
 5236SOL    HW227171   2.838   3.331  16.739  1.8823 -2.5854 -2.1804
 5237SOL     OW27172   0.062   1.081  15.348 -0.0989 -0.0595  0.0978
 5237SOL    HW127173   0.003   1.156  15.343  0.7475  0.5329 -0.8382
 5237SOL    HW227174   0.078   1.092  15.442 -0.2032 -0.6186  0.1805
 5238SOL     OW27175   3.062   1.975   6.318 -0.4311 -0.1339 -0.1852
 5238SOL    HW127176   3.112   1.899   6.288 -0.8282 -0.5000  0.0862
 5238SOL    HW227177   3.015   1.923   6.383 -0.9330 -0.3723 -0.7399
 5239SOL     OW27178   2.970   1.474   8.615 -0.1999 -0.4525 -0.0621
 5239SOL    HW127179   3.012   1.478   8.529 -2.4736  1.7218 -1.0586
 5239SOL    HW227180   2.983   1.563   8.647  0.1030 -1.3287  2.2616
 5240SOL     OW27181   2.058   1.159  16.271 -0.0564  0.0034 -0.2470
 5240SOL    HW127182   2.031   1.195  16.186  1.0513  1.8638  0.1988
 5240SOL    HW227183   1.978   1.189  16.316 -0.0619 -1.3866  0.6719
 5241SOL     OW27184   3.290   3.410   2.147  0.6688 -0.2303  0.1214
 5241SOL    HW127185   3.313   3.463   2.071  2.4733  1.1783  1.6649
 5241SOL    HW227186   3.201   3.444   2.156  1.1349  0.9692  0.0846
 5242SOL     OW27187   4.012   3.701   7.593  0.8225  0.1056 -0.3990
 5242SOL    HW127188   4.041   3.757   7.665 -0.3378 -1.4339  1.2640
 5242SOL    HW227189   4.098   3.681   7.556  1.6876  0.0608  1.6153
 5243SOL     OW27190   2.655   3.276  15.814 -0.0452  0.0788 -0.4459
 5243SOL    HW127191   2.630   3.346  15.755 -0.0541 -0.2953 -0.8915
 5243SOL    HW227192   2.632   3.206  15.752 -0.7681  0.9152 -1.1212
 5244SOL     OW27193   0.716   2.682   1.312 -0.1612 -0.3943  0.4630
 5244SOL    HW127194   0.632   2.718   1.338 -0.1638  0.0837 -0.2082
 5244SOL    HW227195   0.715   2.689   1.216  0.0382  1.1036  0.5709
 5245SOL     OW27196   2.340   3.719   4.511 -0.6321 -0.1979 -0.5083
 5245SOL    HW127197   2.354   3.755   4.424  0.5900 -0.5366 -0.4421
 5245SOL    HW227198   2.290   3.785   4.560  0.9808  0.2475  0.5525
 5246SOL     OW27199   1.665   1.059  14.629  0.0737 -0.3228  0.0768
 5246SOL    HW127200   1.659   1.154  14.637 -0.6368 -0.3267 -0.3601
 5246SOL    HW227201   1.653   1.058  14.534 -1.6656  1.6112  0.2751
 5247SOL     OW27202   1.395   2.673   2.253  0.3012  0.5015 -0.4143
 5247SOL    HW127203   1.487   2.655   2.237  0.3644 -1.3409  1.9754
 5247SOL    HW227204   1.338   2.620   2.197 -0.5686  0.0569  0.8692
 5248SOL     OW27205   3.512   1.725   1.676 -0.2224 -0.0945  0.4080
 5248SOL    HW127206   3.482   1.797   1.732 -0.1770  1.6708 -1.8482
 5248SOL    HW227207   3.426   1.703   1.641  0.5100 -0.5157 -1.1227
 5249SOL     OW27208   2.244   4.573  13.888  0.4098  0.1607 -0.1800
 5249SOL    HW127209   2.180   4.529  13.832 -0.0233 -0.3508  0.7086
 5249SOL    HW227210   2.294   4.496  13.914 -0.8540 -0.9201 -0.9588
 5250SOL     OW27211   3.288   3.782   7.982  0.5045  0.0131  0.2385
 5250SOL    HW127212   3.218   3.738   7.933  1.7584  0.4636 -1.9666
 5250SOL    HW227213   3.356   3.715   7.976  0.1901 -0.3157  0.3286
 5251SOL     OW27214   1.980   0.451   9.041 -0.2655 -0.1987  0.1946
 5251SOL    HW127215   2.044   0.385   9.068 -2.3306 -2.9739 -1.6363
 5251SOL    HW227216   2.030   0.507   8.982  1.0898 -1.2960  0.2874
 5252SOL     OW27217   3.428   2.627  11.166 -0.0063 -0.5072  0.0771
 5252SOL    HW127218   3.521   2.605  11.158  0.6514  3.1461 -2.2845
 5252SOL    HW227219   3.393   2.548  11.208 -1.0142  0.5812  1.3008
 5253SOL     OW27220   4.101   4.128  15.242  0.0422 -0.2420  0.5692
 5253SOL    HW127221   4.051   4.047  15.240  0.7296 -0.6280 -1.2009
 5253SOL    HW227222   4.172   4.100  15.300 -0.0662  0.0210  0.8317
 5254SOL     OW27223   3.822   4.112   5.128  0.0892  0.1219  0.1667
 5254SOL    HW127224   3.749   4.053   5.113 -0.9136  1.5729 -0.7050
 5254SOL    HW227225   3.788   4.202   5.130  0.2733  0.2117 -0.7207
 5255SOL     OW27226   0.546   4.262   6.744  0.6787  0.3038  0.3225
 5255SOL    HW127227   0.553   4.167   6.746  0.2152  0.2937  1.5335
 5255SOL    HW227228   0.455   4.283   6.766 -0.1139 -2.2709 -0.5032
 5256SOL     OW27229   0.478   1.362   9.159  0.5633  0.0367  0.2696
 5256SOL    HW127230   0.470   1.362   9.254  0.7733 -3.0267  0.2728
 5256SOL    HW227231   0.416   1.433   9.143  0.5506 -0.2111 -0.7835
 5257SOL     OW27232   0.552   1.311   4.772  0.5645 -1.3792 -0.6744
 5257SOL    HW127233   0.577   1.236   4.719 -1.3867 -1.5692 -1.3175
 5257SOL    HW227234   0.458   1.296   4.784  0.6270  0.2049  1.9324
 5258SOL     OW27235   2.090   0.826   0.458 -0.3315 -0.0280 -0.2306
 5258SOL    HW127236   2.128   0.806   0.544 -1.5596 -1.4528 -0.0395
 5258SOL    HW227237   2.030   0.893   0.489 -0.7923 -0.8293  0.6185
 5259SOL     OW27238   2.146   1.838   3.878 -0.2332 -0.5835  0.7773
 5259SOL    HW127239   2.220   1.858   3.936  0.4978  0.9923 -0.6846
 5259SOL    HW227240   2.097   1.789   3.944 -0.9279 -1.6730 -0.5448
 5260SOL     OW27241   4.259   4.502  10.454  1.0840  0.2892  0.4918
 5260SOL    HW127242   4.240   4.478  10.545 -0.6341 -1.0401 -0.2323
 5260SOL    HW227243   4.349   4.468  10.455  2.0525  2.8256 -0.7435
 5261SOL     OW27244   1.929   4.165  10.882 -0.4031 -0.2574  0.5140
 5261SOL    HW127245   1.944   4.239  10.942 -2.3604 -0.5048  1.3160
 5261SOL    HW227246   1.951   4.092  10.939  0.6172  0.2272  0.7425
 5262SOL     OW27247   0.324   1.762   1.686 -0.6485 -0.4012 -0.2577
 5262SOL    HW127248   0.316   1.721   1.772 -1.5924 -2.3758 -1.3050
 5262SOL    HW227249   0.232   1.771   1.660  0.1172 -0.1192 -2.8525
 5263SOL     OW27250   2.254   2.798   1.267  0.0592  0.6543 -0.1672
 5263SOL    HW127251   2.264   2.826   1.358  1.0041  0.0316 -0.0883
 5263SOL    HW227252   2.284   2.707   1.271  1.6525  1.1947  0.2141
 5264SOL     OW27253   1.694   0.053   5.997  0.1215 -0.7857  0.5119
 5264SOL    HW127254   1.601   0.072   5.982  0.7216  1.0526 -0.8089
 5264SOL    HW227255   1.701   0.032   6.090  0.1683 -2.4272  0.1458
 5265SOL     OW27256   3.199   2.752   7.231  0.6433 -0.1277 -0.8031
 5265SOL    HW127257   3.136   2.784   7.295 -1.2413 -1.1091 -2.1626
 5265SOL    HW227258   3.284   2.787   7.258  0.7730  1.2077 -2.9596
 5266SOL     OW27259   1.279   4.525   6.369 -0.2455  0.3728 -0.1876
 5266SOL    HW127260   1.200   4.575   6.353 -0.3435 -0.0110 -0.8788
 5266SOL    HW227261   1.296   4.479   6.287  0.4123 -1.0985  0.7758
 5267SOL     OW27262   1.299   1.431   7.845  0.6128  0.6296 -0.4406
 5267SOL    HW127263   1.312   1.339   7.868 -0.6519  0.7822  0.9129
 5267SOL    HW227264   1.272   1.475   7.926  1.4843  1.3154 -0.5175
 5268SOL     OW27265   1.249   1.643   3.603  0.3326  0.0081 -0.4584
 5268SOL    HW127266   1.234   1.737   3.616  0.2154 -0.1486  0.5843
 5268SOL    HW227267   1.160   1.611   3.589  0.1752  0.4580 -0.4897
 5269SOL     OW27268   2.760   4.547   5.216  0.5487  0.5450  0.2066
 5269SOL    HW127269   2.701   4.524   5.288 -0.0864  1.3225 -0.0624
 5269SOL    HW227270   2.699   4.548   5.143  1.5020  2.1259 -0.5748
 5270SOL     OW27271   2.999   0.921   8.526 -0.4956  0.0529 -0.4693
 5270SOL    HW127272   3.022   1.013   8.513  0.7954 -0.4556 -1.8216
 5270SOL    HW227273   2.907   0.926   8.552 -0.4616 -1.0655 -0.1493
 5271SOL     OW27274   0.916   3.641  13.522  0.6688 -0.3374 -0.2969
 5271SOL    HW127275   0.868   3.717  13.488 -1.2302 -0.6542  1.6475
 5271SOL    HW227276   0.862   3.570  13.489 -1.7151  1.9944 -1.4314
 5272SOL     OW27277   3.535   0.411   5.464  0.1441  0.4308 -0.1479
 5272SOL    HW127278   3.473   0.419   5.537  0.0699 -0.1963 -0.1488
 5272SOL    HW227279   3.579   0.495   5.480 -2.2686  1.6232  0.1815
 5273SOL     OW27280   0.809   0.895   7.645 -0.4146 -0.4323 -0.6038
 5273SOL    HW127281   0.816   0.801   7.659 -2.3927 -0.8319 -2.2418
 5273SOL    HW227282   0.727   0.907   7.596 -0.2487  0.8233 -0.5788
 5274SOL     OW27283   1.705   4.463   3.541  0.0182  0.4596  0.1255
 5274SOL    HW127284   1.772   4.398   3.561  0.6491  0.4080 -2.2161
 5274SOL    HW227285   1.625   4.415   3.519 -0.1036  0.5137  0.4390
 5275SOL     OW27286   0.374   3.183   1.609 -0.4228  0.3635  0.1031
 5275SOL    HW127287   0.294   3.155   1.564  1.6420 -0.1599 -3.2835
 5275SOL    HW227288   0.372   3.278   1.616  1.7340  0.3941  0.1562
 5276SOL     OW27289   3.334   2.452   8.325  0.3830 -0.1445 -0.0318
 5276SOL    HW127290   3.265   2.515   8.348 -0.7643 -2.6563  3.3332
 5276SOL    HW227291   3.278   2.377   8.310  1.0513 -0.0056 -3.2899
 5277SOL     OW27292   4.305   3.168  11.936 -0.4091  0.1242 -0.4510
 5277SOL    HW127293   4.279   3.253  11.972 -0.1065  0.9869 -2.2195
 5277SOL    HW227294   4.226   3.116  11.922  0.2778 -0.6079 -1.6544
 5278SOL     OW27295   0.825   2.229   8.663  0.4223  0.6032  0.1879
 5278SOL    HW127296   0.748   2.286   8.667  0.2306  0.4618 -1.5142
 5278SOL    HW227297   0.826   2.171   8.740 -0.6181  1.6581  0.9896
 5279SOL     OW27298   3.743   2.611  14.109 -0.1677 -0.1241 -0.4031
 5279SOL    HW127299   3.820   2.595  14.054 -0.2401 -0.4171 -0.4189
 5279SOL    HW227300   3.755   2.552  14.183  1.3337  2.1122  1.1281
 5280SOL     OW27301   3.405   1.741  11.795  0.0321  0.5407 -0.8507
 5280SOL    HW127302   3.453   1.716  11.715 -1.5336 -1.0782 -1.2766
 5280SOL    HW227303   3.322   1.740  11.748  0.2737 -2.1322 -1.2477
 5281SOL     OW27304   0.117   0.031  12.777  0.1743  0.1398 -0.2354
 5281SOL    HW127305   0.209   0.008  12.773  0.1983  0.0425  1.0524
 5281SOL    HW227306   0.133   0.116  12.734 -0.3644  0.3167 -0.0932
 5282SOL     OW27307   3.829   2.426   4.792  0.1838 -0.0793  0.1976
 5282SOL    HW127308   3.819   2.372   4.870  0.4223 -1.9034 -1.0186
 5282SOL    HW227309   3.752   2.401   4.740 -0.2728 -0.0160  0.8501
 5283SOL     OW27310   3.097   3.261  13.619  0.2263 -0.1854  0.1706
 5283SOL    HW127311   3.070   3.300  13.701 -2.1477 -0.4236 -0.4827
 5283SOL    HW227312   3.084   3.170  13.648  0.2446 -0.3394 -0.2993
 5284SOL     OW27313   3.146   3.978   4.857  0.3064 -0.2626  0.0435
 5284SOL    HW127314   3.164   3.983   4.951  0.4751 -0.9025  0.0461
 5284SOL    HW227315   3.066   3.926   4.856 -0.5565  1.0543  0.7003
 5285SOL     OW27316   0.072   4.223   3.635 -0.7818 -0.4257 -0.0584
 5285SOL    HW127317   0.145   4.171   3.604 -0.7971  0.5374 -1.6836
 5285SOL    HW227318   0.004   4.157   3.649 -2.2887  1.1525  0.0754
 5286SOL     OW27319   3.540   0.565  17.489  0.0586 -0.2701  0.7128
 5286SOL    HW127320   3.597   0.505  17.537 -0.5559 -0.7038  0.8984
 5286SOL    HW227321   3.553   0.538  17.399 -1.8307  1.0235  0.0627
 5287SOL     OW27322   0.227   1.514  14.857 -0.7132 -0.4585  0.4558
 5287SOL    HW127323   0.152   1.524  14.916 -1.3891 -0.6427 -0.3746
 5287SOL    HW227324   0.199   1.547  14.772  1.5651 -0.0642 -0.1413
 5288SOL     OW27325   3.237   2.680   7.863 -0.1261  0.5383 -0.0255
 5288SOL    HW127326   3.268   2.605   7.914 -1.3823  0.0543  0.0366
 5288SOL    HW227327   3.272   2.665   7.776 -3.1214  1.2060 -1.3468
 5289SOL     OW27328   0.639   2.782  16.631  0.4503  0.7870 -0.1430
 5289SOL    HW127329   0.731   2.806  16.634 -0.1845  3.2199 -0.5648
 5289SOL    HW227330   0.593   2.865  16.618 -0.2216  0.6126  1.1285
 5290SOL     OW27331   0.291   4.256  15.907  0.2563  0.1307 -0.2888
 5290SOL    HW127332   0.223   4.323  15.910  0.7871  0.6117  0.7498
 5290SOL    HW227333   0.241   4.175  15.891 -0.8421  0.4769  1.3108
 5291SOL     OW27334   0.552   3.540   0.695  0.2608 -0.0815 -0.1071
 5291SOL    HW127335   0.609   3.553   0.770  2.1170  0.5333 -1.6250
 5291SOL    HW227336   0.467   3.569   0.728  0.5338  1.1009 -0.4428
 5292SOL     OW27337   4.135   2.550   8.777 -0.7600  0.0311  0.1933
 5292SOL    HW127338   4.177   2.515   8.698 -1.0437 -1.2186  0.5930
 5292SOL    HW227339   4.106   2.637   8.752 -2.6051 -0.0069  2.2350
 5293SOL     OW27340   2.928   1.557   4.088  0.4642 -0.4057 -0.3482
 5293SOL    HW127341   2.838   1.554   4.054 -0.0048  1.1251  0.7855
 5293SOL    HW227342   2.926   1.631   4.148  2.4107 -0.2353 -0.4906
 5294SOL     OW27343   0.216   0.023   2.362  0.1095 -0.7258 -0.3025
 5294SOL    HW127344   0.153   0.012   2.291 -0.8518 -0.2270  0.4741
 5294SOL    HW227345   0.169   4.693   2.427  0.1979 -0.2161  0.1672
 5295SOL     OW27346   0.875   4.256   6.621  0.0646 -0.4172  0.7053
 5295SOL    HW127347   0.804   4.211   6.575 -0.1706  1.5594 -0.8434
 5295SOL    HW227348   0.950   4.198   6.610  0.0859 -0.4729  1.1598
 5296SOL     OW27349   3.877   1.626  17.131  0.7406  0.2695 -0.5074
 5296SOL    HW127350   3.786   1.652  17.119  0.6061 -0.3495 -0.8837
 5296SOL    HW227351   3.922   1.697  17.085 -1.6502  0.5010 -2.4953
 5297SOL     OW27352   0.716   4.637  12.500  0.3671 -0.5945 -0.0050
 5297SOL    HW127353   0.671   4.626  12.416 -1.7092 -2.9492  1.4201
 5297SOL    HW227354   0.791   4.583  12.474 -0.7096 -2.9016  1.6382
 5298SOL     OW27355   2.837   0.246   6.511 -0.5513 -0.1214 -0.2379
 5298SOL    HW127356   2.790   0.254   6.594  0.7705  0.9599  0.4134
 5298SOL    HW227357   2.781   0.296   6.452  2.7149  0.5338 -2.8304
 5299SOL     OW27358   0.591   4.636   0.435  0.1235 -0.1676 -0.0250
 5299SOL    HW127359   0.543   4.592   0.364 -1.4758  1.6264 -0.0521
 5299SOL    HW227360   0.602   0.000   0.396 -1.1493 -0.2303 -0.5254
 5300SOL     OW27361   1.145   0.435   3.929 -0.2450 -0.2317  0.0971
 5300SOL    HW127362   1.118   0.427   4.020 -1.0754  1.7058  0.0172
 5300SOL    HW227363   1.126   0.344   3.905 -1.6272  0.5781 -1.8743
 5301SOL     OW27364   0.968   3.497  12.052 -0.0252 -0.1387  0.0648
 5301SOL    HW127365   0.885   3.477  12.008 -0.5230 -0.5697  1.1729
 5301SOL    HW227366   0.965   3.430  12.121 -3.5302  0.7139  0.7556
 5302SOL     OW27367   1.274   1.961  11.695 -0.5297  0.1612  1.0184
 5302SOL    HW127368   1.189   1.977  11.654  1.1031  1.9099 -1.7319
 5302SOL    HW227369   1.279   1.866  11.700  2.8307  0.3718  1.9219
 5303SOL     OW27370   2.921   2.385   5.851  0.6611 -0.2423  0.0673
 5303SOL    HW127371   2.896   2.374   5.942 -0.7045  0.3545 -0.2266
 5303SOL    HW227372   3.015   2.400   5.861  0.9414 -2.0859  0.1374
 5304SOL     OW27373   4.405   0.523   1.478  0.3148  0.0504 -0.5984
 5304SOL    HW127374   4.465   0.557   1.411  0.8004  0.2152 -0.0889
 5304SOL    HW227375   4.378   0.444   1.431  0.0536 -1.3861  1.9692
 5305SOL     OW27376   2.156   1.698   2.985  0.4720 -0.2422  0.1850
 5305SOL    HW127377   2.120   1.786   2.991  0.0081 -0.2754 -2.1102
 5305SOL    HW227378   2.084   1.646   2.951 -1.4849  1.4806  1.7269
 5306SOL     OW27379   0.243   1.799   2.674  0.5329 -0.3415  0.1915
 5306SOL    HW127380   0.213   1.713   2.704 -0.5867  0.7058  2.0981
 5306SOL    HW227381   0.277   1.826   2.759  0.4799 -2.5238  0.8939
 5307SOL     OW27382   0.507   0.812   6.403 -0.5846 -0.2308  0.7021
 5307SOL    HW127383   0.525   0.894   6.356 -2.4819  0.3677  1.0110
 5307SOL    HW227384   0.591   0.770   6.383 -0.6952  0.8322 -2.1097
 5308SOL     OW27385   3.806   1.254  13.660  0.4695 -0.0015  0.0883
 5308SOL    HW127386   3.774   1.195  13.591  1.8203 -0.9668  0.2865
 5308SOL    HW227387   3.877   1.299  13.614  0.2717  0.8175  0.5944
 5309SOL     OW27388   2.580   2.616   5.956 -0.1000 -0.0115 -0.1444
 5309SOL    HW127389   2.549   2.583   6.040 -1.9944  0.0694 -0.8027
 5309SOL    HW227390   2.605   2.535   5.911  2.6733  1.2121 -0.8212
 5310SOL     OW27391   4.482   1.789   5.830 -0.0604 -0.4222  0.3879
 5310SOL    HW127392   4.538   1.716   5.803  0.0906 -0.5393  1.0165
 5310SOL    HW227393   4.445   1.813   5.745  3.2108 -0.9070 -1.1723
 5311SOL     OW27394   0.680   2.357   3.753 -0.3898 -0.1716 -0.0777
 5311SOL    HW127395   0.755   2.415   3.765 -0.2678 -0.8418  2.3852
 5311SOL    HW227396   0.605   2.413   3.772  0.4391  0.7927  0.3311
 5312SOL     OW27397   2.147   4.267   5.237  0.1109  0.3457 -0.3612
 5312SOL    HW127398   2.062   4.266   5.280  0.3981 -1.1242  0.1897
 5312SOL    HW227399   2.124   4.235   5.150 -3.0547  1.6006  0.0107
 5313SOL     OW27400   4.244   3.361  12.314 -0.1799  0.0741 -0.3777
 5313SOL    HW127401   4.218   3.373  12.222 -1.8190 -0.0337  0.0808
 5313SOL    HW227402   4.333   3.395  12.305 -0.3306  0.0982 -1.8000
 5314SOL     OW27403   0.608   2.152   6.982  0.2110 -0.2999 -0.0076
 5314SOL    HW127404   0.666   2.205   7.037 -0.5641 -0.5052  1.0035
 5314SOL    HW227405   0.635   2.148   6.890 -1.9990  0.3713 -0.6768
 5315SOL     OW27406   1.194   1.435   5.497  0.6285  0.9692 -0.0401
 5315SOL    HW127407   1.276   1.418   5.542  1.2952  1.9265 -0.8735
 5315SOL    HW227408   1.143   1.480   5.564  0.9812  2.6091 -0.8684
 5316SOL     OW27409   1.579   1.352   8.216 -0.0603  0.7116  0.4710
 5316SOL    HW127410   1.648   1.411   8.245  0.9850 -0.1378 -0.2909
 5316SOL    HW227411   1.627   1.269   8.220  2.2210  2.0978  1.7206
 5317SOL     OW27412   2.103   4.376   2.863 -0.0261  0.0128  0.0070
 5317SOL    HW127413   2.103   4.354   2.956  2.7384 -1.6362 -0.3889
 5317SOL    HW227414   2.168   4.447   2.865  1.0726 -1.0064  0.5104
 5318SOL     OW27415   3.701   4.606   4.609  0.4312 -0.3152 -0.0765
 5318SOL    HW127416   3.732   4.679   4.663  0.6343  0.0832 -0.7174
 5318SOL    HW227417   3.736   4.627   4.522 -1.1059 -1.3823 -0.9594
 5319SOL     OW27418   4.655   3.545   8.338 -0.5070  0.4515  1.3379
 5319SOL    HW127419   4.715   3.600   8.287 -2.7998  0.7968 -0.9473
 5319SOL    HW227420   4.720   3.489   8.381 -0.4822 -1.6702 -1.4890
 5320SOL     OW27421   0.118   1.218   9.227 -0.2094 -0.2979 -0.6490
 5320SOL    HW127422   0.065   1.157   9.175  0.1886  0.4290 -1.9196
 5320SOL    HW227423   0.072   1.216   9.311  3.2988 -2.3264  1.1888
 5321SOL     OW27424   1.064   0.291  13.833  0.9027  0.6241 -0.4124
 5321SOL    HW127425   1.034   0.227  13.898  0.4392  0.1044 -1.1342
 5321SOL    HW227426   0.981   0.294  13.786  0.1140  1.1526  0.9970
 5322SOL     OW27427   0.609   3.047  13.571  0.4436  0.1389 -0.2296
 5322SOL    HW127428   0.641   2.974  13.623 -1.0465 -0.4680 -0.1658
 5322SOL    HW227429   0.552   3.089  13.636 -1.2355  0.4739 -1.9273
 5323SOL     OW27430   1.482   0.255   4.672 -0.2376 -0.1326 -0.0304
 5323SOL    HW127431   1.443   0.290   4.592  0.8903 -0.0062 -0.5269
 5323SOL    HW227432   1.416   0.202   4.716 -2.3495  0.4716 -2.5131
 5324SOL     OW27433   0.542   1.857   6.735  0.1730  0.1929  0.3726
 5324SOL    HW127434   0.629   1.893   6.719 -0.4711  1.5963  0.0441
 5324SOL    HW227435   0.533   1.862   6.830  0.2773  2.5207  0.2561
 5325SOL     OW27436   4.062   4.200   3.473  0.2400  0.1919  0.1993
 5325SOL    HW127437   3.978   4.221   3.434 -1.1921  0.1302  3.1956
 5325SOL    HW227438   4.127   4.196   3.403  0.5959  1.4029  0.4757
 5326SOL     OW27439   0.783   1.897   8.027  0.3232 -0.1851 -0.3248
 5326SOL    HW127440   0.777   1.985   7.990 -0.3897  0.0765  0.4360
 5326SOL    HW227441   0.788   1.843   7.948 -1.2817  1.3278 -1.4486
 5327SOL     OW27442   1.678   0.711  14.513 -0.0269  0.5610 -0.0393
 5327SOL    HW127443   1.677   0.781  14.447 -1.0371 -0.1039 -0.7363
 5327SOL    HW227444   1.650   0.631  14.467  1.5313 -1.0558  1.8490
 5328SOL     OW27445   3.906   2.331   2.526 -0.5158  0.3023 -0.2019
 5328SOL    HW127446   3.982   2.303   2.577 -0.1497 -1.1756 -1.5571
 5328SOL    HW227447   3.897   2.261   2.461 -2.1234  1.4902 -1.2636
 5329SOL     OW27448   2.019   0.958   5.596 -0.8317  0.0547 -0.2827
 5329SOL    HW127449   2.069   0.895   5.545 -1.6872 -0.2344 -0.7691
 5329SOL    HW227450   2.084   0.993   5.656 -1.5923 -0.4543  0.8399
 5330SOL     OW27451   2.579   4.674   3.961 -0.6032 -0.4367  0.6205
 5330SOL    HW127452   2.541   4.699   3.877  2.1774  3.1564  0.4069
 5330SOL    HW227453   2.574   4.579   3.968 -1.1665 -0.4533 -0.0350
 5331SOL     OW27454   0.892   2.840   5.010 -0.0771 -0.2217  0.5589
 5331SOL    HW127455   0.835   2.825   4.934  1.8135 -3.3831 -0.2382
 5331SOL    HW227456   0.978   2.819   4.975  0.6421  2.4601  0.7404
 5332SOL     OW27457   1.583   2.491   0.402  0.4959 -0.0047  0.3657
 5332SOL    HW127458   1.533   2.445   0.335  1.5998  1.2753 -1.3287
 5332SOL    HW227459   1.617   2.564   0.351 -1.2345  0.8335  0.4081
 5333SOL     OW27460   0.969   3.183  14.435  0.6318  0.1290  0.7305
 5333SOL    HW127461   0.899   3.205  14.374  0.7793  0.7653  0.7899
 5333SOL    HW227462   0.952   3.093  14.463  0.4971 -0.0324  0.1273
 5334SOL     OW27463   0.148   2.449   1.010  0.1751  0.3311 -0.0458
 5334SOL    HW127464   0.119   2.369   0.968  0.5678 -0.4136  1.1121
 5334SOL    HW227465   0.087   2.448   1.084  0.3542 -1.3989  0.0667
 5335SOL     OW27466   1.952   3.854   0.074  0.1108  0.2921 -0.2695
 5335SOL    HW127467   1.934   3.905  17.685 -2.9087 -0.0603  0.1997
 5335SOL    HW227468   1.894   3.900   0.135 -0.0644  1.7050 -1.4865
 5336SOL     OW27469   4.339   4.370   6.009  0.3299 -0.1908  0.2833
 5336SOL    HW127470   4.250   4.337   5.995  0.6916 -0.5129 -1.1609
 5336SOL    HW227471   4.371   4.300   6.065  0.2082 -0.6222 -0.1901
 5337SOL     OW27472   3.674   3.480   7.532  0.1313  0.2235 -0.3194
 5337SOL    HW127473   3.665   3.540   7.607  1.6215  1.4166 -1.0909
 5337SOL    HW227474   3.751   3.523   7.495  1.0437 -0.9822  0.1841
 5338SOL     OW27475   0.461   0.975   9.799 -0.3802 -0.4580 -0.0638
 5338SOL    HW127476   0.390   1.000   9.858 -0.8138 -0.7744 -0.4531
 5338SOL    HW227477   0.473   0.883   9.822  1.7245  0.3101  1.9744
 5339SOL     OW27478   0.058   1.073   8.628 -0.1857 -0.0008 -0.0453
 5339SOL    HW127479   0.103   1.012   8.570  1.8996  1.0635  0.4662
 5339SOL    HW227480   4.688   1.045   8.622 -0.6627  1.3646  0.9775
 5340SOL     OW27481   2.821   2.395   5.375 -0.1076 -0.1260 -0.8405
 5340SOL    HW127482   2.833   2.307   5.340  0.3609 -1.0861  1.7826
 5340SOL    HW227483   2.750   2.426   5.319 -0.0172  0.9208 -0.3685
 5341SOL     OW27484   0.561   1.629  16.214  0.5007  0.2991 -0.3657
 5341SOL    HW127485   0.635   1.673  16.172 -0.0298  0.6274 -0.9357
 5341SOL    HW227486   0.494   1.695  16.199  1.2738  1.2653  0.4028
 5342SOL     OW27487   0.574   0.395   3.155  0.3073 -0.0176 -0.2241
 5342SOL    HW127488   0.656   0.415   3.109  0.3840 -0.6632 -0.3636
 5342SOL    HW227489   0.513   0.447   3.103  0.7915  0.9706  0.1876
 5343SOL     OW27490   0.079   2.473   2.437 -0.3469  0.3198  0.1275
 5343SOL    HW127491   0.108   2.532   2.367 -0.4168 -1.2297 -1.1888
 5343SOL    HW227492   0.156   2.416   2.442 -1.4666 -1.0833  1.2737
 5344SOL     OW27493   2.139   3.120   4.577 -0.5329  0.1029 -0.6230
 5344SOL    HW127494   2.221   3.135   4.623 -0.6138  1.2189 -0.8570
 5344SOL    HW227495   2.148   3.027   4.554  0.4227  0.0671 -0.1121
 5345SOL     OW27496   1.749   0.863   5.755  0.0527 -0.8215 -0.3926
 5345SOL    HW127497   1.805   0.786   5.753  1.6098  0.3019  0.0282
 5345SOL    HW227498   1.758   0.903   5.668 -2.4707  1.9004  0.6232
 5346SOL     OW27499   0.633   1.263  10.621 -0.0115  0.1715  0.2481
 5346SOL    HW127500   0.640   1.174  10.587 -0.1170  0.5870 -0.8549
 5346SOL    HW227501   0.697   1.264  10.692 -0.0718  0.6967  0.2926
 5347SOL     OW27502   4.699   2.136   2.823 -0.7002  0.4505  0.3300
 5347SOL    HW127503   0.049   2.159   2.882  0.2994 -0.1381 -0.6394
 5347SOL    HW227504   0.009   2.072   2.760 -0.0308 -0.3133  1.4355
 5348SOL     OW27505   4.172   1.389   6.320  0.0134  0.2257 -0.1119
 5348SOL    HW127506   4.155   1.298   6.297 -0.9336  0.1822  0.7500
 5348SOL    HW227507   4.204   1.423   6.237 -1.1280 -0.2380 -0.7418
 5349SOL     OW27508   0.699   2.057   0.889 -0.3622  0.4522  0.3636
 5349SOL    HW127509   0.712   2.112   0.966 -1.0043  0.0158  0.7802
 5349SOL    HW227510   0.672   1.981   0.940 -1.0876 -0.0557 -0.7918
 5350SOL     OW27511   4.383   1.979  13.970  0.1746  0.0877 -0.1213
 5350SOL    HW127512   4.394   1.968  14.065 -0.4436  0.5225  0.0001
 5350SOL    HW227513   4.389   2.073  13.952 -0.8383 -0.3623 -2.8610
 5351SOL     OW27514   0.709   3.274   6.613 -0.1788 -0.1376  0.2482
 5351SOL    HW127515   0.615   3.280   6.631 -1.0248 -0.7895 -3.9762
 5351SOL    HW227516   0.726   3.220   6.535  1.5815 -0.4734  0.8617
 5352SOL     OW27517   3.116   1.481   9.588 -0.2327 -0.0520  0.4942
 5352SOL    HW127518   3.154   1.545   9.528  0.5567  0.9022  2.0241
 5352SOL    HW227519   3.159   1.513   9.667  0.4425 -0.6343  0.3655
 5353SOL     OW27520   1.065   3.645   8.692  0.0033 -0.2995  0.3204
 5353SOL    HW127521   1.065   3.741   8.691  0.7846 -0.3288 -4.4890
 5353SOL    HW227522   1.144   3.633   8.745 -0.0882  2.6301  1.1283
 5354SOL     OW27523   0.998   2.519  10.129 -0.6161  1.0170 -0.2039
 5354SOL    HW127524   0.954   2.586  10.076  0.9785 -0.9885 -4.0479
 5354SOL    HW227525   0.951   2.442  10.096  1.1357 -0.2209  0.1735
 5355SOL     OW27526   2.479   4.383  13.584  0.5465  0.9720  0.1294
 5355SOL    HW127527   2.432   4.304  13.556  2.0593  0.1836 -0.2035
 5355SOL    HW227528   2.405   4.443  13.575 -0.2791  0.1106  1.2111
 5356SOL     OW27529   1.853   4.511   9.743  0.3254 -0.2366 -0.0303
 5356SOL    HW127530   1.853   4.605   9.763 -0.2213 -0.4235  0.8419
 5356SOL    HW227531   1.845   4.471   9.830  0.6559 -2.0140 -0.8300
 5357SOL     OW27532   1.976   0.915   8.192  0.8217  0.3288 -0.3168
 5357SOL    HW127533   2.045   0.976   8.217 -1.4836  2.4487  0.8706
 5357SOL    HW227534   2.012   0.871   8.115 -0.6710 -1.5219  0.0508
 5358SOL     OW27535   1.559   0.618   2.506 -0.3526 -0.3473  0.2163
 5358SOL    HW127536   1.638   0.608   2.560 -0.6964  1.7854  1.1287
 5358SOL    HW227537   1.567   0.708   2.475 -0.0993 -0.0851  1.0319
 5359SOL     OW27538   3.044   4.016   0.603  0.5143  0.3355  0.2182
 5359SOL    HW127539   3.037   3.924   0.627 -3.5246  0.6037 -0.0663
 5359SOL    HW227540   3.106   4.016   0.529 -0.0922  0.0047 -0.2904
 5360SOL     OW27541   2.872   3.023  12.494  0.3316 -1.0249  0.0004
 5360SOL    HW127542   2.872   3.089  12.563  0.3266  0.3224 -1.2578
 5360SOL    HW227543   2.947   3.052  12.441  0.8831 -0.3365  1.1484
 5361SOL     OW27544   2.388   2.017   1.864  0.7540  0.2091  0.1141
 5361SOL    HW127545   2.396   2.106   1.898  2.8940 -0.0957  0.4056
 5361SOL    HW227546   2.453   2.016   1.794  1.5511 -1.1933  0.8735
 5362SOL     OW27547   0.616   2.267  14.706 -0.2979 -0.1508 -0.1847
 5362SOL    HW127548   0.553   2.280  14.635 -0.6060  1.1387  0.3259
 5362SOL    HW227549   0.702   2.274  14.664  0.2320  3.0489  1.4473
 5363SOL     OW27550   0.777   4.689   1.481 -0.0922  0.2089  0.1634
 5363SOL    HW127551   0.809   4.601   1.499  3.7099  1.6833  0.6389
 5363SOL    HW227552   0.848   0.017   1.521 -0.8658  0.2994  1.4246
 5364SOL     OW27553   1.916   4.190  15.161  0.0020  0.1349  0.2988
 5364SOL    HW127554   2.009   4.178  15.179  0.2306 -0.4720 -1.3174
 5364SOL    HW227555   1.918   4.263  15.099 -0.2834 -1.0944 -1.1562
 5365SOL     OW27556   1.482   0.190   0.289 -0.0775 -0.3412 -0.1340
 5365SOL    HW127557   1.464   0.096   0.283 -2.8236  0.0752  1.7993
 5365SOL    HW227558   1.395   0.225   0.269  0.5147  1.6782  0.8833
 5366SOL     OW27559   2.323   2.713   7.752  0.0528  0.3124  0.3086
 5366SOL    HW127560   2.236   2.703   7.714  0.5302  0.4822 -0.8601
 5366SOL    HW227561   2.386   2.712   7.679 -0.2977 -0.2938  0.0141
 5367SOL     OW27562   3.678   4.020  13.796 -0.6067 -0.5431  0.7028
 5367SOL    HW127563   3.730   4.069  13.859  0.9117  1.1353 -1.8590
 5367SOL    HW227564   3.630   3.966  13.859  0.5047  0.1623  2.1410
 5368SOL     OW27565   4.157   1.762   0.844  0.3829 -0.0013 -0.5808
 5368SOL    HW127566   4.171   1.674   0.877  2.8594  2.0664  3.8845
 5368SOL    HW227567   4.237   1.807   0.871 -0.2386 -0.3145  1.7221
 5369SOL     OW27568   0.200   0.676   5.888  0.4953  0.0595 -0.0650
 5369SOL    HW127569   0.149   0.612   5.837  0.2644  0.3826 -0.2409
 5369SOL    HW227570   0.136   0.707   5.953  0.7805 -0.7643  0.6050
 5370SOL     OW27571   1.306   1.613  11.489 -0.4076 -0.1453 -0.0618
 5370SOL    HW127572   1.373   1.582  11.550 -0.8231 -0.6493  0.1499
 5370SOL    HW227573   1.359   1.673  11.437  2.1662 -0.0385  2.6702
 5371SOL     OW27574   3.777   2.067   5.605 -0.2382  0.0550 -0.0936
 5371SOL    HW127575   3.747   1.998   5.664 -1.2659  1.1870  0.7016
 5371SOL    HW227576   3.743   2.148   5.642 -1.4597  0.0671 -1.2479
 5372SOL     OW27577   3.624   0.114  12.071  0.1977  0.7540 -0.0007
 5372SOL    HW127578   3.692   0.053  12.100 -0.2304  0.7661  1.0644
 5372SOL    HW227579   3.569   0.048  12.028  1.5746 -1.2803  1.3385
 5373SOL     OW27580   2.530   3.470   5.437  0.1000 -0.6227  0.0927
 5373SOL    HW127581   2.521   3.384   5.397 -1.3408 -1.0135  1.2213
 5373SOL    HW227582   2.458   3.514   5.393 -1.1858 -2.6241  0.2049
 5374SOL     OW27583   0.538   2.522  11.830 -0.8286  0.5957 -0.1918
 5374SOL    HW127584   0.545   2.561  11.917  1.2553 -1.3944  0.5546
 5374SOL    HW227585   0.543   2.427  11.843  2.0425  0.6566 -0.7802
 5375SOL     OW27586   2.400   1.004  11.005  0.3766  0.2786  0.1546
 5375SOL    HW127587   2.453   0.934  11.044 -1.9014 -1.5583 -0.0697
 5375SOL    HW227588   2.467   1.066  10.975 -0.4083  1.0651  0.0301
 5376SOL     OW27589   2.178   3.999   1.488  0.1017  0.7674  0.4493
 5376SOL    HW127590   2.118   3.957   1.426  0.2947 -0.0016  0.7840
 5376SOL    HW227591   2.201   4.079   1.441 -0.9875 -0.5990 -2.4119
 5377SOL     OW27592   1.879   1.989   2.081 -0.1784 -0.3002  0.4585
 5377SOL    HW127593   1.863   1.909   2.032  0.1156 -0.3169  0.3895
 5377SOL    HW227594   1.962   2.010   2.039 -0.3799  1.0306  0.7162
 5378SOL     OW27595   3.827   3.594   7.144 -0.8100  0.1863 -0.1228
 5378SOL    HW127596   3.831   3.621   7.236  1.7238  3.2328 -1.1302
 5378SOL    HW227597   3.832   3.676   7.095 -0.1230  0.4622  0.4096
 5379SOL     OW27598   3.996   3.439   6.785 -0.0732  0.6268  0.1982
 5379SOL    HW127599   4.037   3.357   6.814 -0.9176 -1.0820 -3.5500
 5379SOL    HW227600   3.905   3.422   6.809  0.7253 -0.8980  2.1101
 5380SOL     OW27601   3.795   1.032   4.867 -0.2321  0.5035  0.4317
 5380SOL    HW127602   3.758   0.946   4.891  1.1099 -0.5189 -1.1370
 5380SOL    HW227603   3.887   1.015   4.888 -0.2265  0.2200  0.1794
 5381SOL     OW27604   0.158   2.511   9.140  0.3380  0.2175  0.1217
 5381SOL    HW127605   0.238   2.529   9.090 -0.4578  0.9031 -0.9271
 5381SOL    HW227606   0.110   2.593   9.133 -1.1840 -0.7463 -0.6366
 5382SOL     OW27607   2.319   0.504   5.474 -0.3662 -0.2288  0.5578
 5382SOL    HW127608   2.356   0.533   5.558 -1.3220  1.8575  0.2486
 5382SOL    HW227609   2.399   0.480   5.426 -0.3015  0.4746  0.3053
 5383SOL     OW27610   0.186   3.750   3.928  0.7995 -0.3174  0.3423
 5383SOL    HW127611   0.114   3.704   3.885  0.7361  0.1652 -0.0743
 5383SOL    HW227612   0.256   3.692   3.898  1.9606  1.1701  0.1561
 5384SOL     OW27613   0.714   0.372   8.101 -0.3141  0.1683  0.1106
 5384SOL    HW127614   0.767   0.379   8.180 -0.1620 -0.0539  0.0278
 5384SOL    HW227615   0.628   0.351   8.139 -0.4631  0.9871  0.2285
 5385SOL     OW27616   3.591   1.160   6.695  0.0420  0.1361 -0.1429
 5385SOL    HW127617   3.670   1.206   6.723 -0.2722  0.7205 -0.2073
 5385SOL    HW227618   3.593   1.200   6.608 -1.7920  2.0759  0.7069
 5386SOL     OW27619   2.654   4.211   5.016  0.2934 -0.1345  0.1385
 5386SOL    HW127620   2.589   4.196   5.084 -0.3842 -1.8347 -0.8593
 5386SOL    HW227621   2.622   4.297   4.991 -3.0911 -1.2161  0.8001
 5387SOL     OW27622   4.480   1.701   3.683  0.5868  0.0296  0.4241
 5387SOL    HW127623   4.460   1.609   3.668  3.9843 -1.0163  2.2858
 5387SOL    HW227624   4.537   1.687   3.759 -0.1417  0.3340  1.0229
 5388SOL     OW27625   2.528   4.065   6.344 -0.1658  0.3391 -0.1482
 5388SOL    HW127626   2.452   4.120   6.359  0.3249  0.6189  1.3267
 5388SOL    HW227627   2.529   4.008   6.421 -1.9343 -0.0430 -0.4232
 5389SOL     OW27628   3.976   1.842   4.088 -0.5393 -0.2600 -0.5030
 5389SOL    HW127629   4.008   1.788   4.016 -0.6752  1.4270 -1.8275
 5389SOL    HW227630   3.954   1.775   4.152 -1.2189  2.9541  2.6382
 5390SOL     OW27631   1.335   3.558  17.192 -0.5985 -0.4990 -0.3744
 5390SOL    HW127632   1.258   3.528  17.240  1.3626 -0.1107  3.0769
 5390SOL    HW227633   1.298   3.605  17.118 -2.3156  2.1554  2.1859
 5391SOL     OW27634   2.869   1.217   7.433 -0.4214 -0.2549 -0.3512
 5391SOL    HW127635   2.845   1.132   7.472  2.8267 -0.8134  0.3918
 5391SOL    HW227636   2.955   1.227   7.473 -1.1172  3.3477  0.2340
 5392SOL     OW27637   3.606   2.657   2.842 -0.0490  0.0206  0.0296
 5392SOL    HW127638   3.604   2.737   2.893  0.8793 -0.5482  0.9439
 5392SOL    HW227639   3.662   2.598   2.893 -1.6542 -0.7058  0.9677
 5393SOL     OW27640   2.248   0.349   5.081  0.3124 -0.1130  0.3705
 5393SOL    HW127641   2.257   0.274   5.138  0.9264 -1.4837 -1.5141
 5393SOL    HW227642   2.329   0.385   5.118  1.1214 -0.1294 -1.3604
 5394SOL     OW27643   4.460   2.177  15.435  0.4194  0.2079 -0.3562
 5394SOL    HW127644   4.490   2.164  15.345  2.6457 -1.2675  0.6008
 5394SOL    HW227645   4.364   2.181  15.435  0.4336  0.5543  0.0913
 5395SOL     OW27646   2.820   1.396   5.395  0.2155 -0.2496  0.2591
 5395SOL    HW127647   2.757   1.468   5.394  1.4471  0.7979 -1.4437
 5395SOL    HW227648   2.901   1.446   5.398  0.4069 -0.4962 -0.6286
 5396SOL     OW27649   2.495   0.389   2.101  0.0642 -0.5461 -0.2727
 5396SOL    HW127650   2.463   0.445   2.030 -0.1100  0.9309  0.9683
 5396SOL    HW227651   2.540   0.321   2.050  1.7044  0.5937 -0.3376
 5397SOL     OW27652   0.543   1.376   2.094  0.1189 -0.1201 -0.4735
 5397SOL    HW127653   0.541   1.360   2.188  0.6309  1.0107 -0.2745
 5397SOL    HW227654   0.451   1.356   2.075 -0.0943  1.1996 -0.8934
 5398SOL     OW27655   2.365   2.471  17.672 -0.6514 -0.5771  0.3035
 5398SOL    HW127656   2.356   2.494  17.580  2.3861 -2.9787 -0.5904
 5398SOL    HW227657   2.327   2.383  17.670  0.4326 -1.0086 -1.1450
 5399SOL     OW27658   1.810   2.896  15.646  0.4533  0.1145 -0.6666
 5399SOL    HW127659   1.734   2.931  15.692  1.5864  1.1273  0.4318
 5399SOL    HW227660   1.779   2.853  15.566  3.1973  0.5544 -1.9721
 5400SOL     OW27661   1.522   1.088   2.633  0.4597  0.3625  0.0928
 5400SOL    HW127662   1.567   1.110   2.715  0.6551 -1.6313  0.5083
 5400SOL    HW227663   1.575   1.125   2.562  0.7645 -0.0209  0.1176
 5401SOL     OW27664   3.185   3.087  11.564  0.4736  0.0791  0.2333
 5401SOL    HW127665   3.167   3.017  11.502 -0.1005  1.2651 -0.9528
 5401SOL    HW227666   3.140   3.161  11.522  2.4281 -0.7038 -3.2177
 5402SOL     OW27667   1.674   1.884   8.012  0.1484  0.0503  0.1452
 5402SOL    HW127668   1.659   1.899   8.106 -2.0869  0.2653 -0.2462
 5402SOL    HW227669   1.600   1.935   7.978  0.9867 -0.8886 -3.0344
 5403SOL     OW27670   2.493   3.452   9.255  0.3143  0.3071 -0.3416
 5403SOL    HW127671   2.404   3.431   9.284  0.8451  1.5527  2.2523
 5403SOL    HW227672   2.525   3.511   9.323 -1.7462  1.0347 -0.0004
 5404SOL     OW27673   3.807   1.131  13.419  0.0729 -0.5802 -0.2786
 5404SOL    HW127674   3.875   1.065  13.406 -0.3903 -1.5122  2.1968
 5404SOL    HW227675   3.747   1.121  13.344 -3.8401  0.9990  2.6286
 5405SOL     OW27676   4.219   0.508   2.630 -0.3899 -0.3462 -0.3972
 5405SOL    HW127677   4.172   0.582   2.593 -1.2286  0.5036  2.3833
 5405SOL    HW227678   4.212   0.446   2.557  0.4832 -0.7421 -0.1421
 5406SOL     OW27679   3.664   0.172   5.982 -0.2147 -0.0057  0.0358
 5406SOL    HW127680   3.625   0.181   6.069 -0.4341 -0.5813 -0.0041
 5406SOL    HW227681   3.683   0.078   5.985  1.1791  0.2853  0.2811
 5407SOL     OW27682   1.791   3.546   3.813 -0.3926  0.2837  0.3114
 5407SOL    HW127683   1.746   3.495   3.881  1.3315 -0.0406  1.2032
 5407SOL    HW227684   1.742   3.628   3.822 -1.7068 -0.5302  0.6001
 5408SOL     OW27685   4.070   4.205  12.631 -0.1847 -0.1093 -0.0139
 5408SOL    HW127686   4.002   4.181  12.694 -0.7928 -0.7709 -0.9265
 5408SOL    HW227687   4.142   4.226  12.691 -0.2890  0.8196 -0.2088
 5409SOL     OW27688   4.426   1.019  15.957  0.3475 -0.4992  0.3722
 5409SOL    HW127689   4.394   0.978  15.877 -0.0612  0.8513 -0.1691
 5409SOL    HW227690   4.371   1.096  15.969  0.7417 -0.2956  0.8373
 5410SOL     OW27691   2.219   1.238   5.589 -0.0796 -0.5089  0.0802
 5410SOL    HW127692   2.160   1.258   5.516  0.1317 -3.1873 -0.8465
 5410SOL    HW227693   2.285   1.182   5.549  1.0088  1.4502 -0.8596
 5411SOL     OW27694   0.704   0.437   5.290 -0.0296  0.2395 -0.3689
 5411SOL    HW127695   0.793   0.453   5.321 -0.6096 -0.6821  1.7730
 5411SOL    HW227696   0.695   0.343   5.304 -0.0757 -0.1707 -3.1421
 5412SOL     OW27697   2.979   2.507   7.020  0.2381 -0.3297 -0.4319
 5412SOL    HW127698   2.989   2.600   7.041  1.4485 -0.5438 -0.0835
 5412SOL    HW227699   2.922   2.507   6.943 -0.3454 -0.3502 -0.0057
 5413SOL     OW27700   1.965   0.780   6.974 -0.5957  0.4819 -1.1513
 5413SOL    HW127701   1.988   0.835   7.048 -1.4613 -0.9511  0.1964
 5413SOL    HW227702   1.873   0.765   6.997 -0.2202 -2.6042 -1.6408
 5414SOL     OW27703   3.252   1.356   3.681  0.1646  0.6734 -0.2157
 5414SOL    HW127704   3.316   1.330   3.614  0.8560  1.3809  0.1760
 5414SOL    HW227705   3.297   1.417   3.739 -1.0660 -0.0871  1.5509
 5415SOL     OW27706   4.102   4.205  14.374  0.0520 -0.1299  0.0049
 5415SOL    HW127707   4.164   4.275  14.356  2.5487 -2.5008 -0.6025
 5415SOL    HW227708   4.135   4.137  14.315  2.3065 -1.5113  2.9270
 5416SOL     OW27709   1.253   2.319   3.100  0.7750 -0.5717  0.2785
 5416SOL    HW127710   1.312   2.361   3.162  2.3816 -1.2074 -0.8295
 5416SOL    HW227711   1.198   2.397   3.093 -0.3471 -1.3519  0.4065
 5417SOL     OW27712   1.986   4.627   3.475 -0.0724  0.2620 -0.0402
 5417SOL    HW127713   1.999   4.534   3.495 -0.4531  0.3042  0.4170
 5417SOL    HW227714   2.023   4.629   3.387  1.9990  1.5240  0.8706
 5418SOL     OW27715   0.432   1.191  10.388 -0.3270  0.0150 -0.2437
 5418SOL    HW127716   0.390   1.116  10.431 -1.0446  0.0486 -0.8818
 5418SOL    HW227717   0.523   1.193  10.418 -0.3811  1.0350 -0.1550
 5419SOL     OW27718   0.306   1.727   5.019 -0.0347  0.0205 -0.0283
 5419SOL    HW127719   0.261   1.672   4.955 -0.2960 -0.3783  0.4949
 5419SOL    HW227720   0.332   1.680   5.098  0.3935  0.4339  0.0776
 5420SOL     OW27721   3.925   3.874   2.064  0.0820  0.8559 -0.6529
 5420SOL    HW127722   3.867   3.810   2.105 -0.5736  1.6988 -0.2652
 5420SOL    HW227723   3.927   3.925   2.145  0.7426 -1.8568  1.0499
 5421SOL     OW27724   2.724   2.418   1.541 -0.1518  0.0985 -0.3858
 5421SOL    HW127725   2.775   2.453   1.468  0.7127  1.6448  0.9401
 5421SOL    HW227726   2.786   2.453   1.606  0.2401 -0.5211 -0.4205
 5422SOL     OW27727   2.385   3.675   7.523 -0.3085  0.2659 -0.3997
 5422SOL    HW127728   2.405   3.744   7.587 -0.2824 -0.2841  0.1808
 5422SOL    HW227729   2.452   3.608   7.536  0.5852  0.8457 -1.9378
 5423SOL     OW27730   1.117   1.937   9.773  0.2638  0.2721  0.0596
 5423SOL    HW127731   1.073   2.019   9.753 -0.0210  0.2912  0.7555
 5423SOL    HW227732   1.049   1.871   9.763  0.3341  0.1271  0.4995
 5424SOL     OW27733   2.624   2.949   7.703 -0.1083 -0.3842  0.0072
 5424SOL    HW127734   2.590   2.868   7.666 -0.5749 -0.7872  1.3331
 5424SOL    HW227735   2.647   2.916   7.789 -1.0458 -1.4014 -0.1350
 5425SOL     OW27736   2.009   2.855   1.132 -0.4428  0.0809  0.3653
 5425SOL    HW127737   1.984   2.935   1.180 -3.3086 -1.4715  1.4962
 5425SOL    HW227738   2.096   2.837   1.168  0.1591  0.7727 -0.7343
 5426SOL     OW27739   1.146   1.027   3.355  0.1347  0.2224  0.4347
 5426SOL    HW127740   1.233   0.986   3.353 -0.1028 -0.2502 -0.2401
 5426SOL    HW227741   1.129   1.021   3.449 -1.6032  0.0721  0.1164
 5427SOL     OW27742   2.374   2.272   1.975  0.3265  0.3582  0.0012
 5427SOL    HW127743   2.436   2.325   1.925 -1.0582 -0.8892 -3.1092
 5427SOL    HW227744   2.355   2.336   2.043  0.1524  0.7207 -0.3869
 5428SOL     OW27745   3.461   0.723   4.975  0.1637  0.1909 -0.5061
 5428SOL    HW127746   3.429   0.810   5.000  1.2555  0.7092 -0.9438
 5428SOL    HW227747   3.549   0.727   5.011 -1.0805  0.5980  2.4974
 5429SOL     OW27748   1.072   2.864  10.074 -0.7842 -0.4544 -0.0320
 5429SOL    HW127749   1.017   2.907  10.139  1.2403 -0.1902  1.4970
 5429SOL    HW227750   1.016   2.792  10.044  0.9494 -1.3991 -1.0153
 5430SOL     OW27751   0.865   3.492   6.561  0.4103 -0.5764 -0.0199
 5430SOL    HW127752   0.847   3.486   6.468 -1.8301  0.2903  0.3798
 5430SOL    HW227753   0.810   3.415   6.575 -1.3387  0.8753  1.0617
 5431SOL     OW27754   4.714   1.206   5.952  0.3167 -0.4446 -0.5497
 5431SOL    HW127755   0.035   1.122   5.970  0.9332 -0.5737 -2.6383
 5431SOL    HW227756   0.001   1.248   6.038 -1.2451  0.7186 -0.9753
 5432SOL     OW27757   0.727   3.700   5.775  0.7493  0.0011  0.0416
 5432SOL    HW127758   0.656   3.637   5.763  1.8980 -1.5872  1.6551
 5432SOL    HW227759   0.795   3.679   5.712 -0.6144 -0.2934 -1.3361
 5433SOL     OW27760   3.470   1.712  15.377 -0.2001 -0.1440 -0.0878
 5433SOL    HW127761   3.420   1.631  15.363  0.9816 -1.0400  0.8671
 5433SOL    HW227762   3.425   1.767  15.440  0.7929 -1.4121  1.7508
 5434SOL     OW27763   0.968   2.829  10.858  0.6297  0.2106  0.1954
 5434SOL    HW127764   0.907   2.868  10.794 -0.7565  2.0888  2.6507
 5434SOL    HW227765   1.006   2.754  10.812 -0.7771 -0.5249  0.2295
 5435SOL     OW27766   0.466   0.140   5.890 -0.0344  1.2950  0.0462
 5435SOL    HW127767   0.447   0.221   5.842  0.4923  1.2201 -0.2820
 5435SOL    HW227768   0.495   0.161   5.979 -0.8189 -1.1664  0.8770
 5436SOL     OW27769   3.173   3.085  16.043  0.3483 -0.1007 -0.0191
 5436SOL    HW127770   3.202   3.033  16.118 -3.8315 -2.2251  0.1118
 5436SOL    HW227771   3.254   3.124  16.010  1.8089 -2.7179  0.5184
 5437SOL     OW27772   4.024   3.580  10.461  0.0555  0.3152  0.0584
 5437SOL    HW127773   3.998   3.672  10.472 -4.8621 -1.1190  0.4197
 5437SOL    HW227774   3.966   3.532  10.520  0.8298 -0.7423 -0.0504
 5438SOL     OW27775   1.434   0.569   4.118  0.0517  0.8193  0.1513
 5438SOL    HW127776   1.340   0.559   4.105  0.1255  2.8598 -1.8932
 5438SOL    HW227777   1.470   0.482   4.103 -2.4484 -0.1112 -0.3976
 5439SOL     OW27778   1.387   0.265   5.242 -0.6163 -0.3659 -0.1016
 5439SOL    HW127779   1.342   0.297   5.164  2.1808 -0.5730 -1.8047
 5439SOL    HW227780   1.331   0.286   5.316 -1.8290 -1.9636 -0.5754
 5440SOL     OW27781   2.256   1.633   8.420  0.1274  0.0595  0.5026
 5440SOL    HW127782   2.310   1.662   8.346  1.0410 -1.1574  0.6802
 5440SOL    HW227783   2.294   1.556   8.462 -0.3942 -1.3431 -1.5815
 5441SOL     OW27784   3.627   3.402   5.409  0.0207 -0.1437  0.2818
 5441SOL    HW127785   3.576   3.335   5.364 -0.4203  0.1733  0.3019
 5441SOL    HW227786   3.593   3.486   5.378 -0.6216 -0.0290  1.3082
 5442SOL     OW27787   4.452   1.572   4.041 -0.0353 -1.2053 -0.4858
 5442SOL    HW127788   4.360   1.554   4.020 -0.6608  1.1306  0.2773
 5442SOL    HW227789   4.439   1.590   4.134  2.9212  0.5672 -0.4107
 5443SOL     OW27790   0.606   0.435   9.033 -0.1171  0.1750 -0.1381
 5443SOL    HW127791   0.655   0.448   8.952 -0.3544 -2.2340 -0.6771
 5443SOL    HW227792   0.672   0.458   9.099  1.2437  1.8444 -2.0866
 5444SOL     OW27793   0.799   0.735   4.594  0.0194  0.6328 -0.1062
 5444SOL    HW127794   0.773   0.657   4.545  0.5673 -0.3600  1.1772
 5444SOL    HW227795   0.830   0.784   4.518 -1.4578  1.6019 -0.0839
 5445SOL     OW27796   0.454   3.571  16.137  0.0259  0.2590  0.7016
 5445SOL    HW127797   0.421   3.508  16.201 -1.6201  0.3458 -0.0663
 5445SOL    HW227798   0.408   3.648  16.170 -0.8628  1.0086 -2.3212
 5446SOL     OW27799   2.805   3.777   6.075 -0.0632  0.1077  0.5379
 5446SOL    HW127800   2.775   3.686   6.072 -0.5362  0.3263 -1.1618
 5446SOL    HW227801   2.897   3.760   6.057 -0.2168 -0.1721 -0.0014
 5447SOL     OW27802   2.529   4.533   5.356  0.4137 -0.2701 -0.3850
 5447SOL    HW127803   2.529   4.599   5.425 -0.4915 -2.2807  1.5518
 5447SOL    HW227804   2.441   4.497   5.370  1.4481 -2.2235  1.0425
 5448SOL     OW27805   4.455   1.470   0.290  0.4679  0.0292  0.4919
 5448SOL    HW127806   4.448   1.411   0.365 -1.1582  1.9855  1.9110
 5448SOL    HW227807   4.549   1.466   0.271  0.3867 -3.2143  0.8753
 5449SOL     OW27808   3.716   1.872   6.926  0.8747  0.0028  0.4722
 5449SOL    HW127809   3.699   1.844   6.836  3.9696  2.0195 -0.7424
 5449SOL    HW227810   3.737   1.964   6.912 -1.1616  0.0908 -2.0631
 5450SOL     OW27811   0.667   4.420   4.135 -0.5761 -0.6291 -0.4092
 5450SOL    HW127812   0.625   4.343   4.096 -2.3957  0.5789 -0.8050
 5450SOL    HW227813   0.754   4.386   4.158 -0.2748 -0.1915 -0.9055
 5451SOL     OW27814   2.902   4.480   4.187  0.2352  0.1912 -0.1341
 5451SOL    HW127815   2.925   4.387   4.184  1.6277  0.5008  1.0921
 5451SOL    HW227816   2.954   4.512   4.261  0.8004 -0.4776 -0.2349
 5452SOL     OW27817   0.475   3.163   8.791  0.1018 -0.5526 -0.0404
 5452SOL    HW127818   0.419   3.165   8.869  0.9464 -1.1288  0.5729
 5452SOL    HW227819   0.520   3.243   8.817 -2.3862  0.6179  0.7465
 5453SOL     OW27820   1.919   1.026   0.533 -0.4320  0.2464 -0.5015
 5453SOL    HW127821   1.830   0.992   0.523  0.5766 -1.9424 -2.0120
 5453SOL    HW227822   1.928   1.078   0.453  0.5667  0.0428 -0.5184
 5454SOL     OW27823   2.947   4.375  15.851 -0.0492 -0.5941 -0.1994
 5454SOL    HW127824   2.972   4.461  15.815 -1.7618 -0.1595 -0.3676
 5454SOL    HW227825   2.967   4.382  15.944 -0.2027  1.7285 -0.3305
 5455SOL     OW27826   4.239   3.933  12.677  0.4630 -0.4044 -0.4061
 5455SOL    HW127827   4.174   4.001  12.696  1.3642  0.3014  0.1929
 5455SOL    HW227828   4.171   3.866  12.665 -0.5684  0.9095 -1.8715
 5456SOL     OW27829   2.718   4.522  11.770 -0.8674 -0.0691 -0.4142
 5456SOL    HW127830   2.723   4.426  11.774 -1.2118  0.0009  1.4182
 5456SOL    HW227831   2.638   4.532  11.720  0.2927 -1.4445 -2.5737
 5457SOL     OW27832   0.394   3.624   3.812 -0.3965  0.1681 -0.2543
 5457SOL    HW127833   0.416   3.537   3.779 -1.4515 -0.2256  0.0684
 5457SOL    HW227834   0.472   3.656   3.857 -1.3788 -0.0005  1.5537
 5458SOL     OW27835   0.456   3.217   3.419  0.0379 -0.3486  0.4391
 5458SOL    HW127836   0.391   3.226   3.349 -2.6305  0.4515  3.0207
 5458SOL    HW227837   0.498   3.303   3.423 -1.0842  0.2742 -1.3335
 5459SOL     OW27838   0.075   0.796  17.338  0.2083  0.2270 -0.2455
 5459SOL    HW127839   0.166   0.771  17.356 -0.1447 -0.8042  0.1372
 5459SOL    HW227840   0.045   0.816  17.426 -0.7589  1.0989 -0.7733
 5460SOL     OW27841   1.236   1.353   0.186 -0.3489  0.3483 -0.1290
 5460SOL    HW127842   1.195   1.439   0.179  1.3708  1.2425  1.0826
 5460SOL    HW227843   1.270   1.340   0.098 -0.3115  0.4439 -0.1284
 5461SOL     OW27844   2.962   4.191  15.424 -0.4946  0.3535  0.1205
 5461SOL    HW127845   2.897   4.215  15.490 -1.1801 -0.9224 -0.1022
 5461SOL    HW227846   3.006   4.275  15.410 -0.5739 -0.1457 -3.0685
 5462SOL     OW27847   3.102   3.011   7.704  0.3567 -0.0443 -0.0871
 5462SOL    HW127848   3.168   3.069   7.741  0.4625  0.2889 -0.7989
 5462SOL    HW227849   3.141   2.933   7.743  0.7121  0.8298  1.3089
 5463SOL     OW27850   4.396   0.177   1.656  0.3628 -0.1079 -0.3663
 5463SOL    HW127851   4.452   0.100   1.642  1.2240  0.7319 -1.5595
 5463SOL    HW227852   4.314   0.146   1.618  0.7732 -3.5405  1.5822
 5464SOL     OW27853   1.481   0.165   9.431  0.0527  0.1133  0.0907
 5464SOL    HW127854   1.445   0.195   9.514 -0.1389 -0.6488  0.2836
 5464SOL    HW227855   1.426   0.220   9.376 -1.1735  1.2317  2.4355
 5465SOL     OW27856   1.472   1.452   5.534  0.2638 -0.4264 -0.1332
 5465SOL    HW127857   1.497   1.383   5.595  2.1810 -0.6873 -1.2321
 5465SOL    HW227858   1.525   1.432   5.458 -0.8130 -3.5694 -0.0501
 5466SOL     OW27859   3.365   2.757   3.339 -0.1915 -0.0840 -0.3242
 5466SOL    HW127860   3.317   2.794   3.413  1.7439 -1.5967  1.7056
 5466SOL    HW227861   3.443   2.731   3.388  0.1673 -0.1374 -0.9299
 5467SOL     OW27862   1.693   3.371  10.849 -0.2024 -0.2077  0.5589
 5467SOL    HW127863   1.625   3.436  10.832  0.7963  0.2363 -1.6410
 5467SOL    HW227864   1.747   3.395  10.924  0.4630 -1.2129  0.4069
 5468SOL     OW27865   0.062   2.295   6.248 -0.0172 -0.4651 -0.5407
 5468SOL    HW127866   0.059   2.315   6.342 -0.8303  0.9436 -0.8653
 5468SOL    HW227867   0.057   2.384   6.212 -0.1075  0.1103  0.8818
 5469SOL     OW27868   1.317   0.402   5.794  0.8050 -0.0702  0.3970
 5469SOL    HW127869   1.356   0.490   5.802 -0.8671  0.6443  0.5886
 5469SOL    HW227870   1.299   0.384   5.886  0.5618 -0.1795  0.3251
 5470SOL     OW27871   3.529   1.453   3.850 -0.6586 -0.1982  0.6745
 5470SOL    HW127872   3.492   1.487   3.932 -2.5234  3.2579 -1.6073
 5470SOL    HW227873   3.503   1.519   3.786 -2.7814  0.0001  1.7649
 5471SOL     OW27874   1.893   3.144  12.514 -0.3251 -0.2396 -0.2623
 5471SOL    HW127875   1.902   3.061  12.467 -1.9670 -1.1243  0.9652
 5471SOL    HW227876   1.802   3.142  12.546  0.4799  0.8406  2.1053
 5472SOL     OW27877   1.888   2.056  14.968  0.2482  1.3929 -0.0655
 5472SOL    HW127878   1.892   2.031  15.060  1.2378  0.2408 -0.4221
 5472SOL    HW227879   1.845   1.978  14.933  0.5745  1.3435 -0.3635
 5473SOL     OW27880   1.399   0.375  17.066  0.5106  0.9600 -0.0987
 5473SOL    HW127881   1.487   0.410  17.079  0.9020 -0.5133  1.3065
 5473SOL    HW227882   1.345   0.424  17.128 -0.6348 -1.1674  0.5780
 5474SOL     OW27883   1.644   1.262   2.401  0.0407  0.5330 -0.1258
 5474SOL    HW127884   1.576   1.326   2.423 -0.1717 -0.5589  2.4649
 5474SOL    HW227885   1.698   1.328   2.358 -1.2597  1.6444 -0.0412
 5475SOL     OW27886   0.809   2.940  10.629 -0.4312 -0.7541  0.3352
 5475SOL    HW127887   0.764   3.018  10.664 -0.1078  0.3512 -1.7472
 5475SOL    HW227888   0.744   2.921  10.562  2.1023 -1.9137 -1.7488
 5476SOL     OW27889   4.482   4.611   1.831 -0.3638 -0.0451 -0.4990
 5476SOL    HW127890   4.526   4.527   1.843 -0.8809 -0.0493  1.3215
 5476SOL    HW227891   4.391   4.589   1.846  0.6571 -0.8822  4.3844
 5477SOL     OW27892   2.403   3.209   4.640 -0.6585 -0.0059  0.1501
 5477SOL    HW127893   2.496   3.212   4.618  0.0167 -0.3388  2.9160
 5477SOL    HW227894   2.406   3.281   4.703 -0.9154  0.0666  0.0831
 5478SOL     OW27895   3.879   3.660   3.725 -0.1200  0.7313 -0.8427
 5478SOL    HW127896   3.789   3.680   3.699 -0.0224  2.0825 -0.1567
 5478SOL    HW227897   3.880   3.625   3.814 -0.0231  0.5511 -0.9154
 5479SOL     OW27898   1.363   1.717  11.905  0.1425  0.4637  0.5859
 5479SOL    HW127899   1.388   1.710  11.997  0.5820  0.8773  0.4977
 5479SOL    HW227900   1.281   1.767  11.900 -1.0224 -1.6519 -1.6935
 5480SOL     OW27901   4.055   2.563   4.242  0.0658 -0.3855  0.8357
 5480SOL    HW127902   4.025   2.478   4.211  3.5608 -1.0250 -0.7853
 5480SOL    HW227903   4.123   2.580   4.177 -2.2286  2.3349 -0.8369
 5481SOL     OW27904   1.373   0.385  10.075  0.1002  0.2707 -0.0067
 5481SOL    HW127905   1.314   0.400  10.150  2.1314  0.9930  1.4569
 5481SOL    HW227906   1.316   0.335  10.017 -0.3063 -0.0947  0.6920
 5482SOL     OW27907   3.178   1.765   8.499 -0.4740 -0.2545 -0.0755
 5482SOL    HW127908   3.169   1.861   8.498  1.4530 -0.0653  2.6156
 5482SOL    HW227909   3.122   1.746   8.574 -1.2857  1.2802 -0.2921
 5483SOL     OW27910   2.753   0.935   8.688  0.6584 -0.2669 -0.3122
 5483SOL    HW127911   2.775   1.014   8.736  0.1648 -1.0586  1.1970
 5483SOL    HW227912   2.679   0.958   8.632 -1.1442 -0.3277  2.0468
 5484SOL     OW27913   4.528   4.395   2.880 -0.5615  0.5844 -0.1188
 5484SOL    HW127914   4.475   4.472   2.862 -0.5091  0.8157  0.7209
 5484SOL    HW227915   4.598   4.429   2.936 -0.2156 -1.6352  0.7862
 5485SOL     OW27916   1.602   2.635  16.797  0.2341 -0.4970  0.3153
 5485SOL    HW127917   1.546   2.603  16.727 -3.6826  0.0087  3.2563
 5485SOL    HW227918   1.542   2.649  16.870  0.7056  0.6088  0.4920
 5486SOL     OW27919   0.351   2.328   3.582  0.0544  0.4218  0.0217
 5486SOL    HW127920   0.361   2.354   3.673  1.1282  2.7001 -0.7459
 5486SOL    HW227921   0.431   2.365   3.544  0.6115  1.8342  2.6042
 5487SOL     OW27922   3.014   3.477  13.799 -0.2306 -0.0128 -0.1830
 5487SOL    HW127923   3.025   3.539  13.726 -1.5333 -1.4383 -1.5932
 5487SOL    HW227924   3.085   3.509  13.854 -0.3322  0.1916 -0.1710
 5488SOL     OW27925   3.356   1.895   1.822 -0.2129 -0.4834  0.0985
 5488SOL    HW127926   3.313   1.945   1.891 -2.1772 -0.4616 -1.1146
 5488SOL    HW227927   3.277   1.852   1.787 -0.9338  0.5232  0.5021
 5489SOL     OW27928   4.616   4.367  13.686 -0.4860 -0.3778  0.5510
 5489SOL    HW127929   4.647   4.454  13.661 -0.7035 -0.0189  1.5435
 5489SOL    HW227930   4.641   4.319  13.607  0.5290 -2.6721  2.2939
 5490SOL     OW27931   2.270   2.560   1.809  0.3387 -0.0507 -0.5913
 5490SOL    HW127932   2.345   2.501   1.805  0.6690  0.2591  1.1059
 5490SOL    HW227933   2.248   2.552   1.902  0.9027  1.2214 -0.3470
 5491SOL     OW27934   2.614   0.658   6.135 -0.3118 -0.6565 -0.4686
 5491SOL    HW127935   2.528   0.622   6.155 -0.0062 -0.4352  1.2609
 5491SOL    HW227936   2.670   0.592   6.175  1.1745 -0.2647 -1.8773
 5492SOL     OW27937   0.814   0.276   5.003  0.1510 -0.6843  0.1516
 5492SOL    HW127938   0.767   0.269   5.087 -0.4172  0.1789 -0.0924
 5492SOL    HW227939   0.815   0.189   4.963 -1.4321 -1.3523  1.5408
 5493SOL     OW27940   2.798   0.370   1.840  0.0656 -0.3058 -0.3622
 5493SOL    HW127941   2.717   0.319   1.840 -0.4467  0.4968  0.9084
 5493SOL    HW227942   2.774   0.453   1.798  1.7613 -0.9510 -2.5562
 5494SOL     OW27943   0.296   3.224   5.615 -0.4091 -1.0731 -0.8807
 5494SOL    HW127944   0.257   3.256   5.533 -0.6720  0.5609 -0.1072
 5494SOL    HW227945   0.243   3.146   5.627  0.9181 -1.8409 -0.0341
 5495SOL     OW27946   0.876   3.698   6.722  0.2570 -0.3938  0.9971
 5495SOL    HW127947   0.893   3.622   6.667  1.0225  1.8472 -1.8779
 5495SOL    HW227948   0.791   3.679   6.762 -0.7385 -1.0541 -1.4263
 5496SOL     OW27949   1.301   1.273   6.404 -0.1264 -0.7112 -0.1787
 5496SOL    HW127950   1.288   1.325   6.484  1.8870 -3.3796  1.8908
 5496SOL    HW227951   1.210   1.263   6.376 -0.1786  0.3308 -0.3728
 5497SOL     OW27952   1.388   0.713   2.929  0.2539  0.5656  0.2163
 5497SOL    HW127953   1.463   0.654   2.923 -0.7109 -0.7901  1.6639
 5497SOL    HW227954   1.399   0.760   2.846  1.1280 -1.7806 -0.9961
 5498SOL     OW27955   3.202   0.163  15.964 -0.7165  0.5048 -0.0609
 5498SOL    HW127956   3.150   0.229  15.918  0.7444  0.2567 -2.0839
 5498SOL    HW227957   3.268   0.147  15.896 -2.2806 -3.9740 -0.5541
 5499SOL     OW27958   2.801   2.551  13.803  0.3351 -0.3874 -0.3161
 5499SOL    HW127959   2.728   2.516  13.854  0.4604  0.7429  0.6313
 5499SOL    HW227960   2.833   2.467  13.769  0.0703 -0.4289 -0.4617
 5500SOL     OW27961   3.573   3.203  12.341  0.0067  0.1884 -0.4837
 5500SOL    HW127962   3.668   3.199  12.341 -0.1690 -3.4472 -0.2668
 5500SOL    HW227963   3.553   3.155  12.260 -2.5555  0.4208 -0.0019
 5501SOL     OW27964   0.531   2.792  16.269  0.1374  0.0422 -0.2064
 5501SOL    HW127965   0.552   2.841  16.189 -1.2836 -1.2474 -1.3772
 5501SOL    HW227966   0.436   2.784  16.262  0.0559  1.1960 -0.3414
 5502SOL     OW27967   1.102   2.998   3.195 -0.2625  0.2123 -0.0785
 5502SOL    HW127968   1.067   3.022   3.109  2.7410  0.3726 -1.2554
 5502SOL    HW227969   1.084   3.081   3.241 -1.2378  0.4091 -0.8044
 5503SOL     OW27970   0.636   2.569   6.083 -0.0522 -0.3218 -0.1728
 5503SOL    HW127971   0.564   2.631   6.071 -0.3252 -1.0022 -2.0597
 5503SOL    HW227972   0.617   2.478   6.064  3.3301 -0.8611 -0.9209
 5504SOL     OW27973   2.939   1.981   2.223 -1.0118 -0.7239  0.4529
 5504SOL    HW127974   2.948   2.070   2.257  3.0802 -0.9206 -0.1837
 5504SOL    HW227975   2.847   1.958   2.236 -0.9151 -2.1284 -1.2895
 5505SOL     OW27976   0.363   2.417   3.850  0.0280 -0.1827 -0.2963
 5505SOL    HW127977   0.282   2.375   3.879  1.7285 -1.4782  2.5499
 5505SOL    HW227978   0.330   2.506   3.838  2.3367  0.6329 -0.6969
 5506SOL     OW27979   3.273   4.619   2.556  0.0857  0.0852  0.8730
 5506SOL    HW127980   3.240   4.686   2.617 -0.9746  0.9658 -0.6599
 5506SOL    HW227981   3.319   4.671   2.490  1.6202  0.6674  2.4004
 5507SOL     OW27982   2.242   0.678  13.636  0.6660 -0.1282  0.2089
 5507SOL    HW127983   2.217   0.586  13.624 -0.3950  0.2582 -0.4658
 5507SOL    HW227984   2.232   0.698  13.729 -2.9442  0.2345 -0.2888
 5508SOL     OW27985   0.681   0.025  13.160  0.5844 -0.0973 -0.0490
 5508SOL    HW127986   0.613   0.084  13.192  1.1496 -0.3148  1.5308
 5508SOL    HW227987   0.696   0.051  13.069 -0.1553  0.4171 -0.0256
 5509SOL     OW27988   2.172   0.312   2.168  0.2749 -0.3984  0.5192
 5509SOL    HW127989   2.158   0.220   2.189 -1.2403 -0.2623  0.0552
 5509SOL    HW227990   2.266   0.323   2.153  0.2524 -0.3264  0.4375
 5510SOL     OW27991   1.472   4.103   5.412  0.0410  0.3248  0.0368
 5510SOL    HW127992   1.448   4.010   5.406  2.2899 -0.2296 -0.2458
 5510SOL    HW227993   1.384   4.140   5.416 -0.0299  0.0101  1.5648
 5511SOL     OW27994   2.078   3.265   6.054  0.2934 -0.8155 -0.0193
 5511SOL    HW127995   2.022   3.187   6.057 -2.0002  0.9957  4.3309
 5511SOL    HW227996   2.157   3.232   6.012 -1.1525 -2.9121 -1.0961
 5512SOL     OW27997   0.601   3.524   9.312  0.7218 -0.7544 -0.4709
 5512SOL    HW127998   0.665   3.525   9.241 -0.9460 -0.4979 -1.9774
 5512SOL    HW227999   0.665   3.520   9.383 -0.5408 -1.2269  0.6468
 5513SOL     OW28000   3.257   0.201   4.738  0.0125 -0.0995 -0.6354
 5513SOL    HW128001   3.177   0.248   4.718 -0.1616  1.4783  3.7714
 5513SOL    HW228002   3.271   0.259   4.813 -1.4128 -1.7848  0.9318
 5514SOL     OW28003   4.401   1.491   2.037 -0.0734  0.6590 -0.3286
 5514SOL    HW128004   4.384   1.509   2.130 -1.1246  0.9821 -0.5767
 5514SOL    HW228005   4.483   1.444   2.052  0.2448  1.9867  2.1406
 5515SOL     OW28006   2.354   2.019  15.410  0.0250 -0.0526  0.4805
 5515SOL    HW128007   2.332   1.930  15.438 -0.1039 -0.0821  0.2856
 5515SOL    HW228008   2.269   2.052  15.379  0.4413  1.7195  1.2020
 5516SOL     OW28009   1.909   1.505   4.882 -0.1820 -1.3587  0.8927
 5516SOL    HW128010   1.901   1.425   4.829 -1.2393  0.2590 -1.3679
 5516SOL    HW228011   2.002   1.524   4.880 -0.6916  1.1116  1.3370
 5517SOL     OW28012   1.618   3.695  16.993 -0.7746 -0.7079 -0.0253
 5517SOL    HW128013   1.658   3.627  17.047  0.2462 -1.1159 -1.2899
 5517SOL    HW228014   1.685   3.707  16.925 -0.3109  1.6266  0.8633
 5518SOL     OW28015   3.627   3.865   1.068 -0.2399 -0.3933  0.2515
 5518SOL    HW128016   3.558   3.915   1.024 -0.3520 -0.9161 -0.1562
 5518SOL    HW228017   3.663   3.839   0.983 -1.8936 -0.5572 -0.3923
 5519SOL     OW28018   4.076   1.025  13.781  0.2324 -0.1523 -0.8710
 5519SOL    HW128019   3.995   1.012  13.733 -0.5608  0.1536  0.3912
 5519SOL    HW228020   4.086   1.121  13.779 -1.7222  0.1114  2.5136
 5520SOL     OW28021   0.196   1.564  15.901  0.0415 -0.0880  0.6844
 5520SOL    HW128022   0.180   1.487  15.955  0.3907 -1.6422 -1.4287
 5520SOL    HW228023   0.280   1.591  15.938  0.1344  0.6712 -0.0866
 5521SOL     OW28024   3.098   2.872   8.345 -0.2952  0.1445  0.5454
 5521SOL    HW128025   3.114   2.779   8.365  0.7764 -0.2456 -2.1894
 5521SOL    HW228026   3.146   2.880   8.263  3.6320 -0.9528  2.7608
 5522SOL     OW28027   1.154   2.356   0.313  0.8396  0.1627  0.4423
 5522SOL    HW128028   1.068   2.364   0.271  0.7921  0.2486  0.5559
 5522SOL    HW228029   1.159   2.448   0.340 -2.2241 -0.0111  1.5740
 5523SOL     OW28030   2.113   1.942   2.237 -0.2612  0.4747 -1.0049
 5523SOL    HW128031   2.069   2.020   2.270  0.2081 -0.2788  1.4045
 5523SOL    HW228032   2.100   1.939   2.142 -1.2190 -0.1600 -0.8474
 5524SOL     OW28033   3.855   0.027  10.002  0.3329 -0.0601 -0.4475
 5524SOL    HW128034   3.847   4.692  10.077 -3.0322  1.7919  0.5920
 5524SOL    HW228035   3.766   0.062   9.997  0.9391  1.2593 -2.4344
 5525SOL     OW28036   1.694   0.419   3.861  0.4147  0.1627  0.2990
 5525SOL    HW128037   1.614   0.393   3.907  2.1037 -0.1662  3.0539
 5525SOL    HW228038   1.674   0.399   3.770  0.5304  2.5752 -0.2358
 5526SOL     OW28039   0.690   3.755   3.688 -0.3121 -0.0608  0.1613
 5526SOL    HW128040   0.748   3.690   3.647 -2.0679 -1.1283 -0.6189
 5526SOL    HW228041   0.628   3.778   3.619 -1.1349 -0.4494  0.7727
 5527SOL     OW28042   0.421   0.823   7.877  0.5324 -0.0386 -0.2456
 5527SOL    HW128043   0.427   0.728   7.875 -3.9308 -0.2577 -2.2178
 5527SOL    HW228044   0.471   0.852   7.954 -0.0777 -1.5022  0.7006
 5528SOL     OW28045   3.425   2.120   8.457 -0.3027  0.2144  0.4379
 5528SOL    HW128046   3.512   2.132   8.420 -0.1282 -1.5888  0.2360
 5528SOL    HW228047   3.449   2.070   8.535  1.1457 -1.2680 -0.9617
 5529SOL     OW28048   3.122   3.059   9.198  0.5498 -0.2610 -0.1404
 5529SOL    HW128049   3.074   3.021   9.125 -1.5755 -1.1470  1.7145
 5529SOL    HW228050   3.086   3.016   9.275 -2.7288 -1.5141 -2.4086
 5530SOL     OW28051   3.633   2.091   6.015 -0.6282 -0.0854 -0.8524
 5530SOL    HW128052   3.636   2.010   5.965 -1.0730 -0.3091 -0.5152
 5530SOL    HW228053   3.717   2.130   5.989 -0.5318  1.0296  1.1037
 5531SOL     OW28054   0.920   0.779   0.717 -0.3716  0.0361 -0.2970
 5531SOL    HW128055   1.007   0.753   0.687 -0.1711 -0.2378  0.5247
 5531SOL    HW228056   0.941   0.866   0.751  1.0151 -1.2479  2.1333
 5532SOL     OW28057   1.109   4.584   4.936  0.6363  0.0809  0.1718
 5532SOL    HW128058   1.175   4.637   4.981  0.7012  0.3969 -0.2887
 5532SOL    HW228059   1.033   4.637   4.962  0.1949 -0.4472 -0.0442
 5533SOL     OW28060   2.195   1.662   5.322 -0.0285  0.2825  0.2066
 5533SOL    HW128061   2.206   1.747   5.364 -1.1064  1.1834 -1.3445
 5533SOL    HW228062   2.270   1.652   5.263 -1.6126  3.3263 -2.2332
 5534SOL     OW28063   4.649   3.461   5.670 -0.0393  0.2625 -0.2223
 5534SOL    HW128064   4.556   3.462   5.647 -0.0115  0.1706 -0.3371
 5534SOL    HW228065   4.649   3.542   5.721  0.2260 -0.6504  1.2229
 5535SOL     OW28066   0.934   3.098  16.865  0.6638  0.2851 -0.5330
 5535SOL    HW128067   1.012   3.101  16.921 -0.6772  0.5026  1.3216
 5535SOL    HW228068   0.906   3.188  16.879  2.4833  0.9115 -0.8645
 5536SOL     OW28069   3.525   2.562   2.305  0.2271  0.1028  0.3594
 5536SOL    HW128070   3.543   2.597   2.393 -0.9882  0.5386  0.4343
 5536SOL    HW228071   3.432   2.545   2.319  0.1124  1.5970  1.5343
 5537SOL     OW28072   3.669   1.649   7.412 -0.2278  0.0094  0.4271
 5537SOL    HW128073   3.606   1.623   7.345  0.4861  0.4243 -0.4094
 5537SOL    HW228074   3.754   1.614   7.385  0.5747  0.4596  2.3564
 5538SOL     OW28075   0.976   4.099  12.455  0.2872 -0.6869  0.0309
 5538SOL    HW128076   1.006   4.055  12.534 -0.3131  1.4996  1.4890
 5538SOL    HW228077   0.885   4.095  12.486  0.7695  0.7102  1.6792
 5539SOL     OW28078   3.451   2.887   7.277  0.1789  0.3561 -0.3669
 5539SOL    HW128079   3.463   2.949   7.349  1.0548 -1.2373  0.8649
 5539SOL    HW228080   3.537   2.877   7.236 -0.3798 -0.7921 -1.2583
 5540SOL     OW28081   0.637   0.386  10.132  0.8453  0.1963 -0.1045
 5540SOL    HW128082   0.697   0.320  10.096  1.6879  0.2498  1.1939
 5540SOL    HW228083   0.708   0.445  10.159  1.6550  0.0306 -1.7987
 5541SOL     OW28084   4.291   3.503   8.742  0.2470 -0.1896  0.1724
 5541SOL    HW128085   4.253   3.549   8.817 -0.7422  1.4727 -1.3480
 5541SOL    HW228086   4.382   3.495   8.772  0.3517  0.1752 -0.0457
 5542SOL     OW28087   0.821   0.799  16.071 -0.4752  0.2664 -0.0321
 5542SOL    HW128088   0.731   0.815  16.043 -0.3989  0.2710 -0.2744
 5542SOL    HW228089   0.827   0.822  16.164  1.2222 -0.5163  0.0556
 5543SOL     OW28090   2.075   2.035   6.882 -0.2298 -0.0457 -0.2598
 5543SOL    HW128091   2.087   1.987   6.964  0.2713  0.5062 -0.0082
 5543SOL    HW228092   2.104   1.964   6.825  0.2426 -0.5690  0.6477
 5544SOL     OW28093   2.567   1.124   9.109  0.3699 -0.4665  0.1219
 5544SOL    HW128094   2.575   1.201   9.166 -1.6417 -0.7783  0.8309
 5544SOL    HW228095   2.645   1.078   9.140  0.0519  0.3869  2.2198
 5545SOL     OW28096   2.425   2.175   0.489  0.3938  0.3684  0.2095
 5545SOL    HW128097   2.477   2.237   0.540  3.4768  0.2993 -2.8333
 5545SOL    HW228098   2.480   2.157   0.413  3.5505 -1.6085  3.0077
 5546SOL     OW28099   1.430   2.235  14.926  0.0913  0.2808  0.3362
 5546SOL    HW128100   1.422   2.253  15.020  2.7643 -0.7126  0.7767
 5546SOL    HW228101   1.433   2.326  14.897  1.2642 -0.0171 -0.4606
 5547SOL     OW28102   0.654   4.693  16.908  0.6653  0.4263  0.5129
 5547SOL    HW128103   0.699   0.042  16.954 -1.5023  0.6265  2.3003
 5547SOL    HW228104   0.594   0.014  16.847  0.3050 -1.1034 -0.1967
 5548SOL     OW28105   0.975   0.907   6.156 -0.4921  0.2437 -0.5710
 5548SOL    HW128106   0.940   0.992   6.129  0.7966  1.6706  2.2836
 5548SOL    HW228107   0.951   0.916   6.248  0.6593  3.0201 -0.5640
 5549SOL     OW28108   3.382   1.651   1.339 -0.3619  0.4832 -0.1317
 5549SOL    HW128109   3.377   1.556   1.340 -0.0606  0.4732  0.3265
 5549SOL    HW228110   3.339   1.669   1.423  0.0934  0.1433  0.1689
 5550SOL     OW28111   0.151   3.931  11.129 -0.2348  0.0386  0.1774
 5550SOL    HW128112   0.196   3.848  11.148 -0.4346 -0.6262 -2.3155
 5550SOL    HW228113   0.139   3.965  11.218 -0.2250 -0.1814  0.2630
 5551SOL     OW28114   3.863   3.338   4.508 -0.3561 -0.3853  0.2333
 5551SOL    HW128115   3.868   3.267   4.445 -0.2861 -0.3808  0.2339
 5551SOL    HW228116   3.783   3.322   4.560 -1.6978  2.7903 -0.8532
 5552SOL     OW28117   1.215   2.280   6.770 -0.1998 -0.1089  0.2411
 5552SOL    HW128118   1.173   2.366   6.776 -1.0953 -0.6424  1.5344
 5552SOL    HW228119   1.162   2.228   6.830  0.4217  0.2094  1.0648
 5553SOL     OW28120   4.328   3.571  10.611 -0.5321 -0.0862  0.1150
 5553SOL    HW128121   4.414   3.534  10.593 -1.6096 -1.0877 -2.8575
 5553SOL    HW228122   4.306   3.540  10.699 -0.2368 -0.2911  0.1171
 5554SOL     OW28123   4.503   3.151   2.169  0.1958 -0.0432 -0.1122
 5554SOL    HW128124   4.564   3.201   2.223  0.1178 -1.7856  1.5731
 5554SOL    HW228125   4.574   3.110   2.120  0.4819 -1.1490  1.2523
 5555SOL     OW28126   0.543   1.681   9.007 -0.1187  0.2511 -0.0616
 5555SOL    HW128127   0.618   1.740   9.012 -1.0632  1.5516 -1.3578
 5555SOL    HW228128   0.491   1.690   9.087 -0.2745  1.6405 -0.3216
 5556SOL     OW28129   4.080   4.438   3.610  0.2001 -0.1247 -0.1455
 5556SOL    HW128130   4.173   4.455   3.627 -0.1365  0.6553  0.9242
 5556SOL    HW228131   4.081   4.353   3.566 -0.5013  0.7771 -1.8797
 5557SOL     OW28132   0.172   1.359  16.472  0.0996  0.6809 -0.0842
 5557SOL    HW128133   0.094   1.372  16.419 -0.0383  1.7575  0.3749
 5557SOL    HW228134   0.233   1.397  16.408  0.5810  0.7394  0.4009
 5558SOL     OW28135   4.149   1.039   4.298 -0.0696 -0.1541 -0.0697
 5558SOL    HW128136   4.143   1.127   4.336 -2.3577 -0.8621  1.1666
 5558SOL    HW228137   4.123   0.987   4.373  2.3101  0.1361  0.9713
 5559SOL     OW28138   4.313   0.288   1.383 -0.1534 -0.3986 -0.6343
 5559SOL    HW128139   4.239   0.239   1.421  0.6676  0.8433  2.5886
 5559SOL    HW228140   4.384   0.224   1.388  0.2602 -0.0201 -1.8492
 5560SOL     OW28141   1.219   4.424   7.664 -0.8510  0.3634 -0.0311
 5560SOL    HW128142   1.209   4.515   7.691 -1.8816  0.1983  0.1219
 5560SOL    HW228143   1.207   4.428   7.569 -0.8206  0.6774 -0.0223
 5561SOL     OW28144   3.688   3.314  11.078  0.0905 -0.5916  0.2465
 5561SOL    HW128145   3.682   3.402  11.039 -2.2034 -1.5017 -1.4391
 5561SOL    HW228146   3.610   3.278  11.037  1.0429 -1.2991 -0.9339
 5562SOL     OW28147   3.736   3.778   6.775  0.0071  0.2048 -0.0105
 5562SOL    HW128148   3.737   3.706   6.712 -1.2665 -0.3175  0.5726
 5562SOL    HW228149   3.649   3.817   6.768  0.0966  0.5979  1.1020
 5563SOL     OW28150   3.218   3.414   8.107  0.2084 -0.1462  0.2467
 5563SOL    HW128151   3.167   3.491   8.131 -0.3200 -1.1485  2.3598
 5563SOL    HW228152   3.206   3.431   8.014 -0.3394  1.4787  0.6180
 5564SOL     OW28153   4.562   2.413  13.270 -0.2598 -0.2589 -0.1343
 5564SOL    HW128154   4.616   2.365  13.333  0.6591  1.6504  0.5288
 5564SOL    HW228155   4.478   2.393  13.312 -1.1426 -0.6120 -2.0691
 5565SOL     OW28156   2.339   0.329   6.518 -0.1594  0.1923  0.5315
 5565SOL    HW128157   2.320   0.366   6.431 -2.4590 -0.1315  0.8811
 5565SOL    HW228158   2.273   0.366   6.577  0.6264  0.7334  1.0608
 5566SOL     OW28159   1.451   2.583  16.212 -0.2585 -0.1920  0.2146
 5566SOL    HW128160   1.424   2.524  16.142  0.9292 -0.4976  0.0092
 5566SOL    HW228161   1.394   2.654  16.183  0.9956  1.0722  0.8462
 5567SOL     OW28162   0.658   2.132   2.228 -0.2833  0.1760  0.1164
 5567SOL    HW128163   0.605   2.128   2.148  0.0332  1.5484 -0.1634
 5567SOL    HW228164   0.633   2.218   2.262 -0.5813  0.7502 -1.5265
 5568SOL     OW28165   3.718   0.169   4.725  0.1776  0.2359 -0.0253
 5568SOL    HW128166   3.813   0.177   4.722  0.3211 -0.6113  2.1425
 5568SOL    HW228167   3.681   0.237   4.669  1.0400  2.2444  1.8354
 5569SOL     OW28168   4.417   4.051   8.196  0.1680 -0.0214 -0.0604
 5569SOL    HW128169   4.495   4.075   8.246 -0.1574  0.3322  0.2780
 5569SOL    HW228170   4.357   4.125   8.203  0.8407  0.5427 -0.3704
 5570SOL     OW28171   1.764   3.006  16.406  0.0831  0.2872  0.2268
 5570SOL    HW128172   1.724   2.927  16.371 -1.9010  0.4617  2.0799
 5570SOL    HW228173   1.683   3.057  16.396 -0.2256 -0.2209  0.1592
 5571SOL     OW28174   3.321   2.517  16.031 -0.3009  0.1224  0.0179
 5571SOL    HW128175   3.298   2.609  16.049 -1.0920  0.2424 -1.5796
 5571SOL    HW228176   3.234   2.478  16.028 -0.2229 -0.2050  1.9404
 5572SOL     OW28177   4.400   4.675   2.419 -0.3306  0.8801  0.1872
 5572SOL    HW128178   4.350   4.595   2.435 -0.3592  0.9066  0.2304
 5572SOL    HW228179   4.429   4.694   2.509  0.5021  1.3166 -0.1699
 5573SOL     OW28180   0.587   1.426   5.694  0.1618  0.3451 -0.2770
 5573SOL    HW128181   0.656   1.468   5.643  1.7336 -2.2794 -0.2864
 5573SOL    HW228182   0.544   1.368   5.631 -0.1199 -0.1083  0.3332
 5574SOL     OW28183   3.382   2.094  14.272  0.0253 -0.1552  0.1054
 5574SOL    HW128184   3.385   2.063  14.363  0.1754 -0.1692  0.0960
 5574SOL    HW228185   3.313   2.160  14.273  2.2512  2.1998 -0.3624
 5575SOL     OW28186   1.021   3.974   0.034  1.0689 -0.6233 -0.4061
 5575SOL    HW128187   0.959   3.948  17.657  1.1704 -1.3097 -0.2394
 5575SOL    HW228188   0.978   3.971   0.119  0.7771 -1.5567 -0.5893
 5576SOL     OW28189   1.083   0.779   7.918  0.4599 -0.0558 -0.1296
 5576SOL    HW128190   1.156   0.772   7.979 -0.9993  0.8606  1.7100
 5576SOL    HW228191   1.032   0.703   7.946  1.0278 -0.0133  0.9995
 5577SOL     OW28192   3.231   0.188   1.136 -0.1308 -0.0336 -0.2955
 5577SOL    HW128193   3.265   0.121   1.195  0.8283  0.6304 -0.0832
 5577SOL    HW228194   3.205   0.260   1.195  1.5786  1.4494 -1.3375
 5578SOL     OW28195   2.406   3.575   1.655  0.5814 -0.0410 -0.3550
 5578SOL    HW128196   2.342   3.581   1.584 -0.0156  0.3102  0.2074
 5578SOL    HW228197   2.435   3.665   1.666 -2.6889  0.7744  1.5887
 5579SOL     OW28198   4.597   1.216  16.087  0.3865  0.3412 -0.0573
 5579SOL    HW128199   4.680   1.188  16.048  1.6913  3.4014  0.4385
 5579SOL    HW228200   4.553   1.144  16.043 -1.1820  1.7050 -0.7145
 5580SOL     OW28201   3.184   3.079   5.835 -0.7845 -0.3345  0.0344
 5580SOL    HW128202   3.148   3.158   5.795 -2.8785 -1.2347  0.0916
 5580SOL    HW228203   3.134   3.076   5.916  0.0722 -2.4155  0.5003
 5581SOL     OW28204   0.613   3.940   9.850 -0.7214  0.7702  0.2787
 5581SOL    HW128205   0.629   4.008   9.915  1.0772  0.5388  0.0842
 5581SOL    HW228206   0.698   3.960   9.810 -0.8774  0.2860 -0.2897
 5582SOL     OW28207   1.980   2.419   5.867  0.0732  0.3471  0.1067
 5582SOL    HW128208   1.998   2.340   5.918  0.3922 -0.7754 -1.7531
 5582SOL    HW228209   1.908   2.387   5.814  1.8889  0.4944 -2.4636
 5583SOL     OW28210   1.296   2.714   4.541 -0.4151 -0.5467  0.1896
 5583SOL    HW128211   1.234   2.641   4.545  0.3755 -1.1800  0.8276
 5583SOL    HW228212   1.279   2.752   4.454 -1.0578 -0.7383  0.2305
 5584SOL     OW28213   0.577   0.671   5.384  0.3455 -0.1204 -0.5203
 5584SOL    HW128214   0.628   0.606   5.337  1.1574 -0.7806  1.2647
 5584SOL    HW228215   0.570   0.743   5.322  0.6241 -0.1288 -0.5598
 5585SOL     OW28216   3.754   4.636   5.241  0.3669 -0.1796 -0.3664
 5585SOL    HW128217   3.760   4.586   5.160  0.1577 -0.4694 -0.2042
 5585SOL    HW228218   3.816   4.587   5.294 -0.1638 -1.5050 -0.9748
 5586SOL     OW28219   0.967   1.665   2.346 -0.8298  0.0446 -0.0147
 5586SOL    HW128220   0.999   1.755   2.335 -1.7042  0.4077  0.4298
 5586SOL    HW228221   1.047   1.613   2.341  0.6714  2.3143  0.1297
 5587SOL     OW28222   3.554   4.085   9.225 -0.2893 -0.3077 -0.7927
 5587SOL    HW128223   3.540   4.012   9.285 -0.6072  0.5483  0.1954
 5587SOL    HW228224   3.649   4.088   9.211 -0.2714  1.6273 -0.3747
 5588SOL     OW28225   1.825   1.831  15.190 -0.5241 -0.4505 -0.2520
 5588SOL    HW128226   1.841   1.745  15.230 -0.7099  0.7450  2.3720
 5588SOL    HW228227   1.802   1.809  15.100 -2.5675 -0.0344  0.1728
 5589SOL     OW28228   2.162   1.580   5.637  0.3555 -0.3855  0.0422
 5589SOL    HW128229   2.159   1.538   5.551  1.0044 -1.3969  0.5050
 5589SOL    HW228230   2.253   1.608   5.644  0.1374  0.1927  0.5153
 5590SOL     OW28231   2.623   1.161   9.435  0.2356 -0.2977  0.8112
 5590SOL    HW128232   2.628   1.226   9.504 -0.0181 -0.4904  1.0104
 5590SOL    HW228233   2.600   1.081   9.483 -0.6249 -2.3348 -2.9505
 5591SOL     OW28234   4.699   3.682   7.747  0.2306  0.0628 -0.3646
 5591SOL    HW128235   4.679   3.760   7.695  0.0842  0.4652  0.2916
 5591SOL    HW228236   0.064   3.705   7.779 -0.4567  0.7154  1.0223
 5592SOL     OW28237   3.947   4.010   5.435 -0.0687 -0.6377 -0.2762
 5592SOL    HW128238   4.008   4.050   5.373 -1.2195  0.7709 -0.5097
 5592SOL    HW228239   3.997   3.933   5.461  0.9156 -0.1377 -0.6546
 5593SOL     OW28240   1.991   3.949  13.324 -0.0186 -0.2056 -0.0378
 5593SOL    HW128241   1.909   3.998  13.320  0.0325 -0.1690 -0.6838
 5593SOL    HW228242   1.966   3.879  13.385  0.7224 -0.9179 -0.5487
 5594SOL     OW28243   2.470   2.503  16.357 -0.2568 -0.6398 -0.5223
 5594SOL    HW128244   2.504   2.419  16.387  1.5666  0.2686 -0.0072
 5594SOL    HW228245   2.512   2.501  16.272  1.5323  0.7939  0.3323
 5595SOL     OW28246   1.808   3.940   2.387  0.4141 -0.1204  0.0922
 5595SOL    HW128247   1.883   3.971   2.336 -0.9883  0.9048 -1.3483
 5595SOL    HW228248   1.771   3.899   2.309 -0.5202  1.2867 -0.1977
 5596SOL     OW28249   1.431   3.045   8.084 -0.9251  0.1264  0.3979
 5596SOL    HW128250   1.339   3.040   8.110 -1.1950 -0.8041 -0.7752
 5596SOL    HW228251   1.470   3.092   8.158 -0.1114 -0.7476  0.5229
 5597SOL     OW28252   4.471   4.376  16.644  0.0145  0.1005  0.5206
 5597SOL    HW128253   4.493   4.343  16.556 -0.3405 -0.2213  0.5509
 5597SOL    HW228254   4.461   4.468  16.618 -0.6453 -0.1561 -0.1611
 5598SOL     OW28255   4.280   2.348   3.373 -0.8030 -0.0242  0.3389
 5598SOL    HW128256   4.223   2.277   3.401 -0.5936 -0.0267  0.7569
 5598SOL    HW228257   4.299   2.318   3.284  1.5356  0.9238  0.4979
 5599SOL     OW28258   3.312   4.209   9.965  0.6208  0.2736 -0.5800
 5599SOL    HW128259   3.389   4.192  10.018  0.2947  2.6864  0.6742
 5599SOL    HW228260   3.242   4.208  10.030  2.4391 -1.0050  1.3453
 5600SOL     OW28261   4.057   3.456   9.292  0.7979  0.1334 -0.9758
 5600SOL    HW128262   4.082   3.431   9.381  2.3363  1.2581 -1.0944
 5600SOL    HW228263   4.065   3.551   9.284  0.6026  0.2641  0.3896
 5601SOL     OW28264   2.162   3.084   6.427  0.0988 -0.0127 -0.3218
 5601SOL    HW128265   2.068   3.088   6.443  0.0024  0.5881 -1.0516
 5601SOL    HW228266   2.192   3.025   6.496  2.9805  2.7748  0.8131
 5602SOL     OW28267   2.845   3.544   9.418  0.3628  0.0801 -0.6336
 5602SOL    HW128268   2.782   3.514   9.352 -0.4941 -0.7386  0.5483
 5602SOL    HW228269   2.806   3.517   9.501  1.0652 -0.7593 -0.5741
 5603SOL     OW28270   1.278   0.428   8.407  0.7299  0.0850 -0.0156
 5603SOL    HW128271   1.304   0.420   8.315 -1.4583 -1.1219 -0.5119
 5603SOL    HW228272   1.328   0.505   8.435  2.8755 -1.2721 -0.0994
 5604SOL     OW28273   0.497   1.560   3.585 -0.0229 -0.7743 -0.0079
 5604SOL    HW128274   0.570   1.544   3.525 -1.2306  1.8058 -2.1240
 5604SOL    HW228275   0.526   1.640   3.629  0.7232 -0.6106 -0.8019
 5605SOL     OW28276   1.108   4.636   7.247 -0.0186 -0.5457  0.2460
 5605SOL    HW128277   1.111   4.573   7.174 -0.4620  0.4247 -0.6034
 5605SOL    HW228278   1.185   4.604   7.295  0.8805 -0.9440 -1.4601
 5606SOL     OW28279   1.185   0.352  16.863 -0.0407  0.1502  0.2951
 5606SOL    HW128280   1.150   0.440  16.877  0.5922  0.4519 -0.0314
 5606SOL    HW228281   1.261   0.360  16.921  1.0715 -2.3357 -0.8525
 5607SOL     OW28282   4.348   4.489   9.613 -1.0507  0.3495  0.3482
 5607SOL    HW128283   4.389   4.558   9.562 -1.0719 -0.0856 -0.2656
 5607SOL    HW228284   4.289   4.536   9.673 -0.4743  2.2228 -0.5636
 5608SOL     OW28285   2.432   4.719   8.236  0.3442  0.4460  0.4221
 5608SOL    HW128286   2.359   4.709   8.297 -2.3149  0.6508 -2.7471
 5608SOL    HW228287   2.510   0.010   8.290  1.0561 -0.9308 -0.2610
 5609SOL     OW28288   1.717   1.094   4.253 -0.1384 -0.1420 -0.1998
 5609SOL    HW128289   1.772   1.017   4.244 -2.5255 -1.7708 -0.8351
 5609SOL    HW228290   1.646   1.060   4.308  0.2211 -1.5906 -0.6285
 5610SOL     OW28291   1.451   2.269   6.186 -0.2087  0.1328  0.0732
 5610SOL    HW128292   1.429   2.344   6.131 -0.9655 -2.4260 -3.0634
 5610SOL    HW228293   1.394   2.281   6.263 -1.2877 -1.1813 -0.5256
 5611SOL     OW28294   2.895   2.575   5.098 -0.6095 -0.4429 -0.0682
 5611SOL    HW128295   2.855   2.639   5.040 -2.2343  0.2831  1.8581
 5611SOL    HW228296   2.954   2.629   5.151  1.3909 -2.0845 -0.6400
 5612SOL     OW28297   3.547   2.042  10.537  0.0116 -0.3155 -0.2282
 5612SOL    HW128298   3.629   2.058  10.584  0.3112  0.2376 -0.9358
 5612SOL    HW228299   3.587   2.049  10.450 -1.3718  1.8701 -0.6852
 5613SOL     OW28300   3.362   1.952   6.325 -0.0295  0.3062  0.4843
 5613SOL    HW128301   3.361   1.923   6.234 -0.7019 -1.0924  0.9500
 5613SOL    HW228302   3.283   2.005   6.324 -0.3791 -0.1960  1.7043
 5614SOL     OW28303   1.405   3.623   3.105 -0.2073 -0.2942  0.3833
 5614SOL    HW128304   1.319   3.658   3.130 -0.1560 -0.1804  0.4005
 5614SOL    HW228305   1.422   3.677   3.028  0.9327 -3.9362 -1.9391
 5615SOL     OW28306   2.504   1.745   4.254  0.2527 -0.5955  0.1874
 5615SOL    HW128307   2.554   1.750   4.335 -0.6206 -1.3578  0.7724
 5615SOL    HW228308   2.427   1.702   4.291  0.6257 -1.4649 -0.0726
 5616SOL     OW28309   4.636   1.043  10.263 -0.1392  0.5713 -0.0314
 5616SOL    HW128310   4.642   1.039  10.359 -0.5017  2.5528  0.0797
 5616SOL    HW228311   4.585   0.963  10.256  1.8825 -0.6469 -0.9141
 5617SOL     OW28312   1.583   4.563  14.018 -0.3104  0.1094  0.2178
 5617SOL    HW128313   1.640   4.594  14.089  1.4624 -0.8634 -0.7854
 5617SOL    HW228314   1.567   4.638  13.962  2.0144  2.7062  3.0109
 5618SOL     OW28315   2.424   1.609  11.713 -0.1372  0.3885 -0.0135
 5618SOL    HW128316   2.372   1.529  11.723  2.1095 -1.3936 -2.6187
 5618SOL    HW228317   2.373   1.679  11.755  1.6862  1.3170  0.6696
 5619SOL     OW28318   2.975   2.765   0.940  0.2428  0.1413  0.0579
 5619SOL    HW128319   2.901   2.821   0.915  0.0030 -0.4970 -0.6776
 5619SOL    HW228320   3.021   2.772   0.856 -0.9380 -0.6253 -0.6524
 5620SOL     OW28321   0.829   3.156   6.816 -0.3324 -0.0393  0.0777
 5620SOL    HW128322   0.819   3.077   6.763 -1.0485  1.7003 -2.4089
 5620SOL    HW228323   0.789   3.216   6.753 -0.2132  0.4297  0.4440
 5621SOL     OW28324   3.071   1.601   6.701 -0.1486 -0.2686  0.5353
 5621SOL    HW128325   3.091   1.524   6.649  0.3080 -0.2462  0.6811
 5621SOL    HW228326   3.141   1.657   6.668  1.4893 -2.8736 -0.3969
 5622SOL     OW28327   0.708   4.277   1.029 -0.1941 -0.1353  0.6332
 5622SOL    HW128328   0.613   4.283   1.019 -0.1246  1.3395  0.8977
 5622SOL    HW228329   0.723   4.201   0.972  0.2753 -1.0811  2.0084
 5623SOL     OW28330   4.034   1.783   0.276  0.4184 -0.6061  0.0383
 5623SOL    HW128331   4.110   1.836   0.301  1.8581 -1.3713 -2.6169
 5623SOL    HW228332   3.972   1.804   0.345  0.7291 -2.0167  0.7312
 5624SOL     OW28333   0.921   0.156   6.903  0.7918  0.0842  0.5318
 5624SOL    HW128334   0.956   0.145   6.992 -2.3030  2.1132  2.0014
 5624SOL    HW228335   0.960   0.244   6.900  1.5647 -0.2950 -0.3424
 5625SOL     OW28336   3.449   3.160   5.818  0.2243 -0.0024  0.0066
 5625SOL    HW128337   3.526   3.109   5.793  0.4069 -0.4493  1.4385
 5625SOL    HW228338   3.386   3.102   5.775  1.2395 -0.2363 -1.1495
 5626SOL     OW28339   2.552   1.915   7.951  0.1697  0.3307  0.2305
 5626SOL    HW128340   2.473   1.943   7.996 -1.8997 -2.5416 -1.6742
 5626SOL    HW228341   2.600   1.997   7.935 -1.0418  1.3893  2.0147
 5627SOL     OW28342   2.226   3.314  16.360 -0.3350  0.0271  0.3526
 5627SOL    HW128343   2.313   3.301  16.322 -0.0025  1.9842  0.4608
 5627SOL    HW228344   2.253   3.381  16.423 -0.7491 -0.2089  0.7839
 5628SOL     OW28345   3.942   0.397   5.236  0.0403  0.3464 -0.3965
 5628SOL    HW128346   3.898   0.317   5.263 -1.2130  0.9662 -0.5832
 5628SOL    HW228347   3.958   0.389   5.142  1.2298  0.1357 -0.1764
 5629SOL     OW28348   0.612   1.639  15.113  0.3176  0.7691 -0.3621
 5629SOL    HW128349   0.560   1.598  15.182  0.3504  2.4236  0.6621
 5629SOL    HW228350   0.603   1.570  15.048  0.4423  0.9161 -0.5371
 5630SOL     OW28351   0.340   0.954   8.474  0.3863 -0.0059  0.1870
 5630SOL    HW128352   0.369   0.865   8.451 -1.0830 -0.1837 -0.9147
 5630SOL    HW228353   0.347   0.939   8.568  1.4572  1.6043  0.3611
 5631SOL     OW28354   0.060   2.981  10.630  0.5732 -0.2638 -0.1510
 5631SOL    HW128355   0.125   3.051  10.633 -0.6311  0.7813  2.0339
 5631SOL    HW228356   0.095   2.924  10.699  0.5816 -1.8848 -1.4832
 5632SOL     OW28357   0.604   3.650   6.770 -0.1618 -0.0444  0.6992
 5632SOL    HW128358   0.613   3.574   6.827  1.9761 -1.9057 -2.0612
 5632SOL    HW228359   0.519   3.685   6.794 -1.4507 -2.6866 -0.0314
 5633SOL     OW28360   0.736   2.991   7.500 -0.2709 -0.0910 -0.1406
 5633SOL    HW128361   0.671   3.061   7.489 -0.6171  0.1541  3.4275
 5633SOL    HW228362   0.715   2.958   7.588 -0.1509 -0.8038 -0.3775
 5634SOL     OW28363   3.353   2.126  11.256 -0.2899  0.4114  0.3322
 5634SOL    HW128364   3.268   2.089  11.278 -0.2770  1.9986  3.0520
 5634SOL    HW228365   3.397   2.057  11.206 -0.5470 -0.4939  1.3504
 5635SOL     OW28366   2.963   4.671  15.375 -0.1029 -0.2002 -0.0650
 5635SOL    HW128367   2.944   4.645  15.285  2.3547 -0.4154 -0.5385
 5635SOL    HW228368   2.922   4.600  15.425  2.9643 -0.5381  1.9541
 5636SOL     OW28369   2.856   1.406   0.343 -0.1241 -0.0527  0.0678
 5636SOL    HW128370   2.806   1.393   0.263  0.0597  1.1466 -0.2423
 5636SOL    HW228371   2.891   1.495   0.340  0.1291 -0.1901 -0.8541
 5637SOL     OW28372   0.857   3.144   1.853  0.0955 -0.5285  0.3367
 5637SOL    HW128373   0.857   3.210   1.783  1.8553  0.5827  1.3831
 5637SOL    HW228374   0.776   3.165   1.900  0.4929 -0.7330  1.1143
 5638SOL     OW28375   0.549   0.262  16.745 -0.0287 -0.2080  0.5229
 5638SOL    HW128376   0.478   0.222  16.796 -0.2559 -2.6771 -1.7270
 5638SOL    HW228377   0.576   0.337  16.798  2.9279  0.3648 -1.8392
 5639SOL     OW28378   3.507   3.867   7.396 -0.4162  0.1610 -0.3226
 5639SOL    HW128379   3.457   3.842   7.474  0.7949 -0.2429  0.3223
 5639SOL    HW228380   3.564   3.791   7.389 -0.6901 -0.1384  0.5904
 5640SOL     OW28381   4.184   0.213   5.023 -0.0314  0.1575  0.3274
 5640SOL    HW128382   4.120   0.153   5.061  0.7565  1.0553  3.0877
 5640SOL    HW228383   4.126   0.276   4.979 -1.4196 -2.3384 -1.4137
 5641SOL     OW28384   1.743   3.722   4.987  0.1433 -0.0833  0.2805
 5641SOL    HW128385   1.742   3.746   4.894  2.1633 -0.1141  0.2581
 5641SOL    HW228386   1.652   3.692   4.992  0.2661 -0.8014 -1.6475
 5642SOL     OW28387   0.281   3.065   2.023 -0.2931 -0.2782  0.4204
 5642SOL    HW128388   0.340   3.100   1.956 -3.1642 -0.9550 -2.5092
 5642SOL    HW228389   0.313   3.106   2.103 -0.1111 -1.3131  0.8750
 5643SOL     OW28390   1.509   3.586   6.585  0.2141 -0.3541  0.1953
 5643SOL    HW128391   1.579   3.586   6.651 -1.0852  1.5308  1.5811
 5643SOL    HW228392   1.441   3.631   6.635 -0.6093 -1.5214  0.1096
 5644SOL     OW28393   0.939   3.728   4.241 -0.5502  0.2929 -0.2066
 5644SOL    HW128394   0.971   3.741   4.330 -0.0115 -0.3959 -0.2921
 5644SOL    HW228395   0.996   3.784   4.188  0.9940  0.8221  2.0384
 5645SOL     OW28396   4.636   4.053   3.369 -0.6426 -0.4671 -0.9867
 5645SOL    HW128397   4.678   4.030   3.452 -0.2041  0.7121 -0.8814
 5645SOL    HW228398   4.559   4.102   3.401  0.8385  1.1410  0.1095
 5646SOL     OW28399   0.394   0.956   6.969 -0.1510  0.0687  1.0924
 5646SOL    HW128400   0.367   0.946   6.878  2.4272  1.2743  0.1944
 5646SOL    HW228401   0.309   0.983   7.004 -0.8910 -0.9171  0.0335
 5647SOL     OW28402   2.691   1.887   3.037 -0.0761  0.0065 -0.4345
 5647SOL    HW128403   2.664   1.807   2.991  0.0548 -0.1999 -0.1518
 5647SOL    HW228404   2.682   1.956   2.971 -0.4840 -2.1768 -2.6531
 5648SOL     OW28405   1.618   4.428   5.972  0.2778  1.0259  0.0184
 5648SOL    HW128406   1.550   4.459   5.912 -0.4184  0.4606  0.5084
 5648SOL    HW228407   1.577   4.439   6.058  0.8368  0.2847  0.3764
 5649SOL     OW28408   0.991   4.281  13.132 -0.0093 -0.0807 -0.6137
 5649SOL    HW128409   1.000   4.354  13.072  0.4212  1.9478  1.9081
 5649SOL    HW228410   1.080   4.267  13.165 -0.6083  1.0338  1.4621
 5650SOL     OW28411   0.241   4.305  11.010  0.6235  0.1217  0.2709
 5650SOL    HW128412   0.244   4.295  11.105  1.3711 -0.6174  0.1683
 5650SOL    HW228413   0.185   4.229  10.992 -0.4543  0.1279  3.4843
 5651SOL     OW28414   2.144   3.814  15.249  0.1983  0.2179 -0.0287
 5651SOL    HW128415   2.176   3.734  15.291  0.7518  0.3800 -0.1378
 5651SOL    HW228416   2.140   3.886  15.312 -0.5750 -1.3863  1.7554
 5652SOL     OW28417   1.512   2.731  13.697  0.2042  0.0704 -0.2580
 5652SOL    HW128418   1.529   2.790  13.624 -1.8988  0.7583 -0.1876
 5652SOL    HW228419   1.467   2.662  13.649  0.1302  0.4191 -0.6856
 5653SOL     OW28420   3.011   3.608   7.405 -0.3108 -0.1735  0.1952
 5653SOL    HW128421   2.925   3.604   7.446 -0.2657 -2.5122  0.0304
 5653SOL    HW228422   3.014   3.702   7.384  0.7617  0.2284  2.1188
 5654SOL     OW28423   0.002   3.988   8.618  0.1485 -0.2146 -0.0485
 5654SOL    HW128424   0.067   3.938   8.569  0.8762  3.1094 -2.4660
 5654SOL    HW228425   0.025   4.080   8.605  2.6562 -1.0624 -1.4989
 5655SOL     OW28426   4.520   0.728   5.412  0.7167  0.0969  0.1470
 5655SOL    HW128427   4.425   0.741   5.420  0.7599  0.4316  0.1066
 5655SOL    HW228428   4.511   0.658   5.478  0.9941 -1.0256 -1.0030
 5656SOL     OW28429   3.997   3.439   6.112 -0.1190  0.2104 -0.0285
 5656SOL    HW128430   3.905   3.413   6.113  0.6316 -2.4112  0.0800
 5656SOL    HW228431   3.988   3.496   6.189  1.6115  0.0759  0.2895
 5657SOL     OW28432   3.953   3.461   8.561  1.0758  0.0592 -0.1483
 5657SOL    HW128433   3.925   3.371   8.576 -0.0360  0.2819 -0.9595
 5657SOL    HW228434   3.876   3.510   8.532  0.5502 -0.1945  0.8077
 5658SOL     OW28435   3.507   2.904   2.626 -0.0666 -0.3100  0.2074
 5658SOL    HW128436   3.457   2.975   2.584 -1.5906 -1.0227  0.8361
 5658SOL    HW228437   3.559   2.965   2.679 -0.5949  1.0094 -0.7914
 5659SOL     OW28438   0.947   2.294   8.223  0.1191  0.3296 -0.7813
 5659SOL    HW128439   0.985   2.273   8.308  1.2941 -1.8698 -1.8406
 5659SOL    HW228440   0.895   2.370   8.249  1.0975  0.5717  0.4485
 5660SOL     OW28441   2.303   4.474   4.235 -0.3033 -0.7671 -0.2258
 5660SOL    HW128442   2.209   4.460   4.245 -0.2950 -1.3590 -0.9779
 5660SOL    HW228443   2.314   4.558   4.280  1.4763 -0.4934 -1.1732
 5661SOL     OW28444   1.645   0.420   8.315  0.1877  0.0971 -0.7952
 5661SOL    HW128445   1.739   0.405   8.302  0.4769 -0.3116  1.7652
 5661SOL    HW228446   1.641   0.473   8.394 -1.5550  2.8204 -2.7065
 5662SOL     OW28447   3.396   2.222   5.924 -0.5084 -0.2976  0.2034
 5662SOL    HW128448   3.432   2.307   5.949 -0.8158 -0.7128  2.0190
 5662SOL    HW228449   3.471   2.177   5.965 -1.4812 -0.1492  2.1441
 5663SOL     OW28450   2.444   2.247   8.040 -0.2821 -0.2506 -0.6421
 5663SOL    HW128451   2.513   2.241   8.106  1.5255 -2.8174 -2.7798
 5663SOL    HW228452   2.433   2.339   8.015 -1.0138  0.0429  0.8035
 5664SOL     OW28453   4.587   4.348   9.660 -0.5543 -0.0730  0.3348
 5664SOL    HW128454   4.568   4.254   9.665  1.7546 -0.4986  1.0357
 5664SOL    HW228455   4.502   4.393   9.665 -1.5564 -1.8411 -0.6827
 5665SOL     OW28456   3.122   2.288   4.733 -0.0312 -0.4630  0.1395
 5665SOL    HW128457   3.029   2.291   4.711  0.0286 -0.6825 -0.1365
 5665SOL    HW228458   3.117   2.318   4.824  2.5221 -3.1842  1.1491
 5666SOL     OW28459   1.545   4.108   0.204  0.2105 -0.3243  0.3116
 5666SOL    HW128460   1.476   4.148   0.151 -0.0464  0.8978  1.5728
 5666SOL    HW228461   1.599   4.075   0.132  0.1710  0.5109 -0.1044
 5667SOL     OW28462   0.804   0.888   9.301  0.0894  0.0181  0.0998
 5667SOL    HW128463   0.839   0.832   9.369 -0.7238  1.6504  1.8619
 5667SOL    HW228464   0.730   0.940   9.333  0.4074  0.3254  0.3295
 5668SOL     OW28465   3.560   2.111   4.919 -0.3735  0.1750 -0.2285
 5668SOL    HW128466   3.486   2.061   4.884  1.3805 -2.1666 -0.6401
 5668SOL    HW228467   3.555   2.183   4.856  1.2961  1.7326  1.4550
 5669SOL     OW28468   1.279   2.434   3.692 -0.6793  0.4657 -0.0378
 5669SOL    HW128469   1.296   2.343   3.714  4.7489  1.0832 -1.6950
 5669SOL    HW228470   1.191   2.424   3.656  0.6304 -1.5209 -2.6632
 5670SOL     OW28471   2.247   3.409   3.057  0.7092  0.5660  0.1015
 5670SOL    HW128472   2.196   3.489   3.049  0.8713  0.4097 -2.4979
 5670SOL    HW228473   2.178   3.342   3.049  0.5004  1.0427 -1.9032
 5671SOL     OW28474   2.792   3.970   5.703 -0.7462 -0.1543 -0.4478
 5671SOL    HW128475   2.735   3.927   5.767  1.0683 -1.2068  0.4744
 5671SOL    HW228476   2.740   3.956   5.624 -1.2454 -0.8984  0.0102
 5672SOL     OW28477   3.422   1.629   3.197  0.1413 -0.2486 -0.0458
 5672SOL    HW128478   3.331   1.651   3.177  0.5296  1.1234 -0.2934
 5672SOL    HW228479   3.404   1.624   3.291  0.8449  1.1568  0.1665
 5673SOL     OW28480   2.232   2.559   7.473  0.6208  0.3635  0.3171
 5673SOL    HW128481   2.250   2.519   7.558  1.9852 -0.9214 -0.5577
 5673SOL    HW228482   2.174   2.494   7.432 -0.8934  0.7864  1.8163
 5674SOL     OW28483   4.480   4.429  10.690 -0.9168 -0.2205  0.1489
 5674SOL    HW128484   4.513   4.351  10.735  0.6810 -0.1514 -0.9388
 5674SOL    HW228485   4.385   4.423  10.702 -1.0445  2.4348  0.2944
 5675SOL     OW28486   3.466   3.642   2.210 -0.2851 -0.0846 -0.1955
 5675SOL    HW128487   3.431   3.659   2.122  0.5207  1.2544 -0.2683
 5675SOL    HW228488   3.402   3.572   2.226  0.5558 -0.8218 -0.0808
 5676SOL     OW28489   2.723   2.430   7.910  0.0404 -0.1653 -0.3394
 5676SOL    HW128490   2.747   2.447   8.001 -1.7932  0.4144  0.0476
 5676SOL    HW228491   2.628   2.440   7.923  0.1891 -0.5022  1.0542
 5677SOL     OW28492   0.295   1.289   2.038 -0.4656 -0.1808 -0.3544
 5677SOL    HW128493   0.269   1.364   1.984 -2.5414 -0.7269 -0.1062
 5677SOL    HW228494   0.222   1.232   2.014 -0.6564 -1.2590  2.9033
 5678SOL     OW28495   3.239   2.831   6.947  0.4079 -0.7127 -0.0239
 5678SOL    HW128496   3.243   2.754   7.004 -0.2509  1.5281  3.0979
 5678SOL    HW228497   3.321   2.845   6.901 -0.1968 -1.1120 -1.2135
 5679SOL     OW28498   2.072   0.184   2.912 -0.0305 -0.3025 -0.1551
 5679SOL    HW128499   2.046   0.207   2.823  0.2201 -0.2557 -0.2137
 5679SOL    HW228500   1.983   0.174   2.947 -0.1973  1.5717 -0.0458
 5680SOL     OW28501   1.408   2.597  12.935  0.0145 -0.0393  0.3437
 5680SOL    HW128502   1.331   2.550  12.967 -0.1253 -1.9159 -2.6811
 5680SOL    HW228503   1.477   2.542  12.971  0.1610  0.9129  1.4833
 5681SOL     OW28504   0.348   4.604   8.293 -0.0581  0.1871 -0.2245
 5681SOL    HW128505   0.337   4.653   8.211 -1.2960  0.7648  0.2854
 5681SOL    HW228506   0.281   4.638   8.352 -0.8576  0.1599 -1.1098
 5682SOL     OW28507   1.172   0.024   9.123 -0.3451 -0.2927  0.4615
 5682SOL    HW128508   1.176   0.114   9.154  2.5480  0.1780 -1.2731
 5682SOL    HW228509   1.098   0.039   9.065 -0.3329 -1.8475  0.0397
 5683SOL     OW28510   3.982   1.957  10.191  0.3435  0.0448 -0.1401
 5683SOL    HW128511   3.925   1.930  10.262 -0.2077 -2.1016 -1.4210
 5683SOL    HW228512   4.035   1.881  10.169 -0.5331 -0.3377 -0.9412
 5684SOL     OW28513   0.619   1.526   8.793 -0.1619  0.1411  0.1084
 5684SOL    HW128514   0.560   1.574   8.850  0.1034  0.9235 -0.2737
 5684SOL    HW228515   0.700   1.571   8.816  0.1821 -0.3787 -0.0617
 5685SOL     OW28516   3.495   3.087   8.595 -0.8790  0.1244 -0.0726
 5685SOL    HW128517   3.431   3.159   8.593 -0.8115  0.2745  3.1695
 5685SOL    HW228518   3.502   3.077   8.690 -3.7084 -1.9026 -0.0739
 5686SOL     OW28519   3.880   4.721  14.246  0.2191 -0.3146 -0.0374
 5686SOL    HW128520   3.930   4.676  14.178 -0.8357 -0.5926 -0.6250
 5686SOL    HW228521   3.805   4.662  14.247 -0.5568  0.6907 -0.1958
 5687SOL     OW28522   1.063   1.468  11.907  0.4375 -0.3142 -0.0957
 5687SOL    HW128523   0.980   1.488  11.863  1.8479  1.0823 -2.1258
 5687SOL    HW228524   1.028   1.452  11.995 -1.1552  0.6848 -0.5372
 5688SOL     OW28525   2.542   3.588   4.655 -0.3622 -0.1990  0.1229
 5688SOL    HW128526   2.499   3.513   4.697  2.1357 -1.9270 -0.4315
 5688SOL    HW228527   2.480   3.630   4.596  1.9435  0.4353 -1.8362
 5689SOL     OW28528   0.842   2.043  11.235 -0.0850  0.3405 -0.0031
 5689SOL    HW128529   0.763   2.020  11.185  0.4096 -1.0819 -0.1436
 5689SOL    HW228530   0.848   2.133  11.202  1.2674  1.0032  2.1355
 5690SOL     OW28531   1.953   2.574   7.307 -0.3498  0.0849  0.3407
 5690SOL    HW128532   1.953   2.661   7.346 -0.7183  0.3438 -0.2306
 5690SOL    HW228533   1.865   2.563   7.270 -0.9986 -0.3108  2.0300
 5691SOL     OW28534   1.950   4.085   7.011 -0.1142 -0.2291  0.0412
 5691SOL    HW128535   1.980   4.105   7.099  0.3044 -1.1455  0.1142
 5691SOL    HW228536   2.003   4.124   6.941 -1.5648 -0.8459 -1.3916
 5692SOL     OW28537   1.462   2.767   7.101 -0.4263  0.0906  0.0347
 5692SOL    HW128538   1.549   2.800   7.122 -0.8109 -0.0434  1.8637
 5692SOL    HW228539   1.418   2.845   7.067 -2.1776 -0.2265  1.5568
 5693SOL     OW28540   2.275   4.555   8.672  1.0402  0.3756 -0.1521
 5693SOL    HW128541   2.352   4.502   8.694  1.7679  0.9245 -1.3256
 5693SOL    HW228542   2.288   4.635   8.722  1.1603  0.2469  0.0206
 5694SOL     OW28543   2.310   0.958   3.236  0.5224  0.4342  0.6024
 5694SOL    HW128544   2.397   0.919   3.226 -0.4816 -1.5683 -0.2614
 5694SOL    HW228545   2.299   0.988   3.146  0.3883 -0.7913  0.2101
 5695SOL     OW28546   3.104   3.931   7.587  0.2163  0.3100 -0.3817
 5695SOL    HW128547   3.114   4.016   7.630 -0.7067 -0.5089  1.4482
 5695SOL    HW228548   3.026   3.946   7.533 -1.1125  1.1805  1.7671
 5696SOL     OW28549   4.129   0.965   3.305 -0.0088 -0.1843 -0.6849
 5696SOL    HW128550   4.205   0.959   3.247 -1.0697  2.2883 -2.3339
 5696SOL    HW228551   4.109   0.872   3.315 -0.7846  0.0757  0.2242
 5697SOL     OW28552   2.246   0.993   2.790 -0.3639 -0.5366  0.1835
 5697SOL    HW128553   2.166   0.978   2.741 -0.9382 -1.2886  1.3533
 5697SOL    HW228554   2.307   0.986   2.717  0.0244 -1.7163  0.6250
 5698SOL     OW28555   2.240   1.551   4.612 -0.2949 -0.6108 -0.0250
 5698SOL    HW128556   2.203   1.561   4.700 -1.6077 -2.2581 -0.3771
 5698SOL    HW228557   2.249   1.455   4.613  2.5230 -0.2976  1.2008
 5699SOL     OW28558   3.387   1.594   2.575  0.5195 -0.1991  0.1724
 5699SOL    HW128559   3.420   1.520   2.524  1.3108 -0.8917  1.7079
 5699SOL    HW228560   3.375   1.660   2.507  1.4888  0.0438  0.2355
 5700SOL     OW28561   1.950   0.563   2.793  0.0017 -0.0689  0.2853
 5700SOL    HW128562   2.037   0.529   2.814 -0.0645 -0.2789  0.2192
 5700SOL    HW228563   1.966   0.647   2.836 -0.7353 -0.1500  0.7116
 5701SOL     OW28564   1.685   1.269   8.944  0.3648  0.3164 -0.1265
 5701SOL    HW128565   1.677   1.262   8.849  0.4418  0.3442 -0.1349
 5701SOL    HW228566   1.645   1.355   8.951  1.0760  0.7197 -1.1812
 5702SOL     OW28567   2.637   1.474   9.327  0.6031  0.0818  0.2914
 5702SOL    HW128568   2.671   1.420   9.255 -0.2777 -0.6897  0.4486
 5702SOL    HW228569   2.703   1.459   9.395  1.4904  0.3808 -0.4916
 5703SOL     OW28570   4.700   3.864   6.482  1.0453  0.0706 -0.2054
 5703SOL    HW128571   0.022   3.812   6.416 -3.3753 -1.0173 -2.3092
 5703SOL    HW228572   4.719   3.815   6.562 -1.7001  0.7336  0.8746
 5704SOL     OW28573   1.119   2.873   2.303 -0.0254 -0.1707  0.2504
 5704SOL    HW128574   1.059   2.802   2.280  1.7812 -1.8687  0.7355
 5704SOL    HW228575   1.182   2.876   2.230  1.0503 -1.0761  1.1495
 5705SOL     OW28576   2.643   1.029  10.021 -0.0622  0.3621 -0.4598
 5705SOL    HW128577   2.582   1.100  10.003 -1.5699 -0.4040  1.5828
 5705SOL    HW228578   2.578   0.968  10.057  0.7861  0.6663  1.6341
 5706SOL     OW28579   3.991   4.547  10.411 -0.3869 -0.1040 -0.0231
 5706SOL    HW128580   4.080   4.516  10.428 -0.2270 -0.2089 -1.0962
 5706SOL    HW228581   4.008   4.641  10.416  0.1360 -0.2365  0.7499
 5707SOL     OW28582   0.954   4.293  15.645  0.1568 -0.1845 -1.0335
 5707SOL    HW128583   0.896   4.334  15.710 -0.2597 -0.7815 -1.0268
 5707SOL    HW228584   1.039   4.310  15.683 -0.9484  0.3595  1.1790
 5708SOL     OW28585   4.085   0.617   1.131 -0.0797 -0.2131  0.1211
 5708SOL    HW128586   4.082   0.697   1.078 -1.6568  1.0667  2.1513
 5708SOL    HW228587   4.020   0.640   1.197 -1.4809 -0.1146 -1.2843
 5709SOL     OW28588   4.215   3.531   0.880  0.0301 -0.0299  0.1127
 5709SOL    HW128589   4.164   3.565   0.806 -1.1076  0.6092  1.1738
 5709SOL    HW228590   4.155   3.557   0.950  0.6351 -0.6263  0.8424
 5710SOL     OW28591   0.336   1.416   6.301  0.3025 -0.0864  0.0855
 5710SOL    HW128592   0.404   1.446   6.362 -0.2467  1.1615  0.0679
 5710SOL    HW228593   0.260   1.453   6.345 -0.4580 -0.0180 -1.2734
 5711SOL     OW28594   0.743   1.132   6.957  0.0210  0.3317 -0.0230
 5711SOL    HW128595   0.673   1.192   6.930 -0.7008 -0.6577 -0.3175
 5711SOL    HW228596   0.770   1.101   6.871  1.3071  0.5185  0.3197
 5712SOL     OW28597   1.547   1.151   0.855 -0.1455 -0.5322 -0.0161
 5712SOL    HW128598   1.542   1.057   0.837 -0.0796 -0.6371  0.5238
 5712SOL    HW228599   1.612   1.149   0.925  0.5100 -3.4068 -0.6711
 5713SOL     OW28600   1.023   0.629  15.523 -0.0846 -0.7799 -0.3892
 5713SOL    HW128601   0.952   0.626  15.459  0.3847  0.4008 -0.9696
 5713SOL    HW228602   0.986   0.668  15.602 -0.7934 -2.2997  0.0158
 5714SOL     OW28603   1.393   0.638   7.184  0.5399  0.3660 -0.1539
 5714SOL    HW128604   1.406   0.681   7.268 -1.8580  0.2355  0.2772
 5714SOL    HW228605   1.480   0.600   7.169 -0.6977 -2.2017 -0.7242
 5715SOL     OW28606   4.357   2.729   3.814 -0.4296 -0.2750 -0.3059
 5715SOL    HW128607   4.344   2.792   3.744 -0.1682 -0.1248 -0.2188
 5715SOL    HW228608   4.330   2.645   3.776 -0.8487  0.2152 -1.0718
 5716SOL     OW28609   4.211   1.303   3.376  0.0395  0.4517  0.0295
 5716SOL    HW128610   4.175   1.292   3.288 -1.7825  0.4540  0.7696
 5716SOL    HW228611   4.243   1.392   3.358 -2.1082  1.4590  1.1185
 5717SOL     OW28612   1.477   2.046   7.942  0.3357 -0.1065  0.3208
 5717SOL    HW128613   1.384   2.044   7.966  0.0506 -1.3406 -0.9234
 5717SOL    HW228614   1.484   2.133   7.903 -4.6611  0.8669  1.6486
 5718SOL     OW28615   0.356   1.279   7.554 -0.1315  0.0411  0.0051
 5718SOL    HW128616   0.327   1.192   7.582 -2.5342  1.0283  0.5529
 5718SOL    HW228617   0.419   1.304   7.621 -0.1891 -1.0028  0.4417
 5719SOL     OW28618   3.826   2.717   6.084  0.3055 -0.8535  0.3306
 5719SOL    HW128619   3.795   2.662   6.011 -1.1346  1.4457 -0.7893
 5719SOL    HW228620   3.809   2.807   6.056  0.9103 -1.1850 -1.0884
 5720SOL     OW28621   0.928   4.301   7.416  0.4156  0.4381 -0.1678
 5720SOL    HW128622   0.871   4.232   7.383 -0.5272  1.4868 -0.7203
 5720SOL    HW228623   0.995   4.299   7.348  0.1158 -1.0435 -0.4096
 5721SOL     OW28624   1.206   0.569   4.513  0.4891 -0.8787  0.0945
 5721SOL    HW128625   1.128   0.617   4.540  1.5115  1.3087 -0.8218
 5721SOL    HW228626   1.265   0.629   4.468  2.1000 -2.6495 -0.1588
 5722SOL     OW28627   0.450   4.639  11.487 -0.1355 -0.1377 -0.0084
 5722SOL    HW128628   0.506   4.706  11.448  0.6504  0.8711  2.8177
 5722SOL    HW228629   0.458   4.665  11.579  1.6310 -1.8031  0.2865
 5723SOL     OW28630   2.217   0.210  13.079 -0.0269 -0.5455 -0.5248
 5723SOL    HW128631   2.171   0.239  13.158  2.3122  1.9878 -0.0847
 5723SOL    HW228632   2.200   0.118  13.098 -1.9673 -0.1779 -0.4525
 5724SOL     OW28633   2.347   0.985   9.153  0.0482 -0.3501  0.2119
 5724SOL    HW128634   2.433   1.025   9.139  0.6279 -1.0322  1.7973
 5724SOL    HW228635   2.295   1.064   9.140  1.2673  0.1175 -1.7970
 5725SOL     OW28636   1.450   1.686   3.115  0.2188  0.8270  0.2430
 5725SOL    HW128637   1.452   1.718   3.205 -0.9273  0.0448  0.5521
 5725SOL    HW228638   1.526   1.627   3.115  0.0297  0.5728  1.5242
 5726SOL     OW28639   4.583   4.511   3.880  0.0096 -0.1339 -0.3199
 5726SOL    HW128640   4.646   4.567   3.925 -0.8602  1.4773 -1.1128
 5726SOL    HW228641   4.625   4.425   3.880  0.6736  0.1880  0.9740
 5727SOL     OW28642   3.321   3.246   1.363  0.2432 -0.2365  1.2255
 5727SOL    HW128643   3.265   3.169   1.350  0.0975 -0.2918  2.1325
 5727SOL    HW228644   3.268   3.290   1.430  2.8449  3.5138  0.7844
 5728SOL     OW28645   2.306   0.307   4.756  0.3913 -0.4181  0.1268
 5728SOL    HW128646   2.318   0.313   4.850 -1.0344  2.0775  0.1506
 5728SOL    HW228647   2.213   0.289   4.739  0.0316 -0.3735  2.1391
 5729SOL     OW28648   2.975   2.330   2.542  0.4046 -0.0154  0.4348
 5729SOL    HW128649   3.036   2.403   2.544  0.2392  0.1492 -0.4231
 5729SOL    HW228650   3.032   2.253   2.533 -0.7998 -0.6856 -1.4362
 5730SOL     OW28651   4.682   4.563   5.567 -0.2219 -0.4863  0.2671
 5730SOL    HW128652   0.032   4.577   5.628 -1.4328  0.4479  1.4781
 5730SOL    HW228653   4.697   4.473   5.537  2.4988 -0.7075  2.2964
 5731SOL     OW28654   2.071   2.595   6.472  0.2034  0.5451  0.0582
 5731SOL    HW128655   2.116   2.567   6.552 -0.9932  1.3810  1.0275
 5731SOL    HW228656   2.019   2.515   6.463 -1.0658  1.6149 -2.0647
 5732SOL     OW28657   1.061   4.426   9.670  0.3879 -0.0461 -0.4328
 5732SOL    HW128658   0.974   4.416   9.707  0.9814  1.2419  1.3036
 5732SOL    HW228659   1.117   4.413   9.747 -1.4344 -1.1407  0.6949
 5733SOL     OW28660   3.796   2.472   5.885  0.2368 -0.2253 -0.1025
 5733SOL    HW128661   3.841   2.395   5.921 -0.3061 -1.1259 -1.3458
 5733SOL    HW228662   3.867   2.503   5.830 -1.6966  3.1690 -0.6565
 5734SOL     OW28663   3.132   2.419  17.413  0.4671 -0.1207 -0.3253
 5734SOL    HW128664   3.178   2.345  17.452  0.8781  0.3869  0.1509
 5734SOL    HW228665   3.190   2.488  17.446  0.5338  0.2230 -1.1517
 5735SOL     OW28666   2.711   3.172   6.088  0.3619  0.1556 -0.2661
 5735SOL    HW128667   2.646   3.172   6.018  0.1271 -3.5233  0.0037
 5735SOL    HW228668   2.651   3.175   6.162 -0.1422 -1.4055 -0.6136
 5736SOL     OW28669   4.693   3.003   4.757 -0.1961 -0.3860  0.0050
 5736SOL    HW128670   4.706   3.010   4.662 -1.5352 -0.9860 -0.2270
 5736SOL    HW228671   4.611   2.954   4.755  0.0476 -0.8570  1.6740
 5737SOL     OW28672   3.020   1.007   3.630 -0.5509 -0.1514  0.0592
 5737SOL    HW128673   3.051   0.917   3.642  1.3166  0.4092 -0.5179
 5737SOL    HW228674   3.066   1.025   3.548  0.4040 -0.2864  0.5634
 5738SOL     OW28675   3.365   2.902  10.991  0.8851  0.0942 -0.2122
 5738SOL    HW128676   3.408   2.843  11.054 -1.5962 -2.7311 -1.1882
 5738SOL    HW228677   3.371   2.985  11.039  2.0031 -1.6109  2.5828
 5739SOL     OW28678   2.809   3.503   9.105 -0.3735  0.2655 -0.2494
 5739SOL    HW128679   2.898   3.536   9.102 -0.0313 -0.5073  1.4017
 5739SOL    HW228680   2.828   3.422   9.057 -0.9141 -0.2267  0.3604
 5740SOL     OW28681   2.771   2.583   0.064  0.6359  0.2818  0.0494
 5740SOL    HW128682   2.849   2.544   0.102 -0.1541 -3.6870 -2.4519
 5740SOL    HW228683   2.697   2.523   0.069  0.3892  0.4856 -1.2671
 5741SOL     OW28684   0.793   0.612  11.274 -0.5134 -0.4055 -0.0951
 5741SOL    HW128685   0.795   0.657  11.190 -1.4649  0.0889  0.1557
 5741SOL    HW228686   0.714   0.559  11.259 -1.1846  0.1800  1.3674
 5742SOL     OW28687   4.099   0.905   5.628 -0.3970 -0.4327  0.1890
 5742SOL    HW128688   4.107   0.935   5.718  1.6784  2.1238 -0.8753
 5742SOL    HW228689   4.004   0.901   5.613 -0.2944 -2.3425  0.0692
 5743SOL     OW28690   1.536   1.474   6.011  0.1271 -0.6072 -0.5527
 5743SOL    HW128691   1.543   1.401   6.072 -0.9303  1.8156  2.5303
 5743SOL    HW228692   1.545   1.546   6.074  2.4971 -0.7412 -0.7570
 5744SOL     OW28693   3.748   1.400  12.749  0.0418 -0.1834  0.2912
 5744SOL    HW128694   3.732   1.319  12.700  3.0487 -0.3982 -0.3314
 5744SOL    HW228695   3.740   1.384  12.843  1.0830 -1.1939  0.2098
 5745SOL     OW28696   1.343   4.047   2.638 -0.4676 -0.0153  0.0402
 5745SOL    HW128697   1.392   4.016   2.561 -0.3682 -1.6319  0.7694
 5745SOL    HW228698   1.311   4.135   2.614 -1.2219 -0.6700 -1.3682
 5746SOL     OW28699   2.260   1.121   1.065  1.0399 -0.3849  0.4651
 5746SOL    HW128700   2.350   1.094   1.081  1.8702  1.7980 -0.4632
 5746SOL    HW228701   2.223   1.034   1.051 -2.0819  0.8266  1.1596
 5747SOL     OW28702   3.062   4.699   6.852 -0.4314  0.2144  0.5511
 5747SOL    HW128703   3.027   4.622   6.807  0.1888  0.4588 -0.3439
 5747SOL    HW228704   2.990   4.697   6.915 -1.1856 -0.4591 -0.3414
 5748SOL     OW28705   3.830   0.741  14.999 -0.1319  0.3629  0.0291
 5748SOL    HW128706   3.829   0.836  14.989  1.2032  0.4693  0.8652
 5748SOL    HW228707   3.882   0.738  15.079 -1.3252  0.2156  0.8006
 5749SOL     OW28708   1.498   1.302   6.210 -0.1232  0.3346 -0.0359
 5749SOL    HW128709   1.423   1.347   6.251 -0.4488  1.4677 -1.8704
 5749SOL    HW228710   1.492   1.210   6.234  0.3232  0.1453 -0.6441
 5750SOL     OW28711   0.181   1.085  17.422  0.0065  0.0063 -0.2823
 5750SOL    HW128712   0.162   0.994  17.445  1.6437 -0.4291 -0.6886
 5750SOL    HW228713   0.098   1.121  17.390  0.6646  0.9325 -0.9337
 5751SOL     OW28714   2.332   1.092   8.848 -0.2106 -0.0494 -0.3064
 5751SOL    HW128715   2.239   1.087   8.869  0.1682 -0.5078  1.2900
 5751SOL    HW228716   2.361   1.006   8.878 -2.8731 -0.4679  1.1131
 5752SOL     OW28717   2.196   3.432   7.483 -0.3438  0.0416  0.1896
 5752SOL    HW128718   2.251   3.475   7.418 -0.4543  1.7657  1.2395
 5752SOL    HW228719   2.236   3.462   7.564  2.9518  5.0379 -3.3079
 5753SOL     OW28720   1.380   1.033  13.019  0.3667 -0.3437  0.0688
 5753SOL    HW128721   1.338   1.091  13.083  1.6509  1.4231 -0.7030
 5753SOL    HW228722   1.377   1.099  12.950  0.9205  0.0754  0.4475
 5754SOL     OW28723   3.239   2.391   7.507 -0.1525 -0.6549 -0.2291
 5754SOL    HW128724   3.281   2.472   7.536  0.6128 -1.4763  0.9622
 5754SOL    HW228725   3.248   2.402   7.413  0.5876 -1.5829 -0.2696
 5755SOL     OW28726   4.043   2.904   1.722 -0.4660  0.3009  0.0190
 5755SOL    HW128727   4.073   2.814   1.736  1.0398  0.3603 -2.8007
 5755SOL    HW228728   3.998   2.931   1.802 -2.5731 -1.0428 -0.7169
 5756SOL     OW28729   4.330   0.450   6.837 -0.0424  0.0477 -0.1182
 5756SOL    HW128730   4.296   0.435   6.749 -0.0199 -2.8246  0.3672
 5756SOL    HW228731   4.413   0.490   6.811 -0.2836  0.4912 -0.2074
 5757SOL     OW28732   1.145   0.898   1.867 -0.2521 -0.3694 -0.0274
 5757SOL    HW128733   1.177   0.835   1.932  2.1689  1.2953  0.3763
 5757SOL    HW228734   1.211   0.966   1.874  0.8356 -1.4220  0.0166
 5758SOL     OW28735   3.461   4.394  14.151 -0.1771 -0.4082 -0.3920
 5758SOL    HW128736   3.380   4.426  14.110 -0.4826 -2.1942 -1.1720
 5758SOL    HW228737   3.421   4.362  14.232 -1.4072 -0.6277 -1.0828
 5759SOL     OW28738   3.419   2.403  15.618 -0.0315 -0.2116  0.6844
 5759SOL    HW128739   3.496   2.373  15.666 -0.4203  0.1898  1.5664
 5759SOL    HW228740   3.350   2.372  15.677  0.4166  0.7202  1.6974
 5760SOL     OW28741   1.815   3.811   2.118  0.3084 -0.2746  0.2283
 5760SOL    HW128742   1.884   3.756   2.081  0.3864 -0.8039  1.1720
 5760SOL    HW228743   1.805   3.881   2.053 -0.5724  0.3146  0.9972
 5761SOL     OW28744   2.357   2.187   4.501  0.3005 -0.6235 -0.4858
 5761SOL    HW128745   2.432   2.199   4.559 -0.6731 -1.7166  1.0116
 5761SOL    HW228746   2.360   2.091   4.499  0.8479 -0.6152  0.1526
 5762SOL     OW28747   0.924   1.841   4.241  0.0198  0.3608  0.3769
 5762SOL    HW128748   0.894   1.931   4.251 -2.8485 -0.7802  2.1569
 5762SOL    HW228749   0.843   1.792   4.222  1.1064 -1.6624  1.0155
 5763SOL     OW28750   2.507   2.364  15.656 -0.8572 -0.0042  0.1549
 5763SOL    HW128751   2.454   2.406  15.588 -0.5585  0.8084  0.4224
 5763SOL    HW228752   2.464   2.279  15.666 -1.5754  0.2443 -0.8663
 5764SOL     OW28753   2.841   0.142   9.390 -0.1333  0.0926  0.5485
 5764SOL    HW128754   2.920   0.089   9.387 -1.4936 -1.7085 -3.2648
 5764SOL    HW228755   2.880   0.230   9.394  0.3931 -0.1391  0.4834
 5765SOL     OW28756   2.518   3.706   9.437 -0.1289 -0.3403 -0.1425
 5765SOL    HW128757   2.510   3.726   9.343  0.2282  2.6257  0.4561
 5765SOL    HW228758   2.519   3.793   9.475 -1.2878 -0.1200 -0.6170
 5766SOL     OW28759   3.514   3.515   8.778 -0.5284 -0.2276 -0.2068
 5766SOL    HW128760   3.572   3.577   8.736  0.7019 -1.5995 -0.5287
 5766SOL    HW228761   3.574   3.478   8.843 -0.6952  0.3290  0.2701
 5767SOL     OW28762   4.018   0.047  17.346  0.2372  0.5365 -0.7525
 5767SOL    HW128763   4.055   4.712  17.413 -0.5351  0.6538 -0.2266
 5767SOL    HW228764   4.094   0.101  17.324  0.3198  0.5308 -0.4860
 5768SOL     OW28765   1.816   1.496   6.395  0.8806  0.7850  0.1185
 5768SOL    HW128766   1.901   1.542   6.391  0.4726  1.4626 -0.8838
 5768SOL    HW228767   1.756   1.569   6.406 -0.1408  0.2263 -1.8425
 5769SOL     OW28768   3.217   4.690   7.169  0.2994 -0.1282  0.3112
 5769SOL    HW128769   3.220   4.642   7.086 -0.8792 -1.1161  0.8418
 5769SOL    HW228770   3.129   4.663   7.193  1.2193 -1.2585  2.3846
 5770SOL     OW28771   0.262   1.007   9.543 -0.2948  0.1946 -0.0985
 5770SOL    HW128772   0.245   0.980   9.633 -0.4119  0.8132  0.0618
 5770SOL    HW228773   0.174   1.036   9.519 -0.1515  0.6623 -0.0463
 5771SOL     OW28774   1.828   0.595   5.100 -0.5426  0.0648  0.4656
 5771SOL    HW128775   1.748   0.565   5.057 -0.9550  1.0748  0.5274
 5771SOL    HW228776   1.780   0.655   5.158 -0.7956  2.0870 -1.8364
 5772SOL     OW28777   1.965   2.967   3.352  0.4513  0.3800 -0.3769
 5772SOL    HW128778   1.978   2.936   3.263 -0.2463 -0.5449 -0.1517
 5772SOL    HW228779   2.031   2.925   3.408 -1.4888 -2.0199  0.0966
 5773SOL     OW28780   2.978   1.638   7.232  0.1384  0.5724  0.1100
 5773SOL    HW128781   2.891   1.600   7.246  0.2014  0.0427 -0.9346
 5773SOL    HW228782   2.994   1.592   7.149 -0.4699  2.8014 -1.2355
 5774SOL     OW28783   1.707   1.469   7.065  0.3648  0.0086 -0.2006
 5774SOL    HW128784   1.655   1.549   7.062  0.8504  0.2922 -1.0520
 5774SOL    HW228785   1.698   1.453   7.159  1.0366 -1.3095 -0.3654
 5775SOL     OW28786   2.860   1.958   0.665 -0.2435 -0.3244  0.7086
 5775SOL    HW128787   2.899   2.046   0.657  0.9825 -0.9060  0.3167
 5775SOL    HW228788   2.896   1.929   0.748  2.4989 -1.4673 -0.8945
 5776SOL     OW28789   2.075   2.234   6.217  0.4862  0.0675  0.3810
 5776SOL    HW128790   2.170   2.233   6.229  0.7847  0.3666 -2.0042
 5776SOL    HW228791   2.059   2.189   6.134  0.3515  1.3152 -0.2782
 5777SOL     OW28792   1.246   0.901   8.196 -0.0879 -0.0574  0.2325
 5777SOL    HW128793   1.307   0.914   8.269 -0.9368 -2.6276  1.3624
 5777SOL    HW228794   1.284   0.832   8.141  0.6890 -0.7989  1.7024
 5778SOL     OW28795   1.333   3.214   8.812  0.6913 -0.5424  0.1609
 5778SOL    HW128796   1.382   3.132   8.823  3.1573  0.5385 -2.7193
 5778SOL    HW228797   1.263   3.181   8.755  0.9582  0.7108 -0.8951
 5779SOL     OW28798   1.464   2.580   3.236  0.3138 -0.3632  0.4884
 5779SOL    HW128799   1.459   2.593   3.141 -0.0695  3.5791  1.0345
 5779SOL    HW228800   1.437   2.666   3.269 -0.1653 -0.6214  0.7564
 5780SOL     OW28801   1.212   3.095  10.288  0.8641  0.4480  0.3087
 5780SOL    HW128802   1.258   3.014  10.309  1.7894  0.6151 -1.0494
 5780SOL    HW228803   1.147   3.104  10.358 -0.4613  0.5753 -0.9328
 5781SOL     OW28804   0.174   0.250   6.531 -0.3714  0.2605  0.0478
 5781SOL    HW128805   0.202   0.163   6.500 -1.0213  0.1228 -0.1608
 5781SOL    HW228806   0.259   0.293   6.535  0.2828 -1.1450  1.4162
 5782SOL     OW28807   2.159   2.007  16.222  0.6735 -0.3601 -0.6801
 5782SOL    HW128808   2.134   1.919  16.251 -0.7698  1.6762  4.2528
 5782SOL    HW228809   2.251   1.991  16.203  1.3948  1.0388  1.5962
 5783SOL     OW28810   2.976   3.434   2.033  0.2122 -0.4543  0.0083
 5783SOL    HW128811   2.986   3.443   1.938 -0.7045 -1.6026 -0.1882
 5783SOL    HW228812   2.909   3.367   2.045  0.6871 -1.5609 -3.4197
 5784SOL     OW28813   2.310   4.652  10.176  0.1108 -0.4576 -0.0786
 5784SOL    HW128814   2.342   4.617  10.259  1.7009  0.9756 -0.1078
 5784SOL    HW228815   2.390   4.697  10.149 -1.2083  1.1329 -1.3552
 5785SOL     OW28816   2.609   3.191   7.919  0.5986 -0.5440 -0.2828
 5785SOL    HW128817   2.530   3.139   7.933 -0.7230  1.7624  0.8200
 5785SOL    HW228818   2.679   3.150   7.969  0.5133 -0.1169  0.1926
 5786SOL     OW28819   4.322   1.944   8.432  0.6841 -0.7692 -0.3424
 5786SOL    HW128820   4.375   1.868   8.455 -0.5361 -2.1544 -2.2140
 5786SOL    HW228821   4.346   2.007   8.501 -0.5601 -0.0731 -0.5453
 5787SOL     OW28822   4.038   3.922   4.628  0.2160  1.0409  0.0231
 5787SOL    HW128823   3.972   3.886   4.687  0.9978 -2.3454 -1.1965
 5787SOL    HW228824   4.109   3.949   4.686  1.3124  0.2419 -0.9484
 5788SOL     OW28825   2.935   4.643   3.262  0.1146 -0.5762  0.0739
 5788SOL    HW128826   3.014   4.629   3.209  0.0838 -0.4816  0.0032
 5788SOL    HW228827   2.890   4.559   3.255 -0.1302 -0.2329 -2.5881
 5789SOL     OW28828   2.293   0.969  10.750 -0.4113 -0.2400  0.2654
 5789SOL    HW128829   2.341   1.001  10.826 -0.1916  1.3480 -0.5470
 5789SOL    HW228830   2.286   0.874  10.763  1.1813 -0.0591  2.3829
 5790SOL     OW28831   2.444   1.888   0.448  1.0156 -0.8108  0.4604
 5790SOL    HW128832   2.406   1.969   0.480  1.0625 -1.3007  1.7857
 5790SOL    HW228833   2.535   1.910   0.432  0.5253  0.0350 -1.1486
 5791SOL     OW28834   1.376   2.572   0.572  0.2924  0.1904  0.1721
 5791SOL    HW128835   1.448   2.541   0.517  0.6933  0.5539  0.4957
 5791SOL    HW228836   1.308   2.550   0.508  1.4580 -0.1395 -0.9658
 5792SOL     OW28837   4.231   1.767   2.173  0.4973 -0.1667  0.0051
 5792SOL    HW128838   4.175   1.835   2.137  1.7119  0.0790 -1.4402
 5792SOL    HW228839   4.196   1.683   2.144  2.1425 -1.3572  1.3873
 5793SOL     OW28840   4.493   3.968   5.064  0.5774  0.0045  0.0742
 5793SOL    HW128841   4.585   3.996   5.069 -0.2390  2.5286  1.1452
 5793SOL    HW228842   4.462   4.031   4.998  2.3055 -2.0768 -2.7663
 5794SOL     OW28843   0.913   3.276   8.435  0.6242 -0.4416  0.5178
 5794SOL    HW128844   0.935   3.204   8.494 -0.8764 -1.2988  0.0323
 5794SOL    HW228845   0.989   3.334   8.443  1.6052 -1.8677  1.4792
 5795SOL     OW28846   2.986   4.317   8.304  0.1135 -0.4732  0.2617
 5795SOL    HW128847   3.058   4.353   8.253 -0.2413 -1.1447 -0.7102
 5795SOL    HW228848   2.923   4.388   8.307  0.2313 -0.3658  0.1892
 5796SOL     OW28849   0.189   2.005   8.298 -0.0709  0.1910  0.0659
 5796SOL    HW128850   0.121   1.943   8.321  1.1741 -1.2658 -0.1607
 5796SOL    HW228851   0.255   2.000   8.367 -1.1941  2.8674  1.3014
 5797SOL     OW28852   4.528   2.559   3.059  0.1395 -0.4595  0.1295
 5797SOL    HW128853   4.557   2.477   3.099 -0.8892 -0.3211  1.1550
 5797SOL    HW228854   4.545   2.542   2.967 -0.2093 -2.4972  0.4369
 5798SOL     OW28855   2.169   0.617  12.985 -0.4260  0.4307  0.5593
 5798SOL    HW128856   2.205   0.704  13.003 -1.1509  0.5436  1.4388
 5798SOL    HW228857   2.181   0.568  13.067 -0.9531 -0.3943  0.1355
 5799SOL     OW28858   1.193   1.695   1.184 -0.0406  0.1351  0.2587
 5799SOL    HW128859   1.245   1.774   1.171 -0.9377  0.8746  1.2030
 5799SOL    HW228860   1.198   1.653   1.097  2.3988  1.0977 -0.0713
 5800SOL     OW28861   0.957   2.070   3.107  0.0667 -0.5106  0.5904
 5800SOL    HW128862   0.987   2.095   3.194 -0.6694 -2.2986  1.3600
 5800SOL    HW228863   0.881   2.016   3.131 -0.6119  0.1713 -0.0163
 5801SOL     OW28864   3.625   1.178   1.300 -0.6949 -0.3515  0.0456
 5801SOL    HW128865   3.654   1.140   1.218 -0.4359  0.8069 -0.3938
 5801SOL    HW228866   3.601   1.096   1.343 -1.4194  0.1159  0.5412
 5802SOL     OW28867   4.194   2.772  10.254 -0.0481  0.0945  0.5544
 5802SOL    HW128868   4.252   2.835  10.296  0.9269 -1.2375  1.1943
 5802SOL    HW228869   4.127   2.834  10.224 -0.3680 -1.0550 -1.1082
 5803SOL     OW28870   2.062   4.417   7.332 -0.3396  0.3655  0.4153
 5803SOL    HW128871   2.061   4.322   7.325 -1.2400  0.3501  0.8060
 5803SOL    HW228872   1.979   4.437   7.376 -0.6353 -0.7144  0.3352
 5804SOL     OW28873   2.422   1.140   7.395  0.1534  1.0079  0.1088
 5804SOL    HW128874   2.429   1.220   7.343 -0.0034  1.2528  0.4656
 5804SOL    HW228875   2.507   1.102   7.371  0.4415  0.9622  1.2405
 5805SOL     OW28876   0.489   1.468   7.413  0.5158 -0.0485 -0.2840
 5805SOL    HW128877   0.465   1.538   7.474 -1.2417 -0.4053 -0.5676
 5805SOL    HW228878   0.436   1.395   7.446  3.1604 -1.6391  0.4829
 5806SOL     OW28879   0.198   2.298  11.152  0.0978  0.0462 -0.4112
 5806SOL    HW128880   0.232   2.368  11.096 -1.0806  0.4459 -0.6233
 5806SOL    HW228881   0.257   2.230  11.120 -0.6102 -1.2233  0.9657
 5807SOL     OW28882   4.440   2.134   7.152  0.6732  0.5750 -0.0349
 5807SOL    HW128883   4.413   2.183   7.230 -2.3281  1.5310 -1.6792
 5807SOL    HW228884   4.505   2.192   7.114  0.0005  1.4618  0.1630
 5808SOL     OW28885   2.640   1.369  10.880 -0.7296 -0.0042 -0.0882
 5808SOL    HW128886   2.673   1.359  10.969 -0.6962 -1.7791 -0.3108
 5808SOL    HW228887   2.592   1.289  10.860  1.2791 -0.9467 -1.1823
 5809SOL     OW28888   4.296   3.425   6.296  0.0245 -0.2058 -0.5713
 5809SOL    HW128889   4.300   3.499   6.357  0.9414 -0.5341 -0.2423
 5809SOL    HW228890   4.299   3.472   6.213 -1.4508 -0.3832 -0.7216
 5810SOL     OW28891   2.531   4.220  16.794  0.4634 -0.2779 -0.3422
 5810SOL    HW128892   2.561   4.148  16.739  0.0052 -1.1409  0.5488
 5810SOL    HW228893   2.465   4.263  16.740 -0.0488 -2.2611 -1.2707
 5811SOL     OW28894   1.227   4.195   5.316  0.4824 -0.0868  0.5339
 5811SOL    HW128895   1.262   4.266   5.262 -0.1760  0.6960  1.1284
 5811SOL    HW228896   1.196   4.135   5.248  0.6740 -0.4453  0.7606
 5812SOL     OW28897   3.116   0.241   5.535  0.0785 -0.5440 -0.2680
 5812SOL    HW128898   3.171   0.244   5.613 -0.5525 -2.6912  0.2682
 5812SOL    HW228899   3.060   0.317   5.552 -1.3524 -2.0266  1.6369
 5813SOL     OW28900   4.655   1.159   2.213 -0.6086 -0.2748  0.1170
 5813SOL    HW128901   4.621   1.237   2.169  1.0257 -0.1407 -0.9000
 5813SOL    HW228902   4.716   1.201   2.273  1.3327  0.4121 -2.3594
 5814SOL     OW28903   3.838   3.962  10.136 -0.1771  0.4838 -0.0377
 5814SOL    HW128904   3.872   3.924  10.055  1.3344  0.7336  0.4916
 5814SOL    HW228905   3.763   3.903  10.150 -0.0907  0.2529 -0.5138
 5815SOL     OW28906   2.575   3.454   5.737  0.0950 -0.1446 -0.2393
 5815SOL    HW128907   2.578   3.489   5.648  0.1573  0.0589 -0.1568
 5815SOL    HW228908   2.501   3.393   5.734 -0.4545  0.4555  1.1643
 5816SOL     OW28909   1.431   2.480   4.663 -0.2330 -0.1102  0.1709
 5816SOL    HW128910   1.394   2.563   4.631 -0.4465  0.1898  1.2001
 5816SOL    HW228911   1.442   2.435   4.579  0.5211  0.2874  0.0620
 5817SOL     OW28912   4.253   2.190   5.325  0.2259 -0.4213  0.0136
 5817SOL    HW128913   4.210   2.276   5.327 -0.4466 -0.7432 -0.6309
 5817SOL    HW228914   4.344   2.213   5.309 -0.7543  1.1922 -3.1280
 5818SOL     OW28915   0.612   2.878   1.877 -0.3563 -0.2457  0.0197
 5818SOL    HW128916   0.588   2.969   1.864 -4.1689 -1.5799 -2.3082
 5818SOL    HW228917   0.544   2.842   1.935  0.9906 -1.6942  0.6991
 5819SOL     OW28918   1.115   4.267   7.193 -0.0241 -0.1692  0.4620
 5819SOL    HW128919   1.188   4.224   7.149  1.0769 -0.2230  2.3146
 5819SOL    HW228920   1.060   4.286   7.117  0.4731  0.1673  0.1838
 5820SOL     OW28921   3.461   1.745   8.391 -0.0772 -0.2008  0.5321
 5820SOL    HW128922   3.382   1.734   8.443 -1.9820  1.8134 -1.9460
 5820SOL    HW228923   3.499   1.658   8.375 -0.4580 -0.1029 -0.8749
 5821SOL     OW28924   1.578   0.991   8.651 -0.0164 -0.0067 -0.5526
 5821SOL    HW128925   1.489   1.027   8.651 -0.4689 -1.1363 -0.2754
 5821SOL    HW228926   1.561   0.899   8.672 -3.5486  0.4111 -1.5127
 5822SOL     OW28927   1.848   0.479  17.287  0.4359  0.1923 -0.4755
 5822SOL    HW128928   1.776   0.487  17.225  0.0455 -1.1732 -0.1976
 5822SOL    HW228929   1.803   0.491  17.371 -1.8578 -0.8035 -1.5494
 5823SOL     OW28930   2.465   4.354   6.678 -0.1178 -0.8072 -0.0807
 5823SOL    HW128931   2.468   4.344   6.583 -0.5741  0.5470 -0.2317
 5823SOL    HW228932   2.418   4.437   6.689 -0.8330 -1.0239 -1.4677
 5824SOL     OW28933   4.590   4.529   6.890 -0.2366 -0.3694  0.0081
 5824SOL    HW128934   4.524   4.520   6.958  1.9024  0.1690  2.1845
 5824SOL    HW228935   4.654   4.466   6.923 -0.1637  1.0974  2.6478
 5825SOL     OW28936   2.142   0.837   7.686  0.0302 -0.0356  0.0127
 5825SOL    HW128937   2.134   0.908   7.622 -0.0207  0.0724  0.1384
 5825SOL    HW228938   2.237   0.836   7.701 -0.4283  2.9888  3.1281
 5826SOL     OW28939   3.806   2.389   8.820 -0.3387  0.1719 -0.1101
 5826SOL    HW128940   3.887   2.363   8.776  0.3803  0.5260  1.0366
 5826SOL    HW228941   3.754   2.320   8.779  0.8836 -0.8875  0.1390
 5827SOL     OW28942   0.091   2.117   7.659 -0.1630 -0.7177 -0.7006
 5827SOL    HW128943   4.720   2.107   7.676 -0.2393  0.0017 -0.6835
 5827SOL    HW228944   0.123   2.033   7.693  0.9695 -0.2042 -0.5030
 5828SOL     OW28945   3.012   2.576   2.962 -0.2645 -0.3231 -0.1231
 5828SOL    HW128946   3.026   2.622   3.045 -1.7636  0.0260 -0.0556
 5828SOL    HW228947   2.963   2.508   3.007  0.2520 -1.2739 -1.0144
 5829SOL     OW28948   3.089   0.579   5.706 -0.1251  0.1925  0.1941
 5829SOL    HW128949   2.995   0.565   5.716 -0.3092  0.8520 -0.6604
 5829SOL    HW228950   3.121   0.553   5.793  1.3052  1.7765  0.1580
 5830SOL     OW28951   2.677   1.935   2.294 -0.1380 -0.0323  0.1522
 5830SOL    HW128952   2.609   1.918   2.229  1.4633 -0.2574 -1.4841
 5830SOL    HW228953   2.703   1.848   2.324  0.0785 -0.3459 -0.9299
 5831SOL     OW28954   2.213   0.962   6.912 -0.7569 -0.2845 -0.0454
 5831SOL    HW128955   2.129   0.915   6.910 -1.2394  0.5279  1.1402
 5831SOL    HW228956   2.212   0.989   7.004  0.6419  0.0375 -0.1345
 5832SOL     OW28957   0.384   1.202   3.201 -0.1692  0.2768 -0.4916
 5832SOL    HW128958   0.441   1.164   3.134 -0.7802  0.2570 -0.9935
 5832SOL    HW228959   0.433   1.283   3.217 -0.2870  0.5754 -1.6469
 5833SOL     OW28960   0.328   0.664  10.365  0.1916  0.2585 -0.5827
 5833SOL    HW128961   0.270   0.737  10.344 -0.8245 -0.0413  1.1625
 5833SOL    HW228962   0.298   0.588  10.316 -1.3069  1.0600 -0.8961
 5834SOL     OW28963   2.155   1.540  10.305 -0.5802  0.1452  0.3053
 5834SOL    HW128964   2.141   1.629  10.272  2.4537  0.3671 -0.4180
 5834SOL    HW228965   2.165   1.555  10.399  1.5922 -0.6202  0.1833
 5835SOL     OW28966   1.548   1.189  13.825 -0.3340  0.5035 -0.0552
 5835SOL    HW128967   1.475   1.198  13.886  0.4832  1.7105  0.7560
 5835SOL    HW228968   1.585   1.275  13.846  1.2846 -0.3367  0.5483
 5836SOL     OW28969   4.273   4.589  14.892 -0.4263  0.4573 -0.3111
 5836SOL    HW128970   4.210   4.638  14.841 -1.8328 -1.0784 -0.0484
 5836SOL    HW228971   4.302   4.651  14.959 -0.3434 -0.3173  0.3722
 5837SOL     OW28972   1.663   1.760   5.555 -0.2833  0.3888 -1.0202
 5837SOL    HW128973   1.737   1.701   5.567 -0.2530 -0.1258 -3.5733
 5837SOL    HW228974   1.606   1.728   5.624  0.4809 -0.0611 -0.6009
 5838SOL     OW28975   0.421   3.438   4.625  0.2258 -0.1000  0.1059
 5838SOL    HW128976   0.364   3.440   4.702  0.9818 -0.7111  0.6916
 5838SOL    HW228977   0.479   3.513   4.632  2.6709 -1.9125 -0.6896
 5839SOL     OW28978   4.515   2.802  11.560 -0.0817 -0.3486  0.3518
 5839SOL    HW128979   4.545   2.720  11.600  2.3353 -0.1483 -1.0596
 5839SOL    HW228980   4.502   2.852  11.641  1.6151  2.3578 -1.0373
 5840SOL     OW28981   0.966   2.021   2.304  0.0724 -0.3270  0.0901
 5840SOL    HW128982   1.052   2.026   2.261  0.5064 -0.6863  0.9084
 5840SOL    HW228983   0.970   2.098   2.360  0.1431  0.9016 -1.5969
 5841SOL     OW28984   2.382   3.507   2.735 -0.1579  0.2721  0.0949
 5841SOL    HW128985   2.348   3.442   2.673  2.7002 -1.1261  0.0033
 5841SOL    HW228986   2.471   3.489   2.765 -0.1112  1.1847  0.5100
 5842SOL     OW28987   2.153   3.781   6.587 -0.3593  0.2131  0.7303
 5842SOL    HW128988   2.244   3.780   6.618 -0.6438 -0.3649  1.5271
 5842SOL    HW228989   2.130   3.690   6.606  0.7814 -0.4645 -1.0472
 5843SOL     OW28990   2.851   2.016   6.850  0.4109  0.0874 -0.3619
 5843SOL    HW128991   2.911   1.988   6.919 -0.9058  0.4356  0.9302
 5843SOL    HW228992   2.784   1.948   6.859 -1.0261  1.4631 -0.5862
 5844SOL     OW28993   0.232   0.095   6.199 -0.0517  0.1378 -0.1522
 5844SOL    HW128994   0.254   0.043   6.276  1.4455 -0.3963 -0.9408
 5844SOL    HW228995   0.302   0.159   6.200  0.5950 -0.5459 -1.1624
 5845SOL     OW28996   0.932   3.493   2.538  0.0794  0.5167 -0.3860
 5845SOL    HW128997   0.951   3.401   2.552 -3.1433 -0.1551 -0.5162
 5845SOL    HW228998   1.013   3.534   2.507 -0.0837  1.0998 -0.0526
 5846SOL     OW28999   3.244   0.560  14.933  0.2496 -0.5484  0.0223
 5846SOL    HW129000   3.153   0.537  14.914 -0.3765  1.8405  0.1395
 5846SOL    HW229001   3.220   0.645  14.971 -0.3063 -1.1782  1.1000
 5847SOL     OW29002   3.181   0.240  14.839  0.3945  0.1881 -0.0479
 5847SOL    HW129003   3.137   0.299  14.900 -0.9432 -0.3442 -0.4850
 5847SOL    HW229004   3.157   0.156  14.877 -0.9876 -0.2027 -1.7733
 5848SOL     OW29005   4.713   4.161   2.249 -0.7239  0.3411 -0.8813
 5848SOL    HW129006   4.721   4.103   2.173 -2.5280  0.2635 -0.9972
 5848SOL    HW229007   0.038   4.240   2.223 -0.3172 -0.0559 -1.3764
 5849SOL     OW29008   2.867   1.870   2.552 -0.0050 -0.1356  0.1742
 5849SOL    HW129009   2.826   1.805   2.494  1.2814 -1.5697  0.8682
 5849SOL    HW229010   2.902   1.810   2.618  0.4726  0.0051  0.0474
 5850SOL     OW29011   3.976   2.817   5.628 -0.4570 -0.5852  0.1780
 5850SOL    HW129012   4.021   2.896   5.659 -0.7300 -0.8370  1.1953
 5850SOL    HW229013   3.912   2.793   5.694 -0.2887 -0.1429  0.5001
 5851SOL     OW29014   4.720   1.403   6.795 -0.1811  0.3820  0.6333
 5851SOL    HW129015   4.669   1.330   6.832 -1.6157  1.1606  0.2088
 5851SOL    HW229016   4.689   1.477   6.848 -0.4500  0.2954  0.6004
 5852SOL     OW29017   0.203   4.006   3.526 -0.4435 -0.1408 -0.1587
 5852SOL    HW129018   0.213   3.918   3.561 -1.9959 -0.5052 -0.6358
 5852SOL    HW229019   0.282   4.026   3.475 -0.3321  1.4892  0.6260
 5853SOL     OW29020   0.254   4.219   6.764  0.3873 -0.2890 -0.2511
 5853SOL    HW129021   0.252   4.124   6.754  0.1632  0.0191 -3.1228
 5853SOL    HW229022   0.278   4.242   6.674 -0.1508  0.5003 -0.1931
 5854SOL     OW29023   3.206   1.140   6.265 -0.3802  0.6207  0.0757
 5854SOL    HW129024   3.302   1.143   6.260 -0.3966  2.5371  0.9356
 5854SOL    HW229025   3.196   1.045   6.270 -0.6351  0.7144  1.3970
 5855SOL     OW29026   0.064   2.555   4.889  0.5453 -0.2655  0.1592
 5855SOL    HW129027   4.715   2.492   4.899 -0.5114  0.7514 -1.0621
 5855SOL    HW229028   0.119   2.497   4.836  1.2769 -0.0331  0.6626
 5856SOL     OW29029   1.398   3.121   7.084  0.9996 -0.9995 -0.6978
 5856SOL    HW129030   1.316   3.091   7.122  0.8282  0.8081  0.3660
 5856SOL    HW229031   1.460   3.130   7.157 -2.0044 -1.4098  1.8889
 5857SOL     OW29032   3.654   2.920   6.113 -0.1331  0.4897  0.0655
 5857SOL    HW129033   3.691   2.947   6.197  1.3895 -2.4294  0.3397
 5857SOL    HW229034   3.567   2.903   6.149 -0.8232 -2.1487 -2.8543
 5858SOL     OW29035   0.565   1.263   2.375  0.6967  0.2795 -0.0159
 5858SOL    HW129036   0.509   1.290   2.448 -0.3912 -3.7197  0.6155
 5858SOL    HW229037   0.647   1.292   2.414  0.6032  1.0825 -0.4165
 5859SOL     OW29038   4.120   1.257   7.970 -0.1516  0.1860 -0.5408
 5859SOL    HW129039   4.145   1.218   7.886 -1.7186 -0.1518 -0.8443
 5859SOL    HW229040   4.180   1.331   7.976  0.8119 -0.5937 -0.4344
 5860SOL     OW29041   3.058   4.105  12.788  0.5742  0.6206  0.4757
 5860SOL    HW129042   3.131   4.044  12.802 -0.7084 -0.9276  0.3476
 5860SOL    HW229043   2.985   4.046  12.808  0.9677 -0.7804 -2.2009
 5861SOL     OW29044   4.292   4.381   5.696  0.1101 -0.0438 -0.2107
 5861SOL    HW129045   4.327   4.395   5.784  0.2087 -1.0591 -0.0907
 5861SOL    HW229046   4.333   4.298   5.672 -1.3854 -0.3710 -1.6752
 5862SOL     OW29047   2.011   2.656   1.727  1.0139 -0.4690  0.1834
 5862SOL    HW129048   1.999   2.682   1.818  3.1435  1.8521 -0.1958
 5862SOL    HW229049   2.093   2.606   1.732  0.0654 -1.8887  1.3921
 5863SOL     OW29050   2.400   2.719   4.646 -0.2433  0.1055 -0.1652
 5863SOL    HW129051   2.392   2.626   4.667 -0.1836  0.9058  3.4092
 5863SOL    HW229052   2.466   2.752   4.707 -1.7733  0.2117  1.4380
 5864SOL     OW29053   2.410   2.478   4.194  0.7925  0.2981 -0.5178
 5864SOL    HW129054   2.340   2.446   4.251  2.1867 -1.6668  0.0511
 5864SOL    HW229055   2.459   2.397   4.187 -0.1305 -0.3541  0.5774
 5865SOL     OW29056   2.133   0.354  11.866 -0.2365 -0.2286  0.2508
 5865SOL    HW129057   2.224   0.381  11.879 -0.2800  0.1641 -0.2423
 5865SOL    HW229058   2.110   0.411  11.792  1.0020 -0.6880 -0.5071
 5866SOL     OW29059   1.240   3.611  17.626 -0.0593  0.1150 -0.4125
 5866SOL    HW129060   1.259   3.700  17.655  1.1964 -0.6666  1.1816
 5866SOL    HW229061   1.319   3.568  17.658  0.4577  0.2626 -1.4926
 5867SOL     OW29062   1.347   3.773  11.096 -0.1627  0.4209 -0.4982
 5867SOL    HW129063   1.291   3.703  11.129 -1.6358  1.4811 -0.7408
 5867SOL    HW229064   1.313   3.851  11.140  1.1880  0.6396  0.1739
 5868SOL     OW29065   0.051   2.449   5.235 -0.0244 -0.1220  0.8165
 5868SOL    HW129066   0.059   2.365   5.190 -0.7026 -0.1130  0.6783
 5868SOL    HW229067   0.144   2.465   5.248  0.3411 -1.0894 -0.6070
 5869SOL     OW29068   2.753   1.430   7.222 -0.3361  0.5716 -0.1969
 5869SOL    HW129069   2.740   1.341   7.257  0.0040  0.7751  0.4463
 5869SOL    HW229070   2.667   1.461   7.193  0.3177 -1.0372 -3.8590
 5870SOL     OW29071   3.064   3.160  16.570  0.2430 -0.0817  0.7590
 5870SOL    HW129072   2.975   3.159  16.537  0.3610  0.0412  0.4401
 5870SOL    HW229073   3.107   3.202  16.495  0.6504 -3.0566 -0.6946
 5871SOL     OW29074   0.070   2.788   5.015 -0.5905  0.4409 -0.1316
 5871SOL    HW129075   4.710   2.786   5.064 -0.7080 -0.5614 -0.3705
 5871SOL    HW229076   0.061   2.705   4.967 -0.2059 -0.0519  0.6518
 5872SOL     OW29077   2.908   4.638   4.458 -0.5511  0.3109 -0.7293
 5872SOL    HW129078   2.832   4.580   4.469 -1.1085  1.3036  0.7668
 5872SOL    HW229079   2.953   4.621   4.541 -0.9071 -0.6477 -0.7255
 5873SOL     OW29080   2.179   1.577  10.590 -0.0824 -0.3093  0.2136
 5873SOL    HW129081   2.147   1.663  10.618 -1.8999 -1.0868  0.5107
 5873SOL    HW229082   2.118   1.509  10.619 -0.6123  0.0933  0.0461
 5874SOL     OW29083   4.355   3.257  14.850  0.0401  0.8955 -0.1341
 5874SOL    HW129084   4.417   3.327  14.867  1.2347 -0.0045 -0.6994
 5874SOL    HW229085   4.399   3.204  14.782 -0.9151  1.7919 -1.4456
 5875SOL     OW29086   1.764   3.432   5.092  0.0179  0.1765  0.5706
 5875SOL    HW129087   1.859   3.426   5.102  0.2316 -1.2576 -2.5603
 5875SOL    HW229088   1.745   3.358   5.035 -1.0668  2.0445 -1.4712
 5876SOL     OW29089   2.667   1.028  14.980  0.2245 -0.4760  0.2130
 5876SOL    HW129090   2.739   1.071  14.934 -1.2625 -0.0620 -1.7143
 5876SOL    HW229091   2.634   0.981  14.903  0.9456 -1.1737  0.3215
 5877SOL     OW29092   1.087   2.675  11.084 -0.2566  0.1610  0.0304
 5877SOL    HW129093   1.007   2.624  11.075 -0.4352  0.4926 -0.2392
 5877SOL    HW229094   1.060   2.750  11.031 -0.4288 -0.0839 -0.2243
 5878SOL     OW29095   2.026   4.067  12.473 -0.1285 -0.0200 -0.0411
 5878SOL    HW129096   1.966   3.993  12.486 -0.8882  0.6144  0.0280
 5878SOL    HW229097   2.046   4.061  12.379 -0.4584  1.9207 -0.2293
 5879SOL     OW29098   1.630   3.726   1.895 -0.0969  0.6150  0.5624
 5879SOL    HW129099   1.547   3.752   1.933 -0.2359  0.1476  0.5851
 5879SOL    HW229100   1.600   3.692   1.811  1.5044  0.6584 -0.0359
 5880SOL     OW29101   1.376   1.645   9.816 -0.2104 -0.0862 -0.0886
 5880SOL    HW129102   1.424   1.620   9.895  0.8397 -0.3083 -0.8010
 5880SOL    HW229103   1.284   1.651   9.843 -0.2863 -0.8609 -0.1850
 5881SOL     OW29104   4.496   2.549  11.653  0.1572 -0.0646 -0.1037
 5881SOL    HW129105   4.439   2.535  11.729 -0.4039 -1.3449 -0.7485
 5881SOL    HW229106   4.512   2.457  11.634 -0.4088 -0.1374 -0.2411
 5882SOL     OW29107   4.703   3.580  10.099 -0.0320 -0.4547 -0.3615
 5882SOL    HW129108   4.645   3.651  10.070 -0.6479  0.3147  2.6966
 5882SOL    HW229109   0.049   3.584  10.032  0.3881 -2.6261 -0.0859
 5883SOL     OW29110   0.110   1.833   3.699  0.4196 -0.0659  0.0353
 5883SOL    HW129111   0.098   1.838   3.604 -0.8664 -0.9996  0.1462
 5883SOL    HW229112   0.154   1.748   3.706  2.9101  1.2236 -0.1959
 5884SOL     OW29113   0.589   0.949   8.893 -0.1092  0.1670 -0.1775
 5884SOL    HW129114   0.666   0.947   8.949  1.7147 -0.9953 -2.7470
 5884SOL    HW229115   0.550   1.034   8.914 -0.8661 -0.7417  2.0461
 5885SOL     OW29116   3.255   0.976   4.941  0.2510  0.4417 -0.3987
 5885SOL    HW129117   3.190   1.040   4.911  1.1844  0.7257 -1.8593
 5885SOL    HW229118   3.206   0.895   4.943  0.3090  0.4027 -0.5600
 5886SOL     OW29119   2.558   2.464  15.228  0.1260  0.4395 -0.3233
 5886SOL    HW129120   2.484   2.405  15.242  0.7707  0.0135  1.2846
 5886SOL    HW229121   2.539   2.488  15.137  0.8248  1.2708 -0.2573
 5887SOL     OW29122   0.727   2.377   4.631 -0.3105  0.0805  0.2763
 5887SOL    HW129123   0.682   2.310   4.680  0.6880 -0.7169  0.1085
 5887SOL    HW229124   0.793   2.325   4.585 -0.2256  0.3193  0.1252
 5888SOL     OW29125   2.453   0.435   5.973 -0.2335 -0.1010  0.4020
 5888SOL    HW129126   2.533   0.387   5.954  0.1324  0.9520 -0.7238
 5888SOL    HW229127   2.389   0.373   5.937  0.8667 -1.2397  0.4386
 5889SOL     OW29128   3.945   0.203   8.720  0.0134 -0.4287  0.2105
 5889SOL    HW129129   3.892   0.127   8.745 -1.1393  0.2634 -0.1325
 5889SOL    HW229130   3.892   0.267   8.768  1.9861 -0.1687  2.0198
 5890SOL     OW29131   3.159   2.013  12.356 -0.0363  0.2293  0.4118
 5890SOL    HW129132   3.151   2.109  12.355 -0.1105  0.2154 -0.2858
 5890SOL    HW229133   3.106   1.996  12.278  0.5104  0.5037 -0.0262
 5891SOL     OW29134   1.141   0.908   8.758  0.4231 -0.0694  0.4768
 5891SOL    HW129135   1.143   0.815   8.736 -1.0208  0.1890 -0.6647
 5891SOL    HW229136   1.089   0.951   8.691  0.7844 -3.4361 -1.9375
 5892SOL     OW29137   2.089   3.473   1.841  0.3584 -0.6456 -0.0441
 5892SOL    HW129138   2.136   3.391   1.822  0.7863 -0.5002  0.3991
 5892SOL    HW229139   2.087   3.509   1.752  1.3283  1.3124  0.7340
 5893SOL     OW29140   3.188   1.594   3.955 -0.4230  0.3035  0.2781
 5893SOL    HW129141   3.226   1.526   4.012 -0.7613  0.1372  0.3018
 5893SOL    HW229142   3.095   1.580   3.968 -0.4443 -1.1229 -1.3247
 5894SOL     OW29143   3.247   1.794  11.571 -0.5911  0.3003  0.3997
 5894SOL    HW129144   3.328   1.844  11.561 -0.4791  0.5117  2.2942
 5894SOL    HW229145   3.241   1.750  11.486 -1.7847  0.1339  0.5725
 5895SOL     OW29146   0.473   3.280   5.323  0.0631  0.7237  0.9117
 5895SOL    HW129147   0.555   3.293   5.277 -1.8839  0.8888 -2.4809
 5895SOL    HW229148   0.421   3.355   5.295  1.4000  0.4376 -2.3380
 5896SOL     OW29149   0.797   1.894  11.518  0.1733 -0.3501  0.6341
 5896SOL    HW129150   0.883   1.932  11.534 -0.6716  1.0004  1.9677
 5896SOL    HW229151   0.766   1.944  11.442  0.1437  0.2632  1.0508
 5897SOL     OW29152   4.194   4.407  16.119  0.2857  0.1753  0.0213
 5897SOL    HW129153   4.264   4.363  16.070  0.8221 -1.0091  1.8759
 5897SOL    HW229154   4.232   4.489  16.150  2.2407 -1.3985  1.7844
 5898SOL     OW29155   2.735   1.607   7.726  0.7641  0.5006 -0.1750
 5898SOL    HW129156   2.672   1.664   7.683 -1.9233 -0.3659  2.6418
 5898SOL    HW229157   2.764   1.549   7.655  0.7356 -0.4308  0.5601
 5899SOL     OW29158   1.139   0.180   3.873  0.1495 -0.1291 -0.5709
 5899SOL    HW129159   1.230   0.163   3.847 -0.5491 -2.2095 -1.6066
 5899SOL    HW229160   1.089   0.099   3.879  0.7673 -0.5885 -1.7132
 5900SOL     OW29161   3.748   2.717  10.629  0.5332  0.4639 -0.5002
 5900SOL    HW129162   3.723   2.699  10.719 -0.8676 -3.7838 -1.7112
 5900SOL    HW229163   3.660   2.734  10.593 -0.2897 -2.5396  0.1176
 5901SOL     OW29164   3.381   4.592  16.888  0.0142  0.1918 -0.0826
 5901SOL    HW129165   3.404   4.599  16.795  0.7856 -1.6915 -0.0385
 5901SOL    HW229166   3.422   4.507  16.901 -0.1027 -0.2154 -2.3123
 5902SOL     OW29167   3.942   2.814   8.118  0.0079  0.2617  0.4602
 5902SOL    HW129168   3.865   2.870   8.107 -0.8167 -0.7999  0.8511
 5902SOL    HW229169   3.995   2.865   8.057  1.1262 -0.5299  0.7702
 5903SOL     OW29170   1.028   3.968   8.637 -0.1860 -0.1426  0.0015
 5903SOL    HW129171   1.084   4.021   8.694  0.8026 -0.4913 -0.6603
 5903SOL    HW229172   1.079   3.895   8.603  0.8262  0.6897 -0.2519
 5904SOL     OW29173   1.351   3.052   5.989  0.4660  0.4257  0.2008
 5904SOL    HW129174   1.403   2.994   6.044 -0.3454 -1.3314 -0.8735
 5904SOL    HW229175   1.303   3.097   6.058  0.9758 -1.1492  1.5805
 5905SOL     OW29176   1.641   3.394   6.444 -0.1897 -0.3943 -0.0515
 5905SOL    HW129177   1.592   3.446   6.508  1.0706  0.0594  0.5464
 5905SOL    HW229178   1.683   3.455   6.384  2.2172 -1.2788  0.7306
 5906SOL     OW29179   0.897   3.624   7.014  0.0199  0.2159  0.8855
 5906SOL    HW129180   0.934   3.643   6.928 -0.8045  1.8013  0.8690
 5906SOL    HW229181   0.860   3.708   7.043 -0.6248  0.6597 -1.2072
 5907SOL     OW29182   3.169   1.355   4.098 -0.3780 -0.1864 -0.1652
 5907SOL    HW129183   3.154   1.300   4.021 -1.6662  2.6806 -1.9662
 5907SOL    HW229184   3.081   1.385   4.121 -0.5489 -0.3710 -0.5905
 5908SOL     OW29185   4.663   3.153   5.374 -0.4276 -0.6675  0.0081
 5908SOL    HW129186   4.705   3.183   5.293  0.6568 -1.1521  0.3833
 5908SOL    HW229187   0.009   3.098   5.413  0.3033 -1.6981 -2.6985
 5909SOL     OW29188   3.853   0.094   4.392  0.3010  0.0326 -0.2872
 5909SOL    HW129189   3.846   0.168   4.452  2.2402  0.7643 -0.9542
 5909SOL    HW229190   3.821   0.140   4.315  2.8135 -1.1423 -2.0294
 5910SOL     OW29191   0.254   2.870   1.041 -0.4909 -0.3013 -0.0361
 5910SOL    HW129192   0.243   2.920   0.960  0.4641 -1.6969 -1.0180
 5910SOL    HW229193   0.205   2.924   1.103  0.7697  0.6579  0.1224
 5911SOL     OW29194   3.993   1.092   0.573  0.5956 -0.1807 -0.0981
 5911SOL    HW129195   3.999   1.111   0.667 -3.1883  0.3608  0.0033
 5911SOL    HW229196   4.017   1.174   0.530 -1.2144  0.4617  0.1395
 5912SOL     OW29197   0.972   4.599  13.038 -0.1221 -0.4621  0.7276
 5912SOL    HW129198   1.049   4.638  13.080 -1.4418  2.4850  0.4380
 5912SOL    HW229199   0.905   4.651  13.083 -0.4013 -0.2693  0.1062
 5913SOL     OW29200   4.328   0.441  13.038  0.3060  0.2347  0.1715
 5913SOL    HW129201   4.296   0.399  12.957  2.0954  1.6613 -1.2764
 5913SOL    HW229202   4.392   0.375  13.065 -2.0063 -1.9796  0.3645
 5914SOL     OW29203   2.037   3.547   6.576 -0.3330  0.5594 -0.3097
 5914SOL    HW129204   1.951   3.515   6.603 -0.5833  2.0372  0.6470
 5914SOL    HW229205   2.055   3.508   6.490  0.9197 -0.6739  0.4953
 5915SOL     OW29206   2.303   0.386  14.785  0.7745  0.2278 -0.4283
 5915SOL    HW129207   2.327   0.479  14.787  1.6822 -0.0301  0.6742
 5915SOL    HW229208   2.353   0.352  14.859 -0.3946  2.7331  1.4762
 5916SOL     OW29209   1.880   3.076   7.368  0.6721  0.2843  0.2062
 5916SOL    HW129210   1.848   3.130   7.441  0.6934  1.0221 -0.3387
 5916SOL    HW229211   1.944   3.128   7.321  0.7755 -1.2251 -1.3247
 5917SOL     OW29212   0.666   2.273   1.065 -0.5433 -0.1409 -0.0577
 5917SOL    HW129213   0.718   2.349   1.041 -0.2139 -0.4700 -0.3962
 5917SOL    HW229214   0.579   2.304   1.039  0.0367  0.9231 -0.7297
 5918SOL     OW29215   1.876   2.688  16.821  0.3972  0.3753 -0.3206
 5918SOL    HW129216   1.783   2.664  16.826  0.7788 -0.6137  2.1361
 5918SOL    HW229217   1.893   2.689  16.727  0.0120  0.6432 -0.3874
 5919SOL     OW29218   4.559   3.835  10.093 -0.3270 -0.3767 -0.0292
 5919SOL    HW129219   4.493   3.887  10.047 -0.2009 -0.3217 -0.1480
 5919SOL    HW229220   4.631   3.895  10.108 -0.9754  0.8568 -1.8788
 5920SOL     OW29221   2.362   4.042   4.866  0.3058  0.1958  0.2178
 5920SOL    HW129222   2.344   3.967   4.810  0.3466  0.0772  0.3653
 5920SOL    HW229223   2.401   4.005   4.945  0.3950  0.9134  0.5083
 5921SOL     OW29224   1.339   3.362   7.940  0.0197  0.3189  0.4220
 5921SOL    HW129225   1.286   3.359   7.860  1.0971 -1.5516 -0.2195
 5921SOL    HW229226   1.371   3.273   7.956  0.2446  0.4054  0.4446
 5922SOL     OW29227   0.460   1.307  15.782 -0.3138  0.2193  0.1363
 5922SOL    HW129228   0.447   1.374  15.850 -1.0452 -1.4004  1.5845
 5922SOL    HW229229   0.524   1.354  15.729  1.9656 -2.9079  0.1263
 5923SOL     OW29230   4.075   4.532  13.472  0.1435  0.5842  0.4047
 5923SOL    HW129231   4.039   4.581  13.546 -2.0146  1.2455 -1.0924
 5923SOL    HW229232   4.052   4.570  13.388 -2.1017  0.2793  0.8975
 5924SOL     OW29233   1.825   2.280   5.183  0.0880 -0.0052  0.1431
 5924SOL    HW129234   1.893   2.348   5.184 -0.3196  0.4050  0.2060
 5924SOL    HW229235   1.759   2.322   5.127 -1.1423  1.5912  2.7902
 5925SOL     OW29236   2.441   0.054   9.352  0.0827 -0.2691 -0.6643
 5925SOL    HW129237   2.405   0.127   9.402  0.1601 -0.2361 -0.6560
 5925SOL    HW229238   2.447   4.708   9.419  0.5593  1.6296  1.1980
 5926SOL     OW29239   0.008   3.231   1.126 -0.1364  0.1553 -0.0868
 5926SOL    HW129240   0.035   3.265   1.211 -0.4967  1.8771 -0.6520
 5926SOL    HW229241   4.652   3.179   1.148  0.1098  0.8680  2.5196
 5927SOL     OW29242   3.518   2.489   7.280  0.3252  0.3545  0.0831
 5927SOL    HW129243   3.556   2.576   7.295  0.5518  0.7343 -2.7306
 5927SOL    HW229244   3.598   2.445   7.308  0.4756  2.2820  2.6408
 5928SOL     OW29245   3.424   0.183  16.181  0.2306  0.1082  0.5769
 5928SOL    HW129246   3.473   0.235  16.117 -0.0843 -0.0111  0.2395
 5928SOL    HW229247   3.345   0.172  16.128  1.4469  1.7689 -1.5790
 5929SOL     OW29248   2.516   0.829   2.921  0.1144 -0.4313 -0.8845
 5929SOL    HW129249   2.519   0.785   2.836  2.5467  0.0325 -1.0347
 5929SOL    HW229250   2.594   0.885   2.921  0.8522 -1.4646 -1.4507
 5930SOL     OW29251   2.854   4.004   5.134 -0.1988  0.1864  0.2296
 5930SOL    HW129252   2.805   4.083   5.111 -0.1405  0.0407 -0.3986
 5930SOL    HW229253   2.941   4.024   5.099  0.2508 -1.6841  0.2440
 5931SOL     OW29254   2.817   2.778   4.391 -0.4486  0.4308  0.7146
 5931SOL    HW129255   2.782   2.864   4.364  1.0447  0.9686  0.5025
 5931SOL    HW229256   2.745   2.721   4.362 -0.6726  1.0990 -0.0612
 5932SOL     OW29257   1.445   1.566   6.836 -0.3011 -0.1794  0.2796
 5932SOL    HW129258   1.498   1.635   6.795  0.9258  0.0317  2.2545
 5932SOL    HW229259   1.453   1.601   6.924 -0.5719  0.9487 -0.1469
 5933SOL     OW29260   0.834   4.069   4.307 -0.3924  0.1648 -0.5886
 5933SOL    HW129261   0.846   4.027   4.221  1.3857 -0.8243  0.1385
 5933SOL    HW229262   0.739   4.061   4.297 -0.3544  0.2880 -1.0433
 5934SOL     OW29263   2.249   0.674  15.519  0.0898  0.4252 -0.1877
 5934SOL    HW129264   2.177   0.684  15.457 -0.6327 -2.0274  0.2592
 5934SOL    HW229265   2.230   0.749  15.575 -1.6181  0.1584 -0.4018
 5935SOL     OW29266   1.872   2.640  12.382  0.1527 -0.7029  0.5105
 5935SOL    HW129267   1.917   2.562  12.414 -0.2564 -1.2381 -0.1989
 5935SOL    HW229268   1.778   2.619  12.389  0.1549 -0.6034  0.8676
 5936SOL     OW29269   1.732   1.927   4.299  0.5376  0.1271 -0.7145
 5936SOL    HW129270   1.662   1.960   4.357  1.1387 -0.6213  0.4454
 5936SOL    HW229271   1.757   1.848   4.347  0.1118  0.9997  0.9439
 5937SOL     OW29272   1.754   0.995  12.240 -0.4121  0.1354 -0.0750
 5937SOL    HW129273   1.678   0.973  12.295 -0.5828 -0.2293 -0.4548
 5937SOL    HW229274   1.805   1.047  12.302 -0.2135  1.1892 -1.1290
 5938SOL     OW29275   3.654   2.048   8.133 -0.1128 -0.1919 -0.7419
 5938SOL    HW129276   3.565   2.083   8.126  0.2283  0.8128 -0.1481
 5938SOL    HW229277   3.662   1.993   8.055  0.7749 -0.1608 -0.6697
 5939SOL     OW29278   4.421   1.978   2.567  0.2194 -0.0415 -0.1608
 5939SOL    HW129279   4.422   1.888   2.535 -0.3043 -1.2769  3.2717
 5939SOL    HW229280   4.381   2.030   2.497 -0.3856 -0.1673  0.0935
 5940SOL     OW29281   2.319   0.826   8.915  0.1949 -0.6617 -0.1228
 5940SOL    HW129282   2.337   0.819   9.009  1.2213  1.2801 -0.1828
 5940SOL    HW229283   2.238   0.776   8.906  0.8772 -1.4269 -1.9628
 5941SOL     OW29284   2.479   3.383   4.846 -0.2844 -0.4008  0.0271
 5941SOL    HW129285   2.452   3.441   4.918  2.2976 -1.1576  1.6083
 5941SOL    HW229286   2.553   3.334   4.881 -2.3222 -2.2930  1.6197
 5942SOL     OW29287   4.620   2.889   1.031 -0.0034 -0.1606 -0.1272
 5942SOL    HW129288   4.691   2.927   1.082 -0.1007  1.3848 -1.1375
 5942SOL    HW229289   4.617   2.798   1.061  0.4980 -0.5451 -1.2595
 5943SOL     OW29290   0.927   1.342   3.332  0.0411  0.3025  0.1862
 5943SOL    HW129291   0.945   1.264   3.279 -1.2839 -0.0044  0.1825
 5943SOL    HW229292   1.017   1.369   3.348 -0.6007  1.1952  2.1473
 5944SOL     OW29293   3.870   1.320   5.588  0.0863 -0.2294  0.0210
 5944SOL    HW129294   3.908   1.407   5.576 -0.9118  0.1214 -0.5759
 5944SOL    HW229295   3.795   1.346   5.641 -0.0725 -1.0240  0.1886
 5945SOL     OW29296   3.242   3.836  10.349 -0.0520 -0.0673 -0.3463
 5945SOL    HW129297   3.270   3.856  10.439  0.3472 -2.0435 -0.0416
 5945SOL    HW229298   3.212   3.923  10.323 -1.2419  0.4166  2.5582
 5946SOL     OW29299   0.817   0.762   6.781  0.1305 -0.0869 -0.0891
 5946SOL    HW129300   0.789   0.841   6.735  0.7570  1.1923  1.7263
 5946SOL    HW229301   0.740   0.747   6.836 -0.2618 -2.6167 -1.3186
 5947SOL     OW29302   0.316   3.725  11.145  0.1935  0.4716  0.0479
 5947SOL    HW129303   0.362   3.661  11.091  1.8936  1.3620  0.4444
 5947SOL    HW229304   0.386   3.739  11.208  0.3117  1.7172 -0.3608
 5948SOL     OW29305   3.541   0.027   4.366  0.6592  0.0775 -0.6565
 5948SOL    HW129306   3.484   0.013   4.442  0.2169  0.0766 -0.9876
 5948SOL    HW229307   3.510   0.113   4.338  0.9722  0.3483 -0.1684
 5949SOL     OW29308   1.392   0.969   5.743 -0.3543  0.1713 -0.4032
 5949SOL    HW129309   1.323   0.903   5.742 -1.5812  1.4192  0.5601
 5949SOL    HW229310   1.452   0.929   5.805 -1.6149  0.9752  1.3459
 5950SOL     OW29311   1.887   3.749   6.385  0.1681 -0.5300 -0.7017
 5950SOL    HW129312   1.925   3.708   6.463 -0.2976  2.9090  1.3310
 5950SOL    HW229313   1.970   3.760   6.339  0.6642  1.0968  0.5889
 5951SOL     OW29314   4.652   0.530  10.339 -0.8757  0.0050 -0.3376
 5951SOL    HW129315   4.592   0.464  10.305 -2.0331  1.7083 -1.6462
 5951SOL    HW229316   4.694   0.475  10.405  0.6489  1.8490  0.2427
 5952SOL     OW29317   2.079   3.369   7.071  0.2558 -0.2107  0.0419
 5952SOL    HW129318   2.056   3.457   7.041 -1.0741 -0.8427 -0.8410
 5952SOL    HW229319   2.104   3.332   6.986 -0.2029 -0.6943  0.1180
 5953SOL     OW29320   3.198   3.402  16.151 -0.7151 -0.0370 -0.0600
 5953SOL    HW129321   3.189   3.473  16.087 -0.5740 -0.6932 -0.7981
 5953SOL    HW229322   3.271   3.350  16.118  0.8899  1.4947  1.0613
 5954SOL     OW29323   1.921   1.474  15.583 -0.1248 -0.0655  0.3517
 5954SOL    HW129324   1.921   1.416  15.507 -1.3221  1.5049 -0.8516
 5954SOL    HW229325   1.881   1.552  15.545 -1.2483  0.3339  2.3762
 5955SOL     OW29326   4.386   0.293   5.554 -0.6276 -0.1650  0.2011
 5955SOL    HW129327   4.341   0.310   5.471  0.4069 -2.8294 -0.8990
 5955SOL    HW229328   4.451   0.230   5.523 -1.0553 -0.1403 -0.7517
 5956SOL     OW29329   0.455   3.055  17.290  0.1586  0.0919 -0.3012
 5956SOL    HW129330   0.450   3.148  17.311 -0.5158  0.1826 -0.8495
 5956SOL    HW229331   0.415   3.013  17.367 -1.6871  1.1339 -0.6816
 5957SOL     OW29332   2.442   3.024   2.159  0.6507 -0.3749 -0.7414
 5957SOL    HW129333   2.521   3.011   2.212  0.4397 -1.8987 -0.8249
 5957SOL    HW229334   2.457   3.111   2.120  0.6084  0.1899  0.4938
 5958SOL     OW29335   2.903   3.989   8.091  0.6368 -0.2066 -0.7954
 5958SOL    HW129336   2.949   3.931   8.153  1.2495  2.6279  1.4293
 5958SOL    HW229337   2.880   4.066   8.142  1.0757 -2.0930  2.2869
 5959SOL     OW29338   3.758   1.220  14.074  0.6666 -0.3764 -0.3128
 5959SOL    HW129339   3.716   1.268  14.002 -1.4407 -0.0815  1.1089
 5959SOL    HW229340   3.793   1.282  14.138 -0.4840  1.1591 -1.1766
 5960SOL     OW29341   2.072   0.022   9.523 -0.1893  0.4093  0.3367
 5960SOL    HW129342   2.142   0.076   9.487  2.1184 -3.4670 -0.9702
 5960SOL    HW229343   2.103   4.685   9.592  1.2833  1.3370  0.4764
 5961SOL     OW29344   1.255   0.398  13.693 -0.3356 -0.1272 -0.3729
 5961SOL    HW129345   1.180   0.360  13.739  0.4212 -1.8578 -0.5990
 5961SOL    HW229346   1.208   0.471  13.652 -1.3576 -1.6673 -1.9398
 5962SOL     OW29347   0.185   0.853   2.186  0.1578  0.6749  0.6858
 5962SOL    HW129348   0.226   0.780   2.232 -1.1073 -0.6883 -0.3521
 5962SOL    HW229349   0.262   0.905   2.162  0.5332 -1.1593 -2.1707
 5963SOL     OW29350   1.075   0.544   2.026 -0.0882  0.0051  0.0030
 5963SOL    HW129351   1.117   0.466   2.062 -2.6678 -1.1677  0.4718
 5963SOL    HW229352   1.139   0.614   2.040 -0.6459  0.8170 -1.5601
 5964SOL     OW29353   3.978   3.860   7.858  0.2226  0.4978  0.3158
 5964SOL    HW129354   3.998   3.896   7.945  1.8640 -1.9235  0.9491
 5964SOL    HW229355   3.973   3.766   7.872 -1.3300  0.4008 -1.0099
 5965SOL     OW29356   0.870   1.619  13.998 -0.1232  0.2126  0.2453
 5965SOL    HW129357   0.866   1.598  13.904  0.3108  0.4607  0.1693
 5965SOL    HW229358   0.931   1.693  14.006  1.6896 -1.0660 -1.6696
 5966SOL     OW29359   0.428   2.392  15.276 -0.4231 -0.2529 -0.3974
 5966SOL    HW129360   0.491   2.435  15.219  0.5277  1.9466  2.3353
 5966SOL    HW229361   0.356   2.454  15.289  1.7243  2.1077  0.3795
 5967SOL     OW29362   1.271   1.228  10.894 -0.3035  0.3346  0.1263
 5967SOL    HW129363   1.220   1.290  10.841  0.3568 -0.4932 -1.4846
 5967SOL    HW229364   1.356   1.263  10.868 -0.5811 -0.3117 -1.6342
 5968SOL     OW29365   0.527   1.953   0.251 -0.6382  0.1337 -0.9016
 5968SOL    HW129366   0.483   1.928   0.332  0.7562 -1.6108 -0.6875
 5968SOL    HW229367   0.611   1.912   0.270 -1.9504 -1.5265  1.3329
 5969SOL     OW29368   1.390   3.963   4.269 -0.2005  0.0501  0.4545
 5969SOL    HW129369   1.307   4.003   4.294 -0.3335  0.6500 -0.9323
 5969SOL    HW229370   1.436   4.042   4.240  2.2763 -1.3235  0.6673
 5970SOL     OW29371   2.737   2.757  17.521  0.0368 -0.2652 -0.2293
 5970SOL    HW129372   2.823   2.789  17.493 -0.0010  0.6721  0.7273
 5970SOL    HW229373   2.766   2.705  17.596  0.2606  0.7387  0.3704
 5971SOL     OW29374   2.083   0.746  12.677 -0.5830  0.2197 -0.1094
 5971SOL    HW129375   2.063   0.799  12.600  0.9476  2.3366  0.9576
 5971SOL    HW229376   2.029   0.797  12.737 -1.1639 -1.3104  0.6682
 5972SOL     OW29377   1.731   4.071   5.363 -0.0939 -0.6109  0.1402
 5972SOL    HW129378   1.642   4.089   5.394  0.0207  0.7134 -0.2993
 5972SOL    HW229379   1.760   3.996   5.415 -1.2823 -0.4892  0.9689
 5973SOL     OW29380   0.617   2.143  13.752 -0.2934 -1.1835 -0.5036
 5973SOL    HW129381   0.613   2.111  13.662  1.4172 -0.8638 -0.6920
 5973SOL    HW229382   0.713   2.140  13.758 -0.3371 -0.1086  0.6853
 5974SOL     OW29383   3.013   0.378   8.683 -0.0288  0.3375 -0.3749
 5974SOL    HW129384   2.971   0.397   8.767  0.6295 -1.1229  0.2819
 5974SOL    HW229385   3.002   0.283   8.690 -4.1470  0.6934 -2.4829
 5975SOL     OW29386   0.215   1.725   4.682  0.2874 -0.2454  0.1844
 5975SOL    HW129387   0.191   1.655   4.744  0.1971 -1.2069 -0.9265
 5975SOL    HW229388   0.246   1.672   4.608  1.9254  0.3226  0.4787
 5976SOL     OW29389   2.563   0.171  15.363 -0.4210  0.1874  0.1419
 5976SOL    HW129390   2.573   0.136  15.274  0.0257 -0.0875  0.2983
 5976SOL    HW229391   2.550   0.261  15.333 -0.2754  0.6180  1.3828
 5977SOL     OW29392   2.286   4.576   2.730 -0.6006 -0.2919  0.0975
 5977SOL    HW129393   2.359   4.515   2.741  0.1776  0.3586 -1.3017
 5977SOL    HW229394   2.250   4.536   2.651 -0.2290 -1.5362  0.5567
 5978SOL     OW29395   3.262   0.799   5.665 -0.5399  0.2449 -0.2090
 5978SOL    HW129396   3.217   0.718   5.691 -0.1073  0.0814  0.0291
 5978SOL    HW229397   3.308   0.772   5.585 -0.9995  2.0279 -1.0618
 5979SOL     OW29398   0.078   3.463  15.219  0.9282  0.3548  0.0103
 5979SOL    HW129399   4.720   3.509  15.244 -0.0719 -0.5393 -1.5170
 5979SOL    HW229400   0.069   3.462  15.123 -0.0549  2.6236  0.0792
 5980SOL     OW29401   4.602   2.431   7.591 -0.1307  0.0685  0.2239
 5980SOL    HW129402   4.645   2.433   7.677  0.8010  0.3128 -0.2477
 5980SOL    HW229403   4.559   2.347   7.608 -1.7091  0.8223  0.0147
 5981SOL     OW29404   3.723   1.279   4.941  0.0975 -0.2674 -0.1123
 5981SOL    HW129405   3.813   1.308   4.926 -0.7440  1.7343 -1.3307
 5981SOL    HW229406   3.733   1.184   4.940 -0.2317 -0.2849 -1.4440
 5982SOL     OW29407   2.898   3.415   4.276 -0.4605  0.1064  0.6050
 5982SOL    HW129408   2.941   3.435   4.192 -0.5062  1.3169  0.8732
 5982SOL    HW229409   2.809   3.448   4.266  0.9478  3.1778 -1.9243
 5983SOL     OW29410   1.163   3.115  10.713 -0.4417 -0.0442  0.3811
 5983SOL    HW129411   1.150   3.195  10.764 -0.6911  0.7429 -0.9362
 5983SOL    HW229412   1.200   3.059  10.782  0.3558  1.2901  1.0337
 5984SOL     OW29413   4.399   4.424   8.831 -0.1084  0.5212  0.7598
 5984SOL    HW129414   4.403   4.512   8.868  1.0557  0.5016  0.6929
 5984SOL    HW229415   4.483   4.395   8.867  0.0019 -1.6004 -1.2051
 5985SOL     OW29416   3.918   3.595   4.491 -0.0394  0.1731 -0.3934
 5985SOL    HW129417   3.867   3.515   4.506 -0.1299  1.0638  3.8784
 5985SOL    HW229418   4.003   3.560   4.518  0.0893 -0.1836 -1.2451
 5986SOL     OW29419   3.631   3.798  14.348 -0.2153  0.7407  0.3799
 5986SOL    HW129420   3.544   3.759  14.335 -0.0495  0.7958 -0.8231
 5986SOL    HW229421   3.641   3.758  14.435  0.1045 -0.6545 -0.2952
 5987SOL     OW29422   2.649   1.135   2.644  0.0042 -0.2174 -0.4787
 5987SOL    HW129423   2.639   1.228   2.666  2.2120 -0.0438 -0.1845
 5987SOL    HW229424   2.734   1.127   2.601 -0.1487 -2.0894 -0.4168
 5988SOL     OW29425   2.199   3.019   2.358  0.9032 -0.0569  0.0422
 5988SOL    HW129426   2.116   3.048   2.396 -0.2511 -2.1004 -0.9539
 5988SOL    HW229427   2.255   2.997   2.433  0.0532  1.1460  1.0405
 5989SOL     OW29428   4.355   1.308   0.481 -0.0366  0.0434  0.5602
 5989SOL    HW129429   4.301   1.317   0.560  0.2556  0.9184  0.6572
 5989SOL    HW229430   4.283   1.286   0.421  2.7504 -4.1995 -1.2239
 5990SOL     OW29431   4.192   3.198   6.864  0.2304  0.2878 -0.5985
 5990SOL    HW129432   4.177   3.192   6.770 -0.5652 -0.9914 -0.3891
 5990SOL    HW229433   4.284   3.169   6.864  0.0399 -0.3415  0.5499
 5991SOL     OW29434   1.145   3.437   6.624 -0.4044  0.2750  0.7539
 5991SOL    HW129435   1.172   3.496   6.553  1.0551  0.4163  1.4215
 5991SOL    HW229436   1.056   3.469   6.639  0.4279  2.4982  0.9487
 5992SOL     OW29437   3.751   1.940   3.394 -0.0155 -0.0683  0.3762
 5992SOL    HW129438   3.719   2.025   3.426 -1.7005 -0.7613  0.5595
 5992SOL    HW229439   3.751   1.895   3.478  0.7324 -1.8179 -0.5634
 5993SOL     OW29440   1.240   2.448   2.750 -0.1205 -0.4107 -0.0367
 5993SOL    HW129441   1.175   2.410   2.809  1.0680  0.4996  1.8448
 5993SOL    HW229442   1.233   2.381   2.683  1.5964 -1.4260  0.8093
 5994SOL     OW29443   2.629   0.296   8.453 -0.5496  0.1876 -0.0667
 5994SOL    HW129444   2.683   0.362   8.409  0.7187  0.0569  1.2909
 5994SOL    HW229445   2.541   0.334   8.462 -0.8108 -0.0465 -1.8004
 5995SOL     OW29446   4.371   2.211   6.720 -0.5633  0.2156 -0.1264
 5995SOL    HW129447   4.415   2.127   6.735  2.1019  1.6045 -0.0829
 5995SOL    HW229448   4.308   2.221   6.791 -0.3908 -0.5063  0.1282
 5996SOL     OW29449   3.840   1.191  17.089  0.3727 -0.0132 -0.0927
 5996SOL    HW129450   3.907   1.257  17.072  0.4789 -0.2910 -0.7566
 5996SOL    HW229451   3.790   1.223  17.164 -0.7021 -0.3080 -0.6899
 5997SOL     OW29452   0.266   3.566   9.677  0.5533 -0.0522 -0.2321
 5997SOL    HW129453   0.351   3.522   9.681  0.2939 -0.6839 -1.5876
 5997SOL    HW229454   0.261   3.608   9.591  1.7639  0.6501  0.0361
 5998SOL     OW29455   0.288   3.519   5.625  0.0509 -0.6923  0.2826
 5998SOL    HW129456   0.219   3.514   5.559 -0.9879 -0.6221  1.3542
 5998SOL    HW229457   0.290   3.424   5.639 -0.5516 -0.7325  0.1134
 5999SOL     OW29458   1.422   2.561   7.825 -0.2107  0.1513  0.1638
 5999SOL    HW129459   1.405   2.595   7.737 -0.8636 -1.9339 -0.5149
 5999SOL    HW229460   1.405   2.639   7.878 -1.3888  0.5507 -0.7992
 6000SOL     OW29461   2.986   0.936   7.259  0.1036 -0.0887  0.4985
 6000SOL    HW129462   2.940   0.976   7.186 -0.5714 -0.6277  0.6330
 6000SOL    HW229463   3.077   0.931   7.228  0.1478  0.7275  0.4824
 6001SOL     OW29464   3.086   2.105   5.543 -0.0099 -0.8949  0.2480
 6001SOL    HW129465   3.152   2.168   5.571 -1.7227  1.3810 -0.7890
 6001SOL    HW229466   3.058   2.139   5.458 -0.2090 -2.1446 -0.1889
 6002SOL     OW29467   3.465   2.402  17.269 -0.7688  0.9047 -0.1596
 6002SOL    HW129468   3.394   2.339  17.256 -0.5647  0.3084  1.6076
 6002SOL    HW229469   3.418   2.471  17.316 -0.3318 -0.7116  2.6481
 6003SOL     OW29470   1.095   3.141   3.862  0.6781  0.2362  0.1422
 6003SOL    HW129471   1.084   3.090   3.782  2.4080  0.7449 -0.4168
 6003SOL    HW229472   1.037   3.215   3.842  0.3707 -0.2716 -0.8301
 6004SOL     OW29473   0.022   4.255   8.554 -0.1457  0.3004 -0.4223
 6004SOL    HW129474   4.668   4.293   8.510 -1.3551 -1.3451  0.2082
 6004SOL    HW229475   0.043   4.341   8.589  1.1586  0.4355 -1.5281
 6005SOL     OW29476   0.170   1.317   7.804  0.2990 -0.4911  0.1848
 6005SOL    HW129477   0.151   1.375   7.878  0.7558  0.6608 -0.5960
 6005SOL    HW229478   0.264   1.327   7.790  0.2122 -2.0247 -1.4236
 6006SOL     OW29479   1.439   1.455   3.950 -0.3014  0.1869  0.3224
 6006SOL    HW129480   1.484   1.486   3.871 -2.3809  1.5320 -0.3389
 6006SOL    HW229481   1.433   1.537   4.000  2.2128  1.3841 -1.3531
 6007SOL     OW29482   0.395   4.446   7.123 -0.7157 -0.1967  0.2578
 6007SOL    HW129483   0.304   4.478   7.126 -0.9014 -0.6953 -0.0185
 6007SOL    HW229484   0.440   4.520   7.082 -1.9470  1.3450  1.6537
 6008SOL     OW29485   2.678   3.060   8.930  0.5280 -0.4134 -0.1493
 6008SOL    HW129486   2.661   3.154   8.940 -0.3217 -0.6646  0.7823
 6008SOL    HW229487   2.587   3.030   8.922  0.6794 -1.3213  1.3810
 6009SOL     OW29488   4.270   1.056   5.460  0.6745  0.0540  0.2318
 6009SOL    HW129489   4.265   1.148   5.487 -0.2038  0.3381 -0.9000
 6009SOL    HW229490   4.210   1.018   5.524  1.4546 -0.5269  0.6138
 6010SOL     OW29491   4.418   1.871   7.281  0.5274  0.1792 -0.2436
 6010SOL    HW129492   4.330   1.831   7.278  0.1538  0.8925  1.5498
 6010SOL    HW229493   4.396   1.957   7.245 -1.3699 -0.0160  0.4183
 6011SOL     OW29494   1.468   3.549   1.660 -0.1726  0.1663  0.1777
 6011SOL    HW129495   1.480   3.473   1.717 -0.8983 -1.1665 -1.4515
 6011SOL    HW229496   1.377   3.533   1.637 -0.0473 -1.8137  1.0972
 6012SOL     OW29497   0.151   3.662   9.908  0.2108 -0.1194  1.2156
 6012SOL    HW129498   0.182   3.636   9.821 -1.5213 -1.2940  0.9412
 6012SOL    HW229499   0.231   3.707   9.935 -0.4282  2.0007 -0.4135
 6013SOL     OW29500   0.329   0.052  10.363  0.2409  0.1021 -0.3700
 6013SOL    HW129501   0.409   0.023  10.408 -0.2438  0.5896  0.7942
 6013SOL    HW229502   0.289   0.108  10.429  0.2498 -1.1669  0.7074
 6014SOL     OW29503   4.373   1.079   0.081 -0.7410  0.5729 -0.3915
 6014SOL    HW129504   4.359   1.169   0.110  0.4662  0.4086  0.6981
 6014SOL    HW229505   4.284   1.049   0.098 -1.2354  1.9410 -0.5649
 6015SOL     OW29506   1.037   1.809   8.670  0.1970  0.6904 -0.5775
 6015SOL    HW129507   1.018   1.720   8.638  1.3194  1.2882 -2.8644
 6015SOL    HW229508   0.947   1.842   8.667 -0.1577 -0.4938 -2.6811
 6016SOL     OW29509   2.136   1.515   2.729  0.8575  0.1231  0.3369
 6016SOL    HW129510   2.158   1.581   2.663  1.2350  1.1097  1.4432
 6016SOL    HW229511   2.047   1.504   2.696  1.0605  1.6649 -0.7552
 6017SOL     OW29512   0.630   1.171   4.240  0.5099  0.2608 -0.2995
 6017SOL    HW129513   0.550   1.173   4.187 -0.3009  3.2292  1.0297
 6017SOL    HW229514   0.646   1.077   4.229  1.0474  0.1321  1.6329
 6018SOL     OW29515   1.222   2.558   2.036  0.3985 -0.1827  0.0652
 6018SOL    HW129516   1.205   2.489   1.972 -0.1730  0.2120 -0.2147
 6018SOL    HW229517   1.216   2.628   1.971 -0.1299  0.6572  1.0225
 6019SOL     OW29518   0.807   3.376   8.684  0.3524 -0.6904  0.4378
 6019SOL    HW129519   0.805   3.346   8.593 -0.5874 -0.4907  0.3909
 6019SOL    HW229520   0.895   3.410   8.700 -0.4212  0.8651  1.3832
 6020SOL     OW29521   3.181   4.428   8.168 -0.4622  0.0876  0.4439
 6020SOL    HW129522   3.161   4.508   8.120 -1.2619 -0.9451 -0.9486
 6020SOL    HW229523   3.259   4.407   8.117 -0.2896  0.7893  0.4155
 6021SOL     OW29524   1.812   0.131   9.501  0.0436  0.1466  0.3029
 6021SOL    HW129525   1.905   0.115   9.516  0.5633  1.3016 -1.6803
 6021SOL    HW229526   1.788   0.196   9.567 -0.5846  0.9098 -0.6846
 6022SOL     OW29527   0.934   1.588   7.307  0.1615 -0.1925  0.2838
 6022SOL    HW129528   0.867   1.520   7.321 -2.3910  2.4273  0.8089
 6022SOL    HW229529   0.871   1.660   7.304 -0.1343 -0.5193 -1.4655
 6023SOL     OW29530   1.281   3.566   3.999  0.0781 -0.5223  0.1501
 6023SOL    HW129531   1.353   3.522   4.045 -2.2075 -1.8902  2.4278
 6023SOL    HW229532   1.259   3.629   4.068 -3.2659  1.0731 -2.4092
 6024SOL     OW29533   3.950   1.521   8.243  0.0575 -0.2983  0.1004
 6024SOL    HW129534   4.036   1.550   8.213  0.9634 -1.8351  1.2400
 6024SOL    HW229535   3.962   1.427   8.250 -0.0457 -0.4509 -1.5793
 6025SOL     OW29536   1.462   4.178   6.373  0.5145 -0.3682 -0.4902
 6025SOL    HW129537   1.396   4.124   6.330 -1.3189 -0.0417  1.9040
 6025SOL    HW229538   1.529   4.174   6.305 -0.0829 -0.5880 -1.0625
 6026SOL     OW29539   3.951   3.649   0.904  0.6151 -0.4046  0.6020
 6026SOL    HW129540   3.941   3.657   0.999 -1.0547  1.3885  0.2601
 6026SOL    HW229541   3.869   3.690   0.876 -0.4200 -1.2237  2.4453
 6027SOL     OW29542   3.505   0.588   0.407 -0.1455 -0.5569 -0.0054
 6027SOL    HW129543   3.456   0.669   0.395  1.5994  0.7209  1.5253
 6027SOL    HW229544   3.517   0.569   0.314  0.5400 -1.3296  0.2366
 6028SOL     OW29545   0.578   1.290  17.604 -0.2056 -0.1754 -0.0856
 6028SOL    HW129546   0.663   1.261  17.636  0.3053  2.5669  1.0803
 6028SOL    HW229547   0.526   1.215  17.575  0.9586 -0.8564 -0.3902
 6029SOL     OW29548   2.980   4.176   4.616  0.4107  0.2341  0.0834
 6029SOL    HW129549   2.958   4.083   4.619  0.5417  0.1256 -1.8095
 6029SOL    HW229550   3.045   4.187   4.685 -0.0551 -2.3545  0.9158
 6030SOL     OW29551   0.853   2.023  10.634  0.1561 -0.4185 -0.4215
 6030SOL    HW129552   0.770   2.055  10.669  1.3311 -0.5867  2.5181
 6030SOL    HW229553   0.819   1.991  10.550 -2.2878 -0.5190  0.5972
 6031SOL     OW29554   0.438   0.716   8.394  0.4401 -0.3841  0.7224
 6031SOL    HW129555   0.413   0.671   8.313 -0.3339  1.2879  0.0297
 6031SOL    HW229556   0.455   0.644   8.455 -1.5157 -0.9983  0.5330
 6032SOL     OW29557   0.321   2.699  15.323  1.0311  0.5407  0.1217
 6032SOL    HW129558   0.237   2.739  15.302  0.0174 -1.2578  0.6941
 6032SOL    HW229559   0.389   2.753  15.283  1.1111 -0.9808 -1.7831
 6033SOL     OW29560   4.645   3.774  15.194 -1.1288 -0.3699  0.3615
 6033SOL    HW129561   0.015   3.755  15.212 -1.0859  2.1143  2.7394
 6033SOL    HW229562   4.612   3.685  15.180 -3.2000  0.4525 -0.0166
 6034SOL     OW29563   3.035   2.050   1.712 -0.0891 -0.3242 -0.2716
 6034SOL    HW129564   3.056   1.960   1.737  0.5383  0.0428  0.5381
 6034SOL    HW229565   3.051   2.029   1.620  4.0210 -0.0257  0.3696
 6035SOL     OW29566   2.478   3.353   3.519  0.3052 -0.1924 -0.6167
 6035SOL    HW129567   2.398   3.362   3.467 -0.1168  1.9487  0.3901
 6035SOL    HW229568   2.463   3.389   3.607  0.5424  1.1621 -1.1382
 6036SOL     OW29569   0.880   0.335   2.823  0.2135 -0.1978 -0.3289
 6036SOL    HW129570   0.835   0.318   2.905 -0.8054  0.6553 -0.7174
 6036SOL    HW229571   0.855   0.259   2.771 -0.8392  1.0488 -1.6299
 6037SOL     OW29572   2.200   4.354   5.753 -0.4869 -0.0541 -0.0212
 6037SOL    HW129573   2.196   4.281   5.815 -1.1612 -0.2650 -0.3120
 6037SOL    HW229574   2.203   4.307   5.670 -0.0979 -2.2902  1.2654
 6038SOL     OW29575   4.623   3.026  10.047 -0.0298 -0.3529 -0.0152
 6038SOL    HW129576   4.706   2.988  10.073  1.2001  1.9712 -0.5886
 6038SOL    HW229577   4.640   3.117  10.072  1.0313 -0.5736  0.0378
 6039SOL     OW29578   3.164   0.018   1.555 -0.5887  0.1862  0.1316
 6039SOL    HW129579   3.088   0.053   1.602  0.1708 -0.4305  1.8179
 6039SOL    HW229580   3.222   0.094   1.554  0.0805 -0.3438 -0.8662
 6040SOL     OW29581   2.675   2.930   2.307  0.5749 -0.2364 -0.0874
 6040SOL    HW129582   2.699   3.016   2.340 -1.5189  0.0932  0.5713
 6040SOL    HW229583   2.755   2.881   2.328  1.4615  1.2440 -0.0271
 6041SOL     OW29584   2.247   2.543   8.193 -0.4386  0.0293 -0.4214
 6041SOL    HW129585   2.176   2.484   8.218  0.5789 -0.9422  0.1877
 6041SOL    HW229586   2.195   2.617   8.163 -1.8109 -1.3624 -1.4722
 6042SOL     OW29587   0.407   0.399   7.018 -0.1504 -0.6210 -0.1318
 6042SOL    HW129588   0.477   0.336   7.003  0.0289 -0.5343  0.3167
 6042SOL    HW229589   0.353   0.405   6.940  0.1988 -3.5047 -0.6017
 6043SOL     OW29590   0.107   1.809   7.356  0.8409 -0.5918 -0.1752
 6043SOL    HW129591   0.090   1.745   7.424  0.0557  0.6646  0.8226
 6043SOL    HW229592   0.161   1.872   7.405  3.9944 -0.9976 -3.1285
 6044SOL     OW29593   3.764   0.184   2.787  0.2719 -0.1036  0.1182
 6044SOL    HW129594   3.699   0.152   2.725  0.5509 -1.0673  0.3244
 6044SOL    HW229595   3.818   0.107   2.800  0.8796  0.4478  0.8813
 6045SOL     OW29596   3.663   4.097  13.022  0.0101  0.3659  0.3173
 6045SOL    HW129597   3.599   4.167  13.037 -0.8256  0.0606 -1.6962
 6045SOL    HW229598   3.680   4.061  13.109  0.7915 -1.6981 -0.6993
 6046SOL     OW29599   2.496   0.761   6.417  0.3453  0.2191  0.0146
 6046SOL    HW129600   2.551   0.796   6.346 -0.4726 -0.8093 -1.1316
 6046SOL    HW229601   2.423   0.823   6.424 -0.1993 -0.7156  2.5060
 6047SOL     OW29602   4.117   1.684  14.298  0.0768 -0.2346 -0.4366
 6047SOL    HW129603   4.086   1.657  14.384  0.1408  1.9044  0.2464
 6047SOL    HW229604   4.123   1.602  14.248  0.7730 -0.7496  0.4876
 6048SOL     OW29605   1.625   0.098   8.660 -0.1852  0.1156 -0.8380
 6048SOL    HW129606   1.551   0.154   8.685 -1.5141 -1.5763 -0.9858
 6048SOL    HW229607   1.652   0.080   8.751 -0.6226  2.6240 -0.2110
 6049SOL     OW29608   0.808   2.621   5.179  0.4263  0.5405 -0.6678
 6049SOL    HW129609   0.835   2.679   5.109  0.4917 -0.1092 -1.1862
 6049SOL    HW229610   0.863   2.544   5.163  1.1704  0.8395  0.4713
 6050SOL     OW29611   1.972   1.812   9.064 -0.5730 -0.3782  0.2146
 6050SOL    HW129612   1.883   1.809   9.028 -0.2860 -0.7128 -0.4615
 6050SOL    HW229613   1.956   1.854   9.149  1.0360 -0.8436  0.7565
 6051SOL     OW29614   0.587   1.632   4.477  0.0772  0.4645 -0.4979
 6051SOL    HW129615   0.527   1.628   4.403  0.1070  1.2392 -0.5640
 6051SOL    HW229616   0.621   1.721   4.466 -3.2835  1.9155  1.0052
 6052SOL     OW29617   1.508   1.985   2.638 -0.1689 -0.4370 -0.3125
 6052SOL    HW129618   1.464   2.008   2.720  1.2843 -2.8609  1.1540
 6052SOL    HW229619   1.438   1.948   2.584 -1.1067  3.1937 -1.5997
 6053SOL     OW29620   3.238   0.092   8.662  0.1592  0.2438  0.2969
 6053SOL    HW129621   3.277   0.117   8.746  3.0164  0.9886 -1.2893
 6053SOL    HW229622   3.322   0.086   8.617  0.5309  2.0395  0.7512
 6054SOL     OW29623   0.226   0.522  12.772  0.6835 -0.2799  0.5120
 6054SOL    HW129624   0.273   0.511  12.690  0.4320 -3.5082  0.7966
 6054SOL    HW229625   0.218   0.433  12.808 -1.5481 -0.7122 -0.9840
 6055SOL     OW29626   3.600   1.524   4.647 -0.6434 -0.3172  0.8202
 6055SOL    HW129627   3.649   1.606   4.659 -1.1278  0.1582 -0.4949
 6055SOL    HW229628   3.645   1.485   4.572 -2.3360 -2.1803  0.7722
 6056SOL     OW29629   1.760   4.349   4.101 -0.4297  1.1393  0.1423
 6056SOL    HW129630   1.708   4.348   4.182 -0.7968  2.3994 -0.0732
 6056SOL    HW229631   1.701   4.357   4.026  0.7390  1.3205 -0.7599
 6057SOL     OW29632   4.059   1.147   2.601  0.1946 -0.2078 -0.1300
 6057SOL    HW129633   4.078   1.218   2.540 -0.9941  1.2492  1.1899
 6057SOL    HW229634   4.051   1.082   2.531  0.6365  1.9520 -2.1878
 6058SOL     OW29635   4.164   0.932   3.817  0.3619 -0.3148 -0.6141
 6058SOL    HW129636   4.195   0.868   3.753  0.0932 -1.7895  0.7063
 6058SOL    HW229637   4.159   1.014   3.769  2.2766  0.2763  0.2120
 6059SOL     OW29638   0.416   2.307  14.513  0.5881 -0.2151 -0.8340
 6059SOL    HW129639   0.431   2.259  14.432 -0.3486  0.3135 -1.3212
 6059SOL    HW229640   0.403   2.387  14.461 -2.1651 -0.7798 -1.0220
 6060SOL     OW29641   1.398   2.861   2.471 -0.1633  0.5653 -0.3702
 6060SOL    HW129642   1.396   2.808   2.391  1.0685  1.6626 -1.1274
 6060SOL    HW229643   1.348   2.808   2.534  0.6563  1.0672  0.6969
 6061SOL     OW29644   0.630   1.748   3.289 -0.1730  0.0397  0.1711
 6061SOL    HW129645   0.655   1.685   3.222  1.1677 -0.1206  0.8090
 6061SOL    HW229646   0.596   1.692   3.359  0.4511  1.4655  1.6321
 6062SOL     OW29647   4.201   2.330   2.901 -0.2890  0.4602 -0.1538
 6062SOL    HW129648   4.168   2.305   2.988 -3.9693 -0.7612 -1.9067
 6062SOL    HW229649   4.290   2.295   2.901 -0.0505  1.0697  0.3796
 6063SOL     OW29650   3.642   2.228  14.986  0.0012 -0.0742  0.5043
 6063SOL    HW129651   3.598   2.184  15.058 -0.9537 -1.5492 -0.9915
 6063SOL    HW229652   3.718   2.174  14.962  1.0270 -0.0386  3.6814
 6064SOL     OW29653   0.884   1.022   4.558 -0.5361 -0.0480  0.1093
 6064SOL    HW129654   0.899   1.077   4.634  0.3810 -1.1909  0.7556
 6064SOL    HW229655   0.954   0.956   4.559  1.2392  1.8126 -1.1316
 6065SOL     OW29656   1.588   1.403   5.295 -0.3565  0.6205 -0.3467
 6065SOL    HW129657   1.621   1.317   5.268 -1.7477  0.0320 -0.1488
 6065SOL    HW229658   1.643   1.455   5.237  0.8210  0.0614  0.2676
 6066SOL     OW29659   0.939   1.026  10.467 -0.3065 -0.0085  0.3087
 6066SOL    HW129660   0.972   1.026  10.376 -0.5232 -3.3082  0.2217
 6066SOL    HW229661   0.952   0.932  10.477  3.1303  0.4515  0.3719
 6067SOL     OW29662   4.653   2.218   6.985  0.2629  0.1290  0.5331
 6067SOL    HW129663   4.637   2.290   6.924  2.0892 -1.1035 -1.3863
 6067SOL    HW229664   0.019   2.239   7.016  0.7769 -0.9103 -0.2234
 6068SOL     OW29665   1.591   4.179   9.762  0.6359 -0.1555  0.0799
 6068SOL    HW129666   1.544   4.262   9.758  0.3966 -0.2278  1.3848
 6068SOL    HW229667   1.550   4.131   9.834 -0.1390  0.7759  0.2544
 6069SOL     OW29668   0.776   4.264   7.778 -0.1603  0.2605 -0.2863
 6069SOL    HW129669   0.831   4.267   7.856 -2.5317  2.3215  1.2729
 6069SOL    HW229670   0.808   4.341   7.732  4.3397 -1.1784  0.3950
 6070SOL     OW29671   3.196   3.241   3.945  0.2126 -0.1354  0.2213
 6070SOL    HW129672   3.220   3.155   3.981  1.1198  0.2512  0.5336
 6070SOL    HW229673   3.208   3.220   3.852  0.9721 -1.3423  0.5951
 6071SOL     OW29674   0.637   3.958   3.869 -0.9450  0.4852  0.1268
 6071SOL    HW129675   0.557   3.928   3.913 -1.2999 -0.8604 -1.4389
 6071SOL    HW229676   0.649   3.890   3.802  1.2961  2.1003 -1.1225
 6072SOL     OW29677   1.382   0.165   2.018 -0.0748 -0.2506 -0.2852
 6072SOL    HW129678   1.344   0.143   1.933 -1.1415 -1.1040  0.4055
 6072SOL    HW229679   1.474   0.175   1.993  0.3540 -0.1246  1.3575
 6073SOL     OW29680   3.997   3.117   7.043  0.0778 -0.3152 -0.2078
 6073SOL    HW129681   3.939   3.188   7.070  1.0353  0.6275 -0.6285
 6073SOL    HW229682   4.063   3.158   6.987 -0.8845  1.9057  0.2729
 6074SOL     OW29683   1.074   4.640   3.504  0.0233 -0.2577 -0.4716
 6074SOL    HW129684   1.144   4.705   3.506 -1.1763  0.9715  0.9993
 6074SOL    HW229685   1.055   4.624   3.411 -0.0344  0.7292 -0.6213
 6075SOL     OW29686   2.671   3.938   8.938 -0.6141  0.2581 -0.0342
 6075SOL    HW129687   2.757   3.946   8.897 -0.4467  0.1569  0.2974
 6075SOL    HW229688   2.642   4.024   8.908 -0.3427 -0.0834 -1.2855
 6076SOL     OW29689   4.626   1.331   4.790  0.6834  0.6969  0.4396
 6076SOL    HW129690   4.563   1.259   4.778  1.5066  0.0597 -0.0820
 6076SOL    HW229691   4.696   1.291   4.738 -0.3067 -1.8491  1.0357
 6077SOL     OW29692   3.445   1.460   0.381 -0.2308  0.1443  0.2551
 6077SOL    HW129693   3.385   1.385   0.380  0.8274 -0.6687 -1.7881
 6077SOL    HW229694   3.457   1.481   0.474 -0.0589 -0.0296  0.2716
 6078SOL     OW29695   3.945   3.558   5.668 -0.0052  0.2292 -0.5655
 6078SOL    HW129696   4.019   3.619   5.668 -0.3579  0.6754 -1.4308
 6078SOL    HW229697   3.886   3.610   5.722  0.3379 -0.1019  0.1214
 6079SOL     OW29698   2.839   1.057  16.587 -0.2491  0.2632  0.3095
 6079SOL    HW129699   2.852   1.126  16.652  2.0492 -0.2387  0.3679
 6079SOL    HW229700   2.838   1.109  16.507 -2.0926 -1.1534 -0.5862
 6080SOL     OW29701   0.618   2.321   6.011 -0.1146  0.0962 -0.2086
 6080SOL    HW129702   0.598   2.273   5.930 -0.0781  1.5048 -1.0442
 6080SOL    HW229703   0.573   2.271   6.080  1.9048  1.2750  1.9248
 6081SOL     OW29704   2.116   2.204   2.062 -0.0399 -0.5170  0.0459
 6081SOL    HW129705   2.182   2.189   1.995  1.6567  1.2981  1.2903
 6081SOL    HW229706   2.059   2.251   2.002  0.5095 -1.2164 -1.0169
 6082SOL     OW29707   2.688   2.694   5.625 -0.5977 -0.2277 -0.4610
 6082SOL    HW129708   2.769   2.656   5.660 -1.8135 -2.1505  0.2971
 6082SOL    HW229709   2.680   2.782   5.661 -0.3036 -0.5357  0.3471
 6083SOL     OW29710   1.135   1.356  17.194 -0.3972  0.0133 -0.1024
 6083SOL    HW129711   1.103   1.443  17.214  1.4325 -0.2675  3.9613
 6083SOL    HW229712   1.121   1.305  17.273 -0.0499 -0.3014 -0.2437
 6084SOL     OW29713   1.960   4.254  13.257 -0.5848  0.1099  0.1846
 6084SOL    HW129714   1.992   4.164  13.250 -1.8179 -0.1973 -1.5237
 6084SOL    HW229715   1.873   4.240  13.294 -1.4024  0.0657 -1.7229
 6085SOL     OW29716   3.334   2.915  12.210 -0.0582  0.2497  0.8097
 6085SOL    HW129717   3.411   2.907  12.266 -0.0634 -1.9022  0.5318
 6085SOL    HW229718   3.341   3.008  12.188  1.2469  0.0219  0.2563
 6086SOL     OW29719   3.896   0.506   9.340  0.0036  0.0343 -0.3003
 6086SOL    HW129720   3.899   0.551   9.424 -0.9268  0.6500 -0.5974
 6086SOL    HW229721   3.951   0.562   9.286 -0.4114  0.4845 -0.2580
 6087SOL     OW29722   1.554   4.123  14.007  0.2943 -0.1635  0.1635
 6087SOL    HW129723   1.596   4.182  13.944  1.5148 -1.2599 -0.0443
 6087SOL    HW229724   1.512   4.190  14.062 -0.9235 -0.2018 -0.7124
 6088SOL     OW29725   4.695   3.914   3.937 -0.3879  0.3605 -0.5854
 6088SOL    HW129726   0.058   3.870   3.933 -1.2299 -0.9174 -3.8331
 6088SOL    HW229727   4.637   3.841   3.955 -0.3615 -0.1707 -2.6357
 6089SOL     OW29728   4.006   3.335   3.067  0.3345  0.3258  0.4313
 6089SOL    HW129729   3.951   3.402   3.107 -1.7248 -0.5523 -0.9190
 6089SOL    HW229730   4.087   3.386   3.067  0.5390  0.0039  0.9992
 6090SOL     OW29731   3.854   3.194   4.255  0.2311  0.9120  0.2111
 6090SOL    HW129732   3.842   3.152   4.170  2.6709  1.4238 -0.3939
 6090SOL    HW229733   3.831   3.285   4.235 -1.0620  0.4793 -0.2639
 6091SOL     OW29734   2.867   3.421   0.078 -0.7506 -0.2755  0.1397
 6091SOL    HW129735   2.784   3.463   0.058 -0.8872 -0.7272 -0.2283
 6091SOL    HW229736   2.849   3.327   0.081  1.6072 -0.7446 -0.0863
 6092SOL     OW29737   2.055   3.557   1.592 -0.2262 -0.6120  0.6412
 6092SOL    HW129738   1.962   3.562   1.570 -0.3283 -2.0497  0.7193
 6092SOL    HW229739   2.064   3.652   1.584 -0.0081 -0.6472  0.4541
 6093SOL     OW29740   1.374   0.653   5.901 -0.2649 -0.0609 -0.4610
 6093SOL    HW129741   1.308   0.699   5.850 -0.0797  2.0081  1.2005
 6093SOL    HW229742   1.433   0.727   5.915  2.9034 -2.6978  0.1157
 6094SOL     OW29743   1.861   4.156   8.679  0.3817 -0.1509  0.5266
 6094SOL    HW129744   1.831   4.245   8.699 -0.4238  0.2324 -2.4337
 6094SOL    HW229745   1.925   4.154   8.608 -1.2242  1.5466 -0.9703
 6095SOL     OW29746   0.677   3.175  16.316  0.3551  0.0036  0.0594
 6095SOL    HW129747   0.586   3.151  16.297  0.8353 -2.1824  0.5903
 6095SOL    HW229748   0.714   3.090  16.336  3.2047  1.5199  1.2157
 6096SOL     OW29749   0.899   1.581   8.852 -0.4161 -0.2378 -0.3683
 6096SOL    HW129750   0.994   1.587   8.846 -0.5492  0.2842 -2.0969
 6096SOL    HW229751   0.876   1.667   8.887 -2.3326 -0.5603 -0.8428
 6097SOL     OW29752   2.743   0.505   5.198  0.0369  0.0448  0.4166
 6097SOL    HW129753   2.817   0.480   5.253 -0.4937 -0.7451  0.7799
 6097SOL    HW229754   2.755   0.600   5.191 -0.2587  0.0326 -0.2312
 6098SOL     OW29755   2.158   1.690   0.915  0.0699  0.0388  0.3134
 6098SOL    HW129756   2.186   1.733   0.995  2.1491 -0.9812  0.1310
 6098SOL    HW229757   2.130   1.602   0.941 -0.2598 -0.1697 -0.7134
 6099SOL     OW29758   1.455   2.358  17.068  0.2793 -0.1789 -0.3969
 6099SOL    HW129759   1.451   2.445  17.028 -0.2757  0.4956  1.1379
 6099SOL    HW229760   1.422   2.367  17.157 -0.4706 -0.9108 -0.5920
 6100SOL     OW29761   1.667   1.412   7.324  0.1921 -0.0592  0.3996
 6100SOL    HW129762   1.660   1.490   7.379  2.8537  0.4673 -0.0180
 6100SOL    HW229763   1.650   1.335   7.378 -0.4897 -0.5705 -0.5367
 6101SOL     OW29764   4.107   4.230   6.017 -0.1431 -0.0336 -0.8613
 6101SOL    HW129765   4.127   4.235   6.110 -0.4759  2.6344 -0.9339
 6101SOL    HW229766   4.014   4.251   6.017 -0.2959 -0.7552  0.3916
 6102SOL     OW29767   0.919   2.501   3.830 -0.1531  0.0758 -0.0356
 6102SOL    HW129768   0.980   2.459   3.891  0.3182  0.6627 -0.1054
 6102SOL    HW229769   0.983   2.554   3.783  2.0698 -2.9407 -0.4127
 6103SOL     OW29770   2.245   0.635   3.356  0.1279  0.4618 -0.2140
 6103SOL    HW129771   2.199   0.664   3.277 -2.9324  1.3060  1.8938
 6103SOL    HW229772   2.319   0.694   3.371  1.9353 -1.9933  0.4244
 6104SOL     OW29773   3.840   0.258  12.358  0.1993 -0.2826  0.1912
 6104SOL    HW129774   3.885   0.198  12.299  1.0406  1.7769 -1.2451
 6104SOL    HW229775   3.850   0.332  12.298 -1.7732  1.0035  1.4631
 6105SOL     OW29776   0.186   1.723   0.395 -0.2105  0.0485  0.7654
 6105SOL    HW129777   0.197   1.791   0.329  0.2964 -0.8273 -0.0593
 6105SOL    HW229778   0.257   1.665   0.367  0.1116  0.2264  1.2068
 6106SOL     OW29779   2.425   2.419   3.037  0.0180 -0.5078 -0.5132
 6106SOL    HW129780   2.495   2.357   3.060  0.5640  0.9883  1.9136
 6106SOL    HW229781   2.440   2.493   3.096 -2.2288  0.2551 -0.9220
 6107SOL     OW29782   3.547   3.280  15.366  0.2257  0.3333  0.3473
 6107SOL    HW129783   3.612   3.220  15.329  1.0106  0.8153  0.9286
 6107SOL    HW229784   3.472   3.220  15.370 -0.0506  0.6614  0.0789
 6108SOL     OW29785   0.664   1.412   8.546  0.2849 -0.1373 -0.1677
 6108SOL    HW129786   0.624   1.421   8.632 -1.4566 -0.7941 -0.9212
 6108SOL    HW229787   0.597   1.372   8.491  0.8534 -0.7858 -0.3866
 6109SOL     OW29788   3.301   4.642  10.176  0.1768  0.2494 -0.9063
 6109SOL    HW129789   3.297   4.670  10.085  0.9252 -0.5811 -1.1920
 6109SOL    HW229790   3.394   4.624  10.190 -0.0275 -0.8035 -0.8720
 6110SOL     OW29791   2.737   1.223   3.826 -0.1803 -0.8688  0.1142
 6110SOL    HW129792   2.785   1.161   3.881  0.6341  0.3218  0.7441
 6110SOL    HW229793   2.653   1.230   3.870  0.4593  2.4127  0.8043
 6111SOL     OW29794   1.962   4.143   4.785  0.2384  0.6287  0.2279
 6111SOL    HW129795   1.873   4.176   4.770 -0.2992 -1.1920 -0.6629
 6111SOL    HW229796   1.941   4.077   4.719  0.0937  0.2524  0.6519
 6112SOL     OW29797   3.053   3.805   5.425  0.5092 -0.3309 -0.3587
 6112SOL    HW129798   3.054   3.842   5.337 -0.3059 -0.8613 -0.5969
 6112SOL    HW229799   3.063   3.714   5.395 -0.5916 -1.8592  3.8423
 6113SOL     OW29800   2.349   1.371  17.141 -0.4973  0.3302  0.6005
 6113SOL    HW129801   2.393   1.330  17.216 -1.7035 -0.1056  1.0713
 6113SOL    HW229802   2.263   1.380  17.182 -0.3600  1.9713  0.5126
 6114SOL     OW29803   2.242   2.548   5.932 -0.6675 -0.1018  0.2458
 6114SOL    HW129804   2.155   2.509   5.930 -0.0340 -1.5382  1.2737
 6114SOL    HW229805   2.297   2.482   5.890  1.2132  1.3989  0.3044
 6115SOL     OW29806   2.993   0.225  12.042  0.2681  0.5780 -0.1030
 6115SOL    HW129807   3.012   0.314  12.073  1.6648  1.3049 -3.1209
 6115SOL    HW229808   3.017   0.171  12.117  1.6912 -0.1034 -1.0576
 6116SOL     OW29809   0.511   0.680   9.802 -0.5777  0.2985  0.4886
 6116SOL    HW129810   0.517   0.703   9.895 -0.8508 -0.0875  0.6010
 6116SOL    HW229811   0.514   0.585   9.817 -0.8746  0.0167 -1.2754
 6117SOL     OW29812   3.318   2.055   6.668 -0.2208  0.0782  0.2348
 6117SOL    HW129813   3.404   2.074   6.705  0.3495 -0.5209 -0.7613
 6117SOL    HW229814   3.261   2.116   6.714  1.0722  2.3814 -1.2198
 6118SOL     OW29815   4.050   4.613   4.910 -0.2473  0.2255  0.1999
 6118SOL    HW129816   3.996   4.538   4.937  1.5524 -1.5851 -1.2732
 6118SOL    HW229817   4.039   4.671   4.985  0.6237 -1.3453  1.5324
 6119SOL     OW29818   3.878   4.545   0.544  0.7202  0.2174  0.5040
 6119SOL    HW129819   3.838   4.620   0.587 -0.6178  0.1607 -0.6574
 6119SOL    HW229820   3.935   4.597   0.488 -0.2956 -1.8738 -2.4245
 6120SOL     OW29821   3.793   0.153   7.004 -0.6204 -0.2712  0.5937
 6120SOL    HW129822   3.739   0.227   7.032 -1.2348 -0.0890 -1.0752
 6120SOL    HW229823   3.867   0.200   6.966 -0.4600 -0.9623  0.0476
 6121SOL     OW29824   0.006   3.963   5.910  0.0354 -0.0066  0.0721
 6121SOL    HW129825   0.035   3.980   5.999 -1.6877 -0.2562  0.6795
 6121SOL    HW229826   4.648   3.913   5.923  0.3823 -0.2580  1.1996
 6122SOL     OW29827   4.592   0.171   7.775  0.1875  0.0827  0.0919
 6122SOL    HW129828   4.641   0.114   7.715  0.8272 -0.2645  0.9446
 6122SOL    HW229829   4.512   0.119   7.773 -0.0339  0.4087  0.8609
 6123SOL     OW29830   0.317   1.405   9.380  0.1800  0.2333  0.0076
 6123SOL    HW129831   0.273   1.348   9.317 -0.3364  1.4326 -0.7316
 6123SOL    HW229832   0.318   1.365   9.467  0.6776  1.2303  0.4600
 6124SOL     OW29833   4.338   1.177   5.767  0.2625  0.5974 -0.9734
 6124SOL    HW129834   4.305   1.258   5.729  1.0236 -0.1996 -3.3401
 6124SOL    HW229835   4.258   1.154   5.814  2.2021 -1.4743  1.3788
 6125SOL     OW29836   4.396   2.118   5.998  0.0889  0.1531 -0.1480
 6125SOL    HW129837   4.441   2.203   5.999  0.4571 -0.0379 -0.6791
 6125SOL    HW229838   4.431   2.086   6.081 -0.0841  1.4303  0.4133
 6126SOL     OW29839   2.116   1.037   7.507 -0.0701 -0.6553  0.3910
 6126SOL    HW129840   2.151   1.125   7.522 -1.0904 -0.4715  1.7187
 6126SOL    HW229841   2.038   1.055   7.455  0.8465 -0.7262 -1.0205
 6127SOL     OW29842   2.199   3.170  16.640 -0.0252 -0.2536  0.5089
 6127SOL    HW129843   2.136   3.110  16.601  1.7486  0.0743 -2.9300
 6127SOL    HW229844   2.211   3.249  16.587  1.7094 -0.2769  0.8590
 6128SOL     OW29845   0.551   3.156   5.705 -0.7748  0.1411  0.2450
 6128SOL    HW129846   0.537   3.071   5.665 -0.9347 -0.0294  0.6573
 6128SOL    HW229847   0.462   3.184   5.687 -0.3615  2.1747  1.2915
 6129SOL     OW29848   1.970   1.593   3.736 -0.6647 -0.4442 -0.5957
 6129SOL    HW129849   1.894   1.552   3.776  0.1366 -1.2561  0.1031
 6129SOL    HW229850   1.995   1.652   3.807  0.5680  0.2294 -1.5715
 6130SOL     OW29851   3.049   4.315  12.621 -0.0231 -0.0158 -0.0406
 6130SOL    HW129852   3.091   4.243  12.667  0.5767  0.4782  0.1898
 6130SOL    HW229853   3.116   4.383  12.614 -1.4167  1.4058  0.2067
 6131SOL     OW29854   1.528   4.386   7.748  0.1380 -0.2052 -0.1678
 6131SOL    HW129855   1.435   4.364   7.746  0.0417  0.1933  0.0515
 6131SOL    HW229856   1.529   4.449   7.820  0.6425 -2.3065  1.6699
 6132SOL     OW29857   3.552   1.709  11.556 -0.1837  0.4115 -0.0996
 6132SOL    HW129858   3.497   1.726  11.480 -1.1595  1.5852  0.8719
 6132SOL    HW229859   3.603   1.789  11.570  2.0796 -0.9426 -0.5008
 6133SOL     OW29860   3.632   4.523   2.493  0.4270 -0.5905  0.7140
 6133SOL    HW129861   3.591   4.607   2.513  0.0599 -1.1790  2.3594
 6133SOL    HW229862   3.686   4.504   2.569  0.5897  1.9138  1.2153
 6134SOL     OW29863   3.292   0.449   7.628  0.2100 -0.2943 -0.2201
 6134SOL    HW129864   3.281   0.392   7.552 -1.2160  1.3077 -1.2516
 6134SOL    HW229865   3.244   0.391   7.686 -0.4945 -0.7368 -1.2422
 6135SOL     OW29866   0.165   3.564   6.857  0.5788  0.0273  0.2587
 6135SOL    HW129867   0.072   3.584   6.868  1.1879  1.9075  1.9561
 6135SOL    HW229868   0.195   3.522   6.937 -0.1076 -1.3341 -0.1848
 6136SOL     OW29869   4.002   0.830  12.800 -0.3263  0.6091 -0.5983
 6136SOL    HW129870   3.996   0.736  12.784 -0.3822  0.7774 -1.5899
 6136SOL    HW229871   4.077   0.829  12.860 -0.8855  0.2970  0.0936
 6137SOL     OW29872   2.142   0.919   6.334  0.3618 -0.8568 -0.3350
 6137SOL    HW129873   2.208   0.936   6.267  1.4405 -1.4309  0.5864
 6137SOL    HW229874   2.088   0.848   6.300 -1.1368  0.0077  0.2254
 6138SOL     OW29875   2.583   2.245  17.619 -0.0815  0.3128 -0.0131
 6138SOL    HW129876   2.556   2.154  17.624  0.3394  0.1004 -1.6262
 6138SOL    HW229877   2.543   2.293  17.547 -0.7577 -0.2114  0.0163
 6139SOL     OW29878   4.191   3.809  16.623 -0.3653 -0.2235  0.2073
 6139SOL    HW129879   4.184   3.824  16.529  1.5628  1.4777  0.3421
 6139SOL    HW229880   4.101   3.826  16.650 -0.5074  0.0239 -0.4492
 6140SOL     OW29881   4.491   2.542  13.606 -0.4448  0.1235 -0.2373
 6140SOL    HW129882   4.565   2.493  13.642 -0.5303  0.6094  0.6119
 6140SOL    HW229883   4.454   2.471  13.554 -1.0898  1.0897 -1.0964
 6141SOL     OW29884   1.688   0.635   1.401 -0.1597 -0.0547 -0.1927
 6141SOL    HW129885   1.599   0.664   1.421  0.8443  1.7167  1.6179
 6141SOL    HW229886   1.722   0.645   1.490  0.0851  2.6578 -0.5916
 6142SOL     OW29887   1.366   1.714   7.059  0.2497  0.3642  0.2137
 6142SOL    HW129888   1.444   1.745   7.103  1.3854 -0.0931 -1.4636
 6142SOL    HW229889   1.301   1.716   7.129 -0.8927 -2.7925 -0.7638
 6143SOL     OW29890   3.650   2.259   7.911  0.2145  0.0077 -0.2798
 6143SOL    HW129891   3.584   2.214   7.962  0.2684 -1.1619 -1.2490
 6143SOL    HW229892   3.716   2.274   7.979  2.2229 -1.6045 -1.8828
 6144SOL     OW29893   4.282   1.224   4.522  0.2485 -0.2671  0.1690
 6144SOL    HW129894   4.198   1.184   4.543  0.8514 -1.9624 -0.6549
 6144SOL    HW229895   4.301   1.286   4.592  0.2475  0.9610 -0.9127
 6145SOL     OW29896   3.518   1.003   0.807  0.0563 -0.4311 -0.0686
 6145SOL    HW129897   3.556   1.009   0.720 -0.8698 -0.7666 -0.4853
 6145SOL    HW229898   3.426   1.026   0.796  0.5230  1.2398 -0.4000
 6146SOL     OW29899   3.557   4.333   4.249  0.0749  0.3246 -0.3985
 6146SOL    HW129900   3.511   4.394   4.192  1.0144  1.8305  0.4405
 6146SOL    HW229901   3.499   4.259   4.232  1.7198 -1.3185  1.0603
 6147SOL     OW29902   1.014   2.622   0.662  0.5190  0.8078  0.4232
 6147SOL    HW129903   0.959   2.554   0.622  2.4035  1.7651 -3.8348
 6147SOL    HW229904   0.950   2.676   0.709 -0.6325  1.1037 -1.4579
 6148SOL     OW29905   1.859   1.680   7.294 -0.4777 -0.1125 -0.8607
 6148SOL    HW129906   1.841   1.601   7.346 -1.1266  1.3359  1.1164
 6148SOL    HW229907   1.943   1.713   7.325 -0.3758 -0.6131 -0.5943
 6149SOL     OW29908   2.053   2.088   4.852  0.3723  0.2962  0.9741
 6149SOL    HW129909   2.048   1.999   4.818 -0.6789  0.7740 -0.1430
 6149SOL    HW229910   1.972   2.101   4.802  0.5530  1.7781  1.0604
 6150SOL     OW29911   2.634   3.436   7.275 -0.9219  0.3331 -0.3039
 6150SOL    HW129912   2.596   3.454   7.362 -0.1579  0.9402 -0.0903
 6150SOL    HW229913   2.643   3.341   7.282  0.5564  0.3831 -1.5572
 6151SOL     OW29914   1.076   4.002   6.619 -0.0282  0.1330  0.0022
 6151SOL    HW129915   1.122   3.939   6.674  0.9502 -1.1700 -2.3146
 6151SOL    HW229916   1.015   3.943   6.575  0.9614  0.9215 -2.4420
 6152SOL     OW29917   4.167   3.638   7.171 -0.2218  0.0362 -0.1620
 6152SOL    HW129918   4.149   3.552   7.209  0.2864 -0.1677 -0.3755
 6152SOL    HW229919   4.183   3.618   7.079 -2.1412 -1.6561 -0.1082
 6153SOL     OW29920   0.868   2.670   1.833  0.2456 -0.1437  0.0863
 6153SOL    HW129921   0.870   2.696   1.741  1.5650 -1.1414 -0.1562
 6153SOL    HW229922   0.861   2.577   1.811 -1.1348 -0.0326  0.0938
 6154SOL     OW29923   3.626   4.009   7.768  0.2935 -0.0325  0.2304
 6154SOL    HW129924   3.684   4.076   7.805 -1.0979  0.6931  1.1021
 6154SOL    HW229925   3.543   4.014   7.816  0.0849  1.6632 -0.3088
 6155SOL     OW29926   0.047   4.249   7.774  0.3494  0.1804 -0.1288
 6155SOL    HW129927   0.025   4.212   7.688  1.3198  0.2817 -0.4199
 6155SOL    HW229928   0.132   4.289   7.758  1.2761 -0.9479  1.9699
 6156SOL     OW29929   4.149   4.201  10.564  0.1236 -0.5262  0.6527
 6156SOL    HW129930   4.175   4.271  10.624 -0.0330  0.8502 -0.8791
 6156SOL    HW229931   4.233   4.168  10.531  1.1358  0.2266  2.4439
 6157SOL     OW29932   2.848   0.746  12.786  0.4458  0.0585  0.8238
 6157SOL    HW129933   2.884   0.778  12.703 -3.3182 -0.0067 -0.8013
 6157SOL    HW229934   2.924   0.765  12.841  1.2034 -1.9938  0.5098
 6158SOL     OW29935   4.035   0.393   7.817  0.4817 -0.1917 -0.2443
 6158SOL    HW129936   4.077   0.307   7.820  1.4326  0.2565 -0.7524
 6158SOL    HW229937   4.074   0.446   7.887 -0.0547 -0.5314  0.3150
 6159SOL     OW29938   3.998   0.101   5.928  0.2486  0.3048  0.2829
 6159SOL    HW129939   3.937   0.172   5.909 -0.2869 -0.4555 -0.8095
 6159SOL    HW229940   3.943   0.037   5.974  1.7891  0.1151  1.8902
 6160SOL     OW29941   2.946   0.831   6.005 -0.4816 -0.3285 -0.0989
 6160SOL    HW129942   2.988   0.859   5.924  1.5915  1.1599  1.5029
 6160SOL    HW229943   2.888   0.906   6.017 -0.4754 -0.9855  3.8760
 6161SOL     OW29944   0.979   4.620   4.670 -0.0831 -0.5881 -1.2391
 6161SOL    HW129945   0.926   4.551   4.631  0.4563 -2.4301  1.3165
 6161SOL    HW229946   1.002   4.574   4.751 -0.5123  0.6161 -0.4223
 6162SOL     OW29947   4.430   2.077   3.773 -0.0445 -0.5878  0.2209
 6162SOL    HW129948   4.502   2.025   3.809 -0.8369 -2.5560 -1.0406
 6162SOL    HW229949   4.359   2.015   3.792 -2.7997  2.0741 -1.3927
 6163SOL     OW29950   3.564   3.648   5.361 -0.2744  0.1622  0.2499
 6163SOL    HW129951   3.603   3.735   5.358  2.3436 -0.9916  0.8453
 6163SOL    HW229952   3.499   3.661   5.430 -1.1086  1.5346 -0.7903
 6164SOL     OW29953   0.035   2.694   7.577  0.5554 -0.5691  0.3152
 6164SOL    HW129954   0.057   2.645   7.656 -0.7517  0.7453  1.4988
 6164SOL    HW229955   0.035   2.786   7.604  0.0718 -0.7162  0.8090
 6165SOL     OW29956   3.545   4.396   7.089 -0.0162  0.2049 -0.1325
 6165SOL    HW129957   3.605   4.348   7.033  1.3878 -0.5743  2.0615
 6165SOL    HW229958   3.604   4.472   7.090  1.7875 -1.2217  0.5289
 6166SOL     OW29959   1.452   3.503   0.055 -0.4389  0.0284  0.1296
 6166SOL    HW129960   1.422   3.504   0.146 -0.6118  1.9825  0.0513
 6166SOL    HW229961   1.530   3.558   0.057 -0.9491  0.7738 -0.7355
 6167SOL     OW29962   1.847   4.219   7.549  0.4233  0.2732 -0.5422
 6167SOL    HW129963   1.787   4.195   7.620  0.3070  0.4310 -0.5857
 6167SOL    HW229964   1.821   4.308   7.523  1.5453  0.3013 -1.5709
 6168SOL     OW29965   3.522   3.525   6.293 -0.3782 -0.0850 -0.2227
 6168SOL    HW129966   3.560   3.453   6.344  2.1767 -1.1460 -3.6355
 6168SOL    HW229967   3.430   3.513   6.316  0.4160 -1.6221  2.1344
 6169SOL     OW29968   2.296   1.461   8.995 -0.6163 -0.3702 -0.0810
 6169SOL    HW129969   2.375   1.441   8.945 -0.2559  1.4209 -0.2458
 6169SOL    HW229970   2.317   1.546   9.034  1.2200 -1.0169  0.3375
 6170SOL     OW29971   0.442   2.464   1.452  0.1677  0.1909  0.1411
 6170SOL    HW129972   0.463   2.531   1.518 -0.5048  0.6939 -0.1572
 6170SOL    HW229973   0.364   2.500   1.409 -1.9989 -1.3299  2.7664
 6171SOL     OW29974   4.214   4.573   6.900 -0.1384  0.2505  0.2178
 6171SOL    HW129975   4.285   4.616   6.852  1.6325 -2.5299  0.3475
 6171SOL    HW229976   4.221   4.485   6.862  1.0291 -0.5206  2.2126
 6172SOL     OW29977   2.407   4.050   2.450  0.3162  0.2062  0.3239
 6172SOL    HW129978   2.363   3.965   2.453 -0.0261  0.3659 -0.1996
 6172SOL    HW229979   2.423   4.068   2.543  0.6453  0.3866  0.2301
 6173SOL     OW29980   4.718   1.883   1.128 -0.2460  0.2353 -0.3908
 6173SOL    HW129981   4.642   1.940   1.114 -0.2530  0.3801  0.2206
 6173SOL    HW229982   4.671   1.799   1.128  2.5735 -1.3641  0.9057
 6174SOL     OW29983   2.269   3.193  10.259 -0.0042  0.3252 -0.0042
 6174SOL    HW129984   2.289   3.104  10.231 -0.5579 -0.2827  1.5017
 6174SOL    HW229985   2.317   3.247  10.196  1.0341 -0.8787 -0.2300
 6175SOL     OW29986   4.322   3.429   3.784  0.3475  0.0429  0.4738
 6175SOL    HW129987   4.368   3.355   3.824  0.8778  0.5484  0.7996
 6175SOL    HW229988   4.234   3.413   3.818  0.5462 -0.4297  0.7641
 6176SOL     OW29989   3.024   4.293   9.102  0.0667  0.3355  0.0886
 6176SOL    HW129990   3.095   4.234   9.077  1.2134  2.1876 -1.0196
 6176SOL    HW229991   2.967   4.269   9.029 -1.6020 -0.7427  1.7157
 6177SOL     OW29992   0.125   1.519   7.128  0.2257 -0.8963  0.2394
 6177SOL    HW129993   0.097   1.476   7.209 -1.6897 -1.5536 -0.7922
 6177SOL    HW229994   0.052   1.576   7.107  1.5766  0.7892  0.1080
 6178SOL     OW29995   0.016   1.727   3.139  0.2022  0.1861  0.5561
 6178SOL    HW129996   4.668   1.766   3.087 -1.3565 -1.8111  1.1379
 6178SOL    HW229997   4.702   1.727   3.228  0.1985  2.2523  0.5518
 6179SOL     OW29998   0.943   4.591   8.570 -0.4277  0.0271 -0.6564
 6179SOL    HW129999   0.986   4.535   8.635  1.3599 -0.1467 -1.9882
 6179SOL    HW230000   0.863   4.545   8.545 -0.2792 -0.6957  0.2077
 6180SOL     OW30001   1.942   3.902   8.876 -0.6653 -0.3224 -0.1111
 6180SOL    HW130002   2.038   3.898   8.886 -0.8459  3.9935  3.2432
 6180SOL    HW230003   1.915   3.868   8.961 -0.8425 -0.6655 -0.3043
 6181SOL     OW30004   3.695   2.494   3.061 -0.0530  0.5174  0.0229
 6181SOL    HW130005   3.785   2.464   3.065  0.2820  1.3674 -1.1277
 6181SOL    HW230006   3.667   2.462   3.146 -2.9582  0.0661 -1.1087
 6182SOL     OW30007   2.295   1.812   3.532 -0.2385  0.4639  0.0370
 6182SOL    HW130008   2.346   1.834   3.610  0.1023  1.3773 -0.4498
 6182SOL    HW230009   2.205   1.839   3.549  0.1745  1.5145  0.5443
 6183SOL     OW30010   1.363   3.688   8.696 -0.1745  0.0102 -0.6989
 6183SOL    HW130011   1.348   3.598   8.666  0.9947 -0.9696  1.6615
 6183SOL    HW230012   1.345   3.738   8.617 -0.1794 -1.9681 -1.9509
 6184SOL     OW30013   1.837   4.320   2.287  0.0786  0.2030  0.7836
 6184SOL    HW130014   1.800   4.408   2.295 -1.5304 -0.3239 -1.0009
 6184SOL    HW230015   1.877   4.318   2.374  1.8055 -1.4918 -0.0545
 6185SOL     OW30016   3.522   4.657   4.833 -0.2781  0.2344  0.0726
 6185SOL    HW130017   3.473   4.643   4.752 -1.9630 -1.3800  1.3679
 6185SOL    HW230018   3.570   0.016   4.813 -0.6934  0.3072 -0.6329
 6186SOL     OW30019   1.341   1.912   1.149  0.3672  0.3499 -0.2380
 6186SOL    HW130020   1.289   1.986   1.117  0.5933  0.9157  0.6887
 6186SOL    HW230021   1.403   1.904   1.077  0.1566 -0.6237 -0.2991
 6187SOL     OW30022   0.794   4.132   4.585 -0.2256 -0.1441  0.0731
 6187SOL    HW130023   0.711   4.085   4.585  0.7377 -1.8775 -2.6156
 6187SOL    HW230024   0.823   4.114   4.496 -0.4342 -1.2169  0.2208
 6188SOL     OW30025   3.473   3.857   3.930 -0.3553 -0.1022  0.2796
 6188SOL    HW130026   3.401   3.829   3.986 -0.6649  2.8419  1.3933
 6188SOL    HW230027   3.531   3.844   4.005 -0.3314 -0.6758  0.1567
 6189SOL     OW30028   0.575   1.950   5.179 -0.5363  0.4419 -0.0080
 6189SOL    HW130029   0.567   1.930   5.272 -1.4067 -2.7502 -0.7641
 6189SOL    HW230030   0.613   2.038   5.176  0.1812  0.2096  2.2406
 6190SOL     OW30031   1.928   4.505   9.459 -0.0580 -0.5519  0.8213
 6190SOL    HW130032   1.877   4.512   9.539  1.1932 -1.5486  1.7061
 6190SOL    HW230033   2.004   4.541   9.505  1.2253 -2.4405  0.1958
 6191SOL     OW30034   1.785   1.968   0.347 -0.3821 -0.0137 -0.6522
 6191SOL    HW130035   1.744   2.054   0.338  1.3418  0.9587  0.5941
 6191SOL    HW230036   1.772   1.950   0.440  0.7385  1.0128 -0.2964
 6192SOL     OW30037   3.810   3.289  11.777 -0.4615 -0.1358  0.4966
 6192SOL    HW130038   3.857   3.208  11.796 -1.9406 -0.8754  1.0601
 6192SOL    HW230039   3.826   3.285  11.683 -0.6490 -2.5969  0.5473
 6193SOL     OW30040   2.434   2.399   3.817  0.1009 -0.3744 -0.0709
 6193SOL    HW130041   2.492   2.326   3.841 -0.6584 -1.1164 -0.4934
 6193SOL    HW230042   2.345   2.364   3.819 -0.3932  0.9461  1.2641
 6194SOL     OW30043   3.074   2.054   2.496 -0.1584 -0.0858  0.5265
 6194SOL    HW130044   2.992   2.007   2.511  1.4519 -2.8859  0.6228
 6194SOL    HW230045   3.128   2.000   2.554 -0.8061 -1.3959 -0.0756
 6195SOL     OW30046   4.029   2.756   9.894  0.2073  0.6404 -0.8632
 6195SOL    HW130047   3.952   2.705   9.919 -0.5774  1.8070 -0.9230
 6195SOL    HW230048   4.097   2.708   9.941  0.1349  1.2385 -0.1642
 6196SOL     OW30049   0.376   2.015   8.503  0.2985 -0.0356  0.2989
 6196SOL    HW130050   0.432   2.065   8.444 -1.2705  2.8280  1.2274
 6196SOL    HW230051   0.428   1.940   8.532 -1.7344 -1.7556 -0.4994
 6197SOL     OW30052   0.171   1.937   1.344 -0.1456 -0.4355  0.0458
 6197SOL    HW130053   0.099   1.924   1.282  1.0484 -2.2333 -0.9604
 6197SOL    HW230054   0.236   1.996   1.304 -0.3158  0.5112  1.1693
 6198SOL     OW30055   4.235   2.949  16.624  0.2653 -0.1903  0.0305
 6198SOL    HW130056   4.263   3.012  16.558  3.1500 -0.6174  0.8837
 6198SOL    HW230057   4.144   2.975  16.645  0.6901  1.8897 -0.6664
 6199SOL     OW30058   2.019   4.419   8.008  0.3156 -0.0483  1.1403
 6199SOL    HW130059   2.065   4.353   8.060  2.1250  0.9431  0.8073
 6199SOL    HW230060   1.933   4.378   8.006  1.0606 -1.5165 -1.0329
 6200SOL     OW30061   2.052   0.010   0.084  0.3786 -0.5621  0.1768
 6200SOL    HW130062   2.103   0.017   0.164  1.1662 -1.1813 -0.2637
 6200SOL    HW230063   2.093   0.082   0.035 -2.4760  0.5250 -0.6327
 6201SOL     OW30064   0.555   2.818  13.055 -0.3920  0.1918 -0.1073
 6201SOL    HW130065   0.598   2.876  13.117  0.8516 -2.8368  1.8325
 6201SOL    HW230066   0.467   2.854  13.042 -0.6611  0.0826  1.4830
 6202SOL     OW30067   4.168   2.624   6.994 -0.6032  0.1467  0.7833
 6202SOL    HW130068   4.109   2.699   6.989 -0.1600  0.5123  1.0819
 6202SOL    HW230069   4.110   2.548   6.997  2.1676 -1.9673  0.3282
 6203SOL     OW30070   0.539   3.681   1.824 -0.2342  0.2933  0.1055
 6203SOL    HW130071   0.572   3.770   1.815 -0.0288  0.3490  1.4496
 6203SOL    HW230072   0.463   3.690   1.882 -0.9821 -0.0809 -0.8075
 6204SOL     OW30073   3.326   3.301   9.393 -0.4116 -0.2004  0.1744
 6204SOL    HW130074   3.268   3.297   9.469  2.0190  0.6676  2.0774
 6204SOL    HW230075   3.355   3.393   9.397  0.4146 -0.4382 -0.4391
 6205SOL     OW30076   4.468   2.111   8.218  0.0493  0.3755 -0.0572
 6205SOL    HW130077   4.543   2.165   8.242  0.2679 -0.5927  1.4914
 6205SOL    HW230078   4.411   2.181   8.188  1.5236  0.4661 -2.5969
 6206SOL     OW30079   4.411   0.320   7.528  0.0099  0.5515 -0.4156
 6206SOL    HW130080   4.373   0.252   7.473 -0.6064  0.0249  0.6690
 6206SOL    HW230081   4.502   0.326   7.498  0.1616 -1.2111 -0.3090
 6207SOL     OW30082   0.518   1.914   9.749  0.0077  0.0986  0.1940
 6207SOL    HW130083   0.553   1.827   9.768 -1.8257 -0.3187  1.6460
 6207SOL    HW230084   0.431   1.886   9.720 -0.1125 -0.6588  1.3017
 6208SOL     OW30085   0.111   0.213   8.858 -0.1375 -0.1878 -0.1249
 6208SOL    HW130086   0.161   0.265   8.794  1.0142  0.5400  1.3801
 6208SOL    HW230087   0.107   0.252   8.945  1.6979 -1.1090  0.3721
 6209SOL     OW30088   3.374   4.044  10.888 -0.5197  0.0741  0.2482
 6209SOL    HW130089   3.458   4.015  10.925 -0.0263  1.3048  0.1117
 6209SOL    HW230090   3.382   4.139  10.901 -1.0269  0.5983 -3.2109
 6210SOL     OW30091   4.365   4.421   4.781  0.3435 -0.0856  0.6756
 6210SOL    HW130092   4.420   4.422   4.703 -0.1714  0.5767  0.3156
 6210SOL    HW230093   4.352   4.513   4.806 -0.0223 -0.2716  1.1708
 6211SOL     OW30094   4.407   2.083   9.086  0.0158  0.1244 -0.2764
 6211SOL    HW130095   4.432   2.013   9.026 -4.7698 -1.0738 -0.9092
 6211SOL    HW230096   4.490   2.131   9.091 -1.2923  2.4600 -0.8297
 6212SOL     OW30097   2.579   0.627  15.233  0.3435 -0.6212 -0.0727
 6212SOL    HW130098   2.627   0.651  15.154  2.0161  1.0571  1.4446
 6212SOL    HW230099   2.527   0.707  15.238  1.8438  0.1580  3.0538
 6213SOL     OW30100   0.020   1.493   3.402  0.0099  0.7501 -0.0296
 6213SOL    HW130101   0.027   1.404   3.366  1.7672 -0.4914  3.3071
 6213SOL    HW230102   0.108   1.494   3.440  0.4563 -2.1341 -0.9942
 6214SOL     OW30103   0.886   2.153   7.623 -0.7011  0.0050 -0.3367
 6214SOL    HW130104   0.832   2.223   7.586  0.8274  1.6368  0.4828
 6214SOL    HW230105   0.970   2.174   7.581 -0.0913  0.9943  1.3633
 6215SOL     OW30106   4.641   2.534   1.829 -0.0741  0.0663  0.2193
 6215SOL    HW130107   4.640   2.624   1.863 -1.7701 -0.0340  0.4457
 6215SOL    HW230108   4.666   2.548   1.738  0.4969  0.0041  0.3671
 6216SOL     OW30109   2.660   1.887   1.027  0.5635 -0.1839  0.2956
 6216SOL    HW130110   2.576   1.858   1.064 -0.6380  1.0131 -1.4707
 6216SOL    HW230111   2.702   1.934   1.099  0.0460  2.7118 -1.2997
 6217SOL     OW30112   2.160   1.824   4.462 -0.0493  0.2720 -0.4322
 6217SOL    HW130113   2.197   1.739   4.442  1.4362  0.7216  0.3755
 6217SOL    HW230114   2.230   1.870   4.507 -2.1410  1.6646  1.4283
 6218SOL     OW30115   2.272   1.396  11.767 -0.1627  0.3392  0.2560
 6218SOL    HW130116   2.196   1.346  11.739  0.4594 -0.3083 -0.2844
 6218SOL    HW230117   2.297   1.363  11.854  0.6888  2.1413  0.7006
 6219SOL     OW30118   4.149   2.854   8.954 -0.3624 -0.3870  0.2946
 6219SOL    HW130119   4.128   2.819   9.041 -3.1480  1.1255  0.2267
 6219SOL    HW230120   4.235   2.816   8.936  0.0115 -0.0671  1.3911
 6220SOL     OW30121   3.673   4.182   6.124 -0.0197 -0.3528 -0.7816
 6220SOL    HW130122   3.619   4.251   6.087  0.9366  1.1431  0.5532
 6220SOL    HW230123   3.759   4.224   6.127 -0.3200  0.1053  1.8617
 6221SOL     OW30124   2.786   2.094   3.251 -0.3616  0.4291 -0.1224
 6221SOL    HW130125   2.823   2.053   3.329  1.5201 -1.2123 -1.8811
 6221SOL    HW230126   2.768   2.017   3.198  3.0894  1.1344 -2.3616
 6222SOL     OW30127   0.991   1.786   0.956  0.1382  0.2370  0.1195
 6222SOL    HW130128   1.043   1.866   0.955  0.0275  0.3245  2.4645
 6222SOL    HW230129   1.060   1.721   0.947 -2.4881 -2.5276 -0.3027
 6223SOL     OW30130   0.726   0.683  14.798  0.3939 -0.2233 -0.0811
 6223SOL    HW130131   0.795   0.751  14.795  1.8380 -1.8559 -3.5218
 6223SOL    HW230132   0.653   0.740  14.824  2.8397  3.5195 -1.3927
 6224SOL     OW30133   3.163   1.030   3.414 -0.1534  0.1700 -0.5245
 6224SOL    HW130134   3.241   0.975   3.415  0.9723  1.7448 -1.4067
 6224SOL    HW230135   3.141   1.030   3.320 -1.1980  0.2481 -0.2827
 6225SOL     OW30136   2.548   1.235   0.316 -0.0666 -0.1792 -0.0141
 6225SOL    HW130137   2.602   1.157   0.330  0.0036 -0.3498 -1.1977
 6225SOL    HW230138   2.514   1.236   0.405 -0.9742 -0.4741 -0.3503
 6226SOL     OW30139   3.719   1.609   5.537  0.1066 -0.4166 -0.0959
 6226SOL    HW130140   3.708   1.695   5.496  0.7928 -1.1212 -1.7233
 6226SOL    HW230141   3.791   1.615   5.600  0.6335 -2.3125 -0.5169
 6227SOL     OW30142   0.038   1.181  10.056 -0.4091 -0.3082 -0.5418
 6227SOL    HW130143   0.132   1.165  10.060 -0.3737  0.5374  2.0615
 6227SOL    HW230144   0.005   1.115  10.117  1.1360 -1.1720 -0.6380
 6228SOL     OW30145   1.246   1.734   2.284  0.0529 -0.0343  0.7515
 6228SOL    HW130146   1.247   1.801   2.216 -0.5580 -1.4508 -0.6607
 6228SOL    HW230147   1.312   1.670   2.259 -0.0788  0.7579 -1.6524
 6229SOL     OW30148   3.152   3.168   2.103  0.1075 -0.0700  0.1679
 6229SOL    HW130149   3.166   3.169   2.008  0.9357  0.8553  0.2894
 6229SOL    HW230150   3.225   3.228   2.117  0.2094  0.3798 -2.2470
 6230SOL     OW30151   0.999   3.894   9.579  0.4014  0.2159 -0.6906
 6230SOL    HW130152   1.033   3.925   9.495  0.6970 -0.9755 -1.0176
 6230SOL    HW230153   0.905   3.900   9.564  0.7421  0.4431 -2.7569
 6231SOL     OW30154   1.419   0.658  10.913  0.6691 -0.1664  0.4736
 6231SOL    HW130155   1.329   0.656  10.881  0.6025 -0.2608  0.6671
 6231SOL    HW230156   1.441   0.569  10.886 -4.0151 -1.2724  0.4178
 6232SOL     OW30157   2.558   4.210   5.452 -0.4212 -0.6914 -0.1563
 6232SOL    HW130158   2.570   4.119   5.480 -1.9410 -0.7324  0.3531
 6232SOL    HW230159   2.549   4.261   5.532 -2.0486  1.6401 -1.8172
 6233SOL     OW30160   4.544   3.262   6.208 -0.1391 -0.3017  0.2265
 6233SOL    HW130161   4.463   3.293   6.248  0.3053  0.5578  0.4657
 6233SOL    HW230162   4.535   3.300   6.121 -0.6054 -1.6493 -0.3215
 6234SOL     OW30163   0.916   1.408   1.829 -0.0907  0.5367  0.6297
 6234SOL    HW130164   0.846   1.461   1.790  1.4024  1.4693 -0.7678
 6234SOL    HW230165   0.879   1.366   1.907 -0.3823 -1.0748 -0.3567
 6235SOL     OW30166   2.402   2.113   2.383 -0.2955 -0.0132  0.0207
 6235SOL    HW130167   2.378   2.024   2.411 -0.5077  0.0392 -0.0003
 6235SOL    HW230168   2.447   2.098   2.300 -1.2642  0.4161 -0.5831
 6236SOL     OW30169   2.408   4.437   8.141 -0.4100 -0.3440 -0.1964
 6236SOL    HW130170   2.437   4.528   8.134 -1.9059 -0.1155 -3.4774
 6236SOL    HW230171   2.422   4.413   8.050 -0.9595  1.1440 -0.6768
 6237SOL     OW30172   2.469   2.113   8.587  0.1016  0.9079  0.3999
 6237SOL    HW130173   2.513   2.039   8.628  0.1917  1.8805  2.0705
 6237SOL    HW230174   2.480   2.191   8.641  1.3577  1.1384 -0.1884
 6238SOL     OW30175   1.778   3.931   0.279 -0.1550 -0.1191 -0.1537
 6238SOL    HW130176   1.836   3.900   0.349  0.3434  1.6119  0.2024
 6238SOL    HW230177   1.755   4.013   0.322 -0.1179  0.9427 -2.1876
 6239SOL     OW30178   2.843   1.578  10.820  0.0142  0.0423  0.1363
 6239SOL    HW130179   2.895   1.515  10.771 -1.4968 -1.5095  0.5228
 6239SOL    HW230180   2.766   1.529  10.850  0.9200 -3.0239 -2.5056
 6240SOL     OW30181   2.728   0.217   7.549  0.1705 -0.5661  0.3597
 6240SOL    HW130182   2.797   0.282   7.540  1.8484 -2.4225 -0.0877
 6240SOL    HW230183   2.685   0.249   7.629 -0.3531  1.6417 -0.8197
 6241SOL     OW30184   1.674   0.280  10.103  0.5339  0.6143  0.1859
 6241SOL    HW130185   1.673   0.212  10.035 -0.0202 -0.7450  1.5389
 6241SOL    HW230186   1.597   0.332  10.080 -0.4026  0.2972  2.5714
 6242SOL     OW30187   2.091   1.267   6.977  0.1825 -0.3486  0.2099
 6242SOL    HW130188   2.103   1.186   7.026 -2.3153 -0.3954  0.7470
 6242SOL    HW230189   2.176   1.310   6.982 -0.2275  0.5062 -0.2755
 6243SOL     OW30190   0.674   2.178   4.943 -0.4479 -0.0276  0.0941
 6243SOL    HW130191   0.639   2.162   4.855 -1.9180 -0.8091  0.8165
 6243SOL    HW230192   0.743   2.113   4.958 -0.1404 -0.3612 -2.7761
 6244SOL     OW30193   0.819   1.229   1.518 -0.5753 -0.1112  0.2234
 6244SOL    HW130194   0.818   1.315   1.558 -0.3352 -0.0156  0.0225
 6244SOL    HW230195   0.727   1.203   1.512 -0.9286  0.9878  1.1324
 6245SOL     OW30196   3.072   1.220   2.950 -0.4649 -0.2122 -0.0302
 6245SOL    HW130197   3.093   1.161   3.022 -2.8402  0.1003  0.9331
 6245SOL    HW230198   3.082   1.163   2.874  1.0406 -1.2126  0.9205
 6246SOL     OW30199   1.978   2.365   3.320  0.4216  0.3800 -0.0789
 6246SOL    HW130200   1.967   2.275   3.351 -1.4887  1.5227  2.5356
 6246SOL    HW230201   2.055   2.392   3.370 -0.3871  0.9910  0.8410
 6247SOL     OW30202   4.346   4.714  17.425 -0.5021 -0.5709 -0.1858
 6247SOL    HW130203   4.357   0.061  17.490  1.6929  0.1996 -1.3826
 6247SOL    HW230204   4.296   4.642  17.463 -1.1749 -1.2494 -2.3361
 6248SOL     OW30205   2.826   3.776   2.779 -0.1406  0.1791  0.1456
 6248SOL    HW130206   2.815   3.817   2.693 -1.0456  0.3906  0.3573
 6248SOL    HW230207   2.753   3.803   2.835  2.4909  3.7261  1.8796
 6249SOL     OW30208   0.889   1.820   8.325  0.3545 -0.5599 -0.8277
 6249SOL    HW130209   0.874   1.765   8.402 -1.4174  1.3963  0.2119
 6249SOL    HW230210   0.819   1.792   8.265 -0.5238 -1.3807  0.5822
 6250SOL     OW30211   0.287   3.260   3.201  0.6566  0.7159  0.6288
 6250SOL    HW130212   0.215   3.316   3.174 -0.0451 -0.8485 -0.7152
 6250SOL    HW230213   0.334   3.238   3.121  1.8219  1.0608  1.2123
 6251SOL     OW30214   1.753   1.067   4.903 -0.0648  0.4530 -0.5479
 6251SOL    HW130215   1.690   1.069   4.975 -0.5895  0.4777 -1.0059
 6251SOL    HW230216   1.808   0.991   4.920 -0.1021  0.3959 -0.6822
 6252SOL     OW30217   4.229   1.528   7.786 -0.0416  0.1836 -0.0990
 6252SOL    HW130218   4.269   1.502   7.869 -0.9940 -2.8478 -0.5620
 6252SOL    HW230219   4.298   1.518   7.720  1.5184 -2.0045  1.8907
 6253SOL     OW30220   4.721   2.425   7.309 -0.2269 -0.5327 -0.7939
 6253SOL    HW130221   0.051   2.365   7.255  1.9753  1.0029 -0.3682
 6253SOL    HW230222   4.719   2.364   7.383  0.1420  1.4586  0.8349
 6254SOL     OW30223   4.705   3.299   5.870 -0.4814 -0.9800 -0.1807
 6254SOL    HW130224   4.614   3.312   5.895 -0.1513 -0.2686  0.6555
 6254SOL    HW230225   4.704   3.353   5.791 -3.3232  1.4522  1.5152
 6255SOL     OW30226   2.587   0.468  13.492  0.8503 -0.1919  0.5646
 6255SOL    HW130227   2.563   0.414  13.567 -1.4295 -1.1097 -0.8401
 6255SOL    HW230228   2.667   0.506  13.529 -0.3077  1.3292  1.4483
 6256SOL     OW30229   2.928   0.195   5.320 -0.0049  0.2430  0.1477
 6256SOL    HW130230   2.930   0.123   5.257 -0.6431 -1.4053  2.0038
 6256SOL    HW230231   3.022   0.206   5.335  0.5960  0.4638 -3.6552
 6257SOL     OW30232   3.044   0.823   4.963 -0.2654 -0.3484  0.2195
 6257SOL    HW130233   3.048   0.731   4.987  0.6518  0.2566  2.3623
 6257SOL    HW230234   3.043   0.807   4.868 -1.6448 -0.3100  0.2233
 6258SOL     OW30235   0.180   4.352  12.435 -0.4063  0.4880 -0.0221
 6258SOL    HW130236   0.211   4.336  12.524  0.7114  1.8459 -0.1682
 6258SOL    HW230237   0.092   4.385  12.455  0.7180  2.5044  1.6699
 6259SOL     OW30238   4.524   3.562   8.102  0.3701 -0.0696  0.2305
 6259SOL    HW130239   4.470   3.628   8.144  0.2003  1.2617 -2.0649
 6259SOL    HW230240   4.567   3.538   8.184 -0.0993 -0.2644  0.4230
 6260SOL     OW30241   1.780   1.244   0.685  0.1018 -0.1041 -0.3519
 6260SOL    HW130242   1.851   1.181   0.672  0.2154 -0.1626  0.5652
 6260SOL    HW230243   1.728   1.200   0.752 -1.2036 -0.7703 -1.7906
 6261SOL     OW30244   1.797   4.116   6.709  0.0445  0.4985 -0.1467
 6261SOL    HW130245   1.829   4.190   6.760 -1.5797  0.1227  1.4036
 6261SOL    HW230246   1.878   4.067   6.701 -0.6490 -1.0809  2.7024
 6262SOL     OW30247   0.958   0.097  15.151 -0.0549  0.6301  0.1968
 6262SOL    HW130248   0.872   0.055  15.144 -1.0502  2.6688  0.1952
 6262SOL    HW230249   0.982   0.062  15.237  0.8917 -1.9963 -1.1385
 6263SOL     OW30250   3.980   0.095   4.730 -0.4131 -0.6754 -0.4427
 6263SOL    HW130251   4.011   0.021   4.782  1.8621  0.1785 -0.6258
 6263SOL    HW230252   4.054   0.116   4.674 -0.3254  4.6202  1.7005
 6264SOL     OW30253   3.426   2.428   3.570  0.2196 -0.0953  0.2452
 6264SOL    HW130254   3.370   2.493   3.614 -1.7569 -1.2435 -0.5547
 6264SOL    HW230255   3.364   2.385   3.511  0.3845 -0.9856  0.7194
 6265SOL     OW30256   1.937   0.866  14.533 -0.9022  0.0883  0.2391
 6265SOL    HW130257   1.846   0.886  14.512 -0.1634  1.7086 -1.3954
 6265SOL    HW230258   1.914   0.814  14.610 -0.1505  0.2549  0.5759
 6266SOL     OW30259   3.527   2.822   4.826  0.3525  0.0293  0.5721
 6266SOL    HW130260   3.550   2.777   4.745 -0.1760 -0.6959  0.8208
 6266SOL    HW230261   3.493   2.906   4.796 -1.7325 -0.3767  1.7222
 6267SOL     OW30262   0.614   0.029   1.835 -0.6239 -0.4619  0.1062
 6267SOL    HW130263   0.632   0.089   1.907 -1.3025 -0.4746  0.2871
 6267SOL    HW230264   0.645   0.077   1.758  4.0206 -1.6475  1.2808
 6268SOL     OW30265   1.348   3.276  14.841 -1.0386  0.3673  0.3551
 6268SOL    HW130266   1.434   3.286  14.800 -0.0449  1.2245  2.6785
 6268SOL    HW230267   1.292   3.313  14.773  0.0356  0.0495 -0.7104
 6269SOL     OW30268   2.164   3.522   5.990  0.3997 -0.1814 -0.2741
 6269SOL    HW130269   2.122   3.550   5.909 -2.2727  0.6916  1.4122
 6269SOL    HW230270   2.112   3.449   6.025 -0.1532  0.1862 -0.3317
 6270SOL     OW30271   0.260   0.197  16.041 -0.3733  0.1070 -0.0614
 6270SOL    HW130272   0.201   0.254  15.992  0.3624 -0.1587 -1.2510
 6270SOL    HW230273   0.327   0.259  16.069  0.1685  0.6850 -2.6282
 6271SOL     OW30274   3.953   1.419   2.007  0.0734  0.0301 -0.9479
 6271SOL    HW130275   4.037   1.463   1.999 -0.4675  1.2488  0.1583
 6271SOL    HW230276   3.882   1.483   2.016 -1.9344 -2.5120  1.1871
 6272SOL     OW30277   1.053   3.339   3.547  0.2869 -0.1551 -0.3065
 6272SOL    HW130278   1.053   3.320   3.453 -0.9513  0.2035 -0.3725
 6272SOL    HW230279   1.145   3.360   3.562  0.2546  0.6397 -1.2115
 6273SOL     OW30280   3.047   3.587  11.414 -0.0305  0.7867 -0.2540
 6273SOL    HW130281   3.101   3.547  11.482 -2.4700 -2.4779 -0.2424
 6273SOL    HW230282   2.956   3.561  11.429  0.9273 -2.2998  0.1994
 6274SOL     OW30283   1.969   1.953   1.730 -0.0369  0.4253 -0.4244
 6274SOL    HW130284   1.964   1.959   1.635 -0.3688  0.9436 -0.3708
 6274SOL    HW230285   1.888   1.993   1.758 -0.7734 -2.1485  1.1595
 6275SOL     OW30286   2.691   2.790   9.173 -0.0938 -0.0068 -0.1490
 6275SOL    HW130287   2.627   2.833   9.116 -0.2515  0.6987  0.5541
 6275SOL    HW230288   2.705   2.860   9.236 -1.7090  0.5367 -0.3778
 6276SOL     OW30289   1.068   1.369  12.458  0.0084 -0.5473 -0.2080
 6276SOL    HW130290   1.038   1.330  12.376  0.4162 -0.6381 -0.3165
 6276SOL    HW230291   0.991   1.378  12.514  0.0088  1.1953 -0.4800
 6277SOL     OW30292   1.921   2.435   4.502 -0.3349 -0.0839 -0.0852
 6277SOL    HW130293   1.855   2.447   4.570 -1.5010 -0.4076 -1.1505
 6277SOL    HW230294   1.992   2.491   4.530 -0.6619 -0.5770  1.7116
 6278SOL     OW30295   4.503   1.698   6.703  0.2898 -0.2844 -0.3049
 6278SOL    HW130296   4.586   1.724   6.664  0.1687 -0.2430 -0.5419
 6278SOL    HW230297   4.499   1.777   6.758 -2.1497  0.1023 -1.0207
 6279SOL     OW30298   1.254   3.743   6.352  0.2907  0.5664 -0.6464
 6279SOL    HW130299   1.227   3.668   6.300  0.4598  0.0737 -0.0277
 6279SOL    HW230300   1.169   3.770   6.387  0.4412  1.4368 -0.9628
 6280SOL     OW30301   4.290   4.485  15.737  0.0422 -0.3789  0.2163
 6280SOL    HW130302   4.321   4.558  15.683 -0.3524 -1.0529 -0.9191
 6280SOL    HW230303   4.357   4.421  15.712  2.5848  1.7865  1.4595
 6281SOL     OW30304   2.022   0.684   6.231 -0.0421 -0.2205 -0.6138
 6281SOL    HW130305   2.078   0.630   6.176  2.3325  0.7213  0.8418
 6281SOL    HW230306   1.950   0.622   6.224 -1.5022  1.7448 -3.0427
 6282SOL     OW30307   2.055   3.787  11.514  0.1105 -0.3386 -0.1657
 6282SOL    HW130308   2.071   3.813  11.423 -0.4537  2.5142  0.5469
 6282SOL    HW230309   2.138   3.819  11.551 -0.1517 -0.0994  0.2148
 6283SOL     OW30310   2.128   0.616   2.093 -0.1208  0.0336 -0.8387
 6283SOL    HW130311   2.054   0.570   2.132 -1.1402  1.3544 -1.2633
 6283SOL    HW230312   2.129   0.689   2.155 -0.3229 -1.0110  0.4082
 6284SOL     OW30313   2.022   1.956   8.412  0.0645  0.0662  0.2205
 6284SOL    HW130314   1.949   2.009   8.443 -0.4906  1.2452 -3.1888
 6284SOL    HW230315   2.058   2.004   8.337  1.3574  0.5602  1.1555
 6285SOL     OW30316   0.958   1.126  11.022  0.0109 -0.5180  0.0081
 6285SOL    HW130317   0.914   1.089  11.098 -0.0655 -1.9825 -0.7422
 6285SOL    HW230318   0.882   1.165  10.979 -0.0770  0.2773  0.9026
 6286SOL     OW30319   2.506   1.700   9.369  0.1011 -0.0849 -0.1031
 6286SOL    HW130320   2.505   1.696   9.465  0.6211  1.2198 -0.0382
 6286SOL    HW230321   2.568   1.628   9.357 -0.4279 -0.7396  1.0796
 6287SOL     OW30322   1.025   1.853   6.606 -0.8487  0.2768  0.0481
 6287SOL    HW130323   1.042   1.947   6.594  1.2199 -0.0467  0.3816
 6287SOL    HW230324   1.106   1.826   6.563 -0.7894  1.6247 -0.7030
 6288SOL     OW30325   4.000   2.238   8.479 -0.3938 -0.1385  0.0155
 6288SOL    HW130326   4.021   2.222   8.387 -0.4602  0.7016 -0.1433
 6288SOL    HW230327   3.916   2.282   8.466 -0.9291 -1.7949 -1.9953
 6289SOL     OW30328   0.138   3.331   4.164  0.0127 -0.0054 -0.1186
 6289SOL    HW130329   0.127   3.257   4.223  0.8200  0.9822  1.2651
 6289SOL    HW230330   0.047   3.355   4.147  0.3300  1.2818 -0.0580
 6290SOL     OW30331   4.683   4.486   1.369 -0.2384  0.0429 -0.1117
 6290SOL    HW130332   4.625   4.439   1.309  0.1502  0.3728 -0.7480
 6290SOL    HW230333   4.694   4.427   1.444 -1.4276 -0.3737 -0.2704
 6291SOL     OW30334   0.686   3.250   4.592 -0.3534  0.2247  0.7272
 6291SOL    HW130335   0.615   3.299   4.551 -0.7600 -0.2782  0.8362
 6291SOL    HW230336   0.759   3.262   4.532 -0.5818  2.9928  0.9980
 6292SOL     OW30337   1.234   1.392   3.782 -0.1837 -0.3908  0.0636
 6292SOL    HW130338   1.174   1.467   3.788 -1.9446 -1.6861 -1.3011
 6292SOL    HW230339   1.279   1.404   3.865  0.2516  0.9227 -0.3535
 6293SOL     OW30340   0.630   1.014   2.317  0.1349 -0.2361 -0.2791
 6293SOL    HW130341   0.710   1.067   2.318  1.1846 -1.8263 -1.6496
 6293SOL    HW230342   0.575   1.082   2.357  2.4128 -0.4399  3.2195
 6294SOL     OW30343   3.417   1.944   3.681 -0.0847 -0.1681  0.8573
 6294SOL    HW130344   3.344   1.923   3.623  0.9137 -0.8610 -0.1399
 6294SOL    HW230345   3.429   2.038   3.665  1.4432 -0.7454 -1.3515
 6295SOL     OW30346   0.820   1.890   0.687 -0.1569  0.3467 -0.2303
 6295SOL    HW130347   0.829   1.935   0.771 -0.0365 -0.3884  0.1531
 6295SOL    HW230348   0.746   1.829   0.693 -1.8262  2.4779  0.4746
 6296SOL     OW30349   0.554   1.003   9.386 -0.2760 -0.0747  0.1105
 6296SOL    HW130350   0.470   0.988   9.343 -0.3658 -1.4848  0.7821
 6296SOL    HW230351   0.525   0.980   9.474 -3.2212  3.0339 -0.0377
 6297SOL     OW30352   1.994   3.037  16.510 -0.0742 -0.0765  0.3746
 6297SOL    HW130353   2.012   2.948  16.481  0.0176  0.6093 -1.6688
 6297SOL    HW230354   1.905   3.041  16.477  0.0082  2.0321  0.3826
 6298SOL     OW30355   0.471   1.087  16.916 -0.2146  0.0732 -0.0527
 6298SOL    HW130356   0.508   1.101  16.829  2.9582 -0.4181  1.2488
 6298SOL    HW230357   0.473   1.179  16.941  2.2564 -0.2589  0.8916
 6299SOL     OW30358   1.011   4.576   7.967 -0.3778 -0.2631 -0.0943
 6299SOL    HW130359   1.093   4.541   8.002 -1.3002  0.2699  2.5741
 6299SOL    HW230360   0.944   4.527   8.013 -2.3118  2.9781  0.5063
 6300SOL     OW30361   4.345   4.439   2.221  0.0355 -0.0356 -0.2375
 6300SOL    HW130362   4.284   4.496   2.174 -0.0305 -0.0019 -0.1131
 6300SOL    HW230363   4.283   4.400   2.283  1.2966 -0.0694  1.0000
 6301SOL     OW30364   1.965   1.540  13.704  0.3382 -0.1682  0.1080
 6301SOL    HW130365   1.991   1.624  13.741 -3.6331  0.6962  0.9359
 6301SOL    HW230366   2.010   1.488  13.771 -2.5739 -2.5683  0.1969
 6302SOL     OW30367   1.728   2.254   5.439  0.0683 -0.0527  0.2290
 6302SOL    HW130368   1.725   2.267   5.344 -0.8658 -0.9538  0.1297
 6302SOL    HW230369   1.641   2.284   5.462 -0.8111  0.3664 -3.6315
 6303SOL     OW30370   0.415   0.167  16.992 -0.3198  0.0904 -0.7578
 6303SOL    HW130371   0.387   0.252  17.026 -0.9171 -0.6501  0.5813
 6303SOL    HW230372   0.448   0.124  17.070 -1.6976  0.8420  0.2309
 6304SOL     OW30373   2.662   2.260  14.350  0.1116  0.0838  0.1588
 6304SOL    HW130374   2.716   2.321  14.401  1.5281  0.0718 -1.3296
 6304SOL    HW230375   2.616   2.220  14.424 -0.1540 -0.4132 -0.2716
 6305SOL     OW30376   0.247   1.488   5.194  0.3876  0.9961 -0.0336
 6305SOL    HW130377   0.234   1.475   5.288 -3.0729  0.2228 -0.6194
 6305SOL    HW230378   0.308   1.418   5.172  0.5351  1.1982 -0.2626
 6306SOL     OW30379   4.651   0.539  13.077  0.7108 -0.3240 -0.1900
 6306SOL    HW130380   0.019   0.530  13.107  0.6020  1.0371  0.5283
 6306SOL    HW230381   4.616   0.459  13.117 -0.2999 -0.0755 -0.5824
 6307SOL     OW30382   1.116   1.895   2.957 -0.9532  0.0492 -0.2147
 6307SOL    HW130383   1.057   1.944   3.015  0.6985 -0.2555  1.7055
 6307SOL    HW230384   1.070   1.810   2.956 -0.2740 -0.3148 -0.6780
 6308SOL     OW30385   0.469   3.264   9.876 -0.1520  0.1408 -0.4073
 6308SOL    HW130386   0.376   3.247   9.887 -0.3196  2.4790  1.8040
 6308SOL    HW230387   0.516   3.197   9.925 -1.2774 -0.5565 -0.2866
 6309SOL     OW30388   2.608   2.188   0.213 -0.5834 -0.0900 -0.1007
 6309SOL    HW130389   2.698   2.160   0.230 -0.3777 -0.5638 -2.0044
 6309SOL    HW230390   2.620   2.218   0.122 -2.2399  0.9200  0.0041
 6310SOL     OW30391   1.055   0.530   7.612  0.2621 -0.0100 -0.1728
 6310SOL    HW130392   0.962   0.542   7.630  0.0704 -1.3264 -0.3024
 6310SOL    HW230393   1.086   0.500   7.698 -1.1379 -0.2155  0.2565
 6311SOL     OW30394   3.632   1.947  13.987  0.0178  0.3405  0.0576
 6311SOL    HW130395   3.606   2.025  14.035 -2.7674  0.6951 -1.9949
 6311SOL    HW230396   3.547   1.914  13.956  0.0232  1.2474 -0.9605
 6312SOL     OW30397   2.008   0.714   3.573 -0.6523 -0.0917  0.0902
 6312SOL    HW130398   2.040   0.636   3.528 -0.5001 -1.4388  2.5038
 6312SOL    HW230399   2.083   0.773   3.564 -0.9685  0.3744  0.4739
 6313SOL     OW30400   2.073   0.799   8.723 -0.3631 -0.3983 -0.2654
 6313SOL    HW130401   2.086   0.831   8.634 -0.4393  0.7318  0.1267
 6313SOL    HW230402   2.069   0.880   8.774 -1.1334 -1.4902  1.4152
 6314SOL     OW30403   2.776   1.357   0.591  0.1387 -0.0888  0.0034
 6314SOL    HW130404   2.747   1.266   0.590 -1.6432  0.4944 -0.2415
 6314SOL    HW230405   2.809   1.378   0.504 -1.8631  0.6945 -0.5568
 6315SOL     OW30406   1.643   3.704   7.682  0.6944 -0.2606  0.3761
 6315SOL    HW130407   1.718   3.763   7.677  1.4445 -1.1324  1.4095
 6315SOL    HW230408   1.676   3.616   7.701 -0.3259  0.0479  3.4871
 6316SOL     OW30409   4.065   4.108  11.642  0.7205 -0.1080  0.7046
 6316SOL    HW130410   4.059   4.046  11.715 -1.7566 -0.2362  0.4052
 6316SOL    HW230411   3.981   4.152  11.654  0.4083  0.0621 -1.9927
 6317SOL     OW30412   3.782   1.726   4.644 -0.2842  0.2571 -0.4760
 6317SOL    HW130413   3.807   1.775   4.722  0.8075 -2.5864  0.9655
 6317SOL    HW230414   3.868   1.702   4.610  0.3690 -0.2374  1.5938
 6318SOL     OW30415   4.301   1.729   8.749  0.9189  0.9703 -0.3207
 6318SOL    HW130416   4.365   1.675   8.795 -2.5628 -2.2755  0.6916
 6318SOL    HW230417   4.243   1.672   8.700  1.4588  2.8950 -3.1706
 6319SOL     OW30418   2.236   0.980   5.779 -0.3011  0.1232 -0.2021
 6319SOL    HW130419   2.214   1.056   5.833 -1.4576 -0.1576 -0.2807
 6319SOL    HW230420   2.326   0.995   5.750 -0.8664  1.6145 -1.1926
 6320SOL     OW30421   0.940   0.748  10.583 -0.0031  0.0322  0.7811
 6320SOL    HW130422   0.846   0.727  10.580 -0.0128  0.1652  0.1847
 6320SOL    HW230423   0.969   0.684  10.648  0.4423 -0.6242 -0.0617
 6321SOL     OW30424   1.694   2.557   7.167 -0.0196 -1.0547 -0.2410
 6321SOL    HW130425   1.643   2.637   7.166 -0.4905 -1.3625 -2.8630
 6321SOL    HW230426   1.705   2.543   7.072 -0.9365 -1.2574 -0.3186
 6322SOL     OW30427   0.810   2.094  16.447  0.2259  0.3498  0.3483
 6322SOL    HW130428   0.792   2.139  16.365  0.8390  2.7281  1.5101
 6322SOL    HW230429   0.876   2.149  16.489  3.0728 -1.9868 -0.9853
 6323SOL     OW30430   2.810   0.495   5.758 -0.3837 -0.6429 -0.5848
 6323SOL    HW130431   2.811   0.447   5.841  1.2078  0.6834  0.1587
 6323SOL    HW230432   2.734   0.456   5.715  0.2115 -1.3782 -0.9617
 6324SOL     OW30433   2.910   2.707  10.808  0.2716 -0.2049 -0.4500
 6324SOL    HW130434   2.967   2.645  10.853  0.9089 -0.0307 -1.0198
 6324SOL    HW230435   2.961   2.786  10.826  0.4733 -0.5421  0.4301
 6325SOL     OW30436   1.284   1.064   5.138  0.1874 -0.4350 -0.7097
 6325SOL    HW130437   1.215   1.026   5.193 -0.2015 -1.3286 -1.8255
 6325SOL    HW230438   1.361   1.032   5.185 -0.3263 -0.8196 -0.1142
 6326SOL     OW30439   4.128   1.287   5.448 -0.1923  0.1806  0.7971
 6326SOL    HW130440   4.118   1.274   5.354 -0.4367 -0.6224  0.9336
 6326SOL    HW230441   4.035   1.292   5.470 -0.5575  1.3272 -1.1087
 6327SOL     OW30442   3.995   1.513   9.001 -0.2530  0.3643 -0.1916
 6327SOL    HW130443   3.924   1.481   9.057 -0.0652 -0.6920 -0.5769
 6327SOL    HW230444   3.965   1.596   8.964  2.3770  1.3517 -0.1524
 6328SOL     OW30445   3.566   0.432   6.171  0.3302 -0.0714  0.0630
 6328SOL    HW130446   3.601   0.433   6.261 -1.5963 -0.0472  0.8057
 6328SOL    HW230447   3.478   0.464   6.192  0.0749 -1.3066  0.8514
 6329SOL     OW30448   3.205   2.237   8.210 -1.0702  0.6174 -0.6848
 6329SOL    HW130449   3.126   2.218   8.160 -0.8026  0.8826 -1.2046
 6329SOL    HW230450   3.195   2.175   8.282  1.1332 -0.0551 -0.9634
 6330SOL     OW30451   1.882   2.826   7.408 -0.3215  0.2082 -0.7036
 6330SOL    HW130452   1.869   2.832   7.502  1.1929 -4.1617 -0.2274
 6330SOL    HW230453   1.890   2.918   7.385 -0.9231  0.3634 -0.2834
 6331SOL     OW30454   4.379   1.936  12.399  0.3537  0.2319 -0.6494
 6331SOL    HW130455   4.319   1.910  12.330 -1.3489 -1.7349  1.5809
 6331SOL    HW230456   4.325   1.922  12.477  3.6780  1.1285  1.8603
 6332SOL     OW30457   0.481   3.643  12.184 -0.1176 -0.1261  0.0794
 6332SOL    HW130458   0.387   3.628  12.193 -0.3688  0.8013 -0.9810
 6332SOL    HW230459   0.512   3.552  12.189 -0.5151 -0.2980 -0.5772
 6333SOL     OW30460   1.698   4.105   9.187  0.0841 -0.0334  0.2845
 6333SOL    HW130461   1.649   4.181   9.218 -0.9619 -1.6799  2.6558
 6333SOL    HW230462   1.626   4.044   9.204 -0.3962 -0.2085 -2.3081
 6334SOL     OW30463   3.206   1.950   7.857 -0.1851 -0.7759  0.7290
 6334SOL    HW130464   3.176   2.038   7.878  0.9105 -0.2334 -0.0277
 6334SOL    HW230465   3.243   1.969   7.771  0.2695 -2.0025  0.6504
 6335SOL     OW30466   4.341   3.636   1.489 -0.2602 -0.5529  0.4158
 6335SOL    HW130467   4.397   3.689   1.546 -0.9610  1.6550 -0.9223
 6335SOL    HW230468   4.356   3.549   1.524 -0.2896  0.6521  3.4477
 6336SOL     OW30469   3.004   2.562   2.180 -0.1739  0.1788 -0.4388
 6336SOL    HW130470   3.043   2.476   2.194 -0.0427 -0.2150 -3.2718
 6336SOL    HW230471   3.051   2.606   2.251 -2.5519 -0.7688  1.7068
 6337SOL     OW30472   0.724   3.184   3.205 -0.1168 -0.4083  0.2658
 6337SOL    HW130473   0.649   3.171   3.264 -0.1511 -0.3000  0.2450
 6337SOL    HW230474   0.727   3.106   3.150 -0.4363  0.1727 -0.5684
 6338SOL     OW30475   1.226   3.107   6.236 -0.0474 -0.4120 -0.0483
 6338SOL    HW130476   1.131   3.094   6.227 -0.8476  4.6529  1.3406
 6338SOL    HW230477   1.244   3.072   6.323  0.9065 -0.3336 -0.2236
 6339SOL     OW30478   2.211   1.799   7.807 -0.5751 -0.7242  0.0052
 6339SOL    HW130479   2.178   1.745   7.879  0.0466 -1.8082 -0.5156
 6339SOL    HW230480   2.252   1.740   7.743 -1.6042  1.4347 -2.6564
 6340SOL     OW30481   4.106   0.041   0.948  0.5697 -0.6569  0.1345
 6340SOL    HW130482   4.101   0.079   0.860  0.0497  1.0773  0.9004
 6340SOL    HW230483   4.013   0.037   0.966  0.7098 -0.0071  1.0216
 6341SOL     OW30484   0.875   1.991   4.996  0.6340  0.0106  0.1779
 6341SOL    HW130485   0.855   1.898   4.997  2.5186 -0.3720  0.9599
 6341SOL    HW230486   0.939   1.985   4.924  0.5386  1.4152 -0.0379
 6342SOL     OW30487   0.973   1.878   6.286 -0.2246 -0.3874  0.2826
 6342SOL    HW130488   1.060   1.853   6.255 -0.0069 -3.8207  3.5976
 6342SOL    HW230489   0.929   1.820   6.223 -2.8368 -0.1150  1.8467
 6343SOL     OW30490   0.450   1.540  12.209 -0.1262 -0.1888  0.8184
 6343SOL    HW130491   0.365   1.550  12.251 -1.2655 -0.9638 -1.3240
 6343SOL    HW230492   0.411   1.481  12.144 -1.2368  2.1813 -0.6422
 6344SOL     OW30493   2.372   0.897   1.902  0.3670  0.7162 -0.2277
 6344SOL    HW130494   2.290   0.904   1.951  1.1758  1.7122  0.9847
 6344SOL    HW230495   2.349   0.929   1.814 -1.3191 -0.7593 -0.3237
 6345SOL     OW30496   1.133   0.215   6.279 -0.3167 -0.3318  0.3842
 6345SOL    HW130497   1.070   0.278   6.313  2.0343 -0.2342  4.6029
 6345SOL    HW230498   1.108   0.129   6.313 -2.0707  0.8204  1.9972
 6346SOL     OW30499   3.387   1.742  11.320  0.7189 -0.3079  0.0255
 6346SOL    HW130500   3.352   1.803  11.254  1.5013 -0.1006 -0.1987
 6346SOL    HW230501   3.390   1.660  11.271 -0.0499 -1.3271  1.6915
 6347SOL     OW30502   0.108   1.144   5.177  0.5598  0.4957  0.7302
 6347SOL    HW130503   0.109   1.170   5.269  0.2059 -0.1037  0.9018
 6347SOL    HW230504   0.196   1.169   5.147  0.2414  1.3743  0.5314
 6348SOL     OW30505   3.690   1.854   5.438 -0.5640  0.1657 -0.4841
 6348SOL    HW130506   3.738   1.929   5.472  1.3467 -1.3382  0.1336
 6348SOL    HW230507   3.613   1.901   5.406 -0.0895  1.2572 -0.0173
 6349SOL     OW30508   1.876   2.094   8.025 -0.0649  0.1786 -0.6377
 6349SOL    HW130509   1.818   2.115   8.098 -0.5516 -0.4829 -0.8350
 6349SOL    HW230510   1.816   2.031   7.985  1.3336 -1.4584 -0.1571
 6350SOL     OW30511   0.456   4.654   6.950 -0.3843 -0.3263 -0.1898
 6350SOL    HW130512   0.524   4.717   6.926  1.0736 -1.1280  1.8321
 6350SOL    HW230513   0.378   4.701   6.920  0.3160 -0.3904 -2.0877
 6351SOL     OW30514   0.549   2.771   2.196  0.3519  0.7309  0.4857
 6351SOL    HW130515   0.534   2.704   2.129 -0.2951  1.8930 -0.5431
 6351SOL    HW230516   0.489   2.747   2.267  2.3470 -1.5741  1.3750
 6352SOL     OW30517   1.549   2.513  10.950  0.1339  0.0833 -0.0648
 6352SOL    HW130518   1.504   2.549  11.027 -2.3679 -3.3197  0.0315
 6352SOL    HW230519   1.508   2.428  10.937  1.0936 -0.0885 -1.8999
 6353SOL     OW30520   0.710   1.497   1.635 -0.2104 -0.1408  0.2195
 6353SOL    HW130521   0.679   1.453   1.556 -0.8365  1.2116 -0.2899
 6353SOL    HW230522   0.686   1.588   1.615  0.8703  0.2512  0.7534
 6354SOL     OW30523   0.129   2.650  11.209 -0.8668 -0.2315 -0.9489
 6354SOL    HW130524   0.063   2.691  11.154  0.9484  0.7431 -2.3949
 6354SOL    HW230525   0.073   2.602  11.271 -0.7527 -0.4172 -0.9886
 6355SOL     OW30526   2.000   2.084   2.586 -0.1898 -0.1926 -0.2076
 6355SOL    HW130527   2.012   2.174   2.616 -0.4911 -0.8787  1.9783
 6355SOL    HW230528   1.963   2.088   2.498 -0.2845  1.2956 -0.1057
 6356SOL     OW30529   3.626   4.236   0.581 -0.0505 -0.1500  0.0392
 6356SOL    HW130530   3.533   4.235   0.605 -0.4268 -1.7762 -1.5248
 6356SOL    HW230531   3.638   4.142   0.592  1.2376  0.0582  0.3631
 6357SOL     OW30532   3.040   1.685   2.684 -0.5595  0.3382  0.4694
 6357SOL    HW130533   2.999   1.603   2.659  0.3676  0.6075 -1.8770
 6357SOL    HW230534   3.073   1.657   2.770  2.5929 -1.9639 -1.5098
 6358SOL     OW30535   0.612   2.391   6.518  0.1410  0.0510  0.0637
 6358SOL    HW130536   0.626   2.310   6.470 -2.0753 -0.0256 -0.4715
 6358SOL    HW230537   0.674   2.434   6.459  0.0430  1.1128  0.7315
 6359SOL     OW30538   2.561   0.890  14.769  0.1381  0.6278  0.5828
 6359SOL    HW130539   2.552   0.817  14.707  1.9312  0.4572  0.5160
 6359SOL    HW230540   2.504   0.958  14.733 -2.0423  0.2489  3.3502
 6360SOL     OW30541   3.742   4.207   7.902  0.4088 -0.1822 -0.1013
 6360SOL    HW130542   3.828   4.226   7.938  0.2820  0.8079 -0.3254
 6360SOL    HW230543   3.688   4.275   7.943  0.5559  0.4164 -0.8958
 6361SOL     OW30544   0.766   3.745   7.858 -0.2655  0.4488  0.4908
 6361SOL    HW130545   0.749   3.775   7.768 -0.8364  1.2582  0.8718
 6361SOL    HW230546   0.734   3.819   7.909  1.1949  0.0367  1.9940
 6362SOL     OW30547   2.162   4.238   9.411  0.2072 -0.0672  0.0692
 6362SOL    HW130548   2.157   4.289   9.492  0.1844 -0.1964  0.1483
 6362SOL    HW230549   2.091   4.175   9.427  0.5001 -0.7750 -1.4645
 6363SOL     OW30550   2.771   1.661   0.865  0.2793  0.2097  1.0675
 6363SOL    HW130551   2.851   1.630   0.906  1.9151 -0.6951 -2.8413
 6363SOL    HW230552   2.776   1.756   0.875 -0.2161  0.1827  1.6071
 6364SOL     OW30553   3.538   0.035  16.615  0.8077  0.0637  0.0202
 6364SOL    HW130554   3.573   0.108  16.564 -0.5378  0.8881  0.2693
 6364SOL    HW230555   3.451   0.024  16.576  1.3382  0.9640 -1.4224
 6365SOL     OW30556   1.398   2.700   6.449  0.4608 -0.1534 -0.0743
 6365SOL    HW130557   1.432   2.764   6.512  0.8237  0.7224 -1.1785
 6365SOL    HW230558   1.459   2.703   6.375  1.6649 -0.4635  0.9038
 6366SOL     OW30559   0.511   2.001  11.630 -0.1676 -0.0894 -0.0929
 6366SOL    HW130560   0.430   1.987  11.678 -0.1856  0.9034  0.1646
 6366SOL    HW230561   0.486   2.036  11.544 -1.2517 -1.3870 -0.3178
 6367SOL     OW30562   2.384   4.334   7.008  0.2275  0.4378  0.4588
 6367SOL    HW130563   2.438   4.277   7.063  0.3605 -0.9803 -1.1375
 6367SOL    HW230564   2.310   4.283   6.974  2.0567 -1.2637 -0.9650
 6368SOL     OW30565   3.177   2.449  11.876 -0.2712  0.1354 -0.0180
 6368SOL    HW130566   3.136   2.500  11.806 -0.3334  1.2221  0.8077
 6368SOL    HW230567   3.254   2.505  11.887 -0.2315  0.2527 -0.8872
 6369SOL     OW30568   4.549   3.211  12.110  0.0467  0.0914 -0.0752
 6369SOL    HW130569   4.482   3.195  12.044  0.1754 -0.9512  0.0401
 6369SOL    HW230570   4.589   3.291  12.077 -1.0176  1.3354  1.6117
 6370SOL     OW30571   1.497   3.881   4.536 -0.1870 -0.1099 -0.1862
 6370SOL    HW130572   1.423   3.854   4.590  0.4412  1.7095  1.5918
 6370SOL    HW230573   1.456   3.913   4.456 -1.5504  0.3262  0.6928
 6371SOL     OW30574   2.782   3.713  11.657 -0.0703 -0.0614 -0.5606
 6371SOL    HW130575   2.841   3.680  11.723 -1.1687 -0.1269  0.3921
 6371SOL    HW230576   2.803   3.651  11.588  2.2369  1.3218 -1.1017
 6372SOL     OW30577   2.735   2.565   9.004  0.0627 -0.0174 -0.2146
 6372SOL    HW130578   2.719   2.604   9.090 -0.8999  1.7375 -1.1907
 6372SOL    HW230579   2.810   2.620   8.981 -0.6197  0.1471 -2.0281
 6373SOL     OW30580   4.004   4.276   9.871 -0.2637 -0.6392 -0.2136
 6373SOL    HW130581   4.086   4.324   9.883  0.0315 -0.3564 -3.2474
 6373SOL    HW230582   3.967   4.301   9.956  0.5852  1.8995 -0.5810
 6374SOL     OW30583   3.528   3.547   5.110  0.3920  0.2218  0.2594
 6374SOL    HW130584   3.570   3.570   5.193  1.5433 -1.5725  0.1761
 6374SOL    HW230585   3.438   3.536   5.140 -0.1072 -2.0529 -2.0834
 6375SOL     OW30586   2.901   0.942   6.440 -0.3333 -0.6460  0.7036
 6375SOL    HW130587   2.920   0.945   6.533  0.7248 -0.4485  0.4886
 6375SOL    HW230588   2.826   1.001   6.444  0.2629  0.0880  1.1696
 6376SOL     OW30589   0.932   0.237   5.474  0.4401  0.0303  0.0932
 6376SOL    HW130590   0.961   0.164   5.420 -1.7337 -0.7374 -0.0285
 6376SOL    HW230591   1.022   0.254   5.502  1.4813  0.2781 -3.2819
 6377SOL     OW30592   2.354   2.998   1.721  0.0222 -0.0434  0.2481
 6377SOL    HW130593   2.357   2.949   1.638  1.2826 -0.6094  0.6229
 6377SOL    HW230594   2.441   2.981   1.759  1.0687 -1.8554 -2.9376
 6378SOL     OW30595   3.750   4.450   7.456 -0.0031 -0.7168 -0.1191
 6378SOL    HW130596   3.830   4.446   7.508  0.3081  0.2348 -0.5096
 6378SOL    HW230597   3.691   4.418   7.523 -0.6307  3.2254  1.2049
 6379SOL     OW30598   2.683   0.420   7.757  0.0343 -0.3086  0.3088
 6379SOL    HW130599   2.666   0.396   7.848 -4.4273  1.5863 -0.0357
 6379SOL    HW230600   2.769   0.463   7.761 -0.2269  0.2144  0.1742
 6380SOL     OW30601   3.317   2.632   4.856 -0.0389 -0.6437 -0.9397
 6380SOL    HW130602   3.382   2.682   4.806  0.6257 -0.6212 -0.0454
 6380SOL    HW230603   3.323   2.544   4.820 -2.1333 -0.4548 -1.7172
 6381SOL     OW30604   1.985   3.257   7.713  0.0587 -0.0428  0.1736
 6381SOL    HW130605   2.051   3.299   7.657  0.6710  0.0980  0.9897
 6381SOL    HW230606   2.040   3.223   7.784  1.5727  0.1516 -0.9014
 6382SOL     OW30607   1.172   4.022  12.977  0.0550 -0.0349  0.4696
 6382SOL    HW130608   1.115   4.050  12.904  0.0455  0.7877  0.7861
 6382SOL    HW230609   1.156   4.098  13.033 -1.5859 -1.0615  1.3874
 6383SOL     OW30610   2.721   0.968   0.150  0.5390  0.4577 -0.9777
 6383SOL    HW130611   2.816   0.954   0.154  0.4889 -0.2442 -2.3943
 6383SOL    HW230612   2.711   0.990   0.243  0.4763 -1.6971 -0.4709
 6384SOL     OW30613   3.639   2.816   7.567 -0.4936  0.1300 -0.5321
 6384SOL    HW130614   3.583   2.890   7.588 -0.4155  0.3837 -1.2275
 6384SOL    HW230615   3.711   2.829   7.629 -0.9944  1.5585 -0.2556
 6385SOL     OW30616   0.243   3.766   7.756  0.0436  0.1253  0.6815
 6385SOL    HW130617   0.258   3.859   7.773 -1.5479  0.2369  1.4093
 6385SOL    HW230618   0.290   3.725   7.829  1.0147  0.0708  0.0366
 6386SOL     OW30619   3.588   4.245   5.221 -0.1999 -0.6024 -0.1282
 6386SOL    HW130620   3.645   4.267   5.295  0.8518  1.2951 -1.4907
 6386SOL    HW230621   3.511   4.298   5.237 -0.8840 -1.0158 -1.9838
 6387SOL     OW30622   3.179   4.637  10.574  0.0424  0.0007  0.2678
 6387SOL    HW130623   3.100   4.659  10.624  0.4374  0.8981  0.4947
 6387SOL    HW230624   3.167   4.544  10.556  2.4071 -0.1490 -0.4815
 6388SOL     OW30625   0.526   3.143  12.929 -0.1907  0.2144 -0.0788
 6388SOL    HW130626   0.535   3.173  13.019 -0.5049 -1.1012  0.3991
 6388SOL    HW230627   0.465   3.071  12.946  0.9659  0.1430  3.7487
 6389SOL     OW30628   1.330   3.426   0.294 -0.1660  0.2046  0.0494
 6389SOL    HW130629   1.238   3.447   0.284 -0.2071 -0.0175 -0.0398
 6389SOL    HW230630   1.356   3.476   0.372  0.3281  1.0387 -0.6492
 6390SOL     OW30631   2.899   1.897   8.885 -0.5311  0.4810 -0.7837
 6390SOL    HW130632   2.857   1.981   8.905 -0.2207  0.3619  0.3793
 6390SOL    HW230633   2.850   1.855   8.956  0.4318  1.2424  0.3254
 6391SOL     OW30634   4.304   2.268   3.923  0.2444 -0.7234 -0.1427
 6391SOL    HW130635   4.268   2.211   3.991  0.0414  0.5256  0.7922
 6391SOL    HW230636   4.351   2.204   3.868  1.7131 -2.0651  2.6568
 6392SOL     OW30637   0.892   4.048  11.463 -0.8717 -0.3202  0.0647
 6392SOL    HW130638   0.897   3.997  11.544  1.7549 -1.3623 -0.7519
 6392SOL    HW230639   0.838   4.126  11.478  1.6140  1.6148 -0.9924
 6393SOL     OW30640   3.446   3.821   0.557  0.8357 -0.0923 -0.0075
 6393SOL    HW130641   3.528   3.868   0.574 -0.5937  2.7021 -0.7710
 6393SOL    HW230642   3.397   3.904   0.562  2.4248  0.7010  2.3165
 6394SOL     OW30643   4.231   0.310   3.763  0.4193 -0.4207  0.2530
 6394SOL    HW130644   4.197   0.330   3.850 -0.0624  0.1437 -0.0699
 6394SOL    HW230645   4.194   0.222   3.775 -0.3904 -0.2796 -1.2962
 6395SOL     OW30646   1.905   1.180   5.331 -0.0241  0.0054 -0.9190
 6395SOL    HW130647   1.881   1.199   5.422 -0.3645  0.6608 -1.1452
 6395SOL    HW230648   1.947   1.263   5.308  2.3516 -0.8277  0.3803
 6396SOL     OW30649   4.217   2.950   9.401 -0.7963 -0.1425 -0.1070
 6396SOL    HW130650   4.203   2.860   9.373  0.7349 -0.4508  0.1171
 6396SOL    HW230651   4.152   2.970   9.468 -1.2080  0.4863 -0.6985
 6397SOL     OW30652   3.037   2.967   9.441 -0.6191 -0.2979 -0.0896
 6397SOL    HW130653   3.127   2.940   9.457  0.4753  2.6770 -1.1223
 6397SOL    HW230654   2.985   2.934   9.514  0.3818  0.1823  0.8324
 6398SOL     OW30655   0.117   0.863   4.702 -0.0607  0.4115 -0.5427
 6398SOL    HW130656   0.051   0.807   4.742  1.3340 -2.7873 -2.6898
 6398SOL    HW230657   0.179   0.797   4.670  0.1658 -0.3191  1.4118
 6399SOL     OW30658   4.670   1.578   5.721  0.2432  0.1593 -0.1181
 6399SOL    HW130659   4.646   1.493   5.757 -1.4346  0.0584 -1.4719
 6399SOL    HW230660   0.043   1.579   5.727  0.2825 -0.3311 -0.6077
 6400SOL     OW30661   1.058   0.329   0.001 -0.0992  0.4328 -0.0193
 6400SOL    HW130662   1.120   0.257   0.008 -1.9362 -1.3101 -1.8933
 6400SOL    HW230663   0.991   0.281   0.048  1.9158 -0.0539  2.3781
 6401SOL     OW30664   0.065   3.904   9.219  0.6154 -0.0093  0.0632
 6401SOL    HW130665   0.139   3.880   9.163  1.4737 -1.7938  1.9350
 6401SOL    HW230666   0.101   3.981   9.263 -0.0829 -0.7575  1.9298
 6402SOL     OW30667   3.875   3.099  16.464  0.6985 -0.3690  0.4534
 6402SOL    HW130668   3.945   3.150  16.423  0.2400  1.3236  1.8247
 6402SOL    HW230669   3.807   3.150  16.419  1.5093  0.0498 -0.3111
 6403SOL     OW30670   1.918   1.334  11.473 -0.3085  0.1818  0.0520
 6403SOL    HW130671   1.999   1.296  11.510  0.4602  1.3232 -0.4601
 6403SOL    HW230672   1.934   1.428  11.474  4.2454 -0.5737 -0.7972
 6404SOL     OW30673   0.838   0.456   3.117 -0.1866 -0.0619  0.4732
 6404SOL    HW130674   0.790   0.501   3.187 -2.1584  1.1081 -1.5977
 6404SOL    HW230675   0.919   0.446   3.167  1.0592  1.7114 -1.1707
 6405SOL     OW30676   1.734   0.695  13.330 -0.0721  0.0458 -0.0963
 6405SOL    HW130677   1.688   0.614  13.308  3.3891 -2.7514  2.9622
 6405SOL    HW230678   1.666   0.732  13.387  0.0545 -0.6139  0.4899
 6406SOL     OW30679   0.855   0.545   7.130  0.4520 -0.0643  0.3445
 6406SOL    HW130680   0.944   0.514   7.144  0.5530 -0.2137 -0.6714
 6406SOL    HW230681   0.869   0.630   7.088 -1.8370 -0.1095 -0.5296
 6407SOL     OW30682   3.171   0.202   3.229 -0.3638  0.2287  0.1148
 6407SOL    HW130683   3.254   0.194   3.183 -0.2902  2.5790 -0.1971
 6407SOL    HW230684   3.189   0.146   3.304 -0.8553 -0.4423 -0.2660
 6408SOL     OW30685   0.313   0.914   0.091 -0.4102 -0.3367 -0.7117
 6408SOL    HW130686   0.401   0.928   0.127 -0.6396  0.2265 -0.3663
 6408SOL    HW230687   0.262   0.890   0.168  0.3344 -2.4427 -0.8692
 6409SOL     OW30688   4.116   4.045   5.156 -0.1708 -0.0243  0.3675
 6409SOL    HW130689   4.038   3.998   5.125  0.5871 -1.5643  0.8388
 6409SOL    HW230690   4.088   4.133   5.132 -0.6817 -0.0728  0.7711
 6410SOL     OW30691   1.766   3.575   1.523 -0.1122 -0.2645  0.0464
 6410SOL    HW130692   1.696   3.601   1.583  3.2371  0.7723  3.4652
 6410SOL    HW230693   1.767   3.638   1.450  0.1577  2.6588  2.5679
 6411SOL     OW30694   4.252   3.031   7.708  0.3034  0.2887  0.3205
 6411SOL    HW130695   4.248   2.949   7.756  4.2861  0.1062  0.3570
 6411SOL    HW230696   4.346   3.044   7.696  0.6652 -3.7585 -1.1796
 6412SOL     OW30697   3.930   3.206   3.730  0.1837 -0.7179 -0.0322
 6412SOL    HW130698   3.889   3.265   3.668  1.9236 -0.3395 -0.8134
 6412SOL    HW230699   4.001   3.171   3.676  1.9643  1.0527  1.1429
 6413SOL     OW30700   1.754   2.672   5.419  0.3076  0.5892  0.6227
 6413SOL    HW130701   1.784   2.738   5.356  0.8685 -0.3193 -0.0558
 6413SOL    HW230702   1.796   2.591   5.389 -1.3395 -0.5280  1.3449
 6414SOL     OW30703   2.916   2.504   1.077  0.1854 -0.3638  0.2297
 6414SOL    HW130704   2.922   2.586   1.027 -1.4561 -0.5933 -0.3270
 6414SOL    HW230705   2.942   2.441   1.010 -1.7732  0.1516 -1.0120
 6415SOL     OW30706   0.035   2.171   7.388  0.1435 -0.9662 -0.1135
 6415SOL    HW130707   0.128   2.173   7.365 -0.1086  2.3364 -0.8497
 6415SOL    HW230708   0.038   2.160   7.483 -3.2965  0.1820  0.1284
 6416SOL     OW30709   1.640   0.410   3.226  0.2639 -0.4270  0.5881
 6416SOL    HW130710   1.720   0.463   3.222 -0.0168 -0.0473  0.0604
 6416SOL    HW230711   1.586   0.452   3.293 -1.3171  2.2142 -2.3279
 6417SOL     OW30712   0.848   4.053   4.051 -0.1054 -0.4649  0.4859
 6417SOL    HW130713   0.863   4.146   4.039 -0.7603 -0.3537  0.5337
 6417SOL    HW230714   0.777   4.031   3.990 -0.0392 -1.6287  0.8267
 6418SOL     OW30715   1.412   2.981  12.775  0.2865 -0.0179 -0.1956
 6418SOL    HW130716   1.449   3.032  12.703  1.2560 -0.7813 -0.2483
 6418SOL    HW230717   1.434   3.032  12.853  1.0854 -0.5730 -0.0549
 6419SOL     OW30718   3.994   0.004   9.643 -0.1424  0.2426  0.2996
 6419SOL    HW130719   4.080   0.002   9.686 -0.2276  2.7788  0.5855
 6419SOL    HW230720   3.980   0.095   9.669 -1.5880 -0.1330  0.8081
 6420SOL     OW30721   4.260   2.231   9.459 -0.1392  0.1883 -0.5664
 6420SOL    HW130722   4.228   2.170   9.393 -1.9035 -1.0369  1.4269
 6420SOL    HW230723   4.180   2.282   9.451 -0.1590  0.5306  1.7963
 6421SOL     OW30724   1.562   4.075   7.999  0.3805 -0.1873  0.4323
 6421SOL    HW130725   1.547   4.113   8.085  3.0174  1.2142  0.2510
 6421SOL    HW230726   1.484   4.019   7.995  0.3410 -0.0646 -0.5441
 6422SOL     OW30727   3.073   2.911  10.895 -0.6908  0.3779 -0.2590
 6422SOL    HW130728   3.161   2.913  10.934 -0.8402 -1.5105  0.1949
 6422SOL    HW230729   3.051   3.002  10.877 -0.5531  1.2203  3.7545
 6423SOL     OW30730   2.323   3.720   3.525  0.3264  0.1588 -0.4089
 6423SOL    HW130731   2.352   3.711   3.434 -0.0110 -0.0944 -0.4959
 6423SOL    HW230732   2.404   3.696   3.569  0.6584  0.5194 -0.8342
 6424SOL     OW30733   3.541   3.368  17.401 -0.2107  0.1110  0.6784
 6424SOL    HW130734   3.558   3.441  17.461  0.5612  1.0163 -0.6320
 6424SOL    HW230735   3.628   3.341  17.372  0.1019  0.2912  1.4350
 6425SOL     OW30736   4.656   3.193   7.264  0.0093  0.2292  0.0538
 6425SOL    HW130737   4.600   3.226   7.194  0.1991  0.6388  0.0976
 6425SOL    HW230738   4.592   3.174   7.332 -1.0592 -1.1493 -1.3392
 6426SOL     OW30739   1.488   3.692   3.520  0.4054  0.3218  0.2257
 6426SOL    HW130740   1.457   3.664   3.606  1.7822 -1.8317 -0.0001
 6426SOL    HW230741   1.447   3.779   3.513 -1.7053 -1.0329 -3.9994
 6427SOL     OW30742   2.146   0.193  13.939 -0.0376 -0.4466 -0.5418
 6427SOL    HW130743   2.238   0.168  13.927 -0.0394 -1.1046  0.8024
 6427SOL    HW230744   2.116   0.220  13.853  1.0779  1.4204 -0.3696
 6428SOL     OW30745   4.627   1.090   9.715 -0.1420 -0.2606 -0.6861
 6428SOL    HW130746   4.557   1.067   9.654 -0.8072  2.0008 -0.8048
 6428SOL    HW230747   4.603   1.047   9.797 -0.8841 -0.6133 -1.0890
 6429SOL     OW30748   3.270   4.447   8.436 -0.2342 -0.0977 -0.2636
 6429SOL    HW130749   3.264   4.378   8.503  0.8464  1.2303  1.1830
 6429SOL    HW230750   3.247   4.401   8.356  1.5542 -1.5790  0.0594
 6430SOL     OW30751   1.679   0.547   7.215  0.5457  0.0560  0.2391
 6430SOL    HW130752   1.746   0.566   7.281  1.4210 -0.6398 -0.4549
 6430SOL    HW230753   1.666   0.457   7.245  0.7817 -0.7772 -2.1705
 6431SOL     OW30754   4.660   3.559   0.253 -0.9148 -0.3906  0.2061
 6431SOL    HW130755   4.667   3.479   0.307  2.1417  1.2260  2.2304
 6431SOL    HW230756   4.604   3.520   0.185 -0.4310 -1.6214  0.5046
 6432SOL     OW30757   4.165   2.999   2.533 -0.0981 -0.1511  0.3047
 6432SOL    HW130758   4.150   2.936   2.462 -1.5631  0.2678  0.2468
 6432SOL    HW230759   4.079   2.997   2.575  0.5054 -0.2483  1.5238
 6433SOL     OW30760   0.924   4.422  12.371  0.7056 -0.3616 -0.3951
 6433SOL    HW130761   1.004   4.377  12.399 -1.0001 -2.2374  1.4998
 6433SOL    HW230762   0.925   4.384  12.283  0.5197  0.3432 -0.6972
 6434SOL     OW30763   1.088   0.143   2.513 -0.5115 -0.0226 -0.3688
 6434SOL    HW130764   1.177   0.118   2.537 -2.0365 -2.8291  2.3821
 6434SOL    HW230765   1.073   0.108   2.426  0.4327  1.3553 -1.0712
 6435SOL     OW30766   4.392   1.588   6.491  0.1507  0.1673 -0.5209
 6435SOL    HW130767   4.432   1.653   6.549  2.2197 -1.5204 -0.0663
 6435SOL    HW230768   4.303   1.622   6.478  0.2328  1.4578  2.2445
 6436SOL     OW30769   2.408   1.093   8.044 -0.1275  0.3454 -0.5668
 6436SOL    HW130770   2.447   1.178   8.026  2.4490 -0.9209 -0.9555
 6436SOL    HW230771   2.315   1.112   8.043 -0.2658 -0.2608  0.4128
 6437SOL     OW30772   0.406   1.739   2.022 -0.0578 -0.8716  0.1817
 6437SOL    HW130773   0.402   1.643   2.021 -2.1440 -0.7765 -0.4054
 6437SOL    HW230774   0.499   1.748   2.045 -0.0253 -1.9678  0.4996
 6438SOL     OW30775   2.202   1.631   7.019  0.0618  0.3644  0.1376
 6438SOL    HW130776   2.119   1.583   7.019  1.4091 -1.9512  1.9012
 6438SOL    HW230777   2.176   1.712   7.063  0.8160 -0.5878  2.3258
 6439SOL     OW30778   3.472   2.359   8.857  0.4096 -0.1667  0.5056
 6439SOL    HW130779   3.543   2.314   8.811  0.0593 -0.7011  0.4889
 6439SOL    HW230780   3.394   2.322   8.816 -1.2495  1.4304  2.2227
 6440SOL     OW30781   2.430   1.481   5.472  0.6688 -0.0553 -0.5249
 6440SOL    HW130782   2.493   1.414   5.448  2.8509  1.7453  0.1590
 6440SOL    HW230783   2.456   1.496   5.563  0.4151 -0.5645 -0.3661
 6441SOL     OW30784   3.288   2.715  13.938 -0.1236  0.6675 -0.4157
 6441SOL    HW130785   3.318   2.704  14.028 -0.2432  0.4159 -0.4042
 6441SOL    HW230786   3.283   2.810  13.933  0.9181  0.7314 -0.1512
 6442SOL     OW30787   3.964   0.088  12.184 -0.5327 -0.8952  0.4681
 6442SOL    HW130788   3.938   0.017  12.125  1.3269 -0.5076 -0.8246
 6442SOL    HW230789   4.054   0.103  12.155 -0.7334 -0.6605 -0.0255
 6443SOL     OW30790   0.597   0.677   7.547 -0.1933 -0.2455  0.0074
 6443SOL    HW130791   0.569   0.725   7.469  1.5775 -0.9591 -1.0692
 6443SOL    HW230792   0.570   0.589   7.520  1.0213 -0.9520  1.0956
 6444SOL     OW30793   0.587   1.894   4.423 -0.1889  0.4362 -0.2355
 6444SOL    HW130794   0.580   1.968   4.362  3.0339  0.2817 -0.8323
 6444SOL    HW230795   0.514   1.899   4.484  0.0694  0.9206  0.0378
 6445SOL     OW30796   0.431   1.148   4.063 -0.2882  0.5613 -0.2452
 6445SOL    HW130797   0.468   1.172   3.977 -3.6715  3.0888 -0.9928
 6445SOL    HW230798   0.424   1.056   4.040  1.3476  0.2792  0.3695
 6446SOL     OW30799   3.254   1.001   1.836  0.1500 -0.1081 -0.6770
 6446SOL    HW130800   3.329   1.032   1.786  0.3221 -0.5821 -0.7082
 6446SOL    HW230801   3.293   0.947   1.905 -1.2561  0.2350  0.3847
 6447SOL     OW30802   1.350   4.183   3.161  0.1471  0.4572  0.6295
 6447SOL    HW130803   1.428   4.193   3.215  1.3449 -1.0435 -0.8120
 6447SOL    HW230804   1.380   4.132   3.085  0.1204 -0.4188  1.2095
 6448SOL     OW30805   1.071   0.412   6.537  0.6262 -0.0953 -0.1111
 6448SOL    HW130806   1.119   0.361   6.602  0.3433  2.9733  2.4761
 6448SOL    HW230807   1.024   0.472   6.595 -1.9274 -2.0931 -0.0786
 6449SOL     OW30808   1.744   3.041   9.666 -0.3639  0.0926  0.1230
 6449SOL    HW130809   1.815   3.094   9.631  0.1999 -0.5449  0.2889
 6449SOL    HW230810   1.744   2.971   9.601 -1.4587  1.3577 -1.2494
 6450SOL     OW30811   0.618   0.972  11.436  0.5852  0.1877 -0.0752
 6450SOL    HW130812   0.675   0.936  11.505  3.1635 -0.8044 -2.7467
 6450SOL    HW230813   0.538   0.989  11.486  2.3521  0.9080  2.5562
 6451SOL     OW30814   2.255   3.045   2.704 -0.4634 -0.0688  0.2011
 6451SOL    HW130815   2.239   2.963   2.658 -2.9003  0.9429 -0.7197
 6451SOL    HW230816   2.346   3.035   2.732 -0.9564 -4.0906  0.3650
 6452SOL     OW30817   1.670   1.879   2.976  0.1245 -0.6442 -0.1890
 6452SOL    HW130818   1.667   1.909   3.067 -1.0507 -0.2003 -0.3640
 6452SOL    HW230819   1.579   1.874   2.947 -0.8095 -1.5024  2.8994
 6453SOL     OW30820   1.219   2.694   1.325  0.0036 -0.2886  0.0788
 6453SOL    HW130821   1.248   2.685   1.234  1.2318 -0.5457  0.4972
 6453SOL    HW230822   1.208   2.788   1.314  0.2782 -0.0071  2.1280
 6454SOL     OW30823   4.099   3.234   2.817 -0.3550  0.4400 -0.1271
 6454SOL    HW130824   4.047   3.225   2.738 -0.4077  0.5984 -0.1106
 6454SOL    HW230825   4.040   3.245   2.892  0.4326 -0.8927  0.6838
 6455SOL     OW30826   3.042   2.147  16.932 -0.1533  0.2312 -0.0129
 6455SOL    HW130827   3.067   2.216  16.994 -1.7347  0.4553  0.3874
 6455SOL    HW230828   3.105   2.083  16.964 -0.5383 -0.0917  0.0959
 6456SOL     OW30829   1.330   3.566  10.136  0.5168  0.4140  0.3193
 6456SOL    HW130830   1.343   3.587  10.044 -2.3065 -1.5975 -0.5328
 6456SOL    HW230831   1.313   3.472  10.141 -1.5778  0.7619 -0.2700
 6457SOL     OW30832   2.805   0.072   7.884  0.8579 -0.0060  0.2444
 6457SOL    HW130833   2.872   0.135   7.908 -1.4622  3.1043 -1.4015
 6457SOL    HW230834   2.724   0.118   7.905  0.9999  0.1787  0.3860
 6458SOL     OW30835   4.508   2.355   0.311 -0.7505  0.0272  0.6223
 6458SOL    HW130836   4.486   2.448   0.305 -1.2350 -0.2580 -2.0506
 6458SOL    HW230837   4.426   2.325   0.350 -1.0987 -1.2739 -1.1295
 6459SOL     OW30838   2.072   0.411  13.388  0.1084  0.3687 -0.6160
 6459SOL    HW130839   2.108   0.490  13.346  0.6921  1.7193  2.4410
 6459SOL    HW230840   1.985   0.422  13.350 -0.4926 -0.8710  0.3817
 6460SOL     OW30841   4.023   1.526   0.605 -0.5216  0.4215 -0.5306
 6460SOL    HW130842   3.999   1.532   0.697 -0.7476 -2.0257 -0.4248
 6460SOL    HW230843   4.103   1.579   0.602 -0.2999 -0.0360 -2.3353
 6461SOL     OW30844   4.493   1.906  15.458 -0.3565 -0.3573 -0.2591
 6461SOL    HW130845   4.418   1.927  15.513 -1.5370 -0.3765 -1.8888
 6461SOL    HW230846   4.513   1.984  15.406 -0.7665 -0.5972 -0.7728
 6462SOL     OW30847   4.066   3.604   8.116  0.3415 -0.1582 -0.1687
 6462SOL    HW130848   4.009   3.545   8.165 -0.3394  1.6311  1.1950
 6462SOL    HW230849   4.122   3.643   8.182 -1.1465  0.0128  0.9980
 6463SOL     OW30850   3.400   2.889   6.497  0.1524  0.5826  0.0176
 6463SOL    HW130851   3.311   2.903   6.466  0.4569  1.0466 -0.6430
 6463SOL    HW230852   3.459   2.909   6.424 -0.5077  2.7949  0.1092
 6464SOL     OW30853   3.264   3.613   2.733 -0.1678 -0.2132 -0.2861
 6464SOL    HW130854   3.262   3.628   2.638  2.6059  2.3484  0.0436
 6464SOL    HW230855   3.175   3.590   2.759  0.1167 -2.7978 -1.5577
 6465SOL     OW30856   0.930   3.029   2.949 -0.0447 -0.4093  0.7899
 6465SOL    HW130857   0.977   3.110   2.968 -2.1423  0.2851  2.9932
 6465SOL    HW230858   0.865   3.051   2.882 -0.6579  0.8386  1.7925
 6466SOL     OW30859   0.500   2.003  13.134  0.5195 -0.8762  0.0555
 6466SOL    HW130860   0.467   2.045  13.054  0.2158 -0.9567  0.1394
 6466SOL    HW230861   0.592   1.984  13.114  0.4096 -1.0069 -0.3364
 6467SOL     OW30862   1.552   3.407  14.680  0.0914  0.3168 -0.2542
 6467SOL    HW130863   1.482   3.377  14.622  1.7200 -1.6879 -1.1555
 6467SOL    HW230864   1.625   3.359  14.640  1.2934 -0.2200  2.5768
 6468SOL     OW30865   4.037   1.093   1.593 -0.4603  0.1840 -0.4569
 6468SOL    HW130866   4.019   1.057   1.680 -2.4444 -1.5699 -1.5886
 6468SOL    HW230867   4.012   1.017   1.540 -0.1488 -1.2527  1.4612
 6469SOL     OW30868   1.352   2.164   3.729 -0.0993 -0.4236  0.0378
 6469SOL    HW130869   1.442   2.195   3.722 -0.2924  0.0078 -0.5377
 6469SOL    HW230870   1.365   2.124   3.815  0.6714 -2.6970 -1.1420
 6470SOL     OW30871   0.952   4.684  12.293 -0.4081  0.2685  0.4990
 6470SOL    HW130872   1.028   4.713  12.344 -1.4431  0.5734  1.8616
 6470SOL    HW230873   0.950   4.590  12.315 -0.0099 -0.2140 -1.5289
 6471SOL     OW30874   0.805   0.385   4.737 -0.3751  0.2056  0.5349
 6471SOL    HW130875   0.800   0.321   4.808  0.4210 -1.3953 -0.8486
 6471SOL    HW230876   0.713   0.401   4.716 -0.1593 -1.5931 -1.8564
 6472SOL     OW30877   2.926   2.992  12.156  0.1422  0.0165  0.1231
 6472SOL    HW130878   2.978   3.040  12.220  1.7669 -2.6696  0.8178
 6472SOL    HW230879   2.957   3.034  12.076  1.3830 -1.1737 -0.0288
 6473SOL     OW30880   0.720   0.137  13.742  0.0492 -0.0067 -0.4045
 6473SOL    HW130881   0.738   0.103  13.830 -0.7314 -2.0855 -1.0400
 6473SOL    HW230882   0.635   0.105  13.714 -0.2097 -0.3441  0.7589
 6474SOL     OW30883   0.821   0.137   8.479  0.7256 -0.2471  0.3286
 6474SOL    HW130884   0.841   0.045   8.499  0.9409 -0.0281  1.1463
 6474SOL    HW230885   0.890   0.139   8.412 -0.0517  0.1619 -0.4461
 6475SOL     OW30886   4.103   2.538   2.338  0.3241  0.1015  0.2722
 6475SOL    HW130887   4.145   2.568   2.419  1.2417  2.2825 -1.0132
 6475SOL    HW230888   4.014   2.552   2.370  0.0437 -3.0060  0.8909
 6476SOL     OW30889   2.169   1.122   1.335  0.1327  0.4353 -0.1527
 6476SOL    HW130890   2.248   1.089   1.379 -0.0331 -0.4076 -0.4762
 6476SOL    HW230891   2.201   1.132   1.245 -1.0235  0.8762 -0.5169
 6477SOL     OW30892   3.589   4.475   6.174 -0.1468  0.3221  0.4585
 6477SOL    HW130893   3.501   4.483   6.211 -0.9503 -2.9418 -0.7885
 6477SOL    HW230894   3.657   4.493   6.239 -2.2244  0.3136  2.6745
 6478SOL     OW30895   4.646   1.901   8.318 -0.5465  0.1530 -0.0508
 6478SOL    HW130896   4.605   1.850   8.388 -0.3469  0.4451  0.2817
 6478SOL    HW230897   4.577   1.968   8.308 -0.8375 -0.2957 -1.0177
 6479SOL     OW30898   2.630   0.377   6.316 -0.7837 -0.0973 -0.1639
 6479SOL    HW130899   2.538   0.398   6.300 -0.3405  0.7821 -1.5885
 6479SOL    HW230900   2.639   0.291   6.274 -2.9671 -0.8491  0.9411
 6480SOL     OW30901   3.810   0.405   8.846 -0.1143  0.3431  0.3109
 6480SOL    HW130902   3.776   0.471   8.786  3.3603 -0.8087 -2.9028
 6480SOL    HW230903   3.742   0.407   8.913 -0.5097 -2.4911 -0.0173
 6481SOL     OW30904   3.087   3.678   6.827  0.1754 -0.4558 -0.1596
 6481SOL    HW130905   2.998   3.686   6.861  0.9842  0.5759  1.7309
 6481SOL    HW230906   3.129   3.627   6.896  0.2172 -2.1696 -1.4693
 6482SOL     OW30907   0.588   3.253   3.904 -0.5033 -0.5310  0.3608
 6482SOL    HW130908   0.574   3.286   3.816 -1.1116  0.0699  0.6787
 6482SOL    HW230909   0.574   3.161   3.883  1.0068 -0.6364 -0.1802
 6483SOL     OW30910   0.439   3.021   9.286 -0.2154  0.4450 -0.5070
 6483SOL    HW130911   0.531   2.995   9.295 -0.5345  0.0391  1.5723
 6483SOL    HW230912   0.412   3.033   9.377  2.9941  0.2993  0.4621
 6484SOL     OW30913   2.222   1.298   6.346 -0.0911  0.1344 -0.3305
 6484SOL    HW130914   2.195   1.341   6.265 -1.5894 -0.2501 -0.0418
 6484SOL    HW230915   2.143   1.306   6.400  0.7217 -1.0483  1.0495
 6485SOL     OW30916   2.778   1.042   6.024  0.6340 -0.1433 -0.5512
 6485SOL    HW130917   2.683   1.052   6.036  0.7430  0.6799 -0.3624
 6485SOL    HW230918   2.813   1.130   6.039  0.7833 -0.0678 -1.3639
 6486SOL     OW30919   2.828   1.381   4.991  0.1557 -0.1404 -0.6056
 6486SOL    HW130920   2.901   1.365   4.931 -0.0901  2.6264 -1.6436
 6486SOL    HW230921   2.855   1.332   5.069 -1.2326  1.0122  0.6234
 6487SOL     OW30922   3.770   3.036   8.827  0.1306  0.1842 -0.0516
 6487SOL    HW130923   3.825   3.109   8.857 -0.2731 -0.0229  1.1999
 6487SOL    HW230924   3.680   3.070   8.829  0.8315  1.9858  0.8875
 6488SOL     OW30925   3.255   0.634   2.248  0.2325  0.0928 -0.2224
 6488SOL    HW130926   3.205   0.553   2.261 -0.0637  0.0862 -1.3900
 6488SOL    HW230927   3.343   0.600   2.267 -0.3662 -0.3985  1.7224
 6489SOL     OW30928   2.893   0.642   7.260  0.1979  0.1615  0.0081
 6489SOL    HW130929   2.969   0.605   7.213  2.2346  0.2427  3.2310
 6489SOL    HW230930   2.934   0.710   7.314  3.2194 -1.4491 -0.2752
 6490SOL     OW30931   1.822   3.467   5.769  0.0704  0.2231  0.0248
 6490SOL    HW130932   1.758   3.518   5.819  0.6532  0.3623  0.6250
 6490SOL    HW230933   1.763   3.396   5.742 -0.1434  0.7465 -0.8860
 6491SOL     OW30934   3.240   1.567   7.318 -0.6060  1.0430  0.4221
 6491SOL    HW130935   3.152   1.602   7.305 -2.2945 -2.6176  2.1202
 6491SOL    HW230936   3.245   1.570   7.413  0.8537 -0.3624  0.3959
 6492SOL     OW30937   0.321   0.022   2.852  0.9466  0.3297 -0.3553
 6492SOL    HW130938   0.377   0.041   2.927  0.2288  0.5570  0.1283
 6492SOL    HW230939   0.376   0.061   2.785 -0.0546  0.7741 -0.9109
 6493SOL     OW30940   4.696   0.494   8.188 -0.3728 -0.4098  0.4882
 6493SOL    HW130941   4.687   0.559   8.257  0.4789 -0.5456  0.7260
 6493SOL    HW230942   4.616   0.443   8.202 -0.8771  0.3455  0.3740
 6494SOL     OW30943   3.976   3.748   2.929 -0.4660  0.4809  0.4729
 6494SOL    HW130944   3.907   3.682   2.933  0.8109 -0.9899 -1.2410
 6494SOL    HW230945   3.937   3.781   2.847 -1.0408  1.3391  1.0907
 6495SOL     OW30946   4.074   3.396   7.289  0.6162 -0.2837  0.5413
 6495SOL    HW130947   4.051   3.401   7.382 -1.3529  1.5636 -0.0678
 6495SOL    HW230948   3.996   3.356   7.252  0.1936  1.0885 -0.0589
 6496SOL     OW30949   0.925   3.389   5.563 -0.2628 -0.1188 -0.0293
 6496SOL    HW130950   0.856   3.363   5.624 -0.9434  2.1002  0.1621
 6496SOL    HW230951   0.919   3.316   5.501 -1.9981 -1.0400  1.2467
 6497SOL     OW30952   3.748   3.848   2.480  0.0831 -0.1748 -0.8250
 6497SOL    HW130953   3.786   3.783   2.538  0.4045  1.4157  0.7343
 6497SOL    HW230954   3.657   3.818   2.481 -0.2144  0.8255  1.9302
 6498SOL     OW30955   4.649   1.899   1.540  0.0396 -0.4993 -0.2177
 6498SOL    HW130956   0.001   1.942   1.497  0.6827 -2.0481 -0.6472
 6498SOL    HW230957   4.575   1.916   1.482 -2.1804  0.7697  2.9541
 6499SOL     OW30958   2.861   1.339   6.034 -0.2666  0.6238  0.1026
 6499SOL    HW130959   2.840   1.424   6.074 -0.2507 -0.4514  2.3659
 6499SOL    HW230960   2.902   1.307   6.114  1.6904  0.9924 -0.7329
 6500SOL     OW30961   0.342   2.873  17.074 -0.3764 -0.1562  0.2759
 6500SOL    HW130962   0.323   2.785  17.107 -1.3748  0.3036  0.9248
 6500SOL    HW230963   0.258   2.918  17.083 -0.8113 -0.9058 -0.0367
 6501SOL     OW30964   3.769   0.319   7.760 -0.1317  0.3112 -0.3457
 6501SOL    HW130965   3.856   0.342   7.794 -0.0780 -1.5630  0.8235
 6501SOL    HW230966   3.712   0.390   7.788  1.5632  1.4178  0.3132
 6502SOL     OW30967   0.306   2.162  16.902  0.5770 -0.0838 -0.0183
 6502SOL    HW130968   0.293   2.080  16.950  2.4253 -0.7329 -0.6130
 6502SOL    HW230969   0.233   2.173  16.840  2.9981 -1.0760 -3.0285
 6503SOL     OW30970   4.203   4.305   9.473 -0.5179 -0.3325 -0.3171
 6503SOL    HW130971   4.125   4.338   9.518 -1.4608 -1.7766 -0.9043
 6503SOL    HW230972   4.272   4.342   9.528  0.7559  1.1150 -2.8899
 6504SOL     OW30973   3.855   3.455   0.736  0.2899  0.1524  0.5310
 6504SOL    HW130974   3.875   3.524   0.799 -2.5777  0.1990  1.4016
 6504SOL    HW230975   3.762   3.464   0.714  0.8920 -0.1623 -2.0932
 6505SOL     OW30976   3.378   3.956   8.444 -0.1727  0.2158 -0.4474
 6505SOL    HW130977   3.294   3.981   8.483 -0.9165 -3.6874  0.4843
 6505SOL    HW230978   3.349   3.942   8.354  0.7121 -1.9774 -0.3897
 6506SOL     OW30979   1.114   1.811   4.866  0.7409  0.2877 -0.3374
 6506SOL    HW130980   1.112   1.738   4.804  0.2876  0.0962 -0.0971
 6506SOL    HW230981   1.134   1.770   4.950 -0.5184  0.9638  0.2928
 6507SOL     OW30982   2.695   1.074   1.316  0.2482  0.3269 -0.2420
 6507SOL    HW130983   2.757   1.055   1.386 -1.6776  0.4216  1.4574
 6507SOL    HW230984   2.702   1.169   1.320 -2.2522  0.4643  0.6482
 6508SOL     OW30985   2.686   1.459   3.432 -0.0342 -0.1489  0.3739
 6508SOL    HW130986   2.781   1.471   3.431 -0.0754  0.2820  2.4845
 6508SOL    HW230987   2.658   1.546   3.404  0.6973  0.3359  1.1619
 6509SOL     OW30988   1.710   3.816   5.711 -0.0738  0.1606 -0.0168
 6509SOL    HW130989   1.664   3.733   5.693 -0.6230  0.2560  0.8986
 6509SOL    HW230990   1.752   3.788   5.792  0.5748  0.6609 -0.1897
 6510SOL     OW30991   1.971   0.775   1.326 -0.8167 -0.7415  0.3069
 6510SOL    HW130992   1.880   0.754   1.349  0.0408 -3.8872  0.7786
 6510SOL    HW230993   2.010   0.797   1.410  1.1781 -1.6986 -0.3816
 6511SOL     OW30994   3.029   2.842   6.782  0.4430 -0.8286 -0.4135
 6511SOL    HW130995   3.105   2.858   6.838  0.3232  0.7999 -0.7164
 6511SOL    HW230996   3.008   2.750   6.798  0.3401 -0.6373  0.5740
 6512SOL     OW30997   1.661   2.959   4.564  0.0417  0.7278  0.6989
 6512SOL    HW130998   1.678   2.865   4.571 -2.1794  0.1352 -1.8670
 6512SOL    HW230999   1.623   2.973   4.477  0.9400  1.5102  0.4346
 6513SOL     OW31000   3.530   0.855   3.965 -1.0092  0.5797 -0.2209
 6513SOL    HW131001   3.598   0.922   3.954 -0.8375  0.2959 -0.9237
 6513SOL    HW231002   3.545   0.839   4.058 -0.4041  1.4635 -0.1683
 6514SOL     OW31003   4.456   3.297   8.124 -0.1041  0.1401  0.3408
 6514SOL    HW131004   4.479   3.390   8.121 -0.0896  0.0879 -1.1992
 6514SOL    HW231005   4.524   3.275   8.061 -0.1762 -0.0849  0.3396
 6515SOL     OW31006   4.037   1.513   0.198 -0.1909  0.6437 -0.1017
 6515SOL    HW131007   4.052   1.605   0.221  0.7488  0.9551 -1.9501
 6515SOL    HW231008   4.022   1.513   0.104  0.1499 -2.4276 -0.1451
 6516SOL     OW31009   3.501   3.197   0.712 -0.1231  0.0732 -0.2434
 6516SOL    HW131010   3.495   3.285   0.752  0.7423  0.7435 -1.6125
 6516SOL    HW231011   3.561   3.158   0.776  0.1475  2.4529  0.9670
 6517SOL     OW31012   1.379   3.711   2.029 -0.6773 -0.2210  0.0206
 6517SOL    HW131013   1.306   3.648   2.028  1.2560 -2.4594 -0.7779
 6517SOL    HW231014   1.335   3.792   2.003 -0.5764 -0.0077  0.5134
 6518SOL     OW31015   3.593   0.551   7.447  0.1728  0.7624 -0.4641
 6518SOL    HW131016   3.577   0.457   7.452  2.4732  0.3161 -1.4061
 6518SOL    HW231017   3.667   0.558   7.386 -0.2528 -0.9394 -1.1739
 6519SOL     OW31018   1.834   2.244  15.239  0.2701 -0.0006  0.3884
 6519SOL    HW131019   1.778   2.302  15.188  0.1037 -1.9047 -1.5927
 6519SOL    HW231020   1.914   2.297  15.233 -0.0359  0.2154 -1.8523
 6520SOL     OW31021   3.024   1.547  16.066 -0.3676  0.0581  0.8359
 6520SOL    HW131022   3.037   1.455  16.040 -0.5970 -0.2825  1.9268
 6520SOL    HW231023   3.112   1.579  16.085 -0.3576  0.2749  0.4089
 6521SOL     OW31024   2.583   0.675  14.599 -0.2132 -0.3983  0.0667
 6521SOL    HW131025   2.633   0.673  14.518 -2.1446 -1.5082 -1.0885
 6521SOL    HW231026   2.495   0.648  14.576 -0.5953  0.0867  0.9703
 6522SOL     OW31027   0.692   1.703   2.322  0.4141 -0.0227  0.0127
 6522SOL    HW131028   0.785   1.692   2.344  0.2217  0.8760  1.2463
 6522SOL    HW231029   0.693   1.681   2.229  3.2273 -2.0957  0.5354
 6523SOL     OW31030   2.301   1.452   9.336  0.1887  0.0754 -0.2649
 6523SOL    HW131031   2.395   1.464   9.323 -0.0496 -0.2217 -2.3591
 6523SOL    HW231032   2.273   1.455   9.245 -1.8908 -1.3620  0.3404
 6524SOL     OW31033   3.916   2.173   4.647  0.0989 -0.0410  0.0448
 6524SOL    HW131034   3.999   2.156   4.691  0.3247  0.1112 -0.3264
 6524SOL    HW231035   3.917   2.268   4.659  1.2603 -0.0129 -0.3408
 6525SOL     OW31036   1.259   2.918   4.690  0.0600 -0.0095  0.5189
 6525SOL    HW131037   1.167   2.890   4.690 -0.2982  1.1752 -1.1053
 6525SOL    HW231038   1.294   2.837   4.653  2.3829  1.9210 -1.4563
 6526SOL     OW31039   3.461   0.870   4.522 -0.0544 -0.2530  0.1634
 6526SOL    HW131040   3.420   0.916   4.595 -2.0814 -0.1151 -1.0932
 6526SOL    HW231041   3.399   0.887   4.451  0.3329 -0.1084 -0.1419
 6527SOL     OW31042   1.147   2.969   1.408 -0.6494 -0.0894  0.4098
 6527SOL    HW131043   1.125   3.016   1.489  1.4134 -0.2768  1.0803
 6527SOL    HW231044   1.074   2.994   1.351  0.1302 -0.8295 -0.9053
 6528SOL     OW31045   1.326   3.325   4.406 -0.1111  0.9381  0.2586
 6528SOL    HW131046   1.248   3.321   4.350  0.5450 -1.0981 -0.4887
 6528SOL    HW231047   1.367   3.239   4.395 -1.9335 -0.1926  2.1231
 6529SOL     OW31048   1.700   3.352   3.104  0.2431 -0.5359  0.3987
 6529SOL    HW131049   1.644   3.415   3.149 -0.8641 -2.4765  1.7121
 6529SOL    HW231050   1.781   3.351   3.157  0.8300 -1.1989 -0.5135
 6530SOL     OW31051   4.169   0.658  16.192 -0.0987  0.5947 -0.3237
 6530SOL    HW131052   4.173   0.754  16.194 -2.3514  0.6695  1.0710
 6530SOL    HW231053   4.236   0.646  16.259 -0.1825 -0.7127 -0.4810
 6531SOL     OW31054   4.407   3.791   8.553  0.6442 -0.4116 -0.3452
 6531SOL    HW131055   4.456   3.743   8.620  1.7173 -0.6961 -1.3393
 6531SOL    HW231056   4.419   3.879   8.589 -0.4117  0.5809 -2.4675
 6532SOL     OW31057   4.657   2.665   1.205  0.0519 -0.0716  0.5678
 6532SOL    HW131058   4.685   2.574   1.194  0.3301  0.1179 -0.3065
 6532SOL    HW231059   4.701   2.687   1.287 -1.8425  2.4585  0.9111
 6533SOL     OW31060   1.277   3.961   1.989 -0.1420 -0.3485  0.0667
 6533SOL    HW131061   1.347   4.026   1.997 -1.0888  0.8311 -1.1463
 6533SOL    HW231062   1.228   3.988   2.067 -1.6207  0.2292 -1.0550
 6534SOL     OW31063   1.696   4.385   5.626 -0.4756  0.1835 -0.0589
 6534SOL    HW131064   1.762   4.411   5.691 -0.6977  0.8590 -0.1001
 6534SOL    HW231065   1.749   4.383   5.546 -2.8715 -0.2079 -1.6237
 6535SOL     OW31066   0.241   3.352  10.146  0.1021  0.4190  0.4525
 6535SOL    HW131067   0.331   3.354  10.178  0.1058 -0.5569  0.5271
 6535SOL    HW231068   0.204   3.413  10.209  2.1502  1.5246  0.5812
 6536SOL     OW31069   1.635   2.317   2.937 -0.2161  0.3048 -0.5025
 6536SOL    HW131070   1.592   2.403   2.929  0.2593  0.3578 -2.4612
 6536SOL    HW231071   1.725   2.326   2.966 -1.1214  2.6450  1.6122
 6537SOL     OW31072   3.108   0.067   5.977 -0.0816 -0.0342  0.3413
 6537SOL    HW131073   3.175   0.003   5.956 -0.7094 -0.2542 -0.9744
 6537SOL    HW231074   3.114   0.074   6.073  1.1801  1.3272  0.1544
 6538SOL     OW31075   0.947   1.191   4.340  0.3651 -0.2473 -0.0553
 6538SOL    HW131076   0.916   1.135   4.411  2.1805  1.1094  1.8019
 6538SOL    HW231077   0.929   1.141   4.260 -2.3213 -0.5873  0.7440
 6539SOL     OW31078   2.584   2.716   7.598 -0.0064 -0.3284 -0.2863
 6539SOL    HW131079   2.663   2.681   7.639  1.0366  2.8805  0.4745
 6539SOL    HW231080   2.563   2.634   7.554  0.2640 -0.5960  0.0866
 6540SOL     OW31081   0.437   0.388   6.457 -0.0311 -0.0896 -0.1684
 6540SOL    HW131082   0.376   0.461   6.461 -2.4320 -2.1692  1.0898
 6540SOL    HW231083   0.512   0.421   6.506 -1.4459 -1.5345  2.9908
 6541SOL     OW31084   1.784   0.523   6.252 -0.3591  0.3286  0.0980
 6541SOL    HW131085   1.745   0.483   6.330 -0.0216  2.6304  1.4525
 6541SOL    HW231086   1.714   0.576   6.215  0.3759  1.2510  0.0302
 6542SOL     OW31087   1.958   2.400   6.875 -0.9182 -0.3739  0.1293
 6542SOL    HW131088   1.925   2.478   6.830 -0.1445  0.3265  0.7629
 6542SOL    HW231089   2.035   2.437   6.919  0.1722 -3.8042  1.1519
 6543SOL     OW31090   1.666   0.259  10.410 -0.6685  0.1391 -0.1622
 6543SOL    HW131091   1.743   0.231  10.459  0.5729 -1.9470 -3.2983
 6543SOL    HW231092   1.707   0.296  10.332 -0.4500 -1.5802 -0.8634
 6544SOL     OW31093   3.442   2.641   6.643 -0.3330 -0.1879  0.5688
 6544SOL    HW131094   3.401   2.712   6.594  1.1333  1.7794  2.2064
 6544SOL    HW231095   3.412   2.559   6.604 -0.0535  0.3449 -0.7672
 6545SOL     OW31096   1.053   4.407   9.210 -0.4224 -0.1428  0.0886
 6545SOL    HW131097   1.069   4.354   9.288  2.1080 -0.1453 -0.4238
 6545SOL    HW231098   1.073   4.498   9.232 -0.5299 -0.3621  1.0947
 6546SOL     OW31099   2.264   2.931  14.185 -0.2926 -0.3641  0.2415
 6546SOL    HW131100   2.291   2.973  14.267  0.2264 -0.6195  0.2025
 6546SOL    HW231101   2.289   3.002  14.127  0.1287 -1.4800 -0.9434
 6547SOL     OW31102   0.443   0.135   8.831 -0.0517 -0.4546 -0.2840
 6547SOL    HW131103   0.445   0.039   8.822 -2.6069 -0.5455  0.1763
 6547SOL    HW231104   0.532   0.158   8.856  0.3105 -0.1134 -1.8692
 6548SOL     OW31105   2.816   2.230   3.562  0.0442 -0.3693 -0.5157
 6548SOL    HW131106   2.844   2.173   3.633 -0.3544 -1.2689 -1.0814
 6548SOL    HW231107   2.812   2.164   3.493 -0.9383 -0.4546 -0.3662
 6549SOL     OW31108   2.104   2.093   8.180 -0.7054 -0.0676 -0.8330
 6549SOL    HW131109   2.082   2.181   8.209 -0.1061  0.8673 -3.2923
 6549SOL    HW231110   2.037   2.076   8.114  0.0316  1.7121 -2.0217
 6550SOL     OW31111   0.377   1.584   0.245 -0.1164  0.0311 -0.0886
 6550SOL    HW131112   0.361   1.496   0.280  0.7205  0.6296  1.7830
 6550SOL    HW231113   0.472   1.572   0.238 -0.4180 -1.3755 -1.8160
 6551SOL     OW31114   1.792   0.491   2.575 -0.1344  0.2288  0.5097
 6551SOL    HW131115   1.820   0.505   2.665  0.8999 -0.4473  0.3023
 6551SOL    HW231116   1.874   0.524   2.538 -0.2363 -0.2713 -0.1641
 6552SOL     OW31117   0.135   4.648  10.214  0.9924 -0.4388  0.0877
 6552SOL    HW131118   0.224   4.661  10.247  0.3231 -0.2670  1.8156
 6552SOL    HW231119   0.150   4.569  10.163 -2.6535 -1.6984  1.0119
 6553SOL     OW31120   1.638   0.303   2.377  0.9641 -0.5845 -0.0813
 6553SOL    HW131121   1.700   0.367   2.411 -0.6849  1.0774 -0.1967
 6553SOL    HW231122   1.675   0.285   2.291  0.3286  2.6005 -1.0559
 6554SOL     OW31123   4.332   2.610   3.253  0.5570 -0.8008  0.1171
 6554SOL    HW131124   4.411   2.590   3.203 -0.3729 -1.0407 -1.2649
 6554SOL    HW231125   4.334   2.550   3.328  0.1818 -1.3335 -0.2941
 6555SOL     OW31126   0.267   3.237   7.949 -0.4605 -0.5391  0.1426
 6555SOL    HW131127   0.251   3.328   7.977  0.9673 -0.3380  0.3124
 6555SOL    HW231128   0.246   3.199   8.034 -2.4026  1.1225  0.3934
 6556SOL     OW31129   2.616   1.529   4.824  0.0068 -0.1152  0.5308
 6556SOL    HW131130   2.575   1.455   4.780 -0.4100  0.7158 -0.4769
 6556SOL    HW231131   2.676   1.479   4.879 -0.7698 -0.2959  1.2100
 6557SOL     OW31132   1.430   0.230   0.568 -0.0388  0.6161  0.4322
 6557SOL    HW131133   1.408   0.322   0.583 -0.2553  0.3603  1.6772
 6557SOL    HW231134   1.462   0.228   0.477  1.1651  0.3874  0.8676
 6558SOL     OW31135   1.364   3.043  13.881  0.0825 -0.1632 -0.6065
 6558SOL    HW131136   1.293   3.028  13.944  0.5988 -1.7457 -0.3922
 6558SOL    HW231137   1.326   2.997  13.807 -0.4058  0.8954 -1.0171
 6559SOL     OW31138   0.510   2.581   5.158 -0.0286  0.7944 -0.4063
 6559SOL    HW131139   0.605   2.588   5.162 -0.1986  2.9663 -0.1710
 6559SOL    HW231140   0.500   2.499   5.111 -0.8245  1.8245 -2.0273
 6560SOL     OW31141   1.587   0.881  14.801  0.3994 -0.5541  0.1264
 6560SOL    HW131142   1.619   0.948  14.740 -1.3552 -0.1097 -0.3145
 6560SOL    HW231143   1.496   0.885  14.771  0.1776 -0.6589  0.7915
 6561SOL     OW31144   3.811   2.435   1.330 -0.1686 -0.4734 -0.4435
 6561SOL    HW131145   3.793   2.418   1.238 -0.1328 -2.6007 -0.0615
 6561SOL    HW231146   3.849   2.522   1.316 -0.5887 -0.5092 -1.7574
 6562SOL     OW31147   0.401   3.344   6.412 -0.2996  0.2724  0.2841
 6562SOL    HW131148   0.393   3.353   6.507  2.0203  1.1880  0.4016
 6562SOL    HW231149   0.327   3.394   6.377  0.5538  0.5808 -1.1010
 6563SOL     OW31150   1.212   3.975   8.882  0.3754 -0.0279  0.0885
 6563SOL    HW131151   1.293   4.026   8.895 -1.7095  3.0075  1.1824
 6563SOL    HW231152   1.176   3.965   8.971 -0.2490  0.1209 -0.1511
 6564SOL     OW31153   0.174   3.415   8.357 -0.5668 -0.1166  0.5101
 6564SOL    HW131154   0.242   3.480   8.374 -0.8949  0.5359 -0.6345
 6564SOL    HW231155   0.165   3.383   8.446 -3.4944 -2.0083 -0.4738
 6565SOL     OW31156   0.037   2.200   5.149 -0.6162  0.1250  0.5623
 6565SOL    HW131157   0.126   2.169   5.130 -1.5837 -2.4471  0.2082
 6565SOL    HW231158   4.708   2.120   5.135 -1.7311  0.6000  1.8853
 6566SOL     OW31159   2.360   1.030   3.524 -0.5457 -0.0208  0.1558
 6566SOL    HW131160   2.354   1.029   3.429  1.4147  2.0216  0.0018
 6566SOL    HW231161   2.422   1.102   3.532  1.0397 -1.6356  2.3302
 6567SOL     OW31162   2.659   1.901   5.772 -0.4960  0.3632  0.2363
 6567SOL    HW131163   2.712   1.850   5.711 -1.1482  0.6015 -0.5407
 6567SOL    HW231164   2.720   1.975   5.780 -0.0638 -0.0066  0.3418
 6568SOL     OW31165   1.373   3.213  16.802  0.6122 -0.0767  0.2118
 6568SOL    HW131166   1.394   3.187  16.892  1.1816 -0.3113  0.0138
 6568SOL    HW231167   1.392   3.306  16.819  1.6490 -0.2768  0.1823
 6569SOL     OW31168   2.848   4.519   0.320  0.1005  0.1538 -0.3708
 6569SOL    HW131169   2.917   4.504   0.256  1.0676 -2.6459  1.3265
 6569SOL    HW231170   2.859   4.613   0.333 -1.0338  0.3508 -0.8440
 6570SOL     OW31171   1.458   4.600   7.884 -0.1565 -0.8418  0.3785
 6570SOL    HW131172   1.364   4.616   7.871  0.6896  2.1225 -2.0629
 6570SOL    HW231173   1.465   4.581   7.978  0.4370 -2.6999 -0.0633
 6571SOL     OW31174   0.250   3.078  15.070 -0.4739  0.5183  0.1853
 6571SOL    HW131175   0.300   3.159  15.064  1.0516 -0.3519  1.2702
 6571SOL    HW231176   0.293   3.028  15.000  1.8348  0.7308  1.4693
 6572SOL     OW31177   0.871   1.689   7.850  0.0125  0.2629  0.4633
 6572SOL    HW131178   0.862   1.595   7.834 -1.7099  0.2343  1.6431
 6572SOL    HW231179   0.905   1.686   7.940  2.5713  0.4530 -0.4896
 6573SOL     OW31180   4.315   3.270   7.201 -0.5541 -0.2814  0.2875
 6573SOL    HW131181   4.321   3.252   7.294 -2.3844  0.6244  0.5772
 6573SOL    HW231182   4.228   3.309   7.205 -1.6361 -2.4939 -1.2534
 6574SOL     OW31183   2.388   2.326   5.859  0.1309 -0.1340  0.1287
 6574SOL    HW131184   2.386   2.355   5.768 -3.4832 -0.7449  0.0025
 6574SOL    HW231185   2.483   2.331   5.864  0.0902 -0.1604  0.9178
 6575SOL     OW31186   2.690   2.635  12.563 -0.1022  0.4218  0.9777
 6575SOL    HW131187   2.710   2.547  12.597 -1.2610  0.0848  0.8018
 6575SOL    HW231188   2.771   2.683  12.578  0.8373 -1.5967  2.3354
 6576SOL     OW31189   3.725   0.814   5.066 -0.1627 -0.1600 -0.1000
 6576SOL    HW131190   3.750   0.759   5.140 -2.1152  0.9292  1.3456
 6576SOL    HW231191   3.727   0.905   5.096 -0.3423  0.2679 -1.3651
 6577SOL     OW31192   4.266   3.172   8.914 -0.5660 -0.2262 -0.1422
 6577SOL    HW131193   4.317   3.095   8.938 -0.1447 -0.2389 -1.1126
 6577SOL    HW231194   4.277   3.214   8.999  0.9154  0.0431 -0.4792
 6578SOL     OW31195   0.662   4.015   7.816 -0.4875  0.1204 -0.2732
 6578SOL    HW131196   0.699   4.091   7.769  3.8163 -0.7714  1.6586
 6578SOL    HW231197   0.627   3.958   7.748 -0.3935 -1.3763  0.9498
 6579SOL     OW31198   0.573   4.037   1.162  0.4104 -0.3466  0.2313
 6579SOL    HW131199   0.661   4.071   1.149  0.1853  0.4724  0.8014
 6579SOL    HW231200   0.526   4.116   1.190  0.1445  0.2052 -1.7392
 6580SOL     OW31201   0.315   0.149   5.133 -0.4771 -0.0495 -0.3605
 6580SOL    HW131202   0.395   0.202   5.133 -0.8662  0.5309 -0.0265
 6580SOL    HW231203   0.345   0.060   5.153 -0.0064  0.5829  1.7167
 6581SOL     OW31204   1.064   1.655  11.325  0.0079  0.3787  0.2968
 6581SOL    HW131205   1.152   1.630  11.353 -0.5236 -0.4892  1.2102
 6581SOL    HW231206   1.074   1.726  11.262  0.5397 -0.1157 -0.1687
 6582SOL     OW31207   1.088   4.022   9.358 -0.5318 -0.1454  0.1197
 6582SOL    HW131208   1.122   4.099   9.404 -0.1931 -1.2137  1.6392
 6582SOL    HW231209   1.138   4.011   9.277 -0.9359 -0.1224 -0.1363
 6583SOL     OW31210   0.250   0.061   4.107 -0.1041  1.0640  0.1712
 6583SOL    HW131211   0.224   4.699   4.144  0.6069  1.3088  1.2322
 6583SOL    HW231212   0.297   0.102   4.179 -0.2028 -1.8633  1.8735
 6584SOL     OW31213   2.441   1.548  17.498  0.3144  0.0719 -0.3574
 6584SOL    HW131214   2.464   1.456  17.485 -5.2248 -0.7977 -3.8764
 6584SOL    HW231215   2.467   1.572  17.409 -1.9856 -0.1467 -1.0998
 6585SOL     OW31216   4.158   3.557   4.624 -0.4400  0.4952 -0.4466
 6585SOL    HW131217   4.132   3.523   4.709  0.8387  1.6637  0.4188
 6585SOL    HW231218   4.252   3.574   4.626  0.0434 -1.8816 -2.8348
 6586SOL     OW31219   1.074   3.350  10.867 -0.3449  0.2591 -0.0069
 6586SOL    HW131220   0.991   3.371  10.825 -0.4047  1.5146  0.7490
 6586SOL    HW231221   1.057   3.365  10.960  0.7943 -2.8236  0.7068
 6587SOL     OW31222   0.423   3.749   4.893 -0.4955 -0.6067 -0.6933
 6587SOL    HW131223   0.424   3.681   4.826 -1.1348 -0.3797 -0.9346
 6587SOL    HW231224   0.432   3.705   4.977 -0.6147  3.1066  1.2964
 6588SOL     OW31225   2.170   4.442  13.250 -0.0297 -0.0406 -0.0121
 6588SOL    HW131226   2.246   4.392  13.281 -0.3480 -1.0164 -0.7980
 6588SOL    HW231227   2.122   4.373  13.205 -0.7354  0.1322  0.4678
 6589SOL     OW31228   2.517   3.254  17.618 -0.2280 -0.4097 -0.3755
 6589SOL    HW131229   2.499   3.282  17.528  0.9799  0.4995 -0.3370
 6589SOL    HW231230   2.446   3.192  17.632  0.0308 -0.7077 -0.3852
 6590SOL     OW31231   1.190   0.331   2.134 -0.1340  0.3991 -0.0901
 6590SOL    HW131232   1.250   0.373   2.196 -0.6506  0.7458  0.1829
 6590SOL    HW231233   1.230   0.247   2.114  1.6130  1.3054 -0.4129
 6591SOL     OW31234   3.663   0.979   6.091  0.0298 -0.3929  0.5987
 6591SOL    HW131235   3.586   1.000   6.037  0.4221  1.0334  0.5955
 6591SOL    HW231236   3.696   0.915   6.028  1.7144 -0.1942  1.2871
 6592SOL     OW31237   2.933   2.768  12.580  0.2144  0.2172 -0.0582
 6592SOL    HW131238   2.922   2.863  12.574 -0.4926  0.1438  0.1345
 6592SOL    HW231239   3.005   2.760  12.517  1.5962  0.0514  1.5376
 6593SOL     OW31240   0.407   1.918   3.922 -0.2186 -0.1876  0.3412
 6593SOL    HW131241   0.351   1.964   3.859 -0.4647  0.8142  1.2828
 6593SOL    HW231242   0.488   1.969   3.926 -1.5915  2.1345 -1.2679
 6594SOL     OW31243   1.780   0.864   6.039  0.2544  0.2828 -0.5677
 6594SOL    HW131244   1.852   0.801   6.048 -1.1108 -1.4616 -1.9246
 6594SOL    HW231245   1.785   0.885   5.946  0.3125  1.1621 -0.3608
 6595SOL     OW31246   1.184   3.466  12.337  0.8196 -0.1862 -0.1715
 6595SOL    HW131247   1.163   3.448  12.428  1.5509  0.3564  0.1025
 6595SOL    HW231248   1.101   3.445  12.293  1.7082 -2.9754 -0.5194
 6596SOL     OW31249   1.110   0.582  13.998 -0.0563  0.0407 -0.4833
 6596SOL    HW131250   1.071   0.502  13.964 -2.1375  0.6609  0.4248
 6596SOL    HW231251   1.055   0.655  13.970  1.8337  2.1704  1.3561
 6597SOL     OW31252   4.276   1.535   5.387 -0.1737 -0.5328  0.2451
 6597SOL    HW131253   4.202   1.484   5.354 -2.2423  2.2051  0.6143
 6597SOL    HW231254   4.344   1.500   5.331  0.3780  0.8908  0.0176
 6598SOL     OW31255   4.084   1.823  17.280  0.0575 -0.0070  0.0738
 6598SOL    HW131256   4.103   1.768  17.356 -0.1741 -0.3643 -0.1284
 6598SOL    HW231257   4.089   1.766  17.203  0.6415 -0.4140  0.4075
 6599SOL     OW31258   0.916   2.028   5.269  0.0951  0.1687  0.0597
 6599SOL    HW131259   0.843   2.087   5.289 -1.3532 -1.2044 -1.1771
 6599SOL    HW231260   0.915   2.020   5.174 -1.4938 -0.3200  0.1250
 6600SOL     OW31261   3.706   2.436   6.959  0.2831 -0.0275 -0.1204
 6600SOL    HW131262   3.714   2.516   7.011 -2.3180 -1.2775  2.2764
 6600SOL    HW231263   3.615   2.418   6.986  0.3535 -1.3300 -0.7400
 6601SOL     OW31264   1.074   4.631   8.818  0.1434  0.0227 -0.1902
 6601SOL    HW131265   1.154   4.580   8.833  1.1778  1.7835  0.2600
 6601SOL    HW231266   1.006   4.573   8.852 -1.3289  1.9805  0.1740
 6602SOL     OW31267   4.238   0.116  16.840  0.4864  0.5335  0.1619
 6602SOL    HW131268   4.255   0.190  16.898 -0.5449  1.0360 -0.1677
 6602SOL    HW231269   4.228   0.052  16.910 -1.8894  0.5673 -0.1263
 6603SOL     OW31270   2.497   2.819   6.652 -0.1272  0.3935 -0.3462
 6603SOL    HW131271   2.516   2.906   6.687  0.8598 -0.5147  1.3507
 6603SOL    HW231272   2.536   2.767   6.722 -1.1284 -0.4989 -0.4486
 6604SOL     OW31273   3.215   3.431   6.098 -0.2109 -0.0106  0.1996
 6604SOL    HW131274   3.248   3.491   6.031 -0.1684  0.2718  0.4702
 6604SOL    HW231275   3.121   3.437   6.081 -0.1620  1.2949  0.3762
 6605SOL     OW31276   1.888   3.984   8.136  0.0896  0.6874  0.2627
 6605SOL    HW131277   1.832   3.906   8.133  0.6510  0.2392  1.6597
 6605SOL    HW231278   1.920   3.985   8.226 -0.7388  0.2850  0.5627
 6606SOL     OW31279   2.895   1.428   2.595 -0.4822  0.1694 -0.0701
 6606SOL    HW131280   2.925   1.341   2.621  0.5110  0.2050 -1.0937
 6606SOL    HW231281   2.804   1.436   2.624 -0.1694 -0.1333  0.9754
 6607SOL     OW31282   2.008   3.474  12.757  0.1447 -0.1398  0.0332
 6607SOL    HW131283   2.078   3.443  12.699 -1.7211 -1.1061 -1.6957
 6607SOL    HW231284   1.993   3.407  12.824  0.5363 -0.3075 -0.0424
 6608SOL     OW31285   4.673   3.614   2.437  0.3001 -0.2558  0.1708
 6608SOL    HW131286   4.717   3.575   2.512  2.8076  0.4383 -0.9309
 6608SOL    HW231287   4.665   3.707   2.454 -0.3967  0.3755 -3.6128
 6609SOL     OW31288   2.665   0.845   3.589  0.0745 -0.2013  0.0870
 6609SOL    HW131289   2.705   0.811   3.669  3.1201  0.0257 -1.3226
 6609SOL    HW231290   2.679   0.938   3.606  1.8991 -0.1888 -1.5667
 6610SOL     OW31291   1.681   0.861   7.842  0.1743 -0.7467 -0.1087
 6610SOL    HW131292   1.742   0.791   7.865 -0.5911 -0.9606  1.2661
 6610SOL    HW231293   1.696   0.925   7.912 -0.8772  0.7454 -1.2466
 6611SOL     OW31294   4.502   4.690   9.502  0.4056  0.9811 -0.3652
 6611SOL    HW131295   4.502   4.682   9.407 -0.8204 -0.6448 -0.2302
 6611SOL    HW231296   4.463   0.056   9.509 -2.6887 -0.4658  0.7690
 6612SOL     OW31297   1.289   1.283  16.975 -0.1320 -0.2283 -0.3349
 6612SOL    HW131298   1.255   1.312  17.060  2.2175 -0.3635  0.6600
 6612SOL    HW231299   1.370   1.334  16.979  0.7773 -1.7066 -0.0059
 6613SOL     OW31300   2.060   1.457   2.294 -0.0369 -0.3806 -0.1222
 6613SOL    HW131301   2.009   1.381   2.323  0.1688 -0.5972 -0.3248
 6613SOL    HW231302   2.030   1.478   2.206  0.3512  0.0486 -0.1521
 6614SOL     OW31303   1.370   1.759  15.459 -0.0124  0.1606  0.7841
 6614SOL    HW131304   1.430   1.691  15.427 -1.1309  0.3686 -1.7523
 6614SOL    HW231305   1.362   1.812  15.380  0.0754 -2.5517 -1.0447
 6615SOL     OW31306   4.365   2.085   5.731 -0.9144  0.0594 -0.3529
 6615SOL    HW131307   4.354   2.084   5.826  0.0290  0.9021 -0.2445
 6615SOL    HW231308   4.449   2.129   5.729 -0.8551 -0.1133 -1.5538
 6616SOL     OW31309   2.757   4.111   2.967  0.4114  0.1707  0.3084
 6616SOL    HW131310   2.749   4.017   2.982  1.8539  0.0480  0.3629
 6616SOL    HW231311   2.824   4.136   3.030  0.7387  1.2597 -0.4640
 6617SOL     OW31312   0.234   4.170   4.049  0.4681 -0.3723 -0.0202
 6617SOL    HW131313   0.191   4.090   4.018 -0.9464  1.2871 -2.3561
 6617SOL    HW231314   0.239   4.155   4.143  1.6665 -1.3764 -0.2412
 6618SOL     OW31315   3.434   3.302   2.343 -0.0608  0.1419  1.0600
 6618SOL    HW131316   3.505   3.256   2.298 -0.5342  0.4622 -0.0116
 6618SOL    HW231317   3.375   3.327   2.272  1.2641  1.2759  0.3721
 6619SOL     OW31318   3.334   1.306   9.480 -0.1715 -0.2786 -0.3533
 6619SOL    HW131319   3.424   1.314   9.509  0.0584 -0.7599 -0.9275
 6619SOL    HW231320   3.290   1.362   9.544 -0.9002  0.1268 -1.2011
 6620SOL     OW31321   2.275   4.144   7.491  0.1558 -0.2302  0.1627
 6620SOL    HW131322   2.287   4.238   7.509  0.4375  0.1254 -1.8172
 6620SOL    HW231323   2.301   4.106   7.574  1.6704  0.7510  0.1398
 6621SOL     OW31324   3.181   3.873   9.617  0.4007  0.0421  0.4165
 6621SOL    HW131325   3.178   3.912   9.529  1.9048 -1.3480 -0.2362
 6621SOL    HW231326   3.093   3.835   9.618  0.2890  0.2579 -0.7186
 6622SOL     OW31327   2.278   2.690   1.547 -0.7225 -0.6646  0.1984
 6622SOL    HW131328   2.332   2.617   1.518 -0.0883  0.5020 -1.5228
 6622SOL    HW231329   2.268   2.674   1.641  1.1365 -1.6847  0.2106
 6623SOL     OW31330   1.225   3.433   3.170 -0.5764  0.0635 -0.0602
 6623SOL    HW131331   1.223   3.463   3.261 -0.4668 -2.1322  0.6793
 6623SOL    HW231332   1.281   3.498   3.127 -1.1853 -1.2729 -2.8289
 6624SOL     OW31333   4.449   0.324   2.990 -0.2729 -0.4024  0.2025
 6624SOL    HW131334   4.384   0.265   2.951 -0.7681 -0.5995  1.3086
 6624SOL    HW231335   4.399   0.353   3.067 -2.5061  0.4847 -1.5915
 6625SOL     OW31336   1.297   2.681   3.504 -0.3341 -0.3639 -0.0787
 6625SOL    HW131337   1.375   2.697   3.557 -1.8784 -0.9136  2.3798
 6625SOL    HW231338   1.296   2.752   3.441  0.8128 -2.3446 -2.2981
 6626SOL     OW31339   3.544   2.738   7.957 -0.0892 -0.0355  0.3974
 6626SOL    HW131340   3.616   2.697   8.005  0.0646  1.1709  1.2091
 6626SOL    HW231341   3.496   2.662   7.925  0.1459 -0.5929  1.3693
 6627SOL     OW31342   2.194   0.791   0.714  0.1506 -0.2267 -0.1011
 6627SOL    HW131343   2.173   0.722   0.778  1.8836  1.5426  2.3912
 6627SOL    HW231344   2.288   0.801   0.731 -0.4247 -0.1662  3.2233
 6628SOL     OW31345   1.565   4.722   3.795  0.0757  0.0970  0.6331
 6628SOL    HW131346   1.595   4.645   3.746  5.9984  1.8005  1.6301
 6628SOL    HW231347   1.643   0.022   3.846  1.6414 -3.6756 -0.1085
 6629SOL     OW31348   3.277   3.518   5.513 -0.0026 -0.1133 -0.0454
 6629SOL    HW131349   3.313   3.605   5.531 -0.7882  0.3444 -0.7434
 6629SOL    HW231350   3.312   3.473   5.590  0.1844 -0.7651 -0.5115
 6630SOL     OW31351   4.577   4.135   7.601  0.3159  0.0211  0.0858
 6630SOL    HW131352   4.505   4.197   7.590 -0.1247 -0.1197  2.3375
 6630SOL    HW231353   4.585   4.125   7.695  1.1853 -1.4033 -0.1327
 6631SOL     OW31354   3.071   1.783   1.200 -0.0630 -0.4360  0.0052
 6631SOL    HW131355   2.996   1.733   1.167  2.0338 -3.0246 -0.8697
 6631SOL    HW231356   3.024   1.829   1.269  0.1930  2.5266 -1.7997
 6632SOL     OW31357   3.569   0.317  13.243  0.0157 -0.0827 -0.1846
 6632SOL    HW131358   3.636   0.324  13.311  0.5722 -0.4277 -0.6860
 6632SOL    HW231359   3.628   0.280  13.176  0.2674 -0.4236  0.2248
 6633SOL     OW31360   2.706   3.835  10.608  0.0490 -0.8856  0.0297
 6633SOL    HW131361   2.743   3.837  10.520  0.3318 -0.2886  0.1661
 6633SOL    HW231362   2.663   3.750  10.600  0.5198 -1.0306 -0.9760
 6634SOL     OW31363   4.142   2.031   7.527 -0.3821  1.0013 -0.7333
 6634SOL    HW131364   4.162   2.091   7.455  0.1815  0.9690 -0.5991
 6634SOL    HW231365   4.120   1.954   7.475  1.9942 -0.4104  0.3738
 6635SOL     OW31366   2.710   4.404   9.296  0.0762  0.5301  0.1910
 6635SOL    HW131367   2.786   4.419   9.240  0.0071 -0.8004 -0.2695
 6635SOL    HW231368   2.737   4.438   9.381  2.0185 -2.1763  0.6655
 6636SOL     OW31369   0.913   0.576   8.466  0.3018  0.5336  0.6123
 6636SOL    HW131370   0.953   0.655   8.428 -1.3301  1.2610  0.3879
 6636SOL    HW231371   0.880   0.612   8.548 -1.2287 -1.7159  0.9763
 6637SOL     OW31372   2.392   1.674   9.118  0.4292 -0.1143 -0.5988
 6637SOL    HW131373   2.434   1.697   9.201 -1.6568 -0.1784  0.4515
 6637SOL    HW231374   2.329   1.745   9.108  0.9163  0.2019 -1.4622
 6638SOL     OW31375   1.669   4.044  17.621 -0.1781 -0.5904 -0.3723
 6638SOL    HW131376   1.686   3.963  17.572 -0.7149 -1.2963  0.6306
 6638SOL    HW231377   1.575   4.054  17.612 -0.0809  0.4042 -0.3311
 6639SOL     OW31378   4.503   4.248  16.412  0.3261 -0.5416  0.1215
 6639SOL    HW131379   4.433   4.186  16.392 -1.6931  1.2093  1.7527
 6639SOL    HW231380   4.567   4.223  16.346 -3.6826  0.8356 -4.3643
 6640SOL     OW31381   3.295   0.936  11.925  0.9193 -0.9416 -0.1666
 6640SOL    HW131382   3.242   1.016  11.935  0.6176 -1.0718 -0.6711
 6640SOL    HW231383   3.329   0.945  11.836 -1.0560 -3.5886 -1.1838
 6641SOL     OW31384   1.417   3.121   3.148 -0.5093 -0.2056  0.4900
 6641SOL    HW131385   1.364   3.183   3.099 -1.5662  0.6148  2.7079
 6641SOL    HW231386   1.481   3.104   3.079 -0.7708 -1.7289  0.6152
 6642SOL     OW31387   2.393   2.957   4.150 -0.0168 -0.0303  0.2908
 6642SOL    HW131388   2.460   3.003   4.100  1.5340 -4.3043 -1.5914
 6642SOL    HW231389   2.422   2.968   4.241 -0.8960 -0.8553  0.6813
 6643SOL     OW31390   4.120   3.018   3.002 -0.1613  0.0160 -0.3239
 6643SOL    HW131391   4.183   3.068   2.950  0.3990  0.6708  0.9611
 6643SOL    HW231392   4.156   2.930   2.990 -2.7226 -0.9321 -0.9753
 6644SOL     OW31393   2.399   2.411   5.619  0.1098  0.2889 -0.0764
 6644SOL    HW131394   2.420   2.482   5.558  0.8942 -0.4493 -0.6674
 6644SOL    HW231395   2.378   2.339   5.560 -0.2997 -0.6967  1.2843
 6645SOL     OW31396   4.175   1.571  16.119  0.4793 -0.2647  0.0719
 6645SOL    HW131397   4.251   1.540  16.068 -0.5976 -0.8137 -1.2176
 6645SOL    HW231398   4.128   1.625  16.056  0.0118 -3.1486 -2.0886
 6646SOL     OW31399   1.633   1.613   0.761 -0.1585 -0.4831 -0.2391
 6646SOL    HW131400   1.575   1.676   0.803  1.3524  0.2516  0.7378
 6646SOL    HW231401   1.566   1.548   0.740  0.5454 -1.3481  0.1944
 6647SOL     OW31402   3.465   0.602  14.231  0.4399 -0.4948  0.5478
 6647SOL    HW131403   3.471   0.648  14.315 -1.9575 -1.5575  1.2889
 6647SOL    HW231404   3.557   0.575  14.235  1.1325  1.6370 -1.3230
 6648SOL     OW31405   3.793   2.490   9.078  0.1417  0.3546  0.0962
 6648SOL    HW131406   3.768   2.441   9.000 -0.4962  1.7910 -0.6048
 6648SOL    HW231407   3.779   2.433   9.154 -1.5965  0.6497 -0.0029
 6649SOL     OW31408   3.386   3.619  10.276 -0.8511 -0.1323  0.1656
 6649SOL    HW131409   3.329   3.693  10.296 -1.0154  0.1823 -1.4967
 6649SOL    HW231410   3.358   3.567  10.352 -1.6598  1.4218  0.9413
 6650SOL     OW31411   3.918   4.386  10.963 -0.1261 -0.4331  0.3699
 6650SOL    HW131412   4.007   4.402  10.933 -0.1003  1.7583  1.5968
 6650SOL    HW231413   3.881   4.330  10.895 -0.6766  1.8526 -1.2117
 6651SOL     OW31414   2.303   4.490   5.995 -0.6561 -0.3000 -0.0275
 6651SOL    HW131415   2.257   4.453   5.920  0.3691  0.3949 -0.9953
 6651SOL    HW231416   2.329   4.406   6.034  1.1965  0.7834  1.0451
 6652SOL     OW31417   4.145   1.524   3.678 -0.0403 -0.0449  0.0908
 6652SOL    HW131418   4.185   1.440   3.657  0.0742  0.1767 -0.5625
 6652SOL    HW231419   4.082   1.530   3.607  3.0431  3.6826 -2.2809
 6653SOL     OW31420   2.872   1.152  12.964 -0.5344  0.5943  0.4362
 6653SOL    HW131421   2.929   1.224  12.993 -1.4261  1.5422 -0.1783
 6653SOL    HW231422   2.941   1.104  12.919 -0.3219  1.6117 -0.3369
 6654SOL     OW31423   4.256   1.587   2.724  0.1888  0.2597  0.4918
 6654SOL    HW131424   4.219   1.571   2.638 -1.6694 -1.4153  1.6071
 6654SOL    HW231425   4.217   1.674   2.736 -2.4065 -0.8600  0.0885
 6655SOL     OW31426   1.182   2.152   5.104 -0.2862  0.0908 -0.1379
 6655SOL    HW131427   1.225   2.224   5.151 -0.2564  1.0867 -1.6778
 6655SOL    HW231428   1.097   2.190   5.082 -0.4319 -0.1986 -0.0657
 6656SOL     OW31429   3.287   0.191   2.753 -0.0931 -0.0229 -0.0668
 6656SOL    HW131430   3.233   0.240   2.691 -2.4253 -1.1458  1.0642
 6656SOL    HW231431   3.230   0.151   2.819  0.7202 -1.1024 -0.0246
 6657SOL     OW31432   3.058   3.416   4.758  0.0488  0.0735 -0.2208
 6657SOL    HW131433   3.092   3.489   4.809 -0.0341 -0.2572  0.2995
 6657SOL    HW231434   3.080   3.337   4.807 -1.5665  0.2384  0.7738
 6658SOL     OW31435   2.517   1.023   1.047  0.2486  0.3501 -0.0643
 6658SOL    HW131436   2.587   1.050   0.989 -0.7553 -0.5683 -1.6973
 6658SOL    HW231437   2.571   1.013   1.126 -0.4536 -0.6642  0.2948
 6659SOL     OW31438   3.084   3.094   2.427  0.1307  0.0363 -0.2310
 6659SOL    HW131439   3.049   3.183   2.416  1.0591  0.0129 -3.3318
 6659SOL    HW231440   3.018   3.060   2.486 -1.2726  3.0630 -0.0492
 6660SOL     OW31441   1.071   0.501   5.142  0.2674 -0.0610  0.5839
 6660SOL    HW131442   1.006   0.545   5.088 -0.6216 -1.6664  0.3234
 6660SOL    HW231443   1.027   0.514   5.226  0.6139 -2.7265  1.1855
 6661SOL     OW31444   1.153   3.383   8.421  0.2939 -0.5105 -0.5004
 6661SOL    HW131445   1.185   3.425   8.340 -0.9646  3.3607  1.0176
 6661SOL    HW231446   1.225   3.398   8.482  0.9276  0.1488 -1.4014
 6662SOL     OW31447   3.875   1.008  14.973 -0.2183  0.2489  0.4288
 6662SOL    HW131448   3.853   1.039  14.885  1.1182 -1.5531 -0.5502
 6662SOL    HW231449   3.814   1.052  15.031 -1.8609  0.4713 -1.4697
 6663SOL     OW31450   1.268   3.411   7.035 -0.5040  0.0822 -0.3787
 6663SOL    HW131451   1.354   3.405   6.993  0.1866  0.8884  0.9029
 6663SOL    HW231452   1.224   3.331   7.008  0.3428 -0.7011  0.5798
 6664SOL     OW31453   3.567   3.276   3.370  0.3219  0.7369  0.2783
 6664SOL    HW131454   3.615   3.194   3.381  0.2327 -0.0196 -4.8905
 6664SOL    HW231455   3.622   3.344   3.410  2.4358 -1.8572  1.8298
 6665SOL     OW31456   0.954   1.218   5.607  0.5360 -0.1993  0.1767
 6665SOL    HW131457   0.943   1.124   5.598  0.4808  0.0607 -2.3611
 6665SOL    HW231458   1.005   1.250   5.532  1.1059  3.5602  2.1138
 6666SOL     OW31459   4.556   2.797  10.790  0.2206  0.1447  0.3843
 6666SOL    HW131460   4.650   2.814  10.799 -0.3207  3.4472 -0.0279
 6666SOL    HW231461   4.523   2.875  10.746  4.4542  1.1668 -1.0251
 6667SOL     OW31462   3.597   2.288  16.886 -0.1528 -0.2623 -0.0779
 6667SOL    HW131463   3.628   2.349  16.952 -1.1041 -0.2480  0.3515
 6667SOL    HW231464   3.611   2.343  16.809 -0.0731  0.6663  0.6033
 6668SOL     OW31465   1.870   4.621  11.355 -0.7437 -0.0863  0.1340
 6668SOL    HW131466   1.929   4.557  11.396  1.3946  0.7239 -1.6991
 6668SOL    HW231467   1.796   4.628  11.415 -0.1190  1.5180  0.7241
 6669SOL     OW31468   0.959   3.838   1.445 -0.2378  0.3697 -0.4545
 6669SOL    HW131469   0.956   3.799   1.358  0.6464 -1.1943  0.2049
 6669SOL    HW231470   1.040   3.796   1.474  1.8832  4.1359 -0.9099
 6670SOL     OW31471   4.431   2.602   5.343 -0.3914  0.3452  0.1475
 6670SOL    HW131472   4.381   2.521   5.331 -0.8555  0.6441  0.0964
 6670SOL    HW231473   4.354   2.657   5.358 -2.6701 -2.2197 -2.0409
 6671SOL     OW31474   3.272   0.891   8.843 -0.3206 -0.8437  0.0543
 6671SOL    HW131475   3.340   0.832   8.875  1.1512 -1.3709 -3.9664
 6671SOL    HW231476   3.215   0.830   8.796  0.1028 -0.5192 -0.9020
 6672SOL     OW31477   4.034   1.990   3.053 -0.1020 -0.1152 -0.0465
 6672SOL    HW131478   4.116   1.951   3.024 -0.5211  0.2378 -1.7004
 6672SOL    HW231479   3.995   1.915   3.099 -2.0030  1.2465  0.5848
 6673SOL     OW31480   2.719   2.749   4.068  0.7342 -0.0444 -0.6852
 6673SOL    HW131481   2.649   2.690   4.042  0.2401  0.7401 -1.1117
 6673SOL    HW231482   2.706   2.749   4.163  2.4731 -0.7713 -0.4380
 6674SOL     OW31483   0.985   0.441   5.964 -0.4318 -0.2106 -0.7169
 6674SOL    HW131484   0.941   0.524   5.945  0.0482  0.5268  1.3884
 6674SOL    HW231485   1.072   0.461   5.931 -0.1299  0.9367  0.7739
 6675SOL     OW31486   2.139   2.455   7.155 -0.0095  0.2935 -0.0538
 6675SOL    HW131487   2.153   2.386   7.220  3.0200  1.7554  0.8579
 6675SOL    HW231488   2.082   2.505   7.214 -0.1750  1.1952 -0.9750
 6676SOL     OW31489   4.326   2.324  13.392 -0.6535 -0.4018 -0.3550
 6676SOL    HW131490   4.238   2.347  13.363 -0.9542 -0.9338  0.1409
 6676SOL    HW231491   4.310   2.240  13.435  0.5551 -0.8708 -0.8198
 6677SOL     OW31492   0.260   3.817  10.616 -0.3714  0.2733  0.1014
 6677SOL    HW131493   0.342   3.848  10.579 -0.4597  0.1345 -0.2134
 6677SOL    HW231494   0.198   3.824  10.543  0.0083 -0.1991 -0.2616
 6678SOL     OW31495   3.968   0.303   8.262 -0.1551 -0.2640  0.2647
 6678SOL    HW131496   3.874   0.284   8.270 -0.2334  0.3583  0.7974
 6678SOL    HW231497   4.007   0.266   8.342 -0.2773 -0.3308  0.2954
 6679SOL     OW31498   0.532   0.110   3.001 -0.1420 -0.1468 -0.1867
 6679SOL    HW131499   0.627   0.111   2.990 -0.0930 -0.8592  0.1429
 6679SOL    HW231500   0.520   0.191   3.050  2.4385  0.9376 -1.3264
 6680SOL     OW31501   1.266   3.756   4.179  0.3127  0.3369 -0.2107
 6680SOL    HW131502   1.325   3.831   4.184  2.9102 -1.6757 -0.9400
 6680SOL    HW231503   1.235   3.749   4.269 -0.7090  2.0794 -0.4200
 6681SOL     OW31504   1.840   1.997   5.492  0.0930 -0.5687 -0.2581
 6681SOL    HW131505   1.795   2.081   5.484  1.7850  0.5326  1.7393
 6681SOL    HW231506   1.773   1.930   5.507  0.6120 -1.5314 -2.1619
 6682SOL     OW31507   1.127   3.251   5.889 -0.0899  0.0146  0.2697
 6682SOL    HW131508   1.157   3.172   5.934 -0.1901  0.3174  0.8587
 6682SOL    HW231509   1.205   3.304   5.906  0.9872 -0.4034 -3.3611
 6683SOL     OW31510   4.577   0.872   4.125 -0.7424 -0.1313  0.2056
 6683SOL    HW131511   4.587   0.862   4.220  0.0418  0.4574  0.1831
 6683SOL    HW231512   4.482   0.870   4.111 -0.8747 -0.2477  1.1071
 6684SOL     OW31513   2.649   1.288   4.202 -0.5114 -0.3322  0.0012
 6684SOL    HW131514   2.596   1.217   4.237 -0.3508 -0.5803 -0.2615
 6684SOL    HW231515   2.626   1.272   4.110  0.8896  0.5052 -0.4857
 6685SOL     OW31516   2.938   2.559  10.574  0.5150  0.3602  0.3423
 6685SOL    HW131517   2.946   2.625  10.643  0.2089  0.8597 -0.0988
 6685SOL    HW231518   2.852   2.520  10.591  0.6949 -0.4693 -0.6166
 6686SOL     OW31519   1.261   0.335   6.069 -0.2536  0.3389 -0.5977
 6686SOL    HW131520   1.212   0.283   6.133  0.3176  1.4584  0.7370
 6686SOL    HW231521   1.331   0.358   6.130 -0.9694  2.9019 -0.7379
 6687SOL     OW31522   0.521   2.391   4.942 -0.0880 -0.3553  0.5880
 6687SOL    HW131523   0.449   2.329   4.958 -0.6049 -0.2590 -1.3496
 6687SOL    HW231524   0.584   2.321   4.926  1.3630  0.6141  2.0148
 6688SOL     OW31525   1.600   1.991   0.758  0.5613 -0.0943 -0.9256
 6688SOL    HW131526   1.663   2.054   0.722 -1.3950  0.1790 -3.8292
 6688SOL    HW231527   1.515   2.023   0.728  0.5503  0.1602 -0.6291
 6689SOL     OW31528   0.383   2.242   4.103  0.1081 -0.4738  0.0673
 6689SOL    HW131529   0.316   2.308   4.122 -0.0944 -0.6188 -0.1352
 6689SOL    HW231530   0.378   2.235   4.008  0.5496  1.7991 -0.1027
 6690SOL     OW31531   4.629   0.898   1.289 -0.0749 -0.6193 -0.2227
 6690SOL    HW131532   4.710   0.933   1.327 -0.4976 -2.1298  2.0627
 6690SOL    HW231533   4.563   0.935   1.349  0.0585  0.7150 -0.8941
 6691SOL     OW31534   3.432   0.323   5.125 -0.0707  0.0307  0.1866
 6691SOL    HW131535   3.505   0.356   5.179  1.5481 -1.6896 -0.9464
 6691SOL    HW231536   3.476   0.293   5.046  0.1044 -2.5345  1.2432
 6692SOL     OW31537   1.094   3.767   4.472 -0.5043 -0.1694  0.2442
 6692SOL    HW131538   1.138   3.696   4.518 -0.1997  0.0507  0.2995
 6692SOL    HW231539   1.020   3.791   4.527 -0.7699 -2.2356  0.7591
 6693SOL     OW31540   1.273   3.698   8.960 -0.2244 -0.0485  0.2609
 6693SOL    HW131541   1.318   3.711   8.877  0.3767 -0.9923  0.4389
 6693SOL    HW231542   1.283   3.603   8.955  0.5030  0.0058  0.6975
 6694SOL     OW31543   3.377   1.721  14.265  0.3524  0.6579  0.2423
 6694SOL    HW131544   3.357   1.790  14.202 -1.0130 -2.4846 -2.7556
 6694SOL    HW231545   3.393   1.651  14.202 -0.7556  0.1734  0.5108
 6695SOL     OW31546   2.623   4.573   4.722  0.3637  0.5480  0.2529
 6695SOL    HW131547   2.609   4.540   4.633 -0.6076  3.0894 -0.5686
 6695SOL    HW231548   2.711   4.538   4.736 -0.8323 -1.0877  3.7542
 6696SOL     OW31549   4.279   0.297  10.209 -0.1383  0.1905  0.2991
 6696SOL    HW131550   4.263   0.368  10.272 -0.8816  1.0331 -0.8185
 6696SOL    HW231551   4.374   0.304  10.204 -0.2148  0.7863 -0.4127
 6697SOL     OW31552   3.462   3.522   4.834  0.6341  0.2394 -0.2206
 6697SOL    HW131553   3.528   3.552   4.897  2.3912 -1.0540 -1.4593
 6697SOL    HW231554   3.520   3.498   4.762 -1.0012 -1.2888 -1.0301
 6698SOL     OW31555   0.571   1.047  15.891 -0.3251  0.0418 -0.2597
 6698SOL    HW131556   0.665   1.059  15.882 -0.2292 -0.2920  0.2538
 6698SOL    HW231557   0.530   1.126  15.857  0.0115  0.8646  1.2202
 6699SOL     OW31558   0.714   4.618   7.849  0.3600  0.2783  0.1627
 6699SOL    HW131559   0.661   4.645   7.924 -3.0472 -4.7310 -0.3581
 6699SOL    HW231560   0.798   4.598   7.890 -0.0286  1.2816  1.4468
 6700SOL     OW31561   0.171   1.602   7.566 -0.1340  0.0497 -0.4089
 6700SOL    HW131562   0.259   1.595   7.602  0.6053  1.3700 -1.9500
 6700SOL    HW231563   0.136   1.515   7.583 -1.4173  1.2487  3.1665
 6701SOL     OW31564   0.080   2.331   6.535 -0.6389  0.2545 -0.2541
 6701SOL    HW131565   0.053   2.244   6.564 -0.8744  0.2537 -0.4754
 6701SOL    HW231566   0.128   2.362   6.611  0.0151  1.1990 -1.0501
 6702SOL     OW31567   3.132   3.913  10.906  0.4113  0.2031 -0.2858
 6702SOL    HW131568   3.117   3.964  10.986 -0.7892 -0.9123  0.2030
 6702SOL    HW231569   3.219   3.948  10.884  1.0965  0.0234  2.1567
 6703SOL     OW31570   0.825   1.721   1.854  0.5068  0.3644  0.6131
 6703SOL    HW131571   0.894   1.680   1.801 -0.3756 -1.2960  0.7581
 6703SOL    HW231572   0.787   1.790   1.799  1.5020 -0.2462 -0.8469
 6704SOL     OW31573   0.030   4.079   4.659 -0.2205 -0.0941 -0.2565
 6704SOL    HW131574   0.034   3.988   4.689 -2.1529 -0.2262 -0.3624
 6704SOL    HW231575   0.096   4.128   4.707 -0.4683  0.1819 -0.1970
 6705SOL     OW31576   1.505   1.812   0.920 -0.2429  0.4168 -0.5683
 6705SOL    HW131577   1.540   1.892   0.881  0.4435  1.1550  1.5267
 6705SOL    HW231578   1.571   1.792   0.987  0.5558 -2.9047 -2.3705
 6706SOL     OW31579   3.592   3.540   0.742  0.7757 -0.1127  0.5056
 6706SOL    HW131580   3.573   3.493   0.822  0.0737  1.6701  1.3906
 6706SOL    HW231581   3.520   3.601   0.725 -0.4713 -1.5582  0.6299
 6707SOL     OW31582   2.867   2.876   2.729 -0.0862 -0.2922 -0.0806
 6707SOL    HW131583   2.800   2.894   2.795 -0.3354 -0.0613 -0.3971
 6707SOL    HW231584   2.880   2.781   2.732 -1.7027 -0.4877  0.8891
 6708SOL     OW31585   3.207   1.628   1.035  0.5027 -0.6065  0.4361
 6708SOL    HW131586   3.179   1.681   1.110 -1.5973  0.1785 -0.8734
 6708SOL    HW231587   3.239   1.552   1.083 -0.6489  0.6749  3.2581
 6709SOL     OW31588   2.712   2.338  16.878  0.0154 -0.3094 -0.3425
 6709SOL    HW131589   2.697   2.389  16.958 -0.4595  1.0817 -1.3268
 6709SOL    HW231590   2.638   2.358  16.821  0.3897 -2.4093 -1.5587
 6710SOL     OW31591   4.004   0.510   1.904  0.4992 -0.2224 -0.2274
 6710SOL    HW131592   4.019   0.563   1.982  0.1102  0.6685 -0.7635
 6710SOL    HW231593   3.993   0.423   1.942  1.5516 -0.7643 -1.1520
 6711SOL     OW31594   0.147   4.428   5.057 -0.2002  0.0824  0.3550
 6711SOL    HW131595   0.211   4.390   5.118  0.7268  0.5092 -0.3559
 6711SOL    HW231596   0.135   4.516   5.093  0.6728 -0.3516  1.7330
 6712SOL     OW31597   0.310   2.612  17.175  0.8043 -0.3869  0.0121
 6712SOL    HW131598   0.346   2.532  17.137 -0.5970 -0.9723 -0.0830
 6712SOL    HW231599   0.314   2.589  17.268  0.8968  0.9306  0.3239
 6713SOL     OW31600   4.469   0.976   1.501 -0.8467  0.2743 -0.2977
 6713SOL    HW131601   4.400   0.909   1.494 -1.9675  1.0489  3.2476
 6713SOL    HW231602   4.415   1.051   1.525 -0.3931  1.1826 -2.0868
 6714SOL     OW31603   1.466   0.973   5.467 -0.8371 -0.4005  0.0361
 6714SOL    HW131604   1.558   0.965   5.493 -0.8980  0.6487  0.5500
 6714SOL    HW231605   1.439   0.995   5.556 -0.2226  1.0455 -0.1355
 6715SOL     OW31606   0.567   2.433   8.503 -0.2895  0.1597 -0.2844
 6715SOL    HW131607   0.581   2.398   8.591 -0.3401  1.3715  0.2027
 6715SOL    HW231608   0.547   2.349   8.461  0.5621 -0.8689  1.3632
 6716SOL     OW31609   0.572   2.709   8.799  0.4510  0.2277  0.1675
 6716SOL    HW131610   0.608   2.797   8.807 -0.0021  0.6382 -2.1367
 6716SOL    HW231611   0.605   2.676   8.883  2.0544  0.2708 -0.4363
 6717SOL     OW31612   1.153   1.638   4.282  0.3437 -0.1830 -0.0796
 6717SOL    HW131613   1.127   1.592   4.362  0.7261  1.0730  0.7658
 6717SOL    HW231614   1.105   1.720   4.291 -0.5869 -0.8643  1.0774
 6718SOL     OW31615   2.360   3.610   8.360 -0.5311  0.0040  0.1687
 6718SOL    HW131616   2.337   3.703   8.363  0.3559  0.2772 -1.1728
 6718SOL    HW231617   2.437   3.615   8.416  0.4722  0.6599 -1.2679
 6719SOL     OW31618   0.678   0.578   8.296 -0.1302  0.2179 -0.1968
 6719SOL    HW131619   0.727   0.560   8.376 -0.0429 -0.2083 -0.3495
 6719SOL    HW231620   0.595   0.532   8.303  0.0392  0.0142  0.5146
 6720SOL     OW31621   4.585   1.575   6.995 -0.0817  0.0241  0.3602
 6720SOL    HW131622   4.531   1.601   6.920 -2.0451 -0.3007  1.6522
 6720SOL    HW231623   4.599   1.658   7.040 -1.7387  0.1324  0.6667
 6721SOL     OW31624   0.151   3.151   4.902 -0.5143  0.3086  0.3544
 6721SOL    HW131625   0.109   3.091   4.841  2.9537 -2.3404  0.5672
 6721SOL    HW231626   0.213   3.197   4.845  0.3621  1.8050  2.5058
 6722SOL     OW31627   3.768   4.571   6.361  0.7846 -0.1460 -0.0993
 6722SOL    HW131628   3.712   4.641   6.395  3.0803  1.3927  0.5315
 6722SOL    HW231629   3.776   4.513   6.437  0.6665  0.6838  0.5400
 6723SOL     OW31630   4.226   0.369  12.759 -0.4953 -0.0544  0.3824
 6723SOL    HW131631   4.300   0.359  12.700 -0.6644 -0.1489  0.1859
 6723SOL    HW231632   4.155   0.330  12.708 -1.7975 -1.9018  3.6403
 6724SOL     OW31633   3.631   3.549  10.496 -0.3792  1.0356  0.3974
 6724SOL    HW131634   3.655   3.575  10.407 -0.1360 -1.5488 -0.3026
 6724SOL    HW231635   3.698   3.488  10.526 -0.7630  0.4937  0.1575
 6725SOL     OW31636   3.212   3.465   7.560  0.2121 -0.1912 -0.2762
 6725SOL    HW131637   3.181   3.545   7.517  1.2683 -0.0933 -0.8519
 6725SOL    HW231638   3.143   3.402   7.537  0.3949 -0.7522  0.7634
 6726SOL     OW31639   3.603   4.477   5.873 -0.0652 -0.0487  0.3177
 6726SOL    HW131640   3.566   4.458   5.958  3.5155  0.6989  2.0542
 6726SOL    HW231641   3.528   4.468   5.814  1.0897  2.9809 -1.6279
 6727SOL     OW31642   2.043   3.221   2.717  0.0526  0.2063 -0.3077
 6727SOL    HW131643   2.117   3.164   2.695  0.4578  0.6008  0.0284
 6727SOL    HW231644   2.052   3.205   2.811 -1.0868  0.3252 -0.1775
 6728SOL     OW31645   3.119   2.169  14.322  0.3982  1.0505  0.4045
 6728SOL    HW131646   3.052   2.154  14.256 -0.4681  0.0351  1.5097
 6728SOL    HW231647   3.070   2.199  14.399  0.0759  2.2996 -0.2937
 6729SOL     OW31648   3.697   4.620   0.094 -0.4665 -0.2728 -0.7327
 6729SOL    HW131649   3.637   4.693   0.078 -0.7970 -1.1434 -3.4538
 6729SOL    HW231650   3.662   4.557   0.031 -0.1542 -3.0767  1.8844
 6730SOL     OW31651   3.812   3.605  10.178 -0.6967 -0.7035 -0.2363
 6730SOL    HW131652   3.756   3.681  10.162  1.1257  0.2214 -2.1871
 6730SOL    HW231653   3.898   3.645  10.169 -1.1767 -0.1428 -2.3286
 6731SOL     OW31654   4.132   3.647   0.599 -0.2049  0.3114  0.0822
 6731SOL    HW131655   4.205   3.610   0.550 -1.1777 -1.2538 -0.1935
 6731SOL    HW231656   4.182   3.713   0.646  0.5188  1.7076 -2.6992
 6732SOL     OW31657   0.239   2.270   5.476 -0.1332  0.0187  0.1283
 6732SOL    HW131658   0.328   2.289   5.449 -0.3443  0.7857 -0.0327
 6732SOL    HW231659   0.263   2.202   5.539  0.1026  0.2158  0.2484
 6733SOL     OW31660   2.904   4.636  15.103 -0.2152 -0.6071  0.0420
 6733SOL    HW131661   2.837   4.636  15.035 -0.8182  1.2925  0.6295
 6733SOL    HW231662   2.977   4.655  15.045  0.4494 -2.8615  0.1579
 6734SOL     OW31663   1.447   3.976   7.122 -0.7507 -0.1110 -0.3373
 6734SOL    HW131664   1.421   3.940   7.207  0.6224 -0.4048 -0.0390
 6734SOL    HW231665   1.534   4.012   7.140 -2.3951  3.0861  1.2063
 6735SOL     OW31666   2.122   1.084   3.636  0.3773  0.6987  0.5387
 6735SOL    HW131667   2.080   1.137   3.569 -1.5209 -3.4716 -1.5461
 6735SOL    HW231668   2.203   1.066   3.588  1.0181 -0.3276  2.0146
 6736SOL     OW31669   4.287   1.132   1.332 -0.0208 -0.2608  0.2462
 6736SOL    HW131670   4.292   1.156   1.424  0.0749  0.1792  0.1284
 6736SOL    HW231671   4.380   1.125   1.307  0.1558 -0.2525  0.9111
 6737SOL     OW31672   3.706   0.772  14.001 -0.4244  0.0149 -0.4171
 6737SOL    HW131673   3.734   0.718  14.075  1.3346  0.6329 -0.6324
 6737SOL    HW231674   3.656   0.705  13.956 -1.3942 -0.8018  1.8683
 6738SOL     OW31675   0.157   4.494   6.544 -0.3312 -0.5695  0.8225
 6738SOL    HW131676   0.098   4.426   6.511 -0.2909 -0.1418 -0.1366
 6738SOL    HW231677   0.234   4.439   6.563 -0.1421  0.1783  2.2011
 6739SOL     OW31678   4.428   4.248   6.415  0.2621 -0.8010  0.3213
 6739SOL    HW131679   4.418   4.317   6.480 -0.4935  1.3498 -2.0852
 6739SOL    HW231680   4.509   4.207   6.445 -0.0869 -1.8864 -0.2092
 6740SOL     OW31681   2.432   3.933   0.767 -0.2471 -0.2342 -0.1506
 6740SOL    HW131682   2.344   3.969   0.774  0.1914  0.4664  1.7666
 6740SOL    HW231683   2.473   4.007   0.721  1.7369 -0.3645  1.3925
 6741SOL     OW31684   4.509   3.022   7.744 -0.1859  0.8681 -0.2676
 6741SOL    HW131685   4.548   2.965   7.810 -1.1668  0.7883  0.2493
 6741SOL    HW231686   4.505   3.102   7.797  0.8759 -0.1327  1.3324
 6742SOL     OW31687   0.796   0.958   7.948  0.2835 -0.3230  0.1497
 6742SOL    HW131688   0.871   0.899   7.945 -0.9910 -1.8793 -0.9039
 6742SOL    HW231689   0.741   0.919   7.880  0.1602  1.9483 -1.0607
 6743SOL     OW31690   0.700   2.720   5.446 -0.2573 -0.3726 -0.2759
 6743SOL    HW131691   0.747   2.720   5.363 -0.3936  0.0257 -0.3560
 6743SOL    HW231692   0.756   2.663   5.498 -2.6704  0.5620  3.3697
 6744SOL     OW31693   2.402   0.158  12.554  0.5130 -0.5535  0.2830
 6744SOL    HW131694   2.415   0.112  12.638 -0.0470 -0.4831  0.4028
 6744SOL    HW231695   2.308   0.144  12.542 -0.2256  2.4754  2.5328
 6745SOL     OW31696   2.775   2.702   7.322 -0.2003 -0.2997  0.4054
 6745SOL    HW131697   2.692   2.703   7.274  0.2163 -0.3287 -0.3037
 6745SOL    HW231698   2.777   2.786   7.367 -1.0101  0.0777 -0.2659
 6746SOL     OW31699   1.597   0.891   0.770  0.4881 -0.6805  0.4249
 6746SOL    HW131700   1.502   0.881   0.761  0.2956  2.4172 -0.9352
 6746SOL    HW231701   1.627   0.872   0.681 -0.8238 -0.6273 -0.0330
 6747SOL     OW31702   0.598   1.873   1.072  0.5301 -0.3865 -0.3203
 6747SOL    HW131703   0.510   1.839   1.056 -0.6791  2.0142  1.2061
 6747SOL    HW231704   0.577   1.921   1.152 -2.3571 -2.0032 -0.0814
 6748SOL     OW31705   3.512   4.507   1.166 -0.3745 -0.7293 -0.1878
 6748SOL    HW131706   3.465   4.444   1.220  0.9404  0.6905  2.6232
 6748SOL    HW231707   3.563   4.539   1.241  0.0329 -1.7975 -0.0199
 6749SOL     OW31708   4.026   3.060   7.349 -0.3104 -0.3406  0.0547
 6749SOL    HW131709   4.009   3.051   7.256  0.7100 -2.0879  0.0476
 6749SOL    HW231710   3.969   3.136   7.364 -0.1314 -0.1655 -0.1612
 6750SOL     OW31711   3.651   0.066   3.460  0.5325 -0.0710 -0.4691
 6750SOL    HW131712   3.657   4.698   3.492  0.5732  0.3820  0.8057
 6750SOL    HW231713   3.604   0.115   3.528 -0.2686 -0.7243 -0.5449
 6751SOL     OW31714   3.384   2.618   7.632 -0.2637  0.2249 -0.1206
 6751SOL    HW131715   3.448   2.637   7.563 -0.7441 -0.9356 -0.8882
 6751SOL    HW231716   3.420   2.545   7.683  0.5128 -0.5746 -1.8103
 6752SOL     OW31717   0.712   0.712   8.651  0.4332  0.1829 -0.2398
 6752SOL    HW131718   0.746   0.784   8.598 -1.1662  0.7112 -0.5402
 6752SOL    HW231719   0.642   0.756   8.699  0.5522 -0.0988  0.1854
 6753SOL     OW31720   0.104   4.393   2.142  0.4425  0.4901 -0.6725
 6753SOL    HW131721   0.111   4.452   2.066 -0.1937  0.8703 -0.4367
 6753SOL    HW231722   0.014   4.420   2.159  0.3583  0.4250 -1.0092
 6754SOL     OW31723   1.306   3.683   7.131  0.0380 -0.3616 -0.2753
 6754SOL    HW131724   1.389   3.656   7.171 -0.0386 -0.1615  0.0147
 6754SOL    HW231725   1.257   3.601   7.136 -0.3259 -0.1404 -0.2608
 6755SOL     OW31726   4.588   4.089   8.928  0.4040  0.0815  0.0320
 6755SOL    HW131727   4.678   4.120   8.935 -0.8392  3.3789  0.9924
 6755SOL    HW231728   4.543   4.152   8.872 -0.1600 -0.3599 -0.0066
 6756SOL     OW31729   2.746   0.805  13.353 -0.0179  0.2903 -0.0013
 6756SOL    HW131730   2.670   0.760  13.390 -0.2153 -0.0185 -0.7910
 6756SOL    HW231731   2.706   0.870  13.295 -0.6385  0.2993  0.4422
 6757SOL     OW31732   0.295   0.424   3.813 -0.2035  0.6739  0.3757
 6757SOL    HW131733   0.278   0.401   3.722  0.1742 -1.7096  0.9094
 6757SOL    HW231734   0.330   0.339   3.839 -0.1340  0.6195  0.1077
 6758SOL     OW31735   1.251   4.284   2.565 -0.1913 -0.0155 -0.1823
 6758SOL    HW131736   1.225   4.364   2.611  1.1574 -1.4072  3.0031
 6758SOL    HW231737   1.232   4.314   2.476 -0.5763 -1.2905 -0.5267
 6759SOL     OW31738   1.893   1.192   7.387 -0.1555  0.4916  0.6163
 6759SOL    HW131739   1.827   1.261   7.375  2.3360  2.8599  0.3869
 6759SOL    HW231740   1.839   1.119   7.359  1.3050 -0.3400 -0.0307
 6760SOL     OW31741   0.106   1.760   8.006 -0.4590 -0.1121 -0.1992
 6760SOL    HW131742   0.201   1.751   8.001 -0.5258 -1.1175  0.3324
 6760SOL    HW231743   0.075   1.670   8.017  0.2644  0.0079  2.9047
 6761SOL     OW31744   0.885   2.117  10.903  0.0564  0.8157  0.1461
 6761SOL    HW131745   0.898   2.062  10.826 -0.9309  2.6904 -1.3695
 6761SOL    HW231746   0.974   2.127  10.937  0.3087  2.1776 -0.9433
 6762SOL     OW31747   2.525   1.569   0.288  0.3119  0.0776 -0.7417
 6762SOL    HW131748   2.584   1.554   0.362  2.6061  0.3233 -2.5088
 6762SOL    HW231749   2.572   1.630   0.230  1.5532  2.4205  2.6464
 6763SOL     OW31750   1.150   3.171  12.649 -0.3772  0.2113  1.1948
 6763SOL    HW131751   1.160   3.104  12.717  2.9967 -0.9274 -0.3837
 6763SOL    HW231752   1.214   3.233  12.686  1.1426  0.5732 -2.0147
 6764SOL     OW31753   2.509   3.460   6.588  0.1328 -0.1572 -0.1226
 6764SOL    HW131754   2.543   3.392   6.646  0.2159 -0.0674 -0.0657
 6764SOL    HW231755   2.574   3.530   6.596 -0.0071 -0.2171  1.3617
 6765SOL     OW31756   2.498   0.830   4.469  0.4842  0.2139  0.3238
 6765SOL    HW131757   2.578   0.814   4.419  0.3802  0.5477  0.0529
 6765SOL    HW231758   2.441   0.775   4.416  0.2611  0.7778 -0.0213
 6766SOL     OW31759   1.268   2.217   4.022  0.0222  0.4980  0.3809
 6766SOL    HW131760   1.347   2.270   4.034  0.7395 -0.7725  1.3875
 6766SOL    HW231761   1.303   2.139   3.978 -0.7803  0.4971 -0.2398
 6767SOL     OW31762   2.204   4.058   2.034 -0.4139  0.3703  0.0072
 6767SOL    HW131763   2.292   4.033   2.064 -1.1770 -2.0330  0.2667
 6767SOL    HW231764   2.159   3.977   2.007  0.3669 -0.7903  2.2079
 6768SOL     OW31765   2.577   3.669  10.191  0.1970  0.4765  0.1042
 6768SOL    HW131766   2.513   3.689  10.259 -0.5624  0.5990 -0.6499
 6768SOL    HW231767   2.597   3.758  10.164  0.6580  0.0502 -0.9716
 6769SOL     OW31768   4.506   3.297   2.694 -0.2170 -0.2183 -0.0927
 6769SOL    HW131769   4.433   3.345   2.654 -2.9250 -2.1688  2.5391
 6769SOL    HW231770   4.490   3.312   2.787 -1.7195 -0.3364 -0.3347
 6770SOL     OW31771   0.577   3.476   4.037  0.1658 -0.1552 -0.1562
 6770SOL    HW131772   0.489   3.476   4.076  1.7474  3.3659  3.4373
 6770SOL    HW231773   0.594   3.395   3.989 -0.9486 -0.5243  0.0626
 6771SOL     OW31774   1.368   0.346   9.289 -0.5090 -0.7417  0.0357
 6771SOL    HW131775   1.386   0.430   9.245 -2.4730 -0.4448 -0.2269
 6771SOL    HW231776   1.284   0.324   9.249  0.8735 -1.6317 -2.4156
 6772SOL     OW31777   0.993   0.581  11.655 -0.4716  0.0064 -0.0086
 6772SOL    HW131778   0.970   0.629  11.734 -0.9043 -0.1022 -0.0676
 6772SOL    HW231779   1.079   0.545  11.673  0.2129  1.7059  0.1190
 6773SOL     OW31780   3.275   1.882   4.335 -0.1742  0.2227  0.4216
 6773SOL    HW131781   3.216   1.952   4.363 -0.6212  1.2637 -3.1914
 6773SOL    HW231782   3.347   1.903   4.395  2.0472  1.8510 -2.8204
 6774SOL     OW31783   0.881   0.827   5.369 -0.1647 -0.6798  0.2104
 6774SOL    HW131784   0.909   0.740   5.398 -0.2756 -0.7594  0.0785
 6774SOL    HW231785   0.888   0.877   5.451  3.1588  0.4183 -0.7503
 6775SOL     OW31786   1.667   4.048   5.081  0.0573 -0.2870 -0.1764
 6775SOL    HW131787   1.744   4.010   5.039 -1.0228  0.8348 -3.1591
 6775SOL    HW231788   1.693   4.042   5.173 -0.7109 -1.9753 -0.0566
 6776SOL     OW31789   2.323   1.043   5.455  0.0249  0.2949 -0.4056
 6776SOL    HW131790   2.403   1.056   5.404 -0.0235  2.7740  0.1540
 6776SOL    HW231791   2.320   0.948   5.451 -0.2528  0.3681 -1.8711
 6777SOL     OW31792   4.459   1.431  14.752 -0.3266  0.2653  0.2406
 6777SOL    HW131793   4.473   1.396  14.663  1.0907  2.6314 -0.4784
 6777SOL    HW231794   4.427   1.519  14.735 -1.1433  0.1121  1.0104
 6778SOL     OW31795   3.435   4.371   5.674 -0.0784  0.2542  0.4162
 6778SOL    HW131796   3.352   4.325   5.683  0.7116 -0.8251  2.3070
 6778SOL    HW231797   3.412   4.421   5.596 -1.2802  0.8906  1.1697
 6779SOL     OW31798   3.283   2.351  16.786 -0.1967 -0.4281  0.1813
 6779SOL    HW131799   3.240   2.359  16.870 -0.8124  1.7178 -0.3550
 6779SOL    HW231800   3.311   2.441  16.769 -2.4551  0.6841  2.4541
 6780SOL     OW31801   3.708   2.108   4.500 -0.2917  0.8354 -0.5643
 6780SOL    HW131802   3.718   2.060   4.418  1.3347  0.2553 -0.0172
 6780SOL    HW231803   3.798   2.115   4.532  0.2495 -0.1337 -1.8927
 6781SOL     OW31804   2.107   2.774  11.160  0.7177 -0.1796 -0.2663
 6781SOL    HW131805   2.184   2.810  11.115  1.2158 -0.4354  0.3802
 6781SOL    HW231806   2.137   2.687  11.187  0.0753  0.5060  2.6364
 6782SOL     OW31807   0.454   1.904   0.801 -0.4952  0.0938  0.2035
 6782SOL    HW131808   0.518   1.975   0.801  0.2029 -0.5346 -1.0173
 6782SOL    HW231809   0.383   1.942   0.854 -0.3288 -1.2811  1.4360
 6783SOL     OW31810   2.379   2.090   4.989 -0.0433 -0.0978 -0.3219
 6783SOL    HW131811   2.452   2.057   4.937  0.3589 -1.6847  1.2281
 6783SOL    HW231812   2.304   2.050   4.946 -3.1775  1.5850  3.5334
 6784SOL     OW31813   0.408   4.035   3.294  0.2597  0.3413 -0.4437
 6784SOL    HW131814   0.343   4.088   3.249 -0.5913  1.1012  1.6691
 6784SOL    HW231815   0.425   3.964   3.232 -0.2477  0.7666 -1.0751
 6785SOL     OW31816   0.869   2.657   8.507  0.0569  0.1608  0.1331
 6785SOL    HW131817   0.865   2.735   8.563  1.7086  1.5662 -1.7295
 6785SOL    HW231818   0.901   2.587   8.564 -0.4748  0.3244  0.6387
 6786SOL     OW31819   0.856   1.868   7.027  0.3785  0.2359 -0.3157
 6786SOL    HW131820   0.817   1.925   7.093  2.2369  0.2264  0.7888
 6786SOL    HW231821   0.943   1.909   7.020  1.2324 -1.8038 -1.7589
 6787SOL     OW31822   0.788   3.997   2.280 -0.0026 -0.0676  0.2948
 6787SOL    HW131823   0.854   3.961   2.339  1.5006 -0.9812 -1.9441
 6787SOL    HW231824   0.735   3.918   2.268 -1.2743  1.0931 -1.7689
 6788SOL     OW31825   0.383   3.996   9.607 -0.4461  0.2567  0.1489
 6788SOL    HW131826   0.449   3.959   9.665 -0.1169  1.0110  0.2533
 6788SOL    HW231827   0.429   4.077   9.584 -0.4701  0.2421  0.0509
 6789SOL     OW31828   0.278   0.661   2.359  0.2154  0.0050  0.0509
 6789SOL    HW131829   0.314   0.597   2.298 -1.1077  2.2361 -3.0794
 6789SOL    HW231830   0.215   0.605   2.403  2.7001 -1.1026  2.1880
 6790SOL     OW31831   0.562   0.867   4.215  0.0353 -0.4052  0.2952
 6790SOL    HW131832   0.500   0.859   4.143 -2.2316 -0.8416  2.3215
 6790SOL    HW231833   0.501   0.888   4.285  0.4673  0.1624  0.5035
 6791SOL     OW31834   0.891   0.281   2.159 -0.0709  0.4312 -0.2477
 6791SOL    HW131835   0.863   0.367   2.191  0.1051  0.9754 -1.5910
 6791SOL    HW231836   0.979   0.309   2.138  0.4715  0.9935  2.6790
 6792SOL     OW31837   2.463   1.630   0.860  0.4576 -0.3175 -0.2849
 6792SOL    HW131838   2.557   1.646   0.859  0.2162  1.0265 -1.9886
 6792SOL    HW231839   2.450   1.687   0.936  1.2864  1.0678 -1.1705
 6793SOL     OW31840   2.073   3.060  12.233 -0.5846 -0.3434  0.0104
 6793SOL    HW131841   2.008   3.014  12.286 -1.7206  0.8527 -0.3670
 6793SOL    HW231842   2.017   3.113  12.177 -2.1573 -1.5410  0.4360
 6794SOL     OW31843   1.242   1.987   8.765 -0.3914 -0.3712  0.0007
 6794SOL    HW131844   1.198   1.939   8.695  0.5493 -1.6656  0.3000
 6794SOL    HW231845   1.180   2.050   8.802  1.0440  0.2821  1.2641
 6795SOL     OW31846   0.043   1.906   0.105 -0.5904 -0.9203 -0.2444
 6795SOL    HW131847   0.043   1.937   0.196  2.2831 -1.1946 -0.1314
 6795SOL    HW231848   0.135   1.880   0.097 -0.7599 -1.3568 -0.7672
 6796SOL     OW31849   3.199   1.017   2.202 -0.1425  0.5742  0.4452
 6796SOL    HW131850   3.139   1.092   2.194 -1.9688 -0.7808  1.3945
 6796SOL    HW231851   3.230   1.019   2.293 -0.5973  0.1992  0.6072
 6797SOL     OW31852   2.367   0.100   3.810  0.1165 -0.0679  0.4894
 6797SOL    HW131853   2.288   0.072   3.855 -0.6152 -3.0169 -2.5851
 6797SOL    HW231854   2.327   0.164   3.750 -0.9084 -1.9240 -0.8138
 6798SOL     OW31855   4.664   2.055  15.617 -0.0987 -0.2261  0.0129
 6798SOL    HW131856   4.580   2.100  15.608  0.6722  1.4550  1.3505
 6798SOL    HW231857   4.643   1.971  15.576  0.9774 -1.7309  2.5217
 6799SOL     OW31858   0.485   1.199   8.473 -0.3114 -1.2235  0.1936
 6799SOL    HW131859   0.470   1.235   8.386 -0.6389  0.2572  0.8591
 6799SOL    HW231860   0.429   1.121   8.471 -0.5145 -1.0264 -1.2354
 6800SOL     OW31861   1.877   3.795   9.630  0.5742  0.2816 -0.4302
 6800SOL    HW131862   1.877   3.888   9.654 -2.4381  0.0935  0.3355
 6800SOL    HW231863   1.919   3.752   9.704  0.4632  0.0423 -0.5072
 6801SOL     OW31864   2.443   3.955   2.112  0.2240 -0.3381  0.4641
 6801SOL    HW131865   2.520   4.005   2.141  1.2673 -0.4481 -2.1104
 6801SOL    HW231866   2.481   3.868   2.125  0.4213 -0.3813 -0.3727
 6802SOL     OW31867   1.654   3.954  10.993 -0.0867  0.2115  0.0045
 6802SOL    HW131868   1.635   4.028  10.935 -0.7211 -0.5104 -0.7320
 6802SOL    HW231869   1.562   3.926  10.993  0.2217 -0.8308 -1.3562
 6803SOL     OW31870   3.872   3.895   4.040 -0.1650  0.4097  0.4151
 6803SOL    HW131871   3.928   3.921   4.113 -0.7310  0.4249  0.8347
 6803SOL    HW231872   3.865   3.979   3.994 -0.8595  0.0237 -0.1869
 6804SOL     OW31873   2.131   0.669   2.428  0.0221 -0.0152  0.0889
 6804SOL    HW131874   2.092   0.591   2.469  0.0041 -1.0507 -1.8873
 6804SOL    HW231875   2.060   0.726   2.458  1.2135  1.3459  0.3048
 6805SOL     OW31876   4.097   4.710   5.423 -0.3801  0.8755 -0.1052
 6805SOL    HW131877   4.184   4.712   5.384  0.9863 -0.4388  2.8475
 6805SOL    HW231878   4.120   4.659   5.500 -1.2834  1.1706  0.3552
 6806SOL     OW31879   2.204   0.066   2.441 -0.0832 -0.0792 -0.1088
 6806SOL    HW131880   2.196   4.693   2.455 -0.6344  0.2604  1.8863
 6806SOL    HW231881   2.218   0.065   2.346  1.1905  2.4058  0.0582
 6807SOL     OW31882   2.505   3.169   4.008 -0.1976  0.3322  0.3153
 6807SOL    HW131883   2.595   3.135   4.015 -0.6846 -1.1845 -0.7517
 6807SOL    HW231884   2.528   3.261   4.014  1.0349 -0.0262  1.2677
 6808SOL     OW31885   3.409   4.428   5.098  0.2022 -0.0676 -0.2412
 6808SOL    HW131886   3.423   4.391   5.011 -0.0817 -0.2019 -0.2298
 6808SOL    HW231887   3.369   4.513   5.083  0.5839  0.0882 -0.3732
 6809SOL     OW31888   4.675   2.274   9.126  0.2602  0.1657 -0.3951
 6809SOL    HW131889   0.015   2.347   9.130 -0.6431  0.9235 -0.1127
 6809SOL    HW231890   4.709   2.211   9.063  2.2172  1.5385 -0.7251
 6810SOL     OW31891   1.151   2.867   6.968  0.2441 -0.4742 -0.0324
 6810SOL    HW131892   1.082   2.807   6.999  0.4829 -0.8655 -0.2645
 6810SOL    HW231893   1.146   2.931   7.040 -0.3908 -1.9077  1.2008
 6811SOL     OW31894   2.182   3.883  13.127 -0.4052  0.0225  0.4227
 6811SOL    HW131895   2.140   3.874  13.213 -1.2776  1.4788  0.1571
 6811SOL    HW231896   2.122   3.851  13.060 -1.5926 -0.2469  1.6100
 6812SOL     OW31897   1.176   0.635  11.198 -0.0298 -0.2316  0.9759
 6812SOL    HW131898   1.136   0.655  11.283  0.7302 -0.5608  1.4204
 6812SOL    HW231899   1.258   0.599  11.233  0.7019  0.2930 -0.2080
 6813SOL     OW31900   3.250   1.406   5.664  0.3677  0.5917  0.4478
 6813SOL    HW131901   3.195   1.437   5.736 -1.9176  1.1513 -1.5186
 6813SOL    HW231902   3.317   1.474   5.664  0.4847  0.4701  2.2266
 6814SOL     OW31903   2.639   0.043   8.392 -0.4864 -0.5809 -0.0114
 6814SOL    HW131904   2.635   0.136   8.411 -0.1591 -0.8904  1.5223
 6814SOL    HW231905   2.635   0.005   8.479  3.4316 -1.2119 -0.1124
 6815SOL     OW31906   0.406   3.636  15.230  0.3679  0.4291 -0.3048
 6815SOL    HW131907   0.388   3.640  15.137  1.2982  1.1145 -0.4604
 6815SOL    HW231908   0.337   3.693  15.265  0.6996  1.2998 -1.0834
 6816SOL     OW31909   0.793   3.515   4.775 -0.4229 -0.0905 -0.3264
 6816SOL    HW131910   0.846   3.438   4.793 -0.0197  0.2035 -0.2470
 6816SOL    HW231911   0.771   3.551   4.861  0.1340 -0.0419 -0.2044
 6817SOL     OW31912   3.286   4.254   8.674 -0.0771 -0.3025  0.6881
 6817SOL    HW131913   3.291   4.178   8.732  1.3041  0.1690  1.1970
 6817SOL    HW231914   3.332   4.321   8.726  0.1911  1.3979 -1.7188
 6818SOL     OW31915   1.958   1.357  16.109 -0.7677  0.4957  0.1569
 6818SOL    HW131916   1.969   1.352  16.014  1.8286 -0.5959  0.5237
 6818SOL    HW231917   1.864   1.376  16.112 -1.5230 -3.2107 -0.8234
 6819SOL     OW31918   1.270   0.491   3.677  0.1257  0.3853 -0.5358
 6819SOL    HW131919   1.246   0.486   3.770  0.3069 -1.9114 -0.6037
 6819SOL    HW231920   1.338   0.558   3.688  1.1384 -0.6625 -0.3321
 6820SOL     OW31921   4.404   1.363   7.939  0.2805  0.3271  0.4009
 6820SOL    HW131922   4.465   1.433   7.961  1.1746 -0.1268 -0.6085
 6820SOL    HW231923   4.455   1.292   7.978 -0.0411 -0.2808 -0.2851
 6821SOL     OW31924   3.583   0.458  13.713 -0.0083 -0.0585 -0.3465
 6821SOL    HW131925   3.632   0.376  13.708  0.1003 -0.2055  2.9595
 6821SOL    HW231926   3.494   0.428  13.696 -0.1843  1.1017 -1.3935
 6822SOL     OW31927   2.876   0.718   5.317 -0.3012 -0.0587 -0.5723
 6822SOL    HW131928   2.944   0.651   5.314 -0.5880 -0.3819  0.3757
 6822SOL    HW231929   2.827   0.705   5.398 -0.1631 -1.2393 -0.6857
 6823SOL     OW31930   0.923   1.760   9.794  0.4397  0.3193 -0.7871
 6823SOL    HW131931   0.828   1.774   9.797  0.2138 -1.1247 -1.4621
 6823SOL    HW231932   0.915   1.696   9.723  0.0662  0.5598 -0.9618
 6824SOL     OW31933   1.541   3.038  14.089 -0.3704 -0.3905 -0.0113
 6824SOL    HW131934   1.536   2.947  14.060 -0.2405  0.1637 -1.7260
 6824SOL    HW231935   1.508   3.072  14.006 -0.7121  0.9034  0.6590
 6825SOL     OW31936   0.381   2.195   2.759  0.4926 -0.3775 -0.3257
 6825SOL    HW131937   0.442   2.161   2.693 -0.5984 -0.5902 -1.2234
 6825SOL    HW231938   0.300   2.211   2.711  0.0491  0.8848  0.8282
 6826SOL     OW31939   1.767   2.965   6.488 -0.0471 -0.1789  0.5226
 6826SOL    HW131940   1.834   3.023   6.523 -0.8618  1.4576 -0.6165
 6826SOL    HW231941   1.833   2.911   6.444  0.9306  2.5323 -1.4040
 6827SOL     OW31942   3.638   3.856   5.057  0.4898 -0.2628  0.2293
 6827SOL    HW131943   3.607   3.865   4.967  0.8711 -2.1678 -0.0991
 6827SOL    HW231944   3.615   3.763   5.060  0.0783 -0.1599  0.2275
 6828SOL     OW31945   3.326   2.366  11.567  0.6362  0.1826  0.1925
 6828SOL    HW131946   3.298   2.456  11.581  0.1494  0.2089 -0.9412
 6828SOL    HW231947   3.245   2.318  11.586  1.5078 -0.7128  1.6716
 6829SOL     OW31948   0.042   1.014   3.408  0.0615 -0.1674 -0.2348
 6829SOL    HW131949   0.006   1.089   3.361 -1.9899 -1.2487 -0.3541
 6829SOL    HW231950   4.685   0.961   3.398 -0.2846  0.3764 -0.3834
 6830SOL     OW31951   1.220   1.030  16.928  0.2788 -0.2861  0.4970
 6830SOL    HW131952   1.301   0.980  16.917 -0.7190 -1.2103 -2.6976
 6830SOL    HW231953   1.256   1.118  16.932  1.0936 -0.7293  3.3535
 6831SOL     OW31954   3.582   1.149  15.521  0.1172  0.5439  0.1032
 6831SOL    HW131955   3.561   1.140  15.614 -0.0429 -1.5391 -0.1158
 6831SOL    HW231956   3.496   1.148  15.478 -0.1434 -1.0182  0.6472
 6832SOL     OW31957   4.039   1.700   4.543 -0.2614  0.3277 -0.5402
 6832SOL    HW131958   4.061   1.753   4.466 -0.6898  3.3477  1.4105
 6832SOL    HW231959   4.119   1.717   4.592 -2.3607  2.3016  2.1864
 6833SOL     OW31960   3.650   4.213   4.504  0.3630 -0.2872 -0.0106
 6833SOL    HW131961   3.594   4.286   4.531  0.6075  0.2185 -0.8577
 6833SOL    HW231962   3.685   4.239   4.418  1.0570 -0.0610  0.3377
 6834SOL     OW31963   3.186   2.724  15.769 -0.9182 -0.0741  0.7476
 6834SOL    HW131964   3.173   2.637  15.807  2.8013 -1.3181 -0.8286
 6834SOL    HW231965   3.138   2.781  15.829 -1.6753  2.2293 -2.0184
 6835SOL     OW31966   3.312   0.635   3.516 -0.0924 -0.0842  0.4380
 6835SOL    HW131967   3.334   0.548   3.481  0.6864 -1.2710  3.8911
 6835SOL    HW231968   3.380   0.655   3.580  0.3702 -2.3372  0.6707
 6836SOL     OW31969   0.505   2.129   2.011 -0.0639  0.0010 -0.1992
 6836SOL    HW131970   0.424   2.079   2.011  0.7748 -1.3522  0.1837
 6836SOL    HW231971   0.468   2.196   1.954  0.4247  0.7548  0.3749
 6837SOL     OW31972   0.026   3.835   4.813 -0.1065 -0.1285  0.3136
 6837SOL    HW131973   4.692   3.779   4.866 -0.7010  0.3208  0.1531
 6837SOL    HW231974   0.026   3.917   4.862  0.2705  0.0118  0.0861
 6838SOL     OW31975   4.314   2.150   2.375  0.2649  0.0342  0.7997
 6838SOL    HW131976   4.254   2.146   2.300  1.4537 -0.0018 -0.1521
 6838SOL    HW231977   4.252   2.192   2.435 -3.0077 -1.9686 -1.1759
 6839SOL     OW31978   1.730   1.377   3.429  0.0215 -0.0860 -0.4579
 6839SOL    HW131979   1.733   1.309   3.496 -1.0673  0.2024 -0.1128
 6839SOL    HW231980   1.678   1.447   3.468 -0.0340 -1.0796  1.2053
 6840SOL     OW31981   3.748   1.997   2.701 -0.2643 -0.0332 -0.5452
 6840SOL    HW131982   3.711   1.949   2.627 -0.0724  1.2169 -1.4498
 6840SOL    HW231983   3.691   1.966   2.772 -0.6843 -0.1563 -0.9334
 6841SOL     OW31984   4.622   0.579   8.870  0.4160 -0.1269  0.4630
 6841SOL    HW131985   4.556   0.646   8.851  0.3149 -0.9524 -2.0775
 6841SOL    HW231986   4.566   0.502   8.877  0.9696 -0.7688 -2.0489
 6842SOL     OW31987   3.738   1.232  16.169  0.0177  0.5575 -0.1102
 6842SOL    HW131988   3.721   1.256  16.078 -0.8417 -0.9187 -0.3447
 6842SOL    HW231989   3.709   1.314  16.209  0.8452 -0.1803  1.9905
 6843SOL     OW31990   0.093   3.648  17.057  0.2038 -0.0251  0.2129
 6843SOL    HW131991   0.033   3.589  17.012  0.0475 -1.6523  2.5684
 6843SOL    HW231992   0.036   3.690  17.122 -0.6090 -1.9647  0.7422
 6844SOL     OW31993   1.017   0.652   3.254  0.4156  0.1186  0.0485
 6844SOL    HW131994   1.018   0.623   3.346  0.8830 -0.5633 -0.1682
 6844SOL    HW231995   1.102   0.625   3.220  1.8037  3.3622  0.9510
 6845SOL     OW31996   2.569   1.537   6.011 -0.4454 -0.6291  0.3032
 6845SOL    HW131997   2.508   1.529   5.938  0.4918 -0.1500 -0.5303
 6845SOL    HW231998   2.525   1.478   6.072  0.7598 -1.5602  0.2714
 6846SOL     OW31999   2.327   3.805   9.191  0.2848 -0.1168  0.2098
 6846SOL    HW132000   2.416   3.808   9.156  0.1980 -0.6061 -0.0605
 6846SOL    HW232001   2.321   3.894   9.224 -0.3155  0.8142 -2.4330
 6847SOL     OW32002   4.249   0.594   8.478 -0.1908  0.6910  0.3532
 6847SOL    HW132003   4.291   0.508   8.482  0.8038  1.1981  0.7737
 6847SOL    HW232004   4.165   0.567   8.516 -0.6200  2.1493  0.4194
 6848SOL     OW32005   1.290   2.461   5.381 -0.2964  0.1056  0.0556
 6848SOL    HW132006   1.334   2.406   5.317 -3.4431 -2.0933 -0.2032
 6848SOL    HW232007   1.319   2.550   5.360 -0.0858  0.1110  0.3710
 6849SOL     OW32008   2.101   1.965   3.652 -0.6217  0.8274 -0.2424
 6849SOL    HW132009   2.175   2.021   3.626 -0.3718  0.4988 -0.2362
 6849SOL    HW232010   2.134   1.928   3.733  1.1953  0.9907 -0.9023
 6850SOL     OW32011   0.774   0.537   2.627 -0.8583 -0.0792  0.1881
 6850SOL    HW132012   0.687   0.532   2.667 -0.4122 -0.2852  1.1483
 6850SOL    HW232013   0.813   0.467   2.680  0.5916  1.3493  0.9861
 6851SOL     OW32014   1.515   4.502  16.431 -0.2353 -0.0411  0.3968
 6851SOL    HW132015   1.435   4.483  16.481 -0.1041 -1.4885  0.0537
 6851SOL    HW232016   1.558   4.572  16.480  0.7211 -0.5727  0.3072
 6852SOL     OW32017   0.801   1.317  11.378 -0.4861 -0.1445  0.3636
 6852SOL    HW132018   0.865   1.273  11.433 -0.4564 -0.5251  0.0248
 6852SOL    HW232019   0.810   1.412  11.385 -2.1744 -0.0146  0.7599
 6853SOL     OW32020   3.502   0.146   5.543 -0.3662 -0.5616  0.4112
 6853SOL    HW132021   3.481   0.095   5.464  1.4052 -3.1814  1.6173
 6853SOL    HW232022   3.504   0.228   5.493  0.0164 -1.5589 -1.2217
 6854SOL     OW32023   1.564   0.540   4.969  0.0866  0.4621 -0.4113
 6854SOL    HW132024   1.526   0.490   4.896 -2.1837  0.0144  1.0838
 6854SOL    HW232025   1.482   0.573   5.006  1.0783  2.6239 -0.1434
 6855SOL     OW32026   4.591   1.859   2.941  0.0584 -0.3595  0.2025
 6855SOL    HW132027   4.611   1.937   2.889  0.1685 -1.0191 -0.7463
 6855SOL    HW232028   4.509   1.834   2.897 -1.0830 -1.4752  2.9882
 6856SOL     OW32029   4.256   3.490   3.417  0.3791 -0.3244  0.2483
 6856SOL    HW132030   4.291   3.566   3.463 -0.5274 -1.8430  3.4797
 6856SOL    HW232031   4.328   3.438   3.453  0.3298 -2.0482 -2.1015
 6857SOL     OW32032   2.570   1.576   5.200 -0.0030 -0.1687 -0.1567
 6857SOL    HW132033   2.514   1.632   5.253 -0.7896 -0.6665 -0.4649
 6857SOL    HW232034   2.645   1.576   5.260  0.9350 -1.5101 -1.3180
 6858SOL     OW32035   4.561   3.152   9.663 -0.4687 -0.1315 -0.4990
 6858SOL    HW132036   4.510   3.072   9.672  0.3098 -0.8568 -2.7622
 6858SOL    HW232037   4.491   3.216   9.673 -1.3416 -1.3643  1.4256
 6859SOL     OW32038   1.143   4.169   4.668 -0.2510  0.1558 -0.2135
 6859SOL    HW132039   1.198   4.102   4.710  0.9319  0.8102 -0.7091
 6859SOL    HW232040   1.193   4.243   4.702  1.4315 -0.1406 -1.9972
 6860SOL     OW32041   1.727   4.225  13.415  0.2845 -0.5874  0.0186
 6860SOL    HW132042   1.651   4.209  13.360  0.2033 -0.1353 -0.0032
 6860SOL    HW232043   1.730   4.150  13.473  1.4365  0.1126  0.8764
 6861SOL     OW32044   1.966   2.135  15.954  0.0218  0.4132 -0.4541
 6861SOL    HW132045   1.928   2.221  15.935 -1.6763 -0.7976 -2.5513
 6861SOL    HW232046   1.994   2.157  16.042 -1.2381 -0.1520  0.0832
 6862SOL     OW32047   4.455   0.325   0.891 -0.5451  0.2636 -0.2332
 6862SOL    HW132048   4.450   0.236   0.926  0.7008  0.8594  1.4451
 6862SOL    HW232049   4.376   0.368   0.925 -0.6719  0.4659 -0.7797
 6863SOL     OW32050   2.381   3.554  11.378 -0.5248  0.3364 -0.2842
 6863SOL    HW132051   2.350   3.498  11.449 -1.6816  1.4547  0.0862
 6863SOL    HW232052   2.396   3.626  11.439 -1.1421 -1.1827  1.6616
 6864SOL     OW32053   2.102   2.337   0.272 -0.1012  0.3008 -0.1234
 6864SOL    HW132054   2.157   2.416   0.274  2.6327 -1.6719  2.3166
 6864SOL    HW232055   2.166   2.271   0.244 -2.1932 -1.7433 -0.0463
 6865SOL     OW32056   2.560   3.628   3.650 -0.0733 -0.4033 -0.6250
 6865SOL    HW132057   2.524   3.581   3.725  1.7150 -2.5562 -1.0919
 6865SOL    HW232058   2.591   3.551   3.601  0.4098 -0.5022 -0.1693
 6866SOL     OW32059   0.901   4.615   2.069 -0.7580  0.3770 -0.0877
 6866SOL    HW132060   0.937   4.640   1.983 -0.3998  0.3960  0.0663
 6866SOL    HW232061   0.830   4.555   2.045 -1.1785  0.7935  0.1128
 6867SOL     OW32062   4.338   3.037   5.894 -0.2842 -0.3376  0.0453
 6867SOL    HW132063   4.397   3.010   5.965  0.1850 -1.2043 -0.6619
 6867SOL    HW232064   4.294   3.105   5.943 -2.3272 -0.9340 -0.9750
 6868SOL     OW32065   3.545   3.547  12.033 -0.3435 -0.3151 -0.2991
 6868SOL    HW132066   3.621   3.489  12.032 -1.2938 -1.5475 -0.8221
 6868SOL    HW232067   3.509   3.532  12.121  1.2992 -2.1775  0.0508
 6869SOL     OW32068   0.923   1.966   3.960 -0.5362 -0.2869  0.5145
 6869SOL    HW132069   0.922   2.010   4.045 -1.3428  0.8206 -0.0707
 6869SOL    HW232070   1.017   1.951   3.949 -0.5709 -0.3174  0.2579
 6870SOL     OW32071   3.916   1.127   3.306  0.5663 -0.0409 -0.0323
 6870SOL    HW132072   3.904   1.147   3.399 -0.2246  0.3776 -0.2230
 6870SOL    HW232073   3.998   1.078   3.301 -0.7647 -2.5695  2.7484
 6871SOL     OW32074   2.982   4.265   4.947 -0.8680  0.2573  0.2707
 6871SOL    HW132075   2.915   4.302   5.003 -0.1320 -1.0166  1.9989
 6871SOL    HW232076   3.052   4.220   4.994 -2.6188 -0.3768  2.2314
 6872SOL     OW32077   2.356   1.368   4.266  0.2379  0.5065  0.0570
 6872SOL    HW132078   2.298   1.309   4.218  1.8863 -0.4679 -0.7506
 6872SOL    HW232079   2.444   1.346   4.235  0.6425  1.4398  0.5543
 6873SOL     OW32080   0.104   3.982   9.850 -0.2030 -0.1354  0.4407
 6873SOL    HW132081   0.148   3.985   9.935  1.1601  2.9913 -0.3527
 6873SOL    HW232082   0.059   4.066   9.856 -0.1199  0.1654 -2.9642
 6874SOL     OW32083   4.469   2.465  11.292  0.5678 -0.4906 -0.7618
 6874SOL    HW132084   4.423   2.462  11.375  1.4066 -0.8658 -0.3113
 6874SOL    HW232085   4.393   2.487  11.238  0.9322  1.3424 -0.5087
 6875SOL     OW32086   1.941   4.708   7.124 -0.2239  0.3415  0.0950
 6875SOL    HW132087   1.861   4.699   7.176  0.9463  2.1983  2.2353
 6875SOL    HW232088   1.985   0.054   7.175  1.1697  0.3839 -1.1515
 6876SOL     OW32089   3.533   0.540  10.884  0.4604 -0.2303  0.2075
 6876SOL    HW132090   3.498   0.455  10.855  1.3891 -0.7776  0.6897
 6876SOL    HW232091   3.586   0.505  10.955  1.1795 -0.7637 -0.5931
 6877SOL     OW32092   3.527   2.557   8.567  0.0227  0.2362 -0.0675
 6877SOL    HW132093   3.509   2.524   8.478  0.2333  0.0287 -0.0344
 6877SOL    HW232094   3.441   2.554   8.608  0.4262 -1.2711  0.6878
 6878SOL     OW32095   1.869   0.621   3.959 -0.1513 -0.4808  0.5352
 6878SOL    HW132096   1.951   0.582   3.930 -0.2930 -0.1354 -0.3381
 6878SOL    HW232097   1.809   0.553   3.931 -0.6533 -0.3229  1.2221
 6879SOL     OW32098   3.319   2.452   3.878  0.0007 -0.1326  0.4363
 6879SOL    HW132099   3.283   2.541   3.882 -2.4819 -1.2133  2.0104
 6879SOL    HW232100   3.411   2.480   3.870 -0.7559  2.3037  0.1940
 6880SOL     OW32101   3.216   4.530   6.564 -0.1106  0.2719 -0.2316
 6880SOL    HW132102   3.241   4.609   6.612  0.9848 -0.9260  1.1457
 6880SOL    HW232103   3.135   4.505   6.609  1.1904  0.8689  2.3960
 6881SOL     OW32104   0.248   4.003  10.809 -0.4628  0.5379 -0.1786
 6881SOL    HW132105   0.231   3.953  10.730 -1.8767  1.5779 -0.5434
 6881SOL    HW232106   0.334   3.970  10.835 -0.6384 -0.7751 -1.2858
 6882SOL     OW32107   4.570   0.050   2.633  0.2538 -0.2447 -0.0334
 6882SOL    HW132108   4.544   0.007   2.714  1.4266  0.8998  0.9566
 6882SOL    HW232109   4.665   0.034   2.632  0.2159 -0.4346 -0.6486
 6883SOL     OW32110   3.314   4.210   2.280  0.4682 -0.3555  0.2170
 6883SOL    HW132111   3.401   4.248   2.285  0.2719  0.1646 -0.2646
 6883SOL    HW232112   3.283   4.255   2.201 -0.6854 -2.3560 -0.4657
 6884SOL     OW32113   0.046   1.497   8.048  0.7941  0.0524  0.3443
 6884SOL    HW132114   4.688   1.485   8.099  1.1231  0.1102  0.8738
 6884SOL    HW232115   0.100   1.438   8.100 -0.1064 -1.0804 -0.0131
 6885SOL     OW32116   0.740   0.219   2.528 -0.1757 -0.4566  0.0815
 6885SOL    HW132117   0.711   0.178   2.447 -0.1235  3.0837 -1.7329
 6885SOL    HW232118   0.801   0.288   2.501 -0.8858  0.0308 -0.2818
 6886SOL     OW32119   1.179   3.324  11.139  0.5084  0.2079 -0.5682
 6886SOL    HW132120   1.182   3.250  11.078  2.0646  0.0009 -0.2484
 6886SOL    HW232121   1.268   3.322  11.174  0.0139  1.1509  0.7297
 6887SOL     OW32122   2.511   0.821   0.043  0.0352 -0.5805 -0.4458
 6887SOL    HW132123   2.573   0.889   0.072  0.5423  0.0209 -2.8940
 6887SOL    HW232124   2.462   0.799   0.122 -1.9317 -0.5907 -1.6649
 6888SOL     OW32125   1.306   2.490   4.913  0.2344 -0.0357  0.4612
 6888SOL    HW132126   1.335   2.499   4.822 -0.8932 -0.5860  0.0362
 6888SOL    HW232127   1.395   2.473   4.942  0.8162  0.2257 -1.1765
 6889SOL     OW32128   1.452   0.073   2.978  0.0955  0.5312 -0.1529
 6889SOL    HW132129   1.404   4.717   3.008  0.9439  0.0537 -0.0363
 6889SOL    HW232130   1.483   0.110   3.060 -1.2049  1.6458 -0.1747
 6890SOL     OW32131   2.530   0.921   8.202  0.1702  0.2005 -0.1854
 6890SOL    HW132132   2.579   0.900   8.122  0.3661  0.1931 -0.0636
 6890SOL    HW232133   2.467   0.981   8.162  0.9975  1.6632  0.6997
 6891SOL     OW32134   0.299   1.551  11.340  0.5122  0.0119  0.2106
 6891SOL    HW132135   0.250   1.590  11.268 -1.5859 -0.6680  1.2422
 6891SOL    HW232136   0.375   1.526  11.288  0.8711  2.8526 -0.6209
 6892SOL     OW32137   3.520   0.012   5.315  0.0891 -0.2125  0.0273
 6892SOL    HW132138   3.474   0.016   5.231  1.7834  1.6353 -0.8030
 6892SOL    HW232139   3.607   4.710   5.284 -0.3526 -0.9211 -0.6763
 6893SOL     OW32140   0.003   2.093   5.811 -0.0958 -0.4149 -0.2446
 6893SOL    HW132141   0.060   2.163   5.843  0.2524 -0.5619 -0.5454
 6893SOL    HW232142   0.008   2.097   5.716 -0.1912 -0.5559 -0.2554
 6894SOL     OW32143   2.272   4.302   4.620  0.0923 -0.3063 -0.2429
 6894SOL    HW132144   2.358   4.287   4.658 -0.0122 -0.3081 -0.0119
 6894SOL    HW232145   2.225   4.342   4.693 -3.3720 -2.5057 -1.2288
 6895SOL     OW32146   3.956   1.094   6.871  0.1436 -0.2852  0.4231
 6895SOL    HW132147   4.043   1.086   6.831 -0.1126 -2.2944  0.2481
 6895SOL    HW232148   3.983   1.095   6.962  0.2286 -2.0632  0.4274
 6896SOL     OW32149   1.464   2.818  16.604 -0.4829  0.4945 -0.4276
 6896SOL    HW132150   1.401   2.858  16.664  1.7327  2.0419  0.8884
 6896SOL    HW232151   1.531   2.788  16.666 -1.5250  0.6662  0.7915
 6897SOL     OW32152   2.290   2.726  11.415 -1.0753  0.6468 -0.0559
 6897SOL    HW132153   2.366   2.671  11.433  0.4543  2.4402 -1.0211
 6897SOL    HW232154   2.228   2.664  11.375 -0.9120  1.2598 -1.2494
 6898SOL     OW32155   0.900   4.717   5.048  0.5861  0.5852 -0.0188
 6898SOL    HW132156   0.811   4.708   5.014  0.4931 -2.5759  1.0643
 6898SOL    HW232157   0.889   4.671   5.131  0.0406 -1.1942 -1.0747
 6899SOL     OW32158   0.165   2.554   0.763 -0.2126 -0.3350  0.0304
 6899SOL    HW132159   0.115   2.634   0.779  0.3513 -0.0270  0.2399
 6899SOL    HW232160   0.165   2.518   0.852  2.2725  1.5404  0.7797
 6900SOL     OW32161   2.769   2.237   1.284  0.2183 -0.2642  0.2576
 6900SOL    HW132162   2.788   2.331   1.292  2.6425 -0.9161  2.0459
 6900SOL    HW232163   2.768   2.199   1.372 -0.7270  0.1347  0.4282
 6901SOL     OW32164   2.379   4.335  16.607 -0.2633  0.1693 -0.1479
 6901SOL    HW132165   2.320   4.285  16.551 -0.2059  1.2302 -1.1556
 6901SOL    HW232166   2.360   4.425  16.582 -2.3023 -0.8622 -2.3611
 6902SOL     OW32167   0.112   2.493   5.569 -0.1147  0.5209 -0.1607
 6902SOL    HW132168   0.165   2.413   5.570 -0.0966  0.5320 -0.2276
 6902SOL    HW232169   0.136   2.523   5.481  1.5022 -0.2434  0.0143
 6903SOL     OW32170   0.517   3.900   5.933 -0.4001  0.0961  0.2323
 6903SOL    HW132171   0.567   3.947   6.000  0.0603  0.5952 -0.4726
 6903SOL    HW232172   0.550   3.810   5.923  0.1837  0.6559 -2.9380
 6904SOL     OW32173   0.281   3.117  13.494  0.3401  0.0374  0.2909
 6904SOL    HW132174   0.234   3.120  13.577 -1.2941 -0.8013 -0.6052
 6904SOL    HW232175   0.321   3.204  13.500  2.0809 -0.6296 -1.5984
 6905SOL     OW32176   0.958   1.345  10.177 -0.6338  0.2425  0.6806
 6905SOL    HW132177   0.869   1.320  10.154 -0.9718  2.7084 -0.7212
 6905SOL    HW232178   0.962   1.440  10.162 -1.0601  0.1307 -0.1475
 6906SOL     OW32179   3.450   3.333   7.493 -0.3102 -0.3232 -0.2788
 6906SOL    HW132180   3.520   3.397   7.507 -0.6780 -0.1505  0.8342
 6906SOL    HW232181   3.378   3.397   7.494  0.7785  0.9061 -0.9989
 6907SOL     OW32182   1.564   1.958   2.246 -0.1835  0.0154  0.4326
 6907SOL    HW132183   1.600   1.936   2.160  2.2924 -0.3434  1.5570
 6907SOL    HW232184   1.475   1.989   2.228  0.2115  0.4699 -0.7652
 6908SOL     OW32185   4.259   4.276   3.272 -0.3391 -0.5906 -0.8738
 6908SOL    HW132186   4.254   4.367   3.243  1.5955 -1.1295 -2.8927
 6908SOL    HW232187   4.297   4.235   3.194  1.5540 -0.9141  0.2177
 6909SOL     OW32188   3.996   0.342  14.753 -0.1855  0.1290  0.3262
 6909SOL    HW132189   3.928   0.394  14.797 -0.1672 -0.8986  1.5667
 6909SOL    HW232190   4.072   0.391  14.784 -0.3601  0.9376 -0.5203
 6910SOL     OW32191   2.094   2.911   2.987 -0.0975  0.3731 -0.0662
 6910SOL    HW132192   2.172   2.951   3.025 -1.1786  0.8745  1.6607
 6910SOL    HW232193   2.130   2.875   2.907 -1.6823  2.7696 -1.8432
 6911SOL     OW32194   1.503   4.179   4.180  0.0247 -0.3279 -0.2220
 6911SOL    HW132195   1.573   4.196   4.243  0.2797  1.8564 -1.1114
 6911SOL    HW232196   1.463   4.266   4.178  0.9742  0.0910 -0.9583
 6912SOL     OW32197   2.454   4.666   9.609  0.1584 -0.1150  0.3551
 6912SOL    HW132198   2.455   4.672   9.704 -1.5643  2.2698  0.2201
 6912SOL    HW232199   2.512   4.591   9.597  0.8621  0.7200 -1.5401
 6913SOL     OW32200   2.246   0.854   4.169 -0.0719 -0.8744 -0.2325
 6913SOL    HW132201   2.168   0.877   4.219  0.4204 -0.0168  0.1373
 6913SOL    HW232202   2.275   0.775   4.215  1.9202 -0.0780 -0.0982
 6914SOL     OW32203   0.710   0.648   6.357  0.1174  0.0955 -0.1010
 6914SOL    HW132204   0.708   0.605   6.272 -1.8196  2.3662 -1.2016
 6914SOL    HW232205   0.806   0.654   6.360 -0.0982  3.2309  0.7786
 6915SOL     OW32206   1.118   4.055   2.191 -0.6983  0.3306 -0.9317
 6915SOL    HW132207   1.198   4.072   2.241 -0.2428  0.1788 -1.5995
 6915SOL    HW232208   1.073   3.998   2.252  0.4342 -1.0217 -1.3601
 6916SOL     OW32209   4.079   3.744   9.348  0.3410  0.0923  0.0743
 6916SOL    HW132210   4.059   3.743   9.442  0.3151 -0.7785  0.0624
 6916SOL    HW232211   4.174   3.754   9.355 -0.1163  2.9162  2.3211
 6917SOL     OW32212   0.792   1.832   8.874 -0.5531 -0.4880  0.1891
 6917SOL    HW132213   0.834   1.908   8.913 -1.3674  1.5475 -2.9478
 6917SOL    HW232214   0.753   1.864   8.793 -0.6807 -2.2831 -0.4635
 6918SOL     OW32215   1.021   2.376  15.949  0.5391 -0.3630 -0.1724
 6918SOL    HW132216   0.963   2.392  15.875 -0.9182  2.2393  1.5691
 6918SOL    HW232217   1.055   2.288  15.929  1.6695 -0.3453  1.6696
 6919SOL     OW32218   3.266   1.669  16.141  0.0549  0.3701 -0.0322
 6919SOL    HW132219   3.265   1.741  16.204 -0.2743  1.0542 -0.8275
 6919SOL    HW232220   3.339   1.617  16.176  0.5649  0.7281 -0.5517
 6920SOL     OW32221   4.509   1.834   0.482  0.1444 -0.1321 -0.0699
 6920SOL    HW132222   4.455   1.902   0.524  0.3116 -0.9042  1.3715
 6920SOL    HW232223   4.444   1.790   0.427 -0.5960 -0.4827  1.0681
 6921SOL     OW32224   4.573   4.529   7.761  0.0277  0.1200  0.5651
 6921SOL    HW132225   4.640   4.505   7.825  0.6762 -2.4723 -1.0559
 6921SOL    HW232226   4.628   4.571   7.695 -0.8233  0.1630 -0.1266
 6922SOL     OW32227   4.604   2.846   3.986 -0.2941 -0.9531  0.6383
 6922SOL    HW132228   4.532   2.895   4.025 -0.2483 -0.5018  0.1603
 6922SOL    HW232229   4.633   2.792   4.059 -0.0953  0.1224  1.3580
 6923SOL     OW32230   3.497   3.674  13.980  0.1890  0.5779  0.1431
 6923SOL    HW132231   3.541   3.662  13.896 -0.6486 -1.9993  0.0737
 6923SOL    HW232232   3.518   3.759  14.017 -0.7893  0.2669  1.4308
 6924SOL     OW32233   1.789   3.737   8.143 -0.4506 -0.6689 -0.5064
 6924SOL    HW132234   1.747   3.752   8.227 -1.9753  0.7603 -1.5088
 6924SOL    HW232235   1.753   3.653   8.114  1.6234 -1.5671 -0.4551
 6925SOL     OW32236   2.775   0.127  11.868 -0.2209 -0.1889 -0.0040
 6925SOL    HW132237   2.838   0.168  11.928  0.4326 -2.0741  0.6128
 6925SOL    HW232238   2.729   0.206  11.841 -1.3927 -0.5789  0.8064
 6926SOL     OW32239   4.601   1.193   3.273 -0.0909  0.0457  0.0086
 6926SOL    HW132240   4.527   1.187   3.333 -0.5167  3.2012 -0.2160
 6926SOL    HW232241   4.555   1.229   3.198 -0.0277  0.4070  0.1444
 6927SOL     OW32242   1.631   2.704   1.932 -0.0018  0.2856  0.0664
 6927SOL    HW132243   1.586   2.623   1.955  0.1856  0.6803  1.8338
 6927SOL    HW232244   1.621   2.697   1.837  0.0146 -1.1779  0.1737
 6928SOL     OW32245   0.260   2.766  11.411 -0.3152 -0.7879  0.2865
 6928SOL    HW132246   0.207   2.742  11.335  1.0410 -0.3753 -0.7845
 6928SOL    HW232247   0.189   2.792  11.470  0.9708 -1.2424  2.0486
 6929SOL     OW32248   2.447   3.076  12.275 -0.5913 -0.6952  0.1153
 6929SOL    HW132249   2.475   3.117  12.193  0.4718  0.7519  1.1737
 6929SOL    HW232250   2.529   3.033  12.299  0.7520  0.5423 -2.2458
 6930SOL     OW32251   3.788   0.466   0.332 -0.5582 -0.1574 -0.3441
 6930SOL    HW132252   3.817   0.384   0.293 -0.1081 -0.6835  1.0919
 6930SOL    HW232253   3.700   0.436   0.358 -0.3699  0.9832  1.6366
 6931SOL     OW32254   0.223   0.148   4.835 -0.0216 -0.4658  0.1699
 6931SOL    HW132255   0.154   0.201   4.796  1.9146  1.1261 -1.1475
 6931SOL    HW232256   0.199   0.164   4.927 -0.6990  2.0673 -0.4342
 6932SOL     OW32257   1.451   0.594   6.824  0.4740 -0.2208  0.1354
 6932SOL    HW132258   1.436   0.640   6.742 -1.4469  0.9810  1.1566
 6932SOL    HW232259   1.389   0.648   6.874  0.7012  0.4357 -0.2976
 6933SOL     OW32260   1.334   2.306   8.177  0.1914 -0.2944 -0.2255
 6933SOL    HW132261   1.286   2.225   8.159  1.3745 -1.3641  1.4276
 6933SOL    HW232262   1.369   2.284   8.264 -0.7559  0.3449  0.3094
 6934SOL     OW32263   4.284   2.468   3.720  0.2922 -0.4975  0.1966
 6934SOL    HW132264   4.349   2.420   3.669 -1.7200 -1.2464 -1.6589
 6934SOL    HW232265   4.267   2.399   3.785  2.1082 -0.2933  0.8711
 6935SOL     OW32266   0.234   4.258   3.217 -0.1936 -0.0727 -0.4350
 6935SOL    HW132267   0.268   4.255   3.128 -2.1549  1.2341 -1.2205
 6935SOL    HW232268   0.139   4.263   3.209 -0.1947 -0.5837 -0.7414
 6936SOL     OW32269   2.000   3.222  16.249  0.8163 -0.8328 -0.0986
 6936SOL    HW132270   2.086   3.257  16.272  1.9567 -3.1548 -0.8130
 6936SOL    HW232271   1.980   3.188  16.336 -1.1256 -1.6423 -0.8435
 6937SOL     OW32272   0.896   2.149   6.251  0.1891 -0.3776 -0.5447
 6937SOL    HW132273   0.836   2.153   6.325  0.4336  0.8070 -0.4037
 6937SOL    HW232274   0.908   2.055   6.244  1.2055 -0.3054  0.1739
 6938SOL     OW32275   0.413   2.747   4.073 -0.3284 -0.1326 -0.1788
 6938SOL    HW132276   0.497   2.702   4.084 -0.5834 -0.7868 -0.8635
 6938SOL    HW232277   0.435   2.840   4.074  2.6372 -0.8332 -0.2881
 6939SOL     OW32278   0.679   4.156   8.055  0.3173 -0.2770 -0.1129
 6939SOL    HW132279   0.637   4.131   8.137 -0.4522 -1.2020 -0.8019
 6939SOL    HW232280   0.630   4.100   7.996  1.7415 -1.8690  0.2079
 6940SOL     OW32281   3.979   2.857   2.686  0.3066  0.2372  0.0423
 6940SOL    HW132282   4.070   2.841   2.711  0.6693  3.5062  0.8529
 6940SOL    HW232283   3.941   2.813   2.762  2.1078 -3.4615 -1.2272
 6941SOL     OW32284   0.312   3.138   9.076  0.2200 -0.1693 -0.8422
 6941SOL    HW132285   0.343   3.090   9.153 -2.1808  0.6516  0.6429
 6941SOL    HW232286   0.318   3.227   9.111  1.2931 -0.3240 -0.6223
 6942SOL     OW32287   0.980   0.138   0.158 -0.4687  0.1785 -0.2222
 6942SOL    HW132288   1.009   0.086   0.082 -0.0320  1.0615 -0.6599
 6942SOL    HW232289   1.000   0.086   0.236 -1.0244  0.2560 -0.0308
 6943SOL     OW32290   2.791   3.030   4.256  0.1400  0.3463 -0.3334
 6943SOL    HW132291   2.885   3.042   4.267  0.1631 -1.1899  1.1136
 6943SOL    HW232292   2.778   3.020   4.161  0.3885 -1.4088 -0.1756
 6944SOL     OW32293   1.650   1.355   7.946 -0.4856  0.2776  0.1135
 6944SOL    HW132294   1.606   1.346   8.031  0.3472  0.7867  0.5985
 6944SOL    HW232295   1.605   1.431   7.911 -0.8509 -0.2517 -0.5727
 6945SOL     OW32296   0.191   1.395  17.078 -0.1663  0.4177  0.3210
 6945SOL    HW132297   0.234   1.331  17.135 -0.3476  1.0086  1.1152
 6945SOL    HW232298   0.104   1.392  17.118  0.1781 -1.3156  0.9363
 6946SOL     OW32299   4.209   1.002   1.916 -0.1438 -0.1403 -0.8994
 6946SOL    HW132300   4.267   1.078   1.912 -0.8645  0.3652 -1.6971
 6946SOL    HW232301   4.272   0.933   1.937 -0.2111  0.2438  0.5847
 6947SOL     OW32302   1.189   4.677   7.768  0.2372 -0.5810 -0.1809
 6947SOL    HW132303   1.171   0.029   7.711  0.2129  0.1449  0.7742
 6947SOL    HW232304   1.108   4.674   7.820 -1.3231 -1.0286 -2.6248
 6948SOL     OW32305   1.382   1.156   7.878  0.1514  0.2979 -0.0603
 6948SOL    HW132306   1.475   1.151   7.853 -0.4286 -0.0447 -2.1074
 6948SOL    HW232307   1.340   1.088   7.827 -0.0315 -1.8704  3.0074
 6949SOL     OW32308   4.462   0.017  15.697  0.0663  0.2443  0.0371
 6949SOL    HW132309   4.503   4.690  15.768  1.3681 -0.6268 -1.3326
 6949SOL    HW232310   4.487   4.694  15.617  0.8971 -0.4171  0.6775
 6950SOL     OW32311   1.481   3.698   6.213  0.1797  0.8929 -0.1046
 6950SOL    HW132312   1.556   3.747   6.245 -0.1921  0.5353  1.3504
 6950SOL    HW232313   1.414   3.724   6.276 -0.4534  1.1413 -0.8808
 6951SOL     OW32314   1.932   1.351   6.736  0.3680  0.0024 -0.5462
 6951SOL    HW132315   1.885   1.297   6.800 -0.6997  1.3237 -0.2072
 6951SOL    HW232316   1.885   1.322   6.658  0.1273  2.1329 -1.1860
 6952SOL     OW32317   1.938   0.930   7.179  0.4287 -0.2932 -0.1281
 6952SOL    HW132318   1.969   0.895   7.263  2.4077  2.6865  0.3840
 6952SOL    HW232319   1.849   0.949   7.209 -0.1046 -0.8208 -1.3816
 6953SOL     OW32320   4.110   0.027  16.597 -0.2656  0.4515  0.2059
 6953SOL    HW132321   4.170   0.023  16.671 -0.7480  0.6451  0.6042
 6953SOL    HW232322   4.052   0.094  16.632  1.1991  1.5574  0.4673
 6954SOL     OW32323   2.975   2.772   7.918 -0.1229 -0.0342  0.4005
 6954SOL    HW132324   3.016   2.858   7.930 -0.8134  0.2471  0.7960
 6954SOL    HW232325   3.053   2.718   7.917  0.4929  0.8687 -0.6610
 6955SOL     OW32326   4.070   2.223  12.013  0.3087 -0.5203  0.0529
 6955SOL    HW132327   4.124   2.302  12.021 -1.5672  0.6450  1.2471
 6955SOL    HW232328   4.103   2.183  12.093 -1.2272 -1.3439  0.2789
 6956SOL     OW32329   2.799   3.600   4.757  0.1511  0.2053 -0.1433
 6956SOL    HW132330   2.843   3.555   4.685 -1.8709  1.5710 -2.2611
 6956SOL    HW232331   2.709   3.589   4.728  0.2031 -1.6585  0.3994
 6957SOL     OW32332   3.017   0.793  10.213  0.4076  0.4759 -0.4241
 6957SOL    HW132333   3.016   0.830  10.301 -0.6707 -0.6869  0.0648
 6957SOL    HW232334   3.100   0.825  10.179  0.6322  0.0931 -0.2320
 6958SOL     OW32335   1.410   1.226   4.088  0.4326  0.1899 -0.2994
 6958SOL    HW132336   1.424   1.303   4.033 -0.3587  0.9037  0.4900
 6958SOL    HW232337   1.337   1.260   4.140  2.0108  0.5650  1.7033
 6959SOL     OW32338   0.762   0.905   2.680  0.4915  0.0661  0.1380
 6959SOL    HW132339   0.765   0.884   2.587 -1.3579  0.4113  0.0013
 6959SOL    HW232340   0.672   0.881   2.704  1.6336 -3.4227  0.9130
 6960SOL     OW32341   0.393   2.232   6.544 -0.1129  0.5743 -0.2502
 6960SOL    HW132342   0.323   2.280   6.589  0.1528 -1.0652  1.9324
 6960SOL    HW232343   0.459   2.300   6.536 -0.0687  0.5827  0.1787
 6961SOL     OW32344   1.507   3.369  17.047  1.0740  0.1745  0.5896
 6961SOL    HW132345   1.586   3.407  17.010  0.8816  0.4141  0.4212
 6961SOL    HW232346   1.459   3.447  17.076  3.3293  1.5909  0.4932
 6962SOL     OW32347   1.199   4.182   3.536  0.1294  0.0226  0.2110
 6962SOL    HW132348   1.113   4.156   3.503 -1.2640  0.8846  3.0869
 6962SOL    HW232349   1.182   4.231   3.617 -1.5849  0.1361 -0.2116
 6963SOL     OW32350   4.268   1.355   0.114  0.0183 -0.0184  0.8338
 6963SOL    HW132351   4.202   1.423   0.132 -0.4951 -0.2545 -0.1654
 6963SOL    HW232352   4.335   1.389   0.174  2.4238  0.2034 -2.0066
 6964SOL     OW32353   0.318   1.364   4.164 -0.3231 -0.3064 -0.3695
 6964SOL    HW132354   0.358   1.285   4.128  2.0196  0.7523 -0.0945
 6964SOL    HW232355   0.241   1.387   4.111 -1.8186 -3.1051  0.5791
 6965SOL     OW32356   2.144   3.772   0.932  0.1114  0.7645  0.1471
 6965SOL    HW132357   2.111   3.831   1.000 -1.1579  0.2301 -0.0179
 6965SOL    HW232358   2.175   3.841   0.873  0.0099 -0.6541 -1.5668
 6966SOL     OW32359   3.974   4.041   7.646 -0.1631 -0.3578 -0.2672
 6966SOL    HW132360   3.907   4.004   7.588 -0.5650  1.9678 -1.3021
 6966SOL    HW232361   3.981   3.982   7.720 -0.6418 -0.1868 -0.0867
 6967SOL     OW32362   4.064   4.480  16.632 -0.2539 -0.1537  0.3794
 6967SOL    HW132363   4.066   4.571  16.601  0.2161 -0.7695 -1.4219
 6967SOL    HW232364   4.108   4.441  16.557  2.7132  1.1196  1.4718
 6968SOL     OW32365   0.451   0.982   4.476  0.2845  0.1290 -0.2033
 6968SOL    HW132366   0.516   1.042   4.512 -0.5000  1.8438 -1.6581
 6968SOL    HW232367   0.445   0.912   4.541  2.8463  1.3888  1.3893
 6969SOL     OW32368   3.935   1.167   7.430 -0.8999  0.1483 -0.3672
 6969SOL    HW132369   3.908   1.086   7.473 -0.2895 -0.1755 -0.6017
 6969SOL    HW232370   4.029   1.158   7.446 -1.0670 -0.0166  0.5412
 6970SOL     OW32371   0.477   1.544  15.341 -0.1076  0.0983  0.5748
 6970SOL    HW132372   0.558   1.537  15.391  0.4759 -2.2482 -0.6769
 6970SOL    HW232373   0.446   1.453  15.340 -0.3644  0.1990 -1.9920
 6971SOL     OW32374   3.033   2.112   8.060  0.2587 -0.2144  0.0573
 6971SOL    HW132375   3.016   2.161   7.980 -0.9915  0.9319  1.0253
 6971SOL    HW232376   3.003   2.022   8.049 -0.4033  0.0010  0.1157
 6972SOL     OW32377   0.649   2.690   1.071  0.0982 -0.0639 -1.1769
 6972SOL    HW132378   0.557   2.688   1.094  0.1444 -0.4012 -1.0217
 6972SOL    HW232379   0.638   2.718   0.980  0.6833  0.1915 -1.1698
 6973SOL     OW32380   0.541   0.064  10.573 -0.6199 -0.3281  0.0417
 6973SOL    HW132381   0.568   4.710  10.625 -0.2216 -0.0916  0.1803
 6973SOL    HW232382   0.601   0.051  10.500  1.5412 -1.2578  1.9650
 6974SOL     OW32383   1.192   3.649   7.517  0.1026 -0.1947  0.2595
 6974SOL    HW132384   1.149   3.723   7.474  1.7982  0.5285 -0.1541
 6974SOL    HW232385   1.135   3.575   7.497 -1.0030  0.6181  0.4015
 6975SOL     OW32386   0.713   4.188  15.304  0.2466 -0.0397  0.1389
 6975SOL    HW132387   0.749   4.276  15.300 -0.3188  0.2132  0.5474
 6975SOL    HW232388   0.669   4.177  15.219 -1.8366 -2.4864  1.5393
 6976SOL     OW32389   2.336   2.877  13.865 -0.1425  1.3120 -0.0164
 6976SOL    HW132390   2.308   2.959  13.905  0.7971  1.6133  0.0249
 6976SOL    HW232391   2.315   2.899  13.774  0.1802 -1.2221 -0.6995
 6977SOL     OW32392   1.153   2.402   8.644  0.6018 -0.2360 -0.6305
 6977SOL    HW132393   1.209   2.479   8.643 -1.2827  1.1436 -1.2962
 6977SOL    HW232394   1.080   2.440   8.693  1.1014 -0.8370  0.5506
 6978SOL     OW32395   2.817   1.399  11.525 -0.4347  0.4726  0.1046
 6978SOL    HW132396   2.856   1.479  11.561  1.5215 -1.6195  2.6529
 6978SOL    HW232397   2.759   1.352  11.585  1.4141 -1.9374  0.0150
 6979SOL     OW32398   0.088   1.211   4.624  0.2332 -0.3507  0.1001
 6979SOL    HW132399   0.057   1.239   4.538  0.1920 -2.7789 -0.6741
 6979SOL    HW232400   0.077   1.117   4.616 -0.9578 -0.2429  0.4719
 6980SOL     OW32401   2.379   2.917   7.261  0.6478 -0.1607 -0.1568
 6980SOL    HW132402   2.440   2.907   7.188  0.1938  0.3966 -0.6208
 6980SOL    HW232403   2.304   2.970   7.233 -1.2955 -2.1161  1.3036
 6981SOL     OW32404   4.133   3.512   9.562 -0.0692 -0.1221  0.3794
 6981SOL    HW132405   4.195   3.446   9.594 -1.3647 -2.3364 -1.6857
 6981SOL    HW232406   4.160   3.595   9.602  0.6843  0.7466 -1.9676
 6982SOL     OW32407   0.671   4.110  10.085  0.4819 -0.2031  0.7306
 6982SOL    HW132408   0.705   4.174  10.023 -0.1414  1.1850  1.8233
 6982SOL    HW232409   0.745   4.092  10.143  0.4865  0.0762  0.8067
 6983SOL     OW32410   2.267   0.215   9.538 -0.1400  0.3942  0.3464
 6983SOL    HW132411   2.271   0.310   9.553  1.9304  0.5980 -1.5468
 6983SOL    HW232412   2.329   0.190   9.607 -0.3250 -2.1939 -0.4375
 6984SOL     OW32413   4.446   1.689   8.091  0.7063 -0.7423  0.1623
 6984SOL    HW132414   4.432   1.755   8.023 -0.2240  0.9224  1.9886
 6984SOL    HW232415   4.534   1.714   8.118 -0.3857  0.3991  2.5860
 6985SOL     OW32416   4.521   2.045   1.083 -0.0308 -0.0526 -0.0077
 6985SOL    HW132417   4.539   2.136   1.106  0.5018  0.2377 -1.6092
 6985SOL    HW232418   4.426   2.058   1.092 -0.0960 -0.2925 -0.3496
 6986SOL     OW32419   2.581   3.183   1.395  0.0179  0.2300 -0.0434
 6986SOL    HW132420   2.496   3.204   1.357  0.7473  0.6636 -1.4086
 6986SOL    HW232421   2.589   3.244   1.469 -2.3559  0.2036  0.2295
 6987SOL     OW32422   3.274   0.590   8.578 -0.1711  0.1061  0.0556
 6987SOL    HW132423   3.209   0.649   8.615  0.3644  0.4208  0.4909
 6987SOL    HW232424   3.307   0.538   8.651  0.2120  0.9229  0.4616
 6988SOL     OW32425   2.361   0.830   2.350  0.4694 -0.5547  0.1935
 6988SOL    HW132426   2.305   0.752   2.353  1.9789 -1.7804 -2.7727
 6988SOL    HW232427   2.301   0.902   2.330 -2.8643 -2.5597  2.9258
 6989SOL     OW32428   0.033   1.398   3.758  0.0608  0.1137  0.5091
 6989SOL    HW132429   4.680   1.406   3.699  1.1801 -1.9834 -1.2151
 6989SOL    HW232430   0.031   1.303   3.768 -0.1528 -0.1759 -2.2693
 6990SOL     OW32431   2.239   2.450   5.131  0.5440  0.2126 -1.0269
 6990SOL    HW132432   2.163   2.499   5.101 -0.1811 -0.1461  0.2171
 6990SOL    HW232433   2.283   2.510   5.190  1.5847 -0.3860 -1.1961
 6991SOL     OW32434   1.451   1.834  17.358  0.1541 -0.0138 -0.5606
 6991SOL    HW132435   1.467   1.896  17.286 -1.9531  0.8496 -0.3042
 6991SOL    HW232436   1.400   1.896  17.411  1.1092 -0.6321  1.0661
 6992SOL     OW32437   1.504   2.306   5.817  0.3177 -0.3335 -0.4382
 6992SOL    HW132438   1.490   2.314   5.722  1.2867 -0.4128 -0.5910
 6992SOL    HW232439   1.519   2.211   5.812  0.1043 -0.4666  1.4236
 6993SOL     OW32440   0.895   3.370   5.074 -0.0940  0.4361 -0.5227
 6993SOL    HW132441   0.967   3.373   5.012  0.5509  0.1845  0.2225
 6993SOL    HW232442   0.865   3.460   5.068 -0.0732  0.4854  0.1801
 6994SOL     OW32443   3.849   4.189   7.280  0.3108 -0.1294  0.2041
 6994SOL    HW132444   3.787   4.138   7.228  2.8247 -2.4803 -0.5125
 6994SOL    HW232445   3.854   4.148   7.366 -1.7285 -0.2558  0.2730
 6995SOL     OW32446   2.920   1.165   5.409  0.1932 -0.1155 -0.1215
 6995SOL    HW132447   2.967   1.200   5.484  0.2813 -1.6420  0.5330
 6995SOL    HW232448   2.873   1.243   5.378 -0.3931  0.0759  1.2488
 6996SOL     OW32449   0.939   4.361   4.604 -0.0312  0.5686  0.0422
 6996SOL    HW132450   0.858   4.311   4.594 -0.6649  1.6661 -0.3597
 6996SOL    HW232451   0.998   4.294   4.637  0.0912  1.2438  1.2007
 6997SOL     OW32452   3.845   2.878   9.169  0.3531 -0.3580 -0.0550
 6997SOL    HW132453   3.857   2.969   9.195 -0.9078  0.1782 -1.3367
 6997SOL    HW232454   3.892   2.829   9.236  0.2603 -1.4768 -0.8042
 6998SOL     OW32455   4.630   2.764   3.730 -0.0531 -0.2557 -0.2165
 6998SOL    HW132456   4.574   2.688   3.713  1.0154 -1.3848  1.2477
 6998SOL    HW232457   4.597   2.797   3.813 -0.9258  2.7301 -1.7585
 6999SOL     OW32458   4.627   0.717   1.841 -0.5715 -0.0888 -0.0268
 6999SOL    HW132459   4.704   0.767   1.816 -2.0271  1.9761 -0.3975
 6999SOL    HW232460   4.619   0.651   1.772 -1.1802 -0.6237  0.5482
 7000SOL     OW32461   2.448   1.485   7.605 -0.0388  0.2711 -0.6537
 7000SOL    HW132462   2.471   1.400   7.643  2.2262  0.0364 -2.5489
 7000SOL    HW232463   2.520   1.490   7.542  1.1780  2.2692  0.8698
 7001SOL     OW32464   1.958   4.189   9.840 -0.1808 -0.3664  0.3476
 7001SOL    HW132465   1.987   4.111   9.889  1.7348  0.9537  1.3213
 7001SOL    HW232466   1.893   4.242   9.885  1.1865  0.6837  1.0799
 7002SOL     OW32467   4.014   3.164  12.069  0.2421 -0.1749  0.0681
 7002SOL    HW132468   4.103   3.198  12.079 -0.4916  1.4953  0.9542
 7002SOL    HW232469   3.998   3.136  11.980 -2.3092 -0.6189  0.6576
 7003SOL     OW32470   2.472   3.600   3.082 -0.1503  0.2992  0.0060
 7003SOL    HW132471   2.435   3.650   3.155 -3.9031 -2.9121  0.2827
 7003SOL    HW232472   2.389   3.561   3.052  0.1350  1.1279 -1.8594
 7004SOL     OW32473   2.671   0.171   5.400  0.9490 -0.1901  0.3482
 7004SOL    HW132474   2.701   0.146   5.487 -1.1114 -0.4642  0.9836
 7004SOL    HW232475   2.746   0.186   5.342 -0.1337 -0.2340 -1.0698
 7005SOL     OW32476   3.876   0.789   4.507  0.1753 -0.0806  0.0214
 7005SOL    HW132477   3.835   0.797   4.421  0.2911  0.0746 -0.0194
 7005SOL    HW232478   3.798   0.770   4.560  1.3274  1.2078  2.1808
 7006SOL     OW32479   3.204   0.354   4.495 -0.3868 -0.1809 -0.4435
 7006SOL    HW132480   3.151   0.416   4.446  1.0921  0.3966 -1.3136
 7006SOL    HW232481   3.156   0.355   4.578 -0.0489 -0.7083 -0.2452
 7007SOL     OW32482   3.694   3.325   5.663  0.3651  0.0076 -0.2822
 7007SOL    HW132483   3.666   3.350   5.575  2.1746  0.2610 -0.7970
 7007SOL    HW232484   3.691   3.229   5.666  4.0770 -0.1192  0.3060
 7008SOL     OW32485   3.649   0.871   6.701 -0.2058  0.8584 -0.7500
 7008SOL    HW132486   3.647   0.962   6.733 -2.4662  0.4379  0.3087
 7008SOL    HW232487   3.570   0.840   6.744  1.5537  0.0891  1.9553
 7009SOL     OW32488   3.713   1.276   8.307  0.2034 -0.0619  0.8161
 7009SOL    HW132489   3.707   1.370   8.324 -2.0977  0.6084 -3.7534
 7009SOL    HW232490   3.783   1.270   8.242  0.2329 -1.8022  0.9996
 7010SOL     OW32491   1.249   2.060   4.845  0.3554 -0.6078 -0.1990
 7010SOL    HW132492   1.222   2.076   4.935 -1.5112  0.1685 -0.9057
 7010SOL    HW232493   1.214   1.971   4.840 -1.2980  0.1131 -1.3323
 7011SOL     OW32494   3.747   1.655   8.823 -0.4393  0.1987  0.3122
 7011SOL    HW132495   3.810   1.721   8.794  0.5376 -2.0567 -2.7143
 7011SOL    HW232496   3.702   1.715   8.882  0.0119  1.0001 -0.1655
 7012SOL     OW32497   3.187   0.246   5.226 -0.0926 -0.0747  0.0089
 7012SOL    HW132498   3.270   0.286   5.199  0.3410 -0.4295  0.8323
 7012SOL    HW232499   3.180   0.165   5.176 -1.1792  0.8066 -1.2729
 7013SOL     OW32500   3.295   3.858   9.158  0.0972  0.4058 -0.1946
 7013SOL    HW132501   3.371   3.861   9.217  1.2126  0.7597 -1.6563
 7013SOL    HW232502   3.320   3.777   9.112 -0.5075  0.3905 -0.4871
 7014SOL     OW32503   2.490   4.321   4.395  0.4401  0.5861 -0.0666
 7014SOL    HW132504   2.444   4.272   4.463 -1.6566  1.2066 -1.0339
 7014SOL    HW232505   2.426   4.372   4.346  1.8702  0.4175 -2.1428
 7015SOL     OW32506   3.699   2.303   7.346 -0.3910  0.1969 -0.2452
 7015SOL    HW132507   3.752   2.235   7.304  0.0042  0.3245  0.0475
 7015SOL    HW232508   3.647   2.254   7.410 -1.9585  0.2773 -1.4541
 7016SOL     OW32509   1.736   2.883   7.118 -0.0221  0.4535  0.3662
 7016SOL    HW132510   1.747   2.920   7.206 -1.1274 -2.9239  1.9131
 7016SOL    HW232511   1.731   2.962   7.063  2.1701 -0.6840 -1.4493
 7017SOL     OW32512   2.698   0.155  15.096  0.1260 -0.2698  0.3027
 7017SOL    HW132513   2.771   0.213  15.073  1.7010 -1.5150  2.2246
 7017SOL    HW232514   2.700   0.078  15.040  0.9657  0.1350 -0.2339
 7018SOL     OW32515   0.716   0.293   5.667  0.1063 -0.1295 -0.0622
 7018SOL    HW132516   0.653   0.354   5.628  0.8340  0.9618  0.4488
 7018SOL    HW232517   0.782   0.278   5.600 -0.4221  3.4347 -1.4174
 7019SOL     OW32518   0.166   3.663  13.022 -0.4663 -0.1770 -0.2593
 7019SOL    HW132519   0.208   3.580  12.999 -0.3802  0.0458 -0.8987
 7019SOL    HW232520   0.074   3.646  13.000 -0.6687 -2.9965  2.8559
 7020SOL     OW32521   3.502   3.215   1.146 -0.2404  0.6186  0.0061
 7020SOL    HW132522   3.486   3.122   1.135  0.6362  0.4864 -0.1456
 7020SOL    HW232523   3.441   3.251   1.210 -1.8223 -0.4235 -0.9120
 7021SOL     OW32524   4.587   2.368   3.956 -1.0294 -0.4212  0.5603
 7021SOL    HW132525   4.500   2.334   3.931 -0.2427 -1.6167 -0.5960
 7021SOL    HW232526   4.638   2.369   3.875 -1.6440  0.0346  0.1813
 7022SOL     OW32527   1.335   4.471   3.875 -0.5179  0.1288 -0.1580
 7022SOL    HW132528   1.276   4.545   3.891  2.4363  1.9208  2.4232
 7022SOL    HW232529   1.277   4.402   3.841  1.8973 -3.0251  2.1482
 7023SOL     OW32530   2.562   4.496   0.267  0.0164 -0.1304 -0.5165
 7023SOL    HW132531   2.522   4.582   0.278  1.2728  0.1207  2.0404
 7023SOL    HW232532   2.656   4.501   0.279 -0.1105 -0.4610  0.6520
 7024SOL     OW32533   3.832   2.079  14.847  0.7430 -0.2828 -0.0616
 7024SOL    HW132534   3.878   1.996  14.830  0.0047 -0.9899  1.4313
 7024SOL    HW232535   3.894   2.128  14.900 -0.4820 -0.4331  1.5149
 7025SOL     OW32536   1.847   2.246   7.444 -0.9094  0.2558 -1.1196
 7025SOL    HW132537   1.795   2.181   7.398 -1.2462  0.7497 -1.4349
 7025SOL    HW232538   1.921   2.191   7.469 -0.8401  0.5294 -0.7140
 7026SOL     OW32539   3.581   0.411   3.561 -0.3236 -0.6341  0.0878
 7026SOL    HW132540   3.516   0.376   3.500  0.7502 -1.8787 -0.3427
 7026SOL    HW232541   3.662   0.390   3.515 -1.4544 -1.5852 -1.4912
 7027SOL     OW32542   0.372   2.737  13.551  0.3448 -0.0193 -0.5606
 7027SOL    HW132543   0.390   2.806  13.486  1.2342 -0.3301 -0.6408
 7027SOL    HW232544   0.426   2.777  13.619 -1.0473  0.3999  0.2812
 7028SOL     OW32545   0.375   3.211   7.700 -0.4976 -0.4174 -0.2342
 7028SOL    HW132546   0.312   3.217   7.772 -0.8223  0.4576 -0.5870
 7028SOL    HW232547   0.410   3.124   7.717  0.6765  0.2876  0.9522
 7029SOL     OW32548   0.648   0.727   7.250 -0.0572 -0.0043  0.3005
 7029SOL    HW132549   0.692   0.799   7.205 -0.5133  1.2094  1.7700
 7029SOL    HW232550   0.719   0.664   7.239 -1.0364 -0.8699 -1.0147
 7030SOL     OW32551   0.502   4.178   3.562  0.3964  0.2451 -0.2751
 7030SOL    HW132552   0.500   4.113   3.491  1.3645  0.6921 -0.7198
 7030SOL    HW232553   0.414   4.216   3.567  0.4101 -0.1396  2.6693
 7031SOL     OW32554   4.713   4.209   0.531  0.0752  0.5441  0.0768
 7031SOL    HW132555   4.693   4.232   0.440 -0.5616  0.5256  0.2110
 7031SOL    HW232556   4.673   4.280   0.581  1.2603  0.3663  1.2837
 7032SOL     OW32557   0.306   2.029  14.489  0.1128 -0.7550  0.6077
 7032SOL    HW132558   0.338   1.970  14.558  2.4596  2.2071  2.0323
 7032SOL    HW232559   0.376   2.021  14.425  0.6913  0.9094  1.0504
 7033SOL     OW32560   1.751   3.180   7.587  0.0492  0.9491 -0.3969
 7033SOL    HW132561   1.682   3.167   7.652  0.0526  1.0650 -0.3694
 7033SOL    HW232562   1.825   3.186   7.647 -1.4245  0.3063  1.4820
 7034SOL     OW32563   2.969   4.265   6.452  0.2909  0.4471  0.3474
 7034SOL    HW132564   3.001   4.311   6.375 -2.2271  0.9666 -0.3776
 7034SOL    HW232565   2.877   4.254   6.430  0.0867 -2.1331  2.4919
 7035SOL     OW32566   0.704   0.429  10.715 -0.5183 -0.1270  0.9726
 7035SOL    HW132567   0.755   0.416  10.795  0.7424 -0.0146  0.1829
 7035SOL    HW232568   0.652   0.499  10.754 -0.5211  0.7501 -0.5857
 7036SOL     OW32569   2.851   1.844  10.654 -0.3529 -0.1382 -0.3670
 7036SOL    HW132570   2.904   1.889  10.588 -4.3512  0.1985 -3.3726
 7036SOL    HW232571   2.844   1.765  10.601 -0.8858 -1.0881  1.1355
 7037SOL     OW32572   0.508   3.866  10.495  0.6226  0.0648 -0.3168
 7037SOL    HW132573   0.583   3.924  10.478 -0.1954  0.3516 -2.9323
 7037SOL    HW232574   0.492   3.835  10.406  0.7943  0.7233 -0.5798
 7038SOL     OW32575   0.861   2.642   3.265 -0.5023  0.3890 -0.2126
 7038SOL    HW132576   0.774   2.618   3.232 -1.3620  2.9693  0.1319
 7038SOL    HW232577   0.910   2.633   3.183  0.8501  2.2897  0.3912
 7039SOL     OW32578   2.210   0.118   9.934 -0.2839 -0.6076  0.1288
 7039SOL    HW132579   2.204   0.056  10.007 -0.7395 -0.7322 -0.0151
 7039SOL    HW232580   2.133   0.172   9.948  0.0134 -0.1271 -0.1161
 7040SOL     OW32581   0.256   4.369   2.381 -0.0200  0.0584 -0.1514
 7040SOL    HW132582   0.228   4.377   2.290 -1.4409 -0.4331  0.2433
 7040SOL    HW232583   0.229   4.450   2.425  2.7192  1.2040 -0.5649
 7041SOL     OW32584   2.263   4.421   5.407  0.4551 -0.4627  0.1862
 7041SOL    HW132585   2.226   4.370   5.335  0.2006  0.1105 -0.0915
 7041SOL    HW232586   2.286   4.350   5.466 -2.7198  0.1861  2.2115
 7042SOL     OW32587   1.180   1.431   4.900 -0.7650  0.4932 -0.1589
 7042SOL    HW132588   1.089   1.452   4.922 -0.3875  2.4253 -0.4830
 7042SOL    HW232589   1.224   1.476   4.971  1.2819 -2.8350  0.6632
 7043SOL     OW32590   0.208   3.835   8.454  0.2601  0.0626 -0.1602
 7043SOL    HW132591   0.241   3.806   8.539 -1.2383  0.2689  0.4863
 7043SOL    HW232592   0.239   3.925   8.449  0.3559  0.0876  0.9056
 7044SOL     OW32593   2.027   2.012   0.672 -0.0237 -0.0870 -0.2961
 7044SOL    HW132594   2.073   2.056   0.601 -2.5094  0.7430 -1.3840
 7044SOL    HW232595   1.937   2.038   0.654  0.0030 -0.2746 -0.7060
 7045SOL     OW32596   3.797   4.513   9.796 -0.0633  0.1242  0.1772
 7045SOL    HW132597   3.828   4.589   9.846  1.2118  0.8560 -1.7261
 7045SOL    HW232598   3.705   4.508   9.820 -0.4241 -0.9261 -1.4367
 7046SOL     OW32599   0.127   3.484   2.903  0.1491  0.1655 -0.2436
 7046SOL    HW132600   0.119   3.396   2.939 -0.7547  0.6449  0.7044
 7046SOL    HW232601   0.074   3.533   2.965  2.1934 -0.1856  1.7420
 7047SOL     OW32602   1.203   3.926  12.610 -0.3850 -0.0493  0.6184
 7047SOL    HW132603   1.238   4.014  12.624 -0.8562  0.0957  0.8752
 7047SOL    HW232604   1.286   3.879  12.602 -0.3220  0.5176 -1.9327
 7048SOL     OW32605   0.705   1.154   6.439  0.1756  0.3685 -0.3028
 7048SOL    HW132606   0.616   1.176   6.467  0.0173  0.6872 -1.0427
 7048SOL    HW232607   0.756   1.214   6.493  1.1852 -0.1502 -0.6862
 7049SOL     OW32608   0.439   0.579   0.895 -0.2736 -0.6371 -0.1855
 7049SOL    HW132609   0.366   0.518   0.879 -0.5750 -0.6507  1.2371
 7049SOL    HW232610   0.517   0.530   0.870  0.6361 -0.7161  2.8394
 7050SOL     OW32611   3.554   3.234   4.931 -0.1563 -0.2128 -0.3622
 7050SOL    HW132612   3.496   3.254   5.004 -0.3748  0.5264 -0.7447
 7050SOL    HW232613   3.634   3.254   4.979  0.0705 -0.5756 -0.5863
 7051SOL     OW32614   1.566   0.407  11.610 -0.3169  0.3434  0.0600
 7051SOL    HW132615   1.660   0.390  11.612 -0.0951  1.5851 -0.2079
 7051SOL    HW232616   1.553   0.500  11.595  1.3775  0.5420 -0.1300
 7052SOL     OW32617   2.768   2.311   7.079 -0.0396  0.2073 -0.1718
 7052SOL    HW132618   2.724   2.232   7.109  3.0728 -1.6782 -0.6261
 7052SOL    HW232619   2.845   2.323   7.135  0.0597  0.5848 -0.3864
 7053SOL     OW32620   0.922   0.991   1.625  0.4722  0.0641  0.3435
 7053SOL    HW132621   0.904   0.999   1.719 -1.2446 -2.1938  0.1798
 7053SOL    HW232622   0.903   1.079   1.592  0.6211  0.7320  1.9826
 7054SOL     OW32623   4.615   0.910   9.306 -0.0033 -0.0204 -0.1288
 7054SOL    HW132624   4.525   0.880   9.292  1.4329 -3.0530 -3.0511
 7054SOL    HW232625   4.657   0.853   9.241 -1.0347 -0.5548 -0.3345
 7055SOL     OW32626   2.495   0.698   4.743 -0.2537 -0.0260 -0.0223
 7055SOL    HW132627   2.513   0.757   4.669  0.1193  0.3379  0.3557
 7055SOL    HW232628   2.485   0.766   4.810  1.3959  1.0307 -0.8441
 7056SOL     OW32629   4.418   4.453   6.594 -0.1565  0.6992  0.9474
 7056SOL    HW132630   4.328   4.475   6.571  0.7185  1.9321 -1.2939
 7056SOL    HW232631   4.452   4.538   6.621 -0.8951  1.0983  0.6344
 7057SOL     OW32632   0.003   2.379   3.735 -0.0818 -0.0619 -0.5603
 7057SOL    HW132633   0.022   2.322   3.660 -0.4795  1.6540 -1.9524
 7057SOL    HW232634   0.057   2.456   3.720  1.8011 -1.8941 -3.2058
 7058SOL     OW32635   1.018   4.121   1.041 -0.6191  0.4879 -0.1127
 7058SOL    HW132636   1.011   4.216   1.031  2.0650  0.5829 -1.2001
 7058SOL    HW232637   0.926   4.111   1.066 -0.9377 -2.5439 -2.4138
 7059SOL     OW32638   2.845   0.140   5.054 -0.1819 -0.4178 -0.1778
 7059SOL    HW132639   2.809   0.217   5.010  0.2584  0.2854  0.6851
 7059SOL    HW232640   2.772   0.107   5.108  0.6852 -0.6758  0.8368
 7060SOL     OW32641   0.808   2.918   6.621 -0.2158  0.2624 -0.1513
 7060SOL    HW132642   0.736   2.859   6.643 -2.1528  1.1227 -4.2382
 7060SOL    HW232643   0.877   2.852   6.621 -0.6888 -0.2326  0.3370
 7061SOL     OW32644   4.549   1.021   9.952  0.4970 -0.0480  0.7914
 7061SOL    HW132645   4.606   1.091   9.985  0.1869  1.0332 -0.9684
 7061SOL    HW232646   4.492   1.008  10.028  1.5292  1.7897  1.9051
 7062SOL     OW32647   3.654   4.199   3.519 -0.1165 -0.1944 -0.1908
 7062SOL    HW132648   3.559   4.189   3.512 -0.2786  0.8134  0.6617
 7062SOL    HW232649   3.679   4.134   3.584 -0.1879 -1.1050 -1.0636
 7063SOL     OW32650   1.936   1.371  15.847 -0.5820 -0.4270 -0.0554
 7063SOL    HW132651   1.919   1.460  15.880 -0.7459 -0.9019  1.1589
 7063SOL    HW232652   1.932   1.393  15.754  1.8742 -1.9509 -0.5167
 7064SOL     OW32653   0.937   2.179   3.684 -0.8199  0.3332  0.5583
 7064SOL    HW132654   0.895   2.099   3.717  1.1323 -0.9481 -0.0675
 7064SOL    HW232655   0.965   2.220   3.766  0.7461 -0.2985  0.3226
 7065SOL     OW32656   1.896   1.799   6.638 -0.5116  0.2186 -0.3355
 7065SOL    HW132657   1.955   1.742   6.686 -0.9967 -0.1399 -0.1682
 7065SOL    HW232658   1.888   1.762   6.551  0.6761  0.7471 -0.6705
 7066SOL     OW32659   1.294   3.456  15.997 -0.2710 -0.0301  0.1924
 7066SOL    HW132660   1.222   3.435  16.057 -0.4734 -0.8736 -0.3442
 7066SOL    HW232661   1.329   3.371  15.971  0.1736  0.4152 -0.6704
 7067SOL     OW32662   0.678   3.632  14.152  0.2380  0.7190  0.2476
 7067SOL    HW132663   0.763   3.600  14.120 -1.5338 -2.7862 -0.8709
 7067SOL    HW232664   0.666   3.582  14.232 -1.4502  2.1108  0.8546
 7068SOL     OW32665   3.075   1.085  15.720  0.4772  0.1706 -0.0866
 7068SOL    HW132666   2.983   1.097  15.696 -0.1013 -1.0253  1.5757
 7068SOL    HW232667   3.109   1.070  15.632  2.7935 -0.3213  0.9082
 7069SOL     OW32668   3.850   3.467   2.075  0.1543  0.1648 -0.6795
 7069SOL    HW132669   3.816   3.543   2.121 -0.4387  1.3625 -3.0995
 7069SOL    HW232670   3.874   3.506   1.991  0.5464  1.0435 -0.1648
 7070SOL     OW32671   1.412   2.296  15.172 -0.1201  0.0970 -0.4952
 7070SOL    HW132672   1.474   2.361  15.203  0.6452 -0.2262 -1.3366
 7070SOL    HW232673   1.390   2.269  15.261 -0.5990 -2.3398 -1.3470
 7071SOL     OW32674   3.524   0.685   5.764 -0.4057 -0.2925  0.2386
 7071SOL    HW132675   3.472   0.668   5.843 -1.5166  1.7957 -0.0550
 7071SOL    HW232676   3.466   0.752   5.729  0.9988  0.7559 -0.0583
 7072SOL     OW32677   0.508   1.632   5.450  0.5089  0.2466  0.3402
 7072SOL    HW132678   0.425   1.584   5.444  0.5656  0.2116 -0.1275
 7072SOL    HW232679   0.548   1.603   5.368 -0.9680 -3.1206  0.7858
 7073SOL     OW32680   3.105   2.107   4.373  0.3238 -0.0484 -0.0335
 7073SOL    HW132681   3.085   2.086   4.282 -1.4125  1.1053  0.0963
 7073SOL    HW232682   3.130   2.199   4.374  2.7162 -0.6973  0.2044
 7074SOL     OW32683   0.742   1.243   9.286  0.0455  0.3197 -0.2602
 7074SOL    HW132684   0.659   1.201   9.306  0.7883 -0.1650  1.7904
 7074SOL    HW232685   0.726   1.290   9.204 -0.0424  3.7099  1.7212
 7075SOL     OW32686   3.839   4.306   3.342  0.1199 -0.9585 -0.1735
 7075SOL    HW132687   3.775   4.264   3.400  1.0383 -0.5497  1.1189
 7075SOL    HW232688   3.803   4.395   3.344 -1.8370 -1.8238  2.4630
 7076SOL     OW32689   4.454   0.518  10.560 -0.6822  1.2892 -0.5542
 7076SOL    HW132690   4.403   0.460  10.616  1.5171 -1.0456 -0.9295
 7076SOL    HW232691   4.480   0.458  10.489  0.6474  0.4629  0.6282
 7077SOL     OW32692   0.935   2.551   7.977 -0.0636  0.1727  0.6058
 7077SOL    HW132693   0.940   2.461   7.944 -1.9762  0.3906 -0.2502
 7077SOL    HW232694   1.011   2.557   8.035 -0.1245  0.5153  0.6533
 7078SOL     OW32695   1.039   0.250   4.186  0.3922 -0.1363 -0.0813
 7078SOL    HW132696   0.999   0.186   4.245  1.4058  1.1097  1.9332
 7078SOL    HW232697   1.025   0.333   4.230 -2.4134 -0.6365 -0.0015
 7079SOL     OW32698   2.923   2.984   8.993 -0.0143 -0.0354  0.3157
 7079SOL    HW132699   2.832   3.011   8.993  0.3499  1.1616  2.0568
 7079SOL    HW232700   2.911   2.906   9.048 -0.8102  0.1133  0.3421
 7080SOL     OW32701   2.571   0.190   1.844  0.4418 -0.9723  0.0433
 7080SOL    HW132702   2.563   0.182   1.749  0.4822  2.5644 -0.2600
 7080SOL    HW232703   2.542   0.103   1.871  0.7060 -0.7750  0.9667
 7081SOL     OW32704   3.987   0.011  15.114 -0.2133  0.3120  0.5473
 7081SOL    HW132705   4.040   0.035  15.038 -0.3382  0.1014  0.3939
 7081SOL    HW232706   3.936   4.658  15.085 -1.1501  2.1905 -2.7011
 7082SOL     OW32707   0.440   4.172   4.907 -0.3391 -0.2081 -0.0312
 7082SOL    HW132708   0.384   4.124   4.846  0.0257  0.1090 -0.6202
 7082SOL    HW232709   0.494   4.212   4.838 -1.6769  0.0448 -0.9455
 7083SOL     OW32710   3.986   1.570  12.568 -0.0968  0.0866  0.0458
 7083SOL    HW132711   4.056   1.635  12.562  1.5513 -1.8352 -1.5928
 7083SOL    HW232712   3.937   1.568  12.486  1.9482 -3.0352 -1.1294
 7084SOL     OW32713   0.753   3.167  13.375  0.3426  0.3358  0.4724
 7084SOL    HW132714   0.692   3.152  13.447  0.0345  0.2030  0.1775
 7084SOL    HW232715   0.779   3.078  13.354  1.7204  1.2322 -1.6461
 7085SOL     OW32716   0.336   1.256   5.085 -0.8464  0.2050 -0.7789
 7085SOL    HW132717   0.322   1.229   4.995 -1.0976 -2.7802  0.1435
 7085SOL    HW232718   0.410   1.201   5.110  0.0340  1.3701 -0.8278
 7086SOL     OW32719   1.958   0.222   6.719  0.2700 -0.3041 -0.1338
 7086SOL    HW132720   1.971   0.155   6.786 -0.8420 -2.5825 -2.1614
 7086SOL    HW232721   1.866   0.204   6.701  0.1086 -0.5151  0.8908
 7087SOL     OW32722   1.830   0.860   0.926  0.9185 -0.2432  0.0302
 7087SOL    HW132723   1.766   0.859   0.856 -0.0423  0.3161  0.8966
 7087SOL    HW232724   1.770   0.874   1.000  0.6667  1.4303 -0.5014
 7088SOL     OW32725   3.068   3.278  13.187 -0.3114  0.1082  0.5849
 7088SOL    HW132726   3.025   3.271  13.272 -1.8508  1.1189 -0.1189
 7088SOL    HW232727   3.152   3.300  13.225 -0.6767 -0.8555  1.9471
 7089SOL     OW32728   3.999   0.911   6.112 -0.2720  0.1816 -0.1627
 7089SOL    HW132729   3.983   0.842   6.177 -2.7101  1.9293  1.0679
 7089SOL    HW232730   3.914   0.904   6.069 -0.5639 -0.5076  0.5331
 7090SOL     OW32731   3.413   0.415   8.026 -0.1194  0.2987 -0.1010
 7090SOL    HW132732   3.379   0.421   8.115  0.6618 -1.7573  0.3242
 7090SOL    HW232733   3.421   0.320   8.021  1.2424  0.4287 -0.3634
 7091SOL     OW32734   2.061   1.569  11.031  0.3173  0.1039 -0.2845
 7091SOL    HW132735   2.030   1.495  11.084 -1.6083  0.8791 -0.3154
 7091SOL    HW232736   2.024   1.545  10.946 -0.1992 -2.8198  0.7434
 7092SOL     OW32737   0.603   2.229   1.631  0.3615  0.3982  0.0434
 7092SOL    HW132738   0.529   2.178   1.597  1.1550  0.6112 -2.0234
 7092SOL    HW232739   0.576   2.307   1.582  1.0501  0.1388 -0.7375
 7093SOL     OW32740   0.295   0.787   1.360  0.2289  0.3214  0.1371
 7093SOL    HW132741   0.269   0.819   1.274  0.9802 -1.1191 -0.6335
 7093SOL    HW232742   0.378   0.832   1.378 -1.0392  2.0945  1.5579
 7094SOL     OW32743   3.787   0.049   6.742 -0.4246  0.2212 -0.4709
 7094SOL    HW132744   3.837   0.060   6.823 -0.1851 -0.2240 -0.5567
 7094SOL    HW232745   3.705   0.097   6.755 -0.4509  0.0128  0.1092
 7095SOL     OW32746   0.304   0.565  10.614 -0.0949  0.3042  0.5645
 7095SOL    HW132747   0.325   0.619  10.538  0.8444  0.1336  0.7018
 7095SOL    HW232748   0.344   0.480  10.596 -0.5499  0.4042 -0.9093
 7096SOL     OW32749   0.362   0.678   1.727 -0.0843  0.2383  0.1045
 7096SOL    HW132750   0.334   0.648   1.813  1.9518  0.2460  0.7657
 7096SOL    HW232751   0.295   0.641   1.669  1.2870  0.4566 -1.6462
 7097SOL     OW32752   1.285   1.430   5.906  0.0174 -0.3857 -0.5130
 7097SOL    HW132753   1.380   1.420   5.904  0.2838  1.6046  2.7448
 7097SOL    HW232754   1.261   1.338   5.919 -0.4763 -0.3311 -0.9925
 7098SOL     OW32755   0.153   2.655   3.893 -0.1659  0.1075 -0.4860
 7098SOL    HW132756   0.085   2.702   3.846 -1.5747 -1.2288  0.2037
 7098SOL    HW232757   0.210   2.722   3.930 -1.2059  0.6565  0.1194
 7099SOL     OW32758   4.028   1.783   5.405 -0.2674  0.4443  0.1611
 7099SOL    HW132759   3.943   1.826   5.392 -0.8860 -0.5138  1.0510
 7099SOL    HW232760   4.086   1.859   5.410  0.3286  0.0330 -0.6224
 7100SOL     OW32761   0.692   0.129   6.765 -0.3006  0.5288  0.6874
 7100SOL    HW132762   0.756   0.125   6.835 -0.6626 -1.8538  0.8824
 7100SOL    HW232763   0.691   0.220   6.733  1.9846  0.3787  0.2391
 7101SOL     OW32764   0.847   1.859   7.474 -0.3689  0.0542 -0.5199
 7101SOL    HW132765   0.929   1.895   7.508 -0.4942 -0.7399  0.5943
 7101SOL    HW232766   0.829   1.909   7.394 -1.2613  1.7128  0.7122
 7102SOL     OW32767   2.100   3.995  12.217 -0.0867 -0.9695 -0.2727
 7102SOL    HW132768   2.124   3.906  12.242 -0.4142 -1.2072 -0.8047
 7102SOL    HW232769   2.189   4.032  12.219 -0.6863  0.5310 -1.2908
 7103SOL     OW32770   0.034   4.520   7.260  0.3727  0.0183 -0.1528
 7103SOL    HW132771   0.088   4.522   7.339  1.2380 -0.2183 -0.7370
 7103SOL    HW232772   4.696   4.448   7.278 -1.0566  1.2383 -0.0694
 7104SOL     OW32773   4.062   2.366  10.964 -0.6536 -0.3758  0.2666
 7104SOL    HW132774   4.153   2.340  10.944 -0.0690 -0.4642  3.1370
 7104SOL    HW232775   4.049   2.439  10.904 -1.3415 -1.2964 -0.7182
 7105SOL     OW32776   3.551   2.670   3.885 -0.6603  0.4704 -0.4604
 7105SOL    HW132777   3.598   2.685   3.803 -0.7359 -0.8946 -0.7560
 7105SOL    HW232778   3.509   2.755   3.898 -4.1656 -0.7422 -3.8457
 7106SOL     OW32779   3.340   3.107   6.636 -0.2390  0.2009  0.3965
 7106SOL    HW132780   3.258   3.107   6.586  0.4905 -0.1185 -0.8035
 7106SOL    HW232781   3.378   3.027   6.598  2.1946  0.8314  1.5115
 7107SOL     OW32782   2.591   3.473   0.064 -0.0333 -0.0413  0.6253
 7107SOL    HW132783   2.581   3.383   0.031 -1.3886  0.5513 -0.5845
 7107SOL    HW232784   2.509   3.504   0.026  1.4929  1.3089 -1.5425
 7108SOL     OW32785   1.893   0.941   6.705 -0.7442  0.2292 -0.1550
 7108SOL    HW132786   1.880   0.888   6.783 -0.8644  1.0585  0.3831
 7108SOL    HW232787   1.894   0.882   6.629  1.7669  1.3928 -0.9992
 7109SOL     OW32788   3.351   2.536  12.421  0.3069 -0.0828  0.0047
 7109SOL    HW132789   3.436   2.518  12.379 -0.9579 -2.9116 -1.3022
 7109SOL    HW232790   3.303   2.571  12.346 -1.4497 -3.3953 -0.4174
 7110SOL     OW32791   0.416   0.452   7.455  0.2226 -0.4307 -0.2033
 7110SOL    HW132792   0.421   0.364   7.418 -2.5739 -1.0958  1.0337
 7110SOL    HW232793   0.370   0.495   7.382  0.5580  2.9813  1.5954
 7111SOL     OW32794   1.032   3.108   1.605  0.3036 -0.6635 -0.5578
 7111SOL    HW132795   1.002   3.198   1.592  2.5562  0.2685  0.7616
 7111SOL    HW232796   0.966   3.061   1.658  0.7759 -1.9012 -1.0766
 7112SOL     OW32797   0.897   4.022   5.926 -0.4095 -0.3079  0.0860
 7112SOL    HW132798   0.911   3.928   5.929 -0.0901 -0.1851  2.3295
 7112SOL    HW232799   0.820   4.006   5.981 -1.2974 -0.3479 -1.1584
 7113SOL     OW32800   0.949   1.374  13.745 -0.4914  0.0236 -0.0955
 7113SOL    HW132801   0.867   1.384  13.791 -0.2101  1.7186  0.0282
 7113SOL    HW232802   0.934   1.338  13.657 -0.7762 -0.6076  0.2128
 7114SOL     OW32803   3.604   2.655   2.561 -0.5038 -0.4542 -0.3847
 7114SOL    HW132804   3.592   2.635   2.654  2.2528 -1.0784 -0.1498
 7114SOL    HW232805   3.584   2.748   2.572 -1.1603 -0.6794  0.2997
 7115SOL     OW32806   1.488   3.322   6.146  0.2844  0.2579  0.6579
 7115SOL    HW132807   1.528   3.235   6.154  0.4367  0.1807 -0.8745
 7115SOL    HW232808   1.553   3.369   6.198 -0.7825  0.2347  2.0104
 7116SOL     OW32809   2.363   3.090   3.400 -0.5888 -0.4058  0.0587
 7116SOL    HW132810   2.319   3.175   3.404 -0.7108 -0.5393  1.5654
 7116SOL    HW232811   2.329   3.066   3.486  0.6491 -4.3010 -0.5480
 7117SOL     OW32812   1.385   0.275   8.661 -0.3016 -0.5562  0.0742
 7117SOL    HW132813   1.295   0.253   8.638 -0.2625  2.4577 -2.9212
 7117SOL    HW232814   1.403   0.331   8.585 -0.4701 -0.5523  0.0364
 7118SOL     OW32815   4.644   2.388  15.393  0.3111 -0.1802  0.0175
 7118SOL    HW132816   4.673   2.420  15.478  0.0653  0.6338 -0.1975
 7118SOL    HW232817   4.576   2.327  15.421 -1.4527 -0.0461 -3.9807
 7119SOL     OW32818   1.662   4.646   0.354  0.4338  0.1000  0.0281
 7119SOL    HW132819   1.592   4.588   0.325 -0.8545  1.6289  0.0915
 7119SOL    HW232820   1.692   4.681   0.271 -0.0027  2.7341  1.0017
 7120SOL     OW32821   0.628   4.677   4.153  0.2467  0.5071 -0.3249
 7120SOL    HW132822   0.611   4.585   4.133 -1.3355  0.2854  2.0070
 7120SOL    HW232823   0.554   4.688   4.213 -0.2465 -0.9754 -0.6619
 7121SOL     OW32824   1.808   3.866  14.291 -0.1467  0.0750 -0.7361
 7121SOL    HW132825   1.876   3.806  14.261  1.2435  2.1707 -1.7890
 7121SOL    HW232826   1.860   3.939  14.326 -1.1914  0.1993  0.5874
 7122SOL     OW32827   1.029   2.249  11.387  0.3420  0.4753 -0.5069
 7122SOL    HW132828   1.048   2.198  11.308 -1.7561 -1.3628  0.1706
 7122SOL    HW232829   0.969   2.316  11.354  1.1460  0.9599 -0.9874
 7123SOL     OW32830   3.700   3.774   0.825  0.4559  0.2076  0.0735
 7123SOL    HW132831   3.665   3.835   0.761 -0.1413 -2.0305 -1.7368
 7123SOL    HW232832   3.664   3.689   0.801  0.6158  0.1843 -0.0844
 7124SOL     OW32833   0.400   1.230   0.184 -0.0637  0.4113  0.6495
 7124SOL    HW132834   0.433   1.281   0.110 -0.7285 -0.4553 -0.2566
 7124SOL    HW232835   0.339   1.176   0.133  1.7354 -2.1566  1.2057
 7125SOL     OW32836   4.305   1.019   4.950 -0.2183 -0.1745  0.6103
 7125SOL    HW132837   4.321   1.024   5.045 -2.4028  1.1648  0.9189
 7125SOL    HW232838   4.304   1.113   4.933  2.7134 -0.4727 -1.1240
 7126SOL     OW32839   0.657   1.679   9.754 -0.0888  0.4347 -0.2279
 7126SOL    HW132840   0.679   1.625   9.830  0.4643  2.0222  0.7579
 7126SOL    HW232841   0.694   1.632   9.679  0.1752 -0.9581  0.7739
 7127SOL     OW32842   2.653   3.623   8.487 -0.3208  0.1922 -0.4864
 7127SOL    HW132843   2.698   3.538   8.489 -0.8367 -0.0410  0.9947
 7127SOL    HW232844   2.619   3.634   8.575  0.2748 -0.7886 -0.1314
 7128SOL     OW32845   3.242   4.692   8.095 -0.3036  0.1270 -0.2384
 7128SOL    HW132846   3.206   4.708   8.008 -0.7791 -2.0191 -0.4451
 7128SOL    HW232847   3.317   0.026   8.079 -0.9820  0.3293 -2.7311
 7129SOL     OW32848   4.090   2.626  14.231 -0.0175  0.0446 -0.5595
 7129SOL    HW132849   4.092   2.657  14.322  0.0607 -1.0122 -0.1954
 7129SOL    HW232850   4.067   2.534  14.245 -1.2778  0.4991  0.3745
 7130SOL     OW32851   4.494   2.848   4.730  0.5058  0.0565  0.3578
 7130SOL    HW132852   4.433   2.812   4.666 -0.3905 -1.7199  2.2171
 7130SOL    HW232853   4.459   2.800   4.804 -0.8982 -1.5174 -1.3113
 7131SOL     OW32854   1.840   4.071  11.912 -0.5173 -0.7950 -0.0219
 7131SOL    HW132855   1.759   4.055  11.862 -0.8923 -0.5893  0.5266
 7131SOL    HW232856   1.910   4.037  11.855 -0.8433  0.5849 -1.2461
 7132SOL     OW32857   2.858   4.352   2.129  0.2617 -0.3402  0.1983
 7132SOL    HW132858   2.913   4.357   2.051  1.1612  1.2325  0.9379
 7132SOL    HW232859   2.886   4.428   2.180 -0.2779  0.1573 -0.2476
 7133SOL     OW32860   4.191   1.629   8.183 -0.0270  0.1317  0.0930
 7133SOL    HW132861   4.286   1.629   8.168 -0.3632 -0.4070 -1.9421
 7133SOL    HW232862   4.173   1.718   8.212  1.0125  1.1127 -2.3121
 7134SOL     OW32863   0.899   1.053   1.891 -0.0862 -0.3041  0.0076
 7134SOL    HW132864   0.858   1.126   1.936  0.2393 -1.3257  1.9579
 7134SOL    HW232865   0.988   1.055   1.926  0.2736 -3.3474 -0.6741
 7135SOL     OW32866   3.114   1.671   4.474 -0.1737  0.9622  0.1033
 7135SOL    HW132867   3.161   1.736   4.423  0.6918 -1.1393 -1.7679
 7135SOL    HW232868   3.175   1.675   4.548 -0.7707  1.2825  0.5819
 7136SOL     OW32869   4.277   3.155   9.196  0.2075 -0.2040  0.0263
 7136SOL    HW132870   4.267   3.086   9.262 -1.1115 -2.8908 -3.0145
 7136SOL    HW232871   4.301   3.230   9.251  1.2287 -0.5773  0.0840
 7137SOL     OW32872   0.323   2.960  13.058  0.2702  0.1578  0.0881
 7137SOL    HW132873   0.281   2.937  12.975  1.1113  0.4371 -0.4167
 7137SOL    HW232874   0.269   3.030  13.095  0.2919 -0.5213  1.4213
 7138SOL     OW32875   3.256   0.563   1.902 -0.0698  0.6058 -0.2743
 7138SOL    HW132876   3.161   0.551   1.907  0.2340 -0.5359  2.9064
 7138SOL    HW232877   3.265   0.654   1.929  1.0077  0.3082  0.3507
 7139SOL     OW32878   1.309   3.301  10.145  0.4255  0.6026 -0.2338
 7139SOL    HW132879   1.267   3.242  10.207 -0.0743  1.6669  0.4414
 7139SOL    HW232880   1.283   3.251  10.068  1.1238  0.2046 -0.2080
 7140SOL     OW32881   1.431   3.566   1.264  0.5599  0.0088  0.1595
 7140SOL    HW132882   1.362   3.577   1.329  0.0189  1.3450 -0.6521
 7140SOL    HW232883   1.445   3.658   1.240  0.0023  0.1475  0.3774
 7141SOL     OW32884   4.131   3.976   8.405  0.2165  0.2989 -1.0621
 7141SOL    HW132885   4.180   4.027   8.469  2.7111 -0.1487 -2.5828
 7141SOL    HW232886   4.041   3.983   8.437 -0.3231 -1.2172 -2.2344
 7142SOL     OW32887   0.348   1.758   7.957  0.0984 -0.2554  0.0618
 7142SOL    HW132888   0.391   1.835   7.996 -0.8714 -0.7584  2.1158
 7142SOL    HW232889   0.377   1.681   8.006  1.6805  0.5738  0.4332
 7143SOL     OW32890   4.655   1.915   6.023  0.3658 -0.6713 -0.3756
 7143SOL    HW132891   4.669   1.995   5.972  1.3422 -0.6933 -0.1394
 7143SOL    HW232892   4.595   1.871   5.962  1.0270 -0.5506 -1.1280
 7144SOL     OW32893   2.674   1.924  16.430 -0.2306  0.1142  0.3111
 7144SOL    HW132894   2.716   1.970  16.503 -0.9809 -1.8266  1.9678
 7144SOL    HW232895   2.598   1.978  16.410  0.9460  1.5630 -0.2250
 7145SOL     OW32896   0.652   3.855   8.201 -0.3508  0.4191  0.5043
 7145SOL    HW132897   0.574   3.905   8.226 -1.2257 -0.7121  0.0466
 7145SOL    HW232898   0.629   3.770   8.237 -1.3258  1.1057  1.4999
 7146SOL     OW32899   0.743   4.054  12.569 -0.1298 -0.0072  0.6807
 7146SOL    HW132900   0.722   4.127  12.627  0.9726  0.8742 -0.0440
 7146SOL    HW232901   0.704   3.981  12.618  0.3268  0.1633  1.2898
 7147SOL     OW32902   4.262   0.080   5.857 -0.1345 -0.0618 -0.2667
 7147SOL    HW132903   4.277   0.174   5.842  0.1800 -0.2082 -0.8813
 7147SOL    HW232904   4.179   0.081   5.903  1.2674 -3.1856  2.2858
 7148SOL     OW32905   2.379   0.050   7.147 -0.0262  0.1537 -0.5670
 7148SOL    HW132906   2.332   0.096   7.078 -0.8704 -0.9396 -0.7199
 7148SOL    HW232907   2.469   0.074   7.122 -0.2920  1.4563 -0.2614
 7149SOL     OW32908   2.652   1.653  17.618  0.2870 -0.5355 -0.1462
 7149SOL    HW132909   2.572   1.624  17.573 -0.1330  0.1042  0.1894
 7149SOL    HW232910   2.617   1.736  17.651  0.4546  0.5003 -2.5241
 7150SOL     OW32911   1.381   4.678   4.283  0.8227  0.4148 -0.0307
 7150SOL    HW132912   1.290   4.656   4.260  1.0365 -1.2640  0.6909
 7150SOL    HW232913   1.385   4.634   4.368 -1.7205  0.0466 -0.0851
 7151SOL     OW32914   0.461   3.165   4.778 -0.1060  0.0006 -0.7595
 7151SOL    HW132915   0.464   3.228   4.706  1.0147  0.4443 -0.3172
 7151SOL    HW232916   0.496   3.084   4.741  3.7301  1.0229  0.7245
 7152SOL     OW32917   3.234   2.289   7.830  0.1869  0.2561 -0.6869
 7152SOL    HW132918   3.263   2.291   7.739  4.6043  0.8369  0.7277
 7152SOL    HW232919   3.168   2.357   7.819 -0.0762  0.2175  0.5727
 7153SOL     OW32920   2.976   1.881   0.893 -0.7770  0.0330  0.4556
 7153SOL    HW132921   3.066   1.912   0.901 -1.7229  2.4346  1.7604
 7153SOL    HW232922   2.942   1.947   0.953 -1.2098  2.2514 -2.2645
 7154SOL     OW32923   1.783   0.016   0.087  0.1157  0.2102  0.6750
 7154SOL    HW132924   1.754   4.678   0.019  1.1114  1.0226 -0.4806
 7154SOL    HW232925   1.877   0.015   0.068 -0.2278  1.0602 -1.1236
 7155SOL     OW32926   1.108   1.733   7.719 -0.2963 -0.6590  0.0129
 7155SOL    HW132927   1.021   1.754   7.753  0.1529 -1.2541  1.5300
 7155SOL    HW232928   1.105   1.651   7.669 -2.5736  0.6378 -2.0084
 7156SOL     OW32929   2.318   3.370  14.701  0.4737 -0.9063  0.3941
 7156SOL    HW132930   2.307   3.293  14.756  2.5999 -1.7546 -0.3866
 7156SOL    HW232931   2.228   3.373  14.670  0.9652 -3.0766 -1.2216
 7157SOL     OW32932   2.155   3.292   8.381  0.0494  0.1948  0.0161
 7157SOL    HW132933   2.128   3.267   8.469 -1.3911  2.4454  0.2305
 7157SOL    HW232934   2.189   3.204   8.362  1.3699  0.0677  3.0175
 7158SOL     OW32935   3.982   2.937   1.150 -0.1533 -0.1818 -0.5299
 7158SOL    HW132936   4.051   2.934   1.217  0.4468  0.2262 -1.1299
 7158SOL    HW232937   3.926   3.005   1.188  1.8986  1.2381 -0.0178
 7159SOL     OW32938   2.477   2.469   8.341  0.6189  0.4171 -0.4658
 7159SOL    HW132939   2.420   2.421   8.401  2.4614 -1.3497 -0.1067
 7159SOL    HW232940   2.411   2.470   8.272 -0.1639  1.9455  0.3238
 7160SOL     OW32941   3.768   0.949   8.556  0.0646 -0.3341  0.2129
 7160SOL    HW132942   3.679   0.973   8.528  0.3516 -0.0147 -0.4171
 7160SOL    HW232943   3.786   0.908   8.472  0.4814 -0.0271  0.1526
 7161SOL     OW32944   2.439   1.287  17.395  0.2584  0.2996  0.0241
 7161SOL    HW132945   2.507   1.227  17.363 -0.6656  0.3945 -2.1500
 7161SOL    HW232946   2.383   1.237  17.454 -0.8749  0.4946 -0.8659
 7162SOL     OW32947   0.511   1.097  11.065 -0.0683 -0.0470 -0.7043
 7162SOL    HW132948   0.594   1.071  11.105 -0.3354 -0.5240 -0.4526
 7162SOL    HW232949   0.471   1.016  11.035 -1.3142  0.0945  0.6042
 7163SOL     OW32950   4.111   4.350   2.787  0.4286 -0.0898 -0.5954
 7163SOL    HW132951   4.050   4.377   2.856 -2.5611 -0.4771 -3.0562
 7163SOL    HW232952   4.095   4.257   2.773  2.1315 -0.6244  1.0400
 7164SOL     OW32953   4.544   3.358   7.572  0.1441 -0.5992 -0.2425
 7164SOL    HW132954   4.453   3.347   7.545  0.3960 -1.8757 -0.5529
 7164SOL    HW232955   4.533   3.390   7.662 -1.5300  0.2683 -0.7655
 7165SOL     OW32956   0.248   4.371   9.418  0.3122  0.2971  0.0999
 7165SOL    HW132957   0.319   4.431   9.397  0.3715  0.4097  0.6260
 7165SOL    HW232958   0.254   4.373   9.514  0.4890 -0.8693  0.1093
 7166SOL     OW32959   1.714   2.695   5.062 -0.3994 -0.3164  0.0733
 7166SOL    HW132960   1.758   2.760   5.008  0.1523 -0.4259  0.3840
 7166SOL    HW232961   1.728   2.739   5.145  1.3479  1.7453 -1.3178
 7167SOL     OW32962   4.083   1.357  11.576 -0.3599  0.0176 -0.1298
 7167SOL    HW132963   4.091   1.411  11.498 -2.5410  1.2284  0.4945
 7167SOL    HW232964   3.995   1.382  11.601 -1.2973 -1.8817 -1.5327
 7168SOL     OW32965   3.466   1.401  10.760  0.0791 -0.0297  0.0066
 7168SOL    HW132966   3.444   1.310  10.740 -1.6867 -0.1234  2.3346
 7168SOL    HW232967   3.482   1.445  10.677  1.5778  1.1679  0.9395
 7169SOL     OW32968   3.313   0.308  13.119 -0.2869  0.5378 -0.4630
 7169SOL    HW132969   3.398   0.271  13.142 -0.0118  1.0252 -0.6997
 7169SOL    HW232970   3.311   0.380  13.182 -1.3587  1.0158 -1.0319
 7170SOL     OW32971   1.482   2.943   5.487 -0.8176  0.7156 -0.0356
 7170SOL    HW132972   1.481   2.979   5.576 -0.2499 -0.0110  0.2606
 7170SOL    HW232973   1.446   3.016   5.436  0.4379  0.1687 -1.6667
 7171SOL     OW32974   0.998   1.634   3.782 -0.2982  0.2039 -0.3529
 7171SOL    HW132975   0.986   1.631   3.687  0.2224 -2.1892 -0.3333
 7171SOL    HW232976   0.934   1.698   3.811  1.0371  2.9973 -3.5327
 7172SOL     OW32977   3.433   1.805  10.670  1.2695  0.1583 -0.1912
 7172SOL    HW132978   3.466   1.869  10.607 -0.3218 -0.0566 -1.2492
 7172SOL    HW232979   3.412   1.862  10.744  2.9837 -0.2363  0.5992
 7173SOL     OW32980   4.667   4.503  16.188 -0.4865  0.7510  0.5369
 7173SOL    HW132981   4.711   4.567  16.245 -1.0525 -0.2952  2.1672
 7173SOL    HW232982   4.646   4.439  16.256  1.1937  4.1720  4.3155
 7174SOL     OW32983   1.433   3.706   2.564 -0.9757 -0.3121 -0.2052
 7174SOL    HW132984   1.469   3.786   2.525 -0.2854 -0.5049  0.0338
 7174SOL    HW232985   1.492   3.642   2.525  0.4856  0.8399  0.1313
 7175SOL     OW32986   0.835   2.476   7.280 -0.1307  0.1605  0.2148
 7175SOL    HW132987   0.882   2.495   7.198  1.1123 -1.1809  0.6231
 7175SOL    HW232988   0.769   2.545   7.283  0.8038  1.0911 -0.4264
 7176SOL     OW32989   2.269   3.241   1.202  0.3570  0.2903  0.7790
 7176SOL    HW132990   2.244   3.252   1.294  2.4346  0.8707  1.2763
 7176SOL    HW232991   2.322   3.319   1.185  0.3508  0.1072 -0.0821
 7177SOL     OW32992   3.597   4.138   8.908 -0.1033  0.4397 -0.1623
 7177SOL    HW132993   3.618   4.107   8.997  0.1639 -0.0472 -0.3956
 7177SOL    HW232994   3.620   4.231   8.908 -0.5261  0.5615  2.2466
 7178SOL     OW32995   4.568   3.898   6.822 -0.1602  0.0035 -0.1946
 7178SOL    HW132996   4.626   3.966   6.857 -0.4926  0.7936 -1.1669
 7178SOL    HW232997   4.595   3.826   6.878  0.3921 -0.3165 -0.8638
 7179SOL     OW32998   3.608   4.285   2.782 -0.4546 -0.2439  0.1490
 7179SOL    HW132999   3.572   4.227   2.850 -1.6740 -0.1224 -0.3781
 7179SOL    HW233000   3.619   4.224   2.709 -3.8314 -1.1358  0.3905
 7180SOL     OW33001   0.955   3.373   9.274 -0.1544  1.0937  0.2341
 7180SOL    HW133002   0.877   3.329   9.309 -0.1985  0.4106 -0.7435
 7180SOL    HW233003   0.957   3.455   9.323 -1.4099  0.8000  0.7847
 7181SOL     OW33004   3.029   3.680   8.541 -0.1065 -0.2626 -0.5374
 7181SOL    HW133005   2.979   3.669   8.622  1.1933  0.0288  0.3036
 7181SOL    HW233006   2.972   3.616   8.497 -0.9601 -0.5278  0.9519
 7182SOL     OW33007   0.941   2.548   8.748  0.5131 -0.6171 -0.6071
 7182SOL    HW133008   0.975   2.536   8.837  0.3529 -1.1962 -0.6222
 7182SOL    HW233009   0.847   2.563   8.757  0.7770  0.2795  0.7139
 7183SOL     OW33010   4.465   4.316   8.470 -0.6050  0.1069  0.2606
 7183SOL    HW133011   4.524   4.350   8.402  1.1579 -1.7386  0.8555
 7183SOL    HW233012   4.381   4.300   8.429 -1.9937  3.7054  1.6920
 7184SOL     OW33013   0.156   3.087  12.395  0.0371  0.2949  0.2476
 7184SOL    HW133014   0.206   3.031  12.336 -1.7904  0.5653 -1.5692
 7184SOL    HW233015   0.224   3.135  12.442  0.6623  0.5437 -0.9368
 7185SOL     OW33016   1.891   0.591   5.478 -0.1559  0.2005 -0.1184
 7185SOL    HW133017   1.866   0.514   5.528  2.5194 -1.6049 -1.5979
 7185SOL    HW233018   1.955   0.567   5.411  0.1778  1.1094 -0.1372
 7186SOL     OW33019   0.849   4.080  12.109  0.4279 -0.1287 -0.7389
 7186SOL    HW133020   0.793   4.034  12.172 -0.8365  0.3891 -1.4722
 7186SOL    HW233021   0.922   4.105  12.165  0.3894 -0.1142 -0.6947
 7187SOL     OW33022   3.050   3.736  14.611  0.1007  0.3261  0.5761
 7187SOL    HW133023   3.017   3.648  14.589  0.2577  0.1510  1.0426
 7187SOL    HW233024   3.138   3.739  14.573  0.3382  0.0297  1.1039
 7188SOL     OW33025   1.321   1.393  17.574 -0.0020 -0.6269  0.2215
 7188SOL    HW133026   1.236   1.370  17.536 -0.6535  1.7791  0.2574
 7188SOL    HW233027   1.379   1.334  17.525 -0.7610 -2.2878  1.2943
 7189SOL     OW33028   3.913   2.522  10.756  0.0225 -0.1851  0.1340
 7189SOL    HW133029   3.891   2.434  10.725 -0.1289 -0.5575  1.3256
 7189SOL    HW233030   3.889   2.568  10.675 -1.5006 -1.6765 -0.2634
 7190SOL     OW33031   4.517   2.316   5.328 -0.1455  0.5354  0.2015
 7190SOL    HW133032   4.558   2.348   5.408 -2.0297  0.3453  1.2478
 7190SOL    HW233033   4.584   2.327   5.260  0.1586 -0.4732  0.3366
 7191SOL     OW33034   2.805   1.178   8.800 -0.5442  0.1241  0.3004
 7191SOL    HW133035   2.885   1.162   8.850  1.5346  1.9717 -2.4445
 7191SOL    HW233036   2.772   1.254   8.849 -0.9769 -0.4560  0.9112
 7192SOL     OW33037   3.169   2.784   8.820  0.3758 -0.1561 -0.4345
 7192SOL    HW133038   3.122   2.857   8.781  1.4095  1.2954  1.0556
 7192SOL    HW233039   3.259   2.816   8.815  1.1193 -2.4622 -1.8663
 7193SOL     OW33040   2.824   3.008  14.818 -0.7317  0.2710 -0.2991
 7193SOL    HW133041   2.819   3.094  14.861  3.2412  0.6566 -0.5970
 7193SOL    HW233042   2.883   2.967  14.881 -1.6845  0.1384  0.5071
 7194SOL     OW33043   1.014   4.628   3.771  1.0283 -0.2575 -0.1363
 7194SOL    HW133044   0.983   4.540   3.793  0.7241 -0.8036 -2.8241
 7194SOL    HW233045   1.054   4.609   3.687  2.5685 -1.9935  0.9988
 7195SOL     OW33046   2.482   0.556   8.496 -0.3750  0.4673  0.5949
 7195SOL    HW133047   2.458   0.591   8.409 -1.4171 -1.7692 -0.0058
 7195SOL    HW233048   2.441   0.619   8.555 -1.1846  0.3793  0.1305
 7196SOL     OW33049   2.702   1.766   3.722  0.5038  0.2613 -0.1506
 7196SOL    HW133050   2.656   1.690   3.759 -1.1150  1.6906  0.7640
 7196SOL    HW233051   2.781   1.738   3.676  0.9326  1.6974 -0.2987
 7197SOL     OW33052   4.639   1.703  10.528 -0.2639  0.0070 -0.2774
 7197SOL    HW133053   0.005   1.668  10.511 -0.2734 -0.1715  0.0302
 7197SOL    HW233054   4.621   1.654  10.608  2.4687  2.0050  1.5900
 7198SOL     OW33055   1.787   3.635   3.556 -0.3930 -0.5992  0.2191
 7198SOL    HW133056   1.694   3.657   3.556 -0.0346  0.9864  0.4588
 7198SOL    HW233057   1.792   3.593   3.642  0.3456  0.5486  0.7434
 7199SOL     OW33058   2.235   1.963  14.299  0.2363  0.1112  0.1448
 7199SOL    HW133059   2.233   2.058  14.285 -2.4278  0.0356  0.1172
 7199SOL    HW233060   2.143   1.937  14.298  0.4693 -0.7246  0.6191
 7200SOL     OW33061   3.730   1.514  16.203  0.0304 -0.1638 -0.2870
 7200SOL    HW133062   3.720   1.569  16.125  0.4066 -1.2731 -1.1112
 7200SOL    HW233063   3.823   1.493  16.208  0.1494 -0.0592 -1.9779
 7201SOL     OW33064   0.348   2.069   4.460 -0.6573 -0.2547 -0.8626
 7201SOL    HW133065   0.316   2.157   4.441 -0.8995  0.0127  0.7228
 7201SOL    HW233066   0.326   2.026   4.378 -1.1514 -1.3463 -0.1603
 7202SOL     OW33067   2.934   2.897   8.562  0.0164  0.5608 -0.1736
 7202SOL    HW133068   2.984   2.950   8.624  1.8212 -0.2081 -0.9687
 7202SOL    HW233069   2.989   2.900   8.484 -1.4568 -3.2032 -1.3512
 7203SOL     OW33070   1.378   2.277  11.209  0.1665  0.2061 -0.0418
 7203SOL    HW133071   1.394   2.273  11.115  2.1853  1.1749  0.2758
 7203SOL    HW233072   1.413   2.192  11.237  0.3497  0.2985  0.0084
 7204SOL     OW33073   3.047   0.477   5.292 -0.6221 -0.4063 -0.0465
 7204SOL    HW133074   3.127   0.482   5.343 -0.1439  1.2133 -0.9634
 7204SOL    HW233075   3.059   0.387   5.260  3.4918  0.3006 -0.4294
 7205SOL     OW33076   3.732   0.061   8.109 -0.2200  0.3847  0.7041
 7205SOL    HW133077   3.759   4.702   8.153  0.3576 -0.9227 -2.0037
 7205SOL    HW233078   3.775   0.133   8.156  3.6840 -0.4540 -1.5423
 7206SOL     OW33079   3.652   0.868   3.311  0.5221  0.1887  0.1545
 7206SOL    HW133080   3.652   0.919   3.230 -1.6147 -2.2319 -1.3741
 7206SOL    HW233081   3.738   0.829   3.304 -0.9970 -2.7672 -1.7896
 7207SOL     OW33082   3.741   1.078  13.843  0.0977  0.5877 -0.4011
 7207SOL    HW133083   3.769   1.156  13.796  0.2139  1.4894  1.1929
 7207SOL    HW233084   3.768   1.024  13.769  1.1898  0.8240 -0.1727
 7208SOL     OW33085   1.761   4.718   8.911 -0.0342  0.0024 -0.0396
 7208SOL    HW133086   1.850   0.031   8.910 -0.9470  2.4055  1.3151
 7208SOL    HW233087   1.778   4.624   8.910  1.1970  0.2294 -0.8831
 7209SOL     OW33088   3.795   2.361   5.316  0.1545 -0.3003 -0.2953
 7209SOL    HW133089   3.840   2.368   5.400 -1.8453  0.7140  0.6779
 7209SOL    HW233090   3.752   2.445   5.329  1.1054  0.2579 -0.7133
 7210SOL     OW33091   0.901   1.386   4.001  0.2517 -0.2770  0.2297
 7210SOL    HW133092   0.942   1.472   3.993  1.0129 -0.5987  0.6186
 7210SOL    HW233093   0.821   1.403   4.050  0.3741  0.9390 -0.0088
 7211SOL     OW33094   4.362   1.591  16.840  0.0626 -0.1266 -0.2133
 7211SOL    HW133095   4.327   1.680  16.851 -1.5791 -0.8611  0.4707
 7211SOL    HW233096   4.429   1.602  16.773  0.9140 -3.4991  0.0927
 7212SOL     OW33097   1.662   3.459  12.665 -0.0086  0.0704  0.8799
 7212SOL    HW133098   1.618   3.389  12.617  1.8440 -0.5104  0.0150
 7212SOL    HW233099   1.698   3.398  12.730  0.9950  0.4590  0.6878
 7213SOL     OW33100   2.357   3.617   8.946  0.0751 -0.2008 -0.2588
 7213SOL    HW133101   2.290   3.549   8.948 -0.9221  0.7951  0.2759
 7213SOL    HW233102   2.365   3.638   9.039 -1.1208 -0.8513 -0.0262
 7214SOL     OW33103   1.693   3.204   3.683 -0.2161 -0.2950 -0.0045
 7214SOL    HW133104   1.681   3.163   3.597 -0.3544  1.4030 -0.8070
 7214SOL    HW233105   1.636   3.281   3.676  0.3718 -0.0757 -2.5044
 7215SOL     OW33106   3.580   0.312   7.057 -0.8989 -0.0372 -0.0950
 7215SOL    HW133107   3.515   0.366   7.012 -3.4485 -1.9572  1.2344
 7215SOL    HW233108   3.543   0.304   7.145 -0.9417  0.8950 -0.0189
 7216SOL     OW33109   2.760   1.392   8.440  0.6102 -0.0111  0.0189
 7216SOL    HW133110   2.727   1.474   8.401  1.1119  0.8173  1.3326
 7216SOL    HW233111   2.833   1.420   8.495 -0.1570 -0.2617  1.1499
 7217SOL     OW33112   0.843   1.971  11.877 -0.0659  0.6865 -0.3810
 7217SOL    HW133113   0.832   2.032  11.805 -2.4752  1.5764  0.7233
 7217SOL    HW233114   0.749   1.957  11.893  0.1609 -0.6885 -0.3047
 7218SOL     OW33115   1.068   2.449   6.287  0.9158  0.3406 -0.2258
 7218SOL    HW133116   1.060   2.542   6.265  0.2924  1.0299  2.9283
 7218SOL    HW233117   0.976   2.435   6.310  0.6213  2.2926 -0.2067
 7219SOL     OW33118   3.537   4.550   7.855  0.1237 -0.0718 -0.0467
 7219SOL    HW133119   3.581   4.562   7.940  4.6145  2.5827 -2.7512
 7219SOL    HW233120   3.559   4.635   7.818 -0.1323 -0.0421 -0.1283
 7220SOL     OW33121   3.940   3.802  10.772 -0.4855 -0.0673 -0.2482
 7220SOL    HW133122   3.979   3.727  10.816 -1.6010 -0.6252 -0.2286
 7220SOL    HW233123   4.013   3.863  10.757 -1.0222  0.4153 -0.9230
 7221SOL     OW33124   0.893   3.647   3.866  0.0249  0.1752  0.2442
 7221SOL    HW133125   0.895   3.606   3.779  0.2188 -0.2692  0.4577
 7221SOL    HW233126   0.806   3.686   3.874 -0.8272 -1.3794 -1.1796
 7222SOL     OW33127   4.515   4.523  17.564  0.3747 -0.4841 -0.6148
 7222SOL    HW133128   4.558   4.442  17.536  0.1403 -0.3973 -1.2221
 7222SOL    HW233129   4.535   4.582  17.492 -1.0911  2.3507  1.2768
 7223SOL     OW33130   3.150   1.019   3.137  0.2748  0.0124  0.3018
 7223SOL    HW133131   3.116   0.933   3.110  0.2755  0.1664 -0.1781
 7223SOL    HW233132   3.244   1.004   3.145  0.1914 -0.6673  0.0420
 7224SOL     OW33133   4.141   0.659   6.544  0.3557 -0.5610 -0.2357
 7224SOL    HW133134   4.234   0.683   6.542  0.3809 -0.4549  2.0436
 7224SOL    HW233135   4.126   0.656   6.638  1.9386 -4.4056 -0.1104
 7225SOL     OW33136   2.374   0.054   8.787  0.4532  0.6815 -0.2581
 7225SOL    HW133137   2.441   0.014   8.843 -0.2162 -0.2173 -0.0881
 7225SOL    HW233138   2.401   0.138   8.749  0.3966  0.2012 -1.3576
 7226SOL     OW33139   4.600   3.340   2.366 -0.1774 -0.4141 -0.1965
 7226SOL    HW133140   4.618   3.432   2.386  1.9545 -1.1558  1.3922
 7226SOL    HW233141   4.505   3.333   2.380 -0.3008  0.0236 -0.8370
 7227SOL     OW33142   0.046   3.389   8.724  0.0800 -0.1701 -0.1820
 7227SOL    HW133143   0.083   3.323   8.783 -0.0733  1.2109  1.4709
 7227SOL    HW233144   4.719   3.329   8.667  1.6068 -0.1724 -1.4981
 7228SOL     OW33145   3.162   4.259   2.940  0.1278  0.4099 -0.4178
 7228SOL    HW133146   3.216   4.314   2.883 -1.0738  1.0583 -0.9382
 7228SOL    HW233147   3.114   4.207   2.876  0.8251  0.9991 -1.4002
 7229SOL     OW33148   4.592   0.825   8.411 -0.1307  0.4531  0.0219
 7229SOL    HW133149   4.583   0.859   8.500 -1.8349  0.7399 -0.2622
 7229SOL    HW233150   4.663   0.878   8.375  1.7173  0.1632  3.2300
 7230SOL     OW33151   4.350   2.552  11.885 -0.1771  0.6349 -0.1285
 7230SOL    HW133152   4.304   2.499  11.951  0.2031  1.5599  0.8700
 7230SOL    HW233153   4.289   2.556  11.811 -0.8748 -0.2158  0.4041
 7231SOL     OW33154   3.372   3.750  11.995  0.0370 -0.1952  0.2021
 7231SOL    HW133155   3.432   3.821  12.013 -0.4929  0.0999  0.8000
 7231SOL    HW233156   3.432   3.678  11.974 -1.6562 -1.7153  0.5166
 7232SOL     OW33157   3.541   4.678   7.323 -0.2371  0.4723 -0.4260
 7232SOL    HW133158   3.460   4.629   7.309 -0.3539  0.4194  0.4211
 7232SOL    HW233159   3.595   4.610   7.362  0.4340  1.1065 -0.2426
 7233SOL     OW33160   4.489   3.015   3.697 -0.5330  0.2149  0.1405
 7233SOL    HW133161   4.513   3.083   3.760  3.2327  0.4237 -1.5383
 7233SOL    HW233162   4.551   2.945   3.717 -2.4354 -2.1124 -2.0451
 7234SOL     OW33163   2.658   4.464   8.800 -0.4676 -0.9371  0.1964
 7234SOL    HW133164   2.631   4.505   8.882  1.1424  1.0828 -0.2858
 7234SOL    HW233165   2.587   4.400   8.790 -0.4474 -0.6559 -1.7159
 7235SOL     OW33166   1.326   4.474   8.738  0.3542 -0.0673 -0.3703
 7235SOL    HW133167   1.355   4.465   8.647 -0.6697 -2.4505 -0.4588
 7235SOL    HW233168   1.406   4.491   8.788  0.5260 -1.6055 -0.1285
 7236SOL     OW33169   2.213   2.424  17.170 -0.1336  0.3809 -0.3151
 7236SOL    HW133170   2.286   2.438  17.110  0.9837  2.2513  1.4988
 7236SOL    HW233171   2.138   2.457  17.120 -1.3174  0.3777  1.4535
 7237SOL     OW33172   4.094   0.337   7.494  0.0048 -0.0185 -0.0955
 7237SOL    HW133173   4.162   0.371   7.552 -0.1887  1.7275 -0.9225
 7237SOL    HW233174   4.098   0.244   7.516 -2.1117 -0.4753 -1.6820
 7238SOL     OW33175   1.858   3.870   0.577 -0.1294  0.4363  0.2998
 7238SOL    HW133176   1.941   3.917   0.574  0.1415 -0.1177 -0.8324
 7238SOL    HW233177   1.875   3.814   0.653  2.7400 -0.6945 -1.2023
 7239SOL     OW33178   0.926   2.853   4.050  0.6900  0.0533  0.0759
 7239SOL    HW133179   1.008   2.884   4.013  0.3978  1.3611  0.5230
 7239SOL    HW233180   0.950   2.765   4.080 -1.7576 -0.1338  1.4996
 7240SOL     OW33181   0.335   1.986  10.398  0.3942  0.5589  0.3199
 7240SOL    HW133182   0.290   2.009  10.316  0.0505  1.8113  0.8620
 7240SOL    HW233183   0.256   1.976  10.451  0.3672 -3.4297 -0.4450
 7241SOL     OW33184   2.685   4.470   7.286 -0.1408 -0.1167 -0.0582
 7241SOL    HW133185   2.689   4.564   7.302  1.5206 -0.6261  2.6045
 7241SOL    HW233186   2.603   4.458   7.239 -0.0072 -1.3643  0.0175
 7242SOL     OW33187   4.005   2.105   4.289  0.0117  0.1318  0.5789
 7242SOL    HW133188   3.924   2.061   4.261 -1.0090  0.6968  2.6901
 7242SOL    HW233189   3.974   2.196   4.282 -0.5494 -0.0960  0.0206
 7243SOL     OW33190   2.149   1.408   5.347 -0.0532  0.0335 -0.0737
 7243SOL    HW133191   2.242   1.428   5.361 -0.5626  1.7835  0.7786
 7243SOL    HW233192   2.127   1.501   5.341  3.0214  0.6494 -2.0272
 7244SOL     OW33193   2.381   3.893  11.870  0.0580  0.5672  0.3061
 7244SOL    HW133194   2.466   3.900  11.827 -0.8058 -0.3143 -1.5481
 7244SOL    HW233195   2.403   3.939  11.952  1.3478  1.4986 -0.5666
 7245SOL     OW33196   3.426   1.837   6.007 -0.0807  0.8654  0.4108
 7245SOL    HW133197   3.389   1.748   6.006  2.1038 -0.0222 -0.8201
 7245SOL    HW233198   3.358   1.887   5.961 -0.7655 -0.7449 -0.3536
 7246SOL     OW33199   3.663   2.032   3.905 -0.0661 -0.4027 -0.1113
 7246SOL    HW133200   3.593   2.018   3.841 -1.1736  2.0883  0.5665
 7246SOL    HW233201   3.715   1.952   3.903 -0.6266 -0.7510 -0.6313
 7247SOL     OW33202   1.225   2.793   8.208 -0.5285 -0.0582 -0.4431
 7247SOL    HW133203   1.137   2.830   8.203 -0.9019 -0.9862 -0.8856
 7247SOL    HW233204   1.262   2.792   8.120 -1.9396  0.0241 -1.0514
 7248SOL     OW33205   2.079   4.262  14.813  0.1143  0.0327 -0.4992
 7248SOL    HW133206   2.150   4.267  14.748 -0.7275  0.7949 -1.3634
 7248SOL    HW233207   2.034   4.346  14.814 -0.0867 -0.0727 -0.8456
 7249SOL     OW33208   1.696   3.494   8.049 -0.1829 -0.8238 -0.0908
 7249SOL    HW133209   1.748   3.490   7.969 -0.9765  1.7641 -0.7141
 7249SOL    HW233210   1.610   3.524   8.021 -0.7796  0.1592  2.8419
 7250SOL     OW33211   0.194   0.158  11.441  0.0917 -0.1650 -0.4526
 7250SOL    HW133212   0.264   0.214  11.409  0.6473 -0.2814  0.6001
 7250SOL    HW233213   0.131   0.157  11.368  0.4866  0.3181 -0.7987
 7251SOL     OW33214   3.510   3.496   1.367  0.6105  0.1092  0.4025
 7251SOL    HW133215   3.438   3.559   1.374 -0.2342 -1.0240  2.1373
 7251SOL    HW233216   3.500   3.450   1.451 -0.3939  0.3066  0.3918
 7252SOL     OW33217   1.615   4.581  17.578 -0.9699  0.2874 -0.3078
 7252SOL    HW133218   1.678   4.630  17.524  1.9505 -0.7736  2.1690
 7252SOL    HW233219   1.662   4.498  17.581 -0.9947  0.3539  1.9025
 7253SOL     OW33220   3.816   3.671   1.589  0.7271 -0.3622  0.1727
 7253SOL    HW133221   3.822   3.605   1.520 -0.0731  0.0752 -0.3157
 7253SOL    HW233222   3.836   3.750   1.539 -0.1126  1.4315  2.6047
 7254SOL     OW33223   1.172   1.409  10.707  0.0916 -0.1226 -0.5234
 7254SOL    HW133224   1.097   1.349  10.714  0.6095 -0.7916 -0.6374
 7254SOL    HW233225   1.141   1.489  10.749  1.3173  0.6235 -1.0545
 7255SOL     OW33226   0.765   3.071   5.859  0.1313  0.2979 -0.2008
 7255SOL    HW133227   0.777   3.147   5.916  1.5012  2.0930 -2.8826
 7255SOL    HW233228   0.683   3.091   5.813  1.0845  1.5093 -1.3350
 7256SOL     OW33229   1.989   1.088   6.484 -0.3962  1.0337 -0.1753
 7256SOL    HW133230   2.040   1.037   6.421  0.7703  2.3570 -0.3224
 7256SOL    HW233231   1.991   1.043   6.568 -0.5324  0.9309 -0.2278
 7257SOL     OW33232   2.709   3.012   3.987 -0.0051 -0.5374 -0.0999
 7257SOL    HW133233   2.716   2.917   3.988  1.4060 -0.4397 -0.7616
 7257SOL    HW233234   2.736   3.033   3.898 -0.6376 -1.9358 -0.6140
 7258SOL     OW33235   0.041   2.184   8.140  0.4999  0.1063  0.0102
 7258SOL    HW133236   0.090   2.116   8.186 -1.4147 -0.4021  1.2688
 7258SOL    HW233237   0.087   2.185   8.056  1.6717  2.2397  0.6644
 7259SOL     OW33238   0.138   1.896  10.650  0.1182  0.7452 -0.0442
 7259SOL    HW133239   0.047   1.913  10.625 -0.7440 -1.3248  1.6380
 7259SOL    HW233240   0.160   1.808  10.621 -0.4792  0.7079 -0.3838
 7260SOL     OW33241   4.712   1.319   6.230  0.2531 -0.3272  0.1905
 7260SOL    HW133242   4.680   1.401   6.266 -1.1773 -1.0311  0.5267
 7260SOL    HW233243   0.011   1.270   6.309  0.4741  0.9742  0.9408
 7261SOL     OW33244   0.439   1.612   2.415 -0.2852 -0.0500  0.3479
 7261SOL    HW133245   0.419   1.706   2.417  1.4400  0.2906  2.0914
 7261SOL    HW233246   0.531   1.626   2.390 -0.0765 -0.8851  0.6600
 7262SOL     OW33247   0.141   1.732   5.941 -0.7068 -0.0898 -0.2741
 7262SOL    HW133248   0.082   1.806   5.954 -0.7328 -0.1323 -0.1519
 7262SOL    HW233249   0.088   1.667   5.987 -1.2827  0.4994 -0.1153
 7263SOL     OW33250   2.019   4.320   2.077 -0.1650 -0.2074  0.8111
 7263SOL    HW133251   1.953   4.309   2.146 -0.3475 -1.8803  0.3775
 7263SOL    HW233252   2.094   4.269   2.105  0.3729 -1.1597 -2.2984
 7264SOL     OW33253   0.363   2.404   5.782 -0.2964  0.4513  0.0362
 7264SOL    HW133254   0.457   2.389   5.797 -0.1744  1.5952  0.4120
 7264SOL    HW233255   0.319   2.321   5.800 -1.3613  0.7935 -1.0532
 7265SOL     OW33256   2.121   3.145   7.922 -0.2178  0.8260 -0.0455
 7265SOL    HW133257   2.178   3.068   7.919 -0.3219  0.7624 -0.3190
 7265SOL    HW233258   2.048   3.128   7.981  1.3499  2.5270  2.3965
 7266SOL     OW33259   4.597   1.569  10.774 -0.4353  0.1851  0.1658
 7266SOL    HW133260   4.685   1.542  10.801 -0.4360  0.0825  0.0654
 7266SOL    HW233261   4.549   1.487  10.778 -0.6797  0.2824 -0.7162
 7267SOL     OW33262   2.423   4.334   8.779  0.1004 -0.0290 -1.0444
 7267SOL    HW133263   2.427   4.289   8.864  1.6520  2.6621  0.3197
 7267SOL    HW233264   2.345   4.289   8.746  0.5666 -1.3100 -0.4002
 7268SOL     OW33265   4.349   2.905   0.952 -0.2634 -0.3022  0.4502
 7268SOL    HW133266   4.428   2.906   1.007  0.0948  0.2470 -0.0718
 7268SOL    HW233267   4.378   2.960   0.879 -0.1988 -0.2426  0.5199
 7269SOL     OW33268   1.829   0.865   3.205  0.3200  0.0331  0.3616
 7269SOL    HW133269   1.903   0.871   3.265 -1.0735  1.1668  1.9453
 7269SOL    HW233270   1.819   0.960   3.196  0.0495  0.2177  2.6716
 7270SOL     OW33271   4.310   4.699   5.273  0.2363  0.0374 -0.6027
 7270SOL    HW133272   4.329   4.639   5.201 -1.0601 -2.9427  1.5133
 7270SOL    HW233273   4.336   0.057   5.229  0.8366  1.6208  2.6216
 7271SOL     OW33274   3.869   4.051   6.805  0.3992  0.1263 -0.1025
 7271SOL    HW133275   3.808   3.983   6.775 -0.4332  0.5556  0.6267
 7271SOL    HW233276   3.877   4.110   6.730  0.8599 -0.1805 -0.2962
 7272SOL     OW33277   0.670   3.697   9.650 -0.8848  0.0859  0.0099
 7272SOL    HW133278   0.718   3.726   9.727 -0.4274  0.8358 -0.5545
 7272SOL    HW233279   0.685   3.769   9.588 -0.2834  0.0474  0.1080
 7273SOL     OW33280   3.980   1.473   9.346 -0.1112  0.7091 -0.3352
 7273SOL    HW133281   3.997   1.534   9.417 -0.1564 -0.2256  0.4823
 7273SOL    HW233282   3.959   1.535   9.276  2.0805  2.3840  0.5477
 7274SOL     OW33283   4.556   3.465   5.277 -0.6096  0.0118  0.1937
 7274SOL    HW133284   4.487   3.469   5.211 -0.4618 -0.7667 -0.0037
 7274SOL    HW233285   4.528   3.545   5.322  2.9457  2.0622 -1.2523
 7275SOL     OW33286   2.634   2.861  17.012 -0.4272 -0.1628  0.0376
 7275SOL    HW133287   2.652   2.934  16.952 -2.8467  0.1064 -0.3654
 7275SOL    HW233288   2.549   2.876  17.054 -0.5275  0.1402 -0.2678
 7276SOL     OW33289   1.717   3.602   6.778 -0.7696 -0.0619  0.3829
 7276SOL    HW133290   1.705   3.589   6.872  1.1542  0.6463  0.7354
 7276SOL    HW233291   1.762   3.687   6.770 -1.7335  0.3896 -0.2898
 7277SOL     OW33292   0.910   0.921   6.415  0.4127 -0.1137 -0.4750
 7277SOL    HW133293   0.830   0.885   6.453  1.0949  1.0564  2.0845
 7277SOL    HW233294   0.976   0.920   6.484 -0.1703 -1.0402  0.0714
 7278SOL     OW33295   4.701   0.593   2.147 -0.4726  0.3235  0.5549
 7278SOL    HW133296   4.676   0.555   2.231 -0.6318 -0.6901  0.0576
 7278SOL    HW233297   4.688   0.684   2.171 -2.9565  0.1785 -0.1760
 7279SOL     OW33298   0.572   4.525   8.416 -0.2374  0.4997  0.4159
 7279SOL    HW133299   0.496   4.582   8.405 -0.4457  0.3004  0.7959
 7279SOL    HW233300   0.609   4.543   8.330 -2.2918 -0.4212 -0.6431
 7280SOL     OW33301   3.007   2.814  17.468 -0.0024  0.4517 -0.3805
 7280SOL    HW133302   3.083   2.833  17.413 -0.4920  0.6848 -0.9748
 7280SOL    HW233303   3.035   2.856  17.549 -3.2650 -1.4718  1.7643
 7281SOL     OW33304   3.828   3.314   7.156  0.2059  0.1926  0.7760
 7281SOL    HW133305   3.740   3.314   7.194  0.2666 -1.2649  0.9033
 7281SOL    HW233306   3.823   3.404   7.122 -1.8320 -0.3869 -0.4862
 7282SOL     OW33307   1.164   3.150  15.737  0.0263  0.0658 -0.1506
 7282SOL    HW133308   1.109   3.204  15.794 -1.0229  0.8679 -1.9461
 7282SOL    HW233309   1.242   3.204  15.725 -0.2436  0.9125  1.8756
 7283SOL     OW33310   1.620   0.862   3.361  0.4477  0.0141  0.1914
 7283SOL    HW133311   1.650   0.923   3.429  0.0151 -0.6402  0.9744
 7283SOL    HW233312   1.700   0.858   3.309 -0.1012 -0.0298 -0.6345
 7284SOL     OW33313   3.242   2.938   4.009 -0.0727 -0.1974 -0.1040
 7284SOL    HW133314   3.236   2.894   4.093  1.0598 -0.0924  0.0278
 7284SOL    HW233315   3.216   2.863   3.955 -0.2247 -0.4002  0.2498
 7285SOL     OW33316   3.416   1.286   3.479 -0.1055 -0.3101 -0.8770
 7285SOL    HW133317   3.480   1.217   3.495 -1.1638 -1.0151  0.3106
 7285SOL    HW233318   3.420   1.291   3.383 -1.6570  0.6920 -0.8782
 7286SOL     OW33319   0.441   3.156   4.308 -0.4803 -0.0174 -0.1707
 7286SOL    HW133320   0.438   3.251   4.298  0.1505  0.2270  2.0789
 7286SOL    HW233321   0.535   3.139   4.304 -0.3312  0.7914  0.0798
 7287SOL     OW33322   2.776   2.382  12.650 -0.1332 -0.7211 -0.0189
 7287SOL    HW133323   2.815   2.313  12.597 -0.5784  0.4000 -1.7877
 7287SOL    HW233324   2.731   2.329  12.716  0.7836 -3.2708 -1.4322
 7288SOL     OW33325   0.991   0.948  10.782 -0.0223 -0.7734  0.0377
 7288SOL    HW133326   0.957   0.888  10.848 -0.5725 -0.5799 -0.0767
 7288SOL    HW233327   0.970   0.898  10.704  2.2962 -0.5119 -0.7623
 7289SOL     OW33328   1.004   0.931  13.180  0.6502 -0.0694  0.0358
 7289SOL    HW133329   0.927   0.968  13.137  0.5898 -0.4991 -0.2324
 7289SOL    HW233330   0.994   0.962  13.270  2.3006  0.3230  0.0772
 7290SOL     OW33331   0.621   2.941   9.591  0.4266  0.3609 -0.0620
 7290SOL    HW133332   0.641   2.959   9.500 -1.6774 -0.0066 -0.6056
 7290SOL    HW233333   0.554   3.009   9.600  1.7440  1.7149 -0.4502
 7291SOL     OW33334   0.072   0.739  10.596 -0.7278 -0.1774  0.0120
 7291SOL    HW133335   0.142   0.674  10.596 -1.1637 -0.6161  3.1367
 7291SOL    HW233336   0.072   0.789  10.677  1.7952 -0.1228 -0.0332
 7292SOL     OW33337   2.369   1.354   0.883 -0.5829  0.3729  0.0106
 7292SOL    HW133338   2.392   1.446   0.899  2.0612 -0.5230  1.3875
 7292SOL    HW233339   2.441   1.309   0.927 -0.6632 -0.3516 -0.5969
 7293SOL     OW33340   1.787   0.222  11.590  0.4731 -0.3883  0.4388
 7293SOL    HW133341   1.855   0.274  11.547 -1.8761  2.8394  0.5842
 7293SOL    HW233342   1.806   0.137  11.550 -0.4800 -0.1933 -0.4281
 7294SOL     OW33343   0.863   4.413   5.581 -0.2057 -0.0262 -0.1788
 7294SOL    HW133344   0.784   4.448   5.540  0.5752 -0.0792 -1.7213
 7294SOL    HW233345   0.877   4.326   5.543 -1.6516 -0.0675 -0.6044
 7295SOL     OW33346   2.890   1.855   1.404  0.1117  0.1931  0.2247
 7295SOL    HW133347   2.809   1.866   1.354  0.2089  0.5378  0.1385
 7295SOL    HW233348   2.855   1.800   1.474 -1.2054  1.9495  0.9584
 7296SOL     OW33349   0.345   3.389   9.149 -0.1146  0.0765  0.2571
 7296SOL    HW133350   0.334   3.432   9.064  1.5280  0.1159  0.0622
 7296SOL    HW233351   0.430   3.420   9.181 -0.3206 -0.9755  1.7735
 7297SOL     OW33352   2.753   0.072  11.334 -0.3373 -0.2400 -0.0112
 7297SOL    HW133353   2.706   0.124  11.400 -1.1391 -0.4117 -0.4406
 7297SOL    HW233354   2.820   0.034  11.391 -1.2611  2.3444  2.8431
 7298SOL     OW33355   3.319   2.763   2.795 -0.4892 -0.2986 -0.5206
 7298SOL    HW133356   3.402   2.770   2.747  0.0891 -3.1631  0.0499
 7298SOL    HW233357   3.338   2.705   2.868 -1.4010 -1.1304 -0.9472
 7299SOL     OW33358   0.715   2.343  10.865 -0.0478  0.5713 -0.1169
 7299SOL    HW133359   0.740   2.255  10.835 -2.6134  0.1634 -1.1215
 7299SOL    HW233360   0.665   2.338  10.946  1.8579 -1.0914  0.9602
 7300SOL     OW33361   3.714   1.103  13.019 -0.2300 -0.8038  0.5603
 7300SOL    HW133362   3.808   1.120  13.017 -0.8074  2.3498 -1.0955
 7300SOL    HW233363   3.682   1.193  13.016 -0.7119 -1.0014 -0.1796
 7301SOL     OW33364   4.578   2.592   4.178 -0.4343 -0.0059  0.0024
 7301SOL    HW133365   4.626   2.575   4.259  1.0160 -0.1733 -0.8894
 7301SOL    HW233366   4.648   2.574   4.115  0.0601  1.8966  0.0340
 7302SOL     OW33367   0.790   3.706   0.306  0.4337  0.1683 -0.1586
 7302SOL    HW133368   0.816   3.646   0.375 -0.3212 -1.3308 -1.1971
 7302SOL    HW233369   0.843   3.678   0.231  0.6713  0.9225 -0.2822
 7303SOL     OW33370   3.065   4.015   2.694  0.2752 -0.0526  0.1489
 7303SOL    HW133371   3.131   3.972   2.640 -0.9744 -1.5005 -0.2151
 7303SOL    HW233372   3.002   4.048   2.629 -0.7083 -1.5996  0.3298
 7304SOL     OW33373   3.344   4.538   5.454  0.1164 -0.1498  0.5211
 7304SOL    HW133374   3.283   4.608   5.476 -1.3449 -0.7499 -1.6565
 7304SOL    HW233375   3.404   4.583   5.395  0.9826 -1.4504  0.3992
 7305SOL     OW33376   2.601   2.685   1.542  0.5058  0.0266 -0.4492
 7305SOL    HW133377   2.652   2.706   1.620 -0.5796  1.4864 -0.1227
 7305SOL    HW233378   2.574   2.771   1.509  1.5439  0.2604 -0.6870
 7306SOL     OW33379   0.389   2.369   2.178 -0.0026 -0.1538 -0.2172
 7306SOL    HW133380   0.471   2.373   2.228  0.0847 -0.6840 -0.3206
 7306SOL    HW233381   0.354   2.286   2.210  1.4708 -1.2146 -1.3578
 7307SOL     OW33382   3.186   1.526   7.593 -0.7493 -0.2760 -0.5664
 7307SOL    HW133383   3.173   1.433   7.609  0.8366 -0.1579  1.5328
 7307SOL    HW233384   3.133   1.574   7.658  0.2590 -0.8270  0.6612
 7308SOL     OW33385   4.144   0.034   3.782 -0.0859 -0.3026  0.2801
 7308SOL    HW133386   4.219   4.697   3.780 -0.2530 -0.5309  0.7955
 7308SOL    HW233387   4.099   4.719   3.858 -1.4497  3.3686  1.2805
 7309SOL     OW33388   2.736   1.270   3.138  0.3144  0.7496 -0.3835
 7309SOL    HW133389   2.801   1.219   3.188 -0.5623 -0.1272 -0.1413
 7309SOL    HW233390   2.667   1.249   3.200 -1.1772  3.0241 -1.2758
 7310SOL     OW33391   4.217   0.086   2.956 -0.4271 -0.0386  0.0761
 7310SOL    HW133392   4.151   0.141   2.912 -1.2768 -2.8487 -2.1799
 7310SOL    HW233393   4.204   0.103   3.049  2.4782  0.1777  0.4445
 7311SOL     OW33394   4.302   2.764   4.517 -0.4681 -0.1819 -0.1263
 7311SOL    HW133395   4.228   2.740   4.572  1.4930 -2.1808  1.6627
 7311SOL    HW233396   4.305   2.678   4.475 -1.8479  0.3794 -1.3577
 7312SOL     OW33397   2.146   4.448  15.204 -0.4439  0.0466  0.1886
 7312SOL    HW133398   2.115   4.497  15.128 -0.5754 -2.0839 -1.1490
 7312SOL    HW233399   2.171   4.367  15.158  1.2371  0.4099  0.4426
 7313SOL     OW33400   4.143   3.515  10.242 -0.2648  0.3040 -0.1105
 7313SOL    HW133401   4.090   3.551  10.314 -1.0993  0.3923 -0.7701
 7313SOL    HW233402   4.120   3.422  10.242  0.2887  0.1742 -2.2027
 7314SOL     OW33403   4.647   3.299  10.187  0.2378 -0.1258 -0.2720
 7314SOL    HW133404   4.703   3.288  10.264  1.8072  0.2879 -1.3362
 7314SOL    HW233405   4.693   3.368  10.138  0.6616 -0.6821 -0.6617
 7315SOL     OW33406   4.427   3.344   5.973 -0.1114  0.6064 -0.2788
 7315SOL    HW133407   4.410   3.438   5.985 -0.9534  0.2392  1.4066
 7315SOL    HW233408   4.340   3.306   5.956  1.1648 -2.7705  0.8901
 7316SOL     OW33409   4.244   0.739   5.456 -0.0569 -0.0740 -0.9704
 7316SOL    HW133410   4.209   0.792   5.528  3.0580 -0.7422  1.0732
 7316SOL    HW233411   4.199   0.658   5.478  0.0951  0.2813  0.6824
 7317SOL     OW33412   0.648   0.617  11.732  0.4372  0.0565 -0.9926
 7317SOL    HW133413   0.693   0.567  11.663  1.1958 -0.2748 -0.2536
 7317SOL    HW233414   0.611   0.540  11.774 -1.2448  0.2940 -2.0432
 7318SOL     OW33415   2.542   3.827  17.527 -0.3955  0.3402  0.3471
 7318SOL    HW133416   2.586   3.791  17.450 -0.6510 -1.1863  0.9197
 7318SOL    HW233417   2.450   3.817  17.502 -0.7611  0.9204  1.4606
 7319SOL     OW33418   1.524   3.674   9.114 -0.8149 -0.6694 -0.4158
 7319SOL    HW133419   1.483   3.591   9.089 -0.3082 -1.5480  1.6356
 7319SOL    HW233420   1.538   3.713   9.027 -1.2577  0.3016 -0.0521
 7320SOL     OW33421   3.938   1.395   8.700 -0.1500 -0.2182  0.0810
 7320SOL    HW133422   3.846   1.406   8.726  0.0374 -0.5777  0.8869
 7320SOL    HW233423   3.968   1.347   8.777  1.3900  1.7287  0.6979
 7321SOL     OW33424   1.427   0.138   2.296 -0.3194  0.0595 -0.1467
 7321SOL    HW133425   1.480   0.208   2.334 -0.9313  0.7392 -0.5738
 7321SOL    HW233426   1.437   0.151   2.202 -0.2190 -3.2822 -0.6259
 7322SOL     OW33427   2.333   2.917  17.082 -0.4748  0.0986  0.1094
 7322SOL    HW133428   2.276   2.950  17.013 -0.6734  0.8994  0.6681
 7322SOL    HW233429   2.271   2.867  17.136 -0.6048  1.0524  0.8441
 7323SOL     OW33430   0.886   1.209   7.956  0.0191  0.4080  0.4356
 7323SOL    HW133431   0.966   1.190   8.005 -0.0289  0.2355  0.4485
 7323SOL    HW233432   0.845   1.122   7.959 -0.5065  0.6615  0.6944
 7324SOL     OW33433   3.818   2.566   5.516  0.4764  0.1450 -0.3519
 7324SOL    HW133434   3.848   2.635   5.456  1.9339 -3.3385 -3.6378
 7324SOL    HW233435   3.893   2.562   5.575  0.0576 -1.0481  0.0822
 7325SOL     OW33436   0.996   4.560   3.244 -0.0160 -0.0389  0.9326
 7325SOL    HW133437   0.975   4.634   3.187 -2.7545 -0.7577  0.9813
 7325SOL    HW233438   0.922   4.499   3.234 -2.7352  3.4685 -0.2626
 7326SOL     OW33439   1.193   2.906   3.985 -0.1227  0.3156 -0.2663
 7326SOL    HW133440   1.272   2.879   3.938 -0.9684 -1.6206 -0.5908
 7326SOL    HW233441   1.159   2.984   3.941  0.3791 -1.3879 -3.7354
 7327SOL     OW33442   3.739   0.812   4.277 -0.5689  0.0231  0.4905
 7327SOL    HW133443   3.651   0.847   4.264 -0.1850 -0.2530 -2.8853
 7327SOL    HW233444   3.788   0.884   4.238  0.2229  0.5632  2.5156
 7328SOL     OW33445   3.936   1.258   7.163 -0.0153  0.2914 -0.3254
 7328SOL    HW133446   3.920   1.226   7.252 -0.0623  0.6014 -0.2213
 7328SOL    HW233447   4.028   1.231   7.156 -0.2249 -0.7123  0.8559
 7329SOL     OW33448   1.661   1.068   3.552 -0.5716  0.4804  0.4263
 7329SOL    HW133449   1.593   1.038   3.611  0.4885 -1.4644  0.6892
 7329SOL    HW233450   1.744   1.036   3.587 -1.1233 -0.6983  0.6591
 7330SOL     OW33451   2.140   3.526   4.573 -0.5118 -0.1921  0.3904
 7330SOL    HW133452   2.122   3.501   4.482 -1.8211  0.6410  0.4281
 7330SOL    HW233453   2.214   3.584   4.553 -0.3554 -0.6975 -0.5010
 7331SOL     OW33454   0.786   2.570   3.526  0.1787 -0.1730  0.0462
 7331SOL    HW133455   0.857   2.528   3.575  2.5133  1.6038 -1.8208
 7331SOL    HW233456   0.834   2.610   3.453 -1.0279  0.3243 -0.4857
 7332SOL     OW33457   4.442   2.890   9.556  0.7240  0.1874 -0.0229
 7332SOL    HW133458   4.435   2.817   9.617 -0.2954  0.0080 -0.3707
 7332SOL    HW233459   4.359   2.937   9.558  1.6166  1.8909 -2.2022
 7333SOL     OW33460   0.818   4.629   0.223 -0.2247  0.1145  0.3326
 7333SOL    HW133461   0.758   4.703   0.234 -0.5220  0.1126 -1.3389
 7333SOL    HW233462   0.871   4.656   0.148 -0.4576 -0.2542  0.0332
 7334SOL     OW33463   1.440   2.021   3.950  0.5248  0.1916 -0.5039
 7334SOL    HW133464   1.533   2.012   3.934  0.7362  0.2405  0.6594
 7334SOL    HW233465   1.412   1.930   3.962  1.5161 -0.3616 -2.3959
 7335SOL     OW33466   2.218   3.982   8.217  0.5100 -0.1124 -0.4316
 7335SOL    HW133467   2.152   3.917   8.193 -0.7160  2.1779 -3.1529
 7335SOL    HW233468   2.265   3.943   8.291  1.2381  0.9327 -0.3523
 7336SOL     OW33469   0.476   3.229   6.103  0.4394 -0.2499  0.1858
 7336SOL    HW133470   0.444   3.196   6.187 -0.6223 -1.0460 -0.5280
 7336SOL    HW233471   0.398   3.274   6.073 -0.1836 -0.3111  1.7265
 7337SOL     OW33472   2.574   1.928   4.060  0.0062 -0.1931 -0.4541
 7337SOL    HW133473   2.654   1.904   4.013 -0.6881 -1.9415 -0.7314
 7337SOL    HW233474   2.561   1.862   4.128 -0.6410  1.2138  0.7955
 7338SOL     OW33475   4.410   4.333   9.229  0.1745 -0.0011  0.4762
 7338SOL    HW133476   4.362   4.403   9.272 -1.3847 -0.7051 -0.1147
 7338SOL    HW233477   4.361   4.254   9.254  0.7297 -0.1816  0.9826
 7339SOL     OW33478   4.586   1.973  10.600 -0.1996 -0.3499 -0.1804
 7339SOL    HW133479   4.552   1.888  10.627 -0.0304 -0.4977 -0.4373
 7339SOL    HW233480   4.543   1.980  10.514 -2.4477 -0.1711  0.9644
 7340SOL     OW33481   2.747   3.345   7.015  0.2809  0.0476  0.6824
 7340SOL    HW133482   2.672   3.337   7.073 -0.5463 -0.2374 -0.4238
 7340SOL    HW233483   2.809   3.386   7.075  0.5131  0.0590  0.4365
 7341SOL     OW33484   4.514   2.962   6.081  0.4178 -0.3908  0.6573
 7341SOL    HW133485   4.582   2.989   6.020  1.0710 -0.3359  1.4126
 7341SOL    HW233486   4.499   2.870   6.059 -1.1486  0.1517 -0.5054
 7342SOL     OW33487   4.001   2.955   5.235  0.4182 -0.0571 -0.5277
 7342SOL    HW133488   3.952   3.015   5.291  2.4089  0.0789  1.0804
 7342SOL    HW233489   3.986   2.994   5.148  1.5140  1.7595  0.0958
 7343SOL     OW33490   0.845   1.284   0.424 -0.2804 -0.2461 -0.5434
 7343SOL    HW133491   0.938   1.282   0.446 -0.7989 -0.7795  1.5382
 7343SOL    HW233492   0.809   1.315   0.507  1.4565  1.4504 -0.4053
 7344SOL     OW33493   3.230   4.227   2.546 -0.0502 -0.1994 -0.5426
 7344SOL    HW133494   3.250   4.241   2.454 -1.4974  1.3676 -0.6182
 7344SOL    HW233495   3.249   4.133   2.546  0.0199 -0.1850 -1.0415
 7345SOL     OW33496   4.197   0.813  11.671 -0.6240  0.5812 -0.0050
 7345SOL    HW133497   4.219   0.752  11.600 -0.4257  1.5589 -0.7851
 7345SOL    HW233498   4.241   0.892  11.641  0.2217  0.3722  0.6998
 7346SOL     OW33499   3.607   0.103   1.878  0.1218 -0.6712 -0.0945
 7346SOL    HW133500   3.530   0.098   1.822  0.1007  0.5365 -0.1700
 7346SOL    HW233501   3.630   0.194   1.858 -0.9605 -0.7505 -1.7082
 7347SOL     OW33502   4.010   3.359   5.485 -0.2823 -0.0426 -0.5474
 7347SOL    HW133503   4.009   3.352   5.580 -0.3967  2.8200 -0.3403
 7347SOL    HW233504   4.034   3.450   5.503  1.1915 -0.6912  0.8212
 7348SOL     OW33505   1.906   2.867   8.796  0.4094  0.4051 -0.2726
 7348SOL    HW133506   1.965   2.939   8.818 -1.1011  1.6715 -0.3921
 7348SOL    HW233507   1.897   2.876   8.701 -1.5363  1.4681  0.0085
 7349SOL     OW33508   2.502   1.815   5.379 -0.0749 -0.7193 -0.1192
 7349SOL    HW133509   2.426   1.824   5.436 -0.1412  0.0282 -0.3308
 7349SOL    HW233510   2.487   1.899   5.336  2.5002  0.8492  2.1108
 7350SOL     OW33511   4.462   1.970   3.218  0.4195  0.3205  0.0494
 7350SOL    HW133512   4.472   1.876   3.232  1.7886  0.4020 -0.3851
 7350SOL    HW233513   4.538   2.008   3.264  0.4911 -1.5453  1.4716
 7351SOL     OW33514   2.281   0.873   7.305  0.3996 -0.6713  0.1009
 7351SOL    HW133515   2.373   0.846   7.310  0.4924 -0.2984  0.3930
 7351SOL    HW233516   2.287   0.935   7.377  1.2151  0.1826 -0.7119
 7352SOL     OW33517   3.259   3.198   7.845  0.3220 -0.0391  0.2597
 7352SOL    HW133518   3.340   3.224   7.890  0.6213  0.4404 -0.5603
 7352SOL    HW233519   3.224   3.283   7.821 -1.3267 -0.1890  2.1423
 7353SOL     OW33520   1.453   4.032   9.273 -0.1415 -0.2704  0.1276
 7353SOL    HW133521   1.438   4.055   9.365  1.7422 -0.6416  0.5282
 7353SOL    HW233522   1.432   3.939   9.280  2.2151 -0.6926  1.6057
 7354SOL     OW33523   0.419   2.070   9.931 -0.3296 -0.2108 -0.0108
 7354SOL    HW133524   0.427   1.995   9.990  2.0225  0.8486  0.9856
 7354SOL    HW233525   0.460   2.042   9.849  0.2189 -0.1093  0.2312
 7355SOL     OW33526   3.397   1.519   6.485  0.2626 -0.1543 -0.1662
 7355SOL    HW133527   3.465   1.579   6.457 -0.7867 -0.0501 -2.5007
 7355SOL    HW233528   3.435   1.485   6.566  1.9318 -2.0589 -1.7394
 7356SOL     OW33529   2.554   3.930   3.674 -0.9079 -0.3020  0.1734
 7356SOL    HW133530   2.547   3.846   3.719  0.6435  0.4007  1.7249
 7356SOL    HW233531   2.491   3.975   3.731 -1.8899 -0.5155 -0.7432
 7357SOL     OW33532   0.372   1.287   9.627  0.4566  0.5043  0.1840
 7357SOL    HW133533   0.371   1.197   9.595  0.0132  0.9571 -1.0705
 7357SOL    HW233534   0.465   1.305   9.638  0.6585 -1.0582  1.0753
 7358SOL     OW33535   4.241   2.479  17.311 -0.5767  0.2500  0.3565
 7358SOL    HW133536   4.243   2.434  17.226 -0.3752  0.7383  0.1016
 7358SOL    HW233537   4.281   2.409  17.362  3.0998  2.8719  1.0304
 7359SOL     OW33538   2.491   2.950   4.780  0.8658 -0.2866 -0.7005
 7359SOL    HW133539   2.461   3.034   4.745  0.6465 -0.7525 -1.6210
 7359SOL    HW233540   2.584   2.960   4.799  1.0486  0.6108 -2.0711
 7360SOL     OW33541   0.256   0.407   6.801 -0.1581  0.4717  0.3451
 7360SOL    HW133542   0.167   0.397   6.835 -1.2648  2.2615 -2.0051
 7360SOL    HW233543   0.237   0.478   6.740  2.1098  1.2020  0.4803
 7361SOL     OW33544   2.007   4.021   3.723 -0.1489  0.8572 -0.1446
 7361SOL    HW133545   1.974   4.028   3.813  1.1266  0.9986  0.3081
 7361SOL    HW233546   2.076   3.955   3.729 -1.4743 -0.6457 -1.5790
 7362SOL     OW33547   0.739   2.502   8.956 -0.4866  0.1850 -0.4904
 7362SOL    HW133548   0.793   2.443   9.008  0.1476  1.9010  0.7888
 7362SOL    HW233549   0.773   2.587   8.985  1.1741 -0.9637  0.9292
 7363SOL     OW33550   3.962   4.534   6.959  1.0445  0.0938 -0.4436
 7363SOL    HW133551   4.032   4.598   6.972  1.7522 -0.5404 -1.0775
 7363SOL    HW233552   3.962   4.473   7.032  1.8577 -0.5021 -0.9376
 7364SOL     OW33553   1.237   0.984  15.864  0.5023 -0.5015 -0.1361
 7364SOL    HW133554   1.158   0.979  15.810  0.9526 -0.6050 -0.7858
 7364SOL    HW233555   1.255   0.890  15.862  3.3365  0.0121  0.7739
 7365SOL     OW33556   3.020   3.628  11.825 -0.2356  0.0065  0.1295
 7365SOL    HW133557   3.085   3.676  11.773  0.1182 -0.1900  0.3897
 7365SOL    HW233558   3.025   3.672  11.910 -1.2042  2.1972 -0.9428
 7366SOL     OW33559   1.276   2.786   3.144 -0.3752  0.4932 -0.1800
 7366SOL    HW133560   1.334   2.824   3.210  1.3750 -0.1560 -1.3382
 7366SOL    HW233561   1.215   2.859   3.138 -4.0485 -2.7132 -1.8276
 7367SOL     OW33562   2.888   3.263   7.304 -0.2167 -0.1751 -0.0920
 7367SOL    HW133563   2.970   3.293   7.344  0.0659  0.9117 -1.5172
 7367SOL    HW233564   2.867   3.324   7.233 -1.2754  0.4814  0.7671
 7368SOL     OW33565   2.226   4.513   7.865 -0.1422 -0.1263 -0.1587
 7368SOL    HW133566   2.256   4.423   7.859  0.4825  0.0856 -0.1787
 7368SOL    HW233567   2.146   4.502   7.918  1.0751 -2.5118  1.1915
 7369SOL     OW33568   3.360   0.306  14.420 -0.5689  0.0352  0.2086
 7369SOL    HW133569   3.403   0.345  14.496  0.4126 -0.8281  0.1078
 7369SOL    HW233570   3.284   0.260  14.454 -0.4452 -0.1506  0.2363
 7370SOL     OW33571   1.399   3.098   3.606  0.4842 -0.6780  0.1254
 7370SOL    HW133572   1.306   3.113   3.627  0.0414 -0.6750 -1.8232
 7370SOL    HW233573   1.411   3.163   3.537  1.1559 -0.0258  0.8641
 7371SOL     OW33574   3.878   2.469   1.611 -0.1880  0.6874  0.5246
 7371SOL    HW133575   3.872   2.480   1.516 -2.9581 -2.9170  0.3013
 7371SOL    HW233576   3.966   2.501   1.629  1.0820 -1.7921 -1.3445
 7372SOL     OW33577   1.900   2.163   4.435 -0.2553 -0.1007  0.0718
 7372SOL    HW133578   1.911   2.257   4.423 -0.7397  0.2522  2.4618
 7372SOL    HW233579   1.989   2.132   4.417 -0.4323  0.0906 -1.1199
 7373SOL     OW33580   4.187   1.592  17.109  0.0657  0.5519  0.1350
 7373SOL    HW133581   4.277   1.583  17.139 -0.0022 -1.6167 -0.2698
 7373SOL    HW233582   4.199   1.643  17.029 -2.5873  0.3696 -0.3994
 7374SOL     OW33583   0.466   4.047   8.224 -0.1571 -0.4426 -0.5711
 7374SOL    HW133584   0.468   4.106   8.299  0.1599 -0.4624 -0.5625
 7374SOL    HW233585   0.401   4.082   8.163  1.7952 -0.6552 -2.7852
 7375SOL     OW33586   3.980   3.293   5.766  0.2399 -0.1352 -0.0585
 7375SOL    HW133587   4.003   3.358   5.834 -1.0836  1.2233 -0.9058
 7375SOL    HW233588   3.888   3.315   5.751 -0.2339 -0.0941  2.8531
 7376SOL     OW33589   4.537   3.114   4.958  0.4144  0.1910  0.5706
 7376SOL    HW133590   4.606   3.063   4.914 -1.3938  0.1870 -2.2967
 7376SOL    HW233591   4.477   3.125   4.884 -1.2524  1.6557  2.1504
 7377SOL     OW33592   0.097   0.192   7.889  0.4063 -0.1222 -0.0440
 7377SOL    HW133593   0.088   0.286   7.901  1.1687 -0.0026 -0.4398
 7377SOL    HW233594   0.008   0.176   7.857  0.3899  1.4653 -0.7994
 7378SOL     OW33595   0.315   1.551   4.517  0.3892  0.5552 -0.6754
 7378SOL    HW133596   0.408   1.550   4.541 -0.6653  1.1777  3.3470
 7378SOL    HW233597   0.317   1.494   4.440  3.0269  2.7434 -2.2590
 7379SOL     OW33598   1.034   4.503  15.232 -0.2515 -0.1977 -0.2458
 7379SOL    HW133599   1.037   4.427  15.289 -2.4851 -1.1280 -1.3662
 7379SOL    HW233600   1.128   4.521  15.223 -0.3176  0.7880  1.1128
 7380SOL     OW33601   4.207   4.597   1.898 -0.4254 -0.0198 -0.1431
 7380SOL    HW133602   4.141   4.661   1.871  0.4304  0.6441 -0.6539
 7380SOL    HW233603   4.180   4.526   1.840 -0.1467 -0.3285  0.1027
 7381SOL     OW33604   4.553   2.543   3.521 -0.1157  0.2004 -0.3663
 7381SOL    HW133605   4.643   2.536   3.553 -0.6075 -2.8613  0.3688
 7381SOL    HW233606   4.519   2.458   3.551  0.9096  0.6845  2.1924
 7382SOL     OW33607   4.066   1.720   3.853  0.0139  0.5567 -0.1264
 7382SOL    HW133608   4.087   1.646   3.796 -2.7202 -0.0589 -0.3570
 7382SOL    HW233609   4.151   1.763   3.856  0.6088 -0.6884  0.9270
 7383SOL     OW33610   3.307   3.107   0.383 -0.2972 -0.1240 -0.5028
 7383SOL    HW133611   3.349   3.193   0.387 -0.6895  0.1087 -1.3152
 7383SOL    HW233612   3.329   3.070   0.469 -1.1221 -1.5400 -0.9005
 7384SOL     OW33613   4.702   1.548   6.038 -0.1575 -0.3350 -0.3049
 7384SOL    HW133614   4.715   1.468   6.090 -0.9482  0.4098  1.0509
 7384SOL    HW233615   4.619   1.528   5.996 -0.3810  0.5933 -0.2999
 7385SOL     OW33616   3.175   1.485   6.302 -0.1402  0.3099  0.1469
 7385SOL    HW133617   3.163   1.416   6.367 -0.8361 -1.2598 -1.6443
 7385SOL    HW233618   3.225   1.540   6.362 -2.3941  1.5926  0.8491
 7386SOL     OW33619   2.510   3.019   6.904 -0.5491 -0.0497 -0.3139
 7386SOL    HW133620   2.602   3.020   6.932 -0.7495  2.7339  0.2442
 7386SOL    HW233621   2.483   2.937   6.946 -0.0781  0.5674  1.1947
 7387SOL     OW33622   2.192   4.107   4.192 -0.1480  0.4598 -0.4596
 7387SOL    HW133623   2.205   4.033   4.251 -1.4587  1.8680  1.5902
 7387SOL    HW233624   2.173   4.166   4.265  1.3281 -0.7254  0.9033
 7388SOL     OW33625   1.751   4.117   2.608  0.4458  0.1776  0.3388
 7388SOL    HW133626   1.774   4.093   2.698  1.1870 -0.5245 -0.0360
 7388SOL    HW233627   1.792   4.049   2.554  1.4407  0.2234  1.0353
 7389SOL     OW33628   2.004   3.447   8.014 -0.3270 -0.0686 -0.4719
 7389SOL    HW133629   2.096   3.442   8.040 -0.3658 -0.2569 -0.3738
 7389SOL    HW233630   1.957   3.458   8.097  4.6113  0.9318  2.2324
 7390SOL     OW33631   4.163   1.112   7.068  0.1140  0.0598  0.0014
 7390SOL    HW133632   4.209   1.095   6.986 -1.4245 -0.0804 -0.8425
 7390SOL    HW233633   4.235   1.085   7.125 -0.9785 -0.9800  0.9137
 7391SOL     OW33634   3.797   4.028   9.084  0.0772  0.0644  0.3783
 7391SOL    HW133635   3.860   4.081   9.131 -1.1039  1.3957  0.4808
 7391SOL    HW233636   3.856   3.982   9.025 -0.3261 -1.2086  0.9854
 7392SOL     OW33637   1.859   4.465   8.938 -0.3078  0.8574 -0.1088
 7392SOL    HW133638   1.898   4.382   8.965 -0.5822 -0.0814 -2.6490
 7392SOL    HW233639   1.903   4.475   8.854  1.0309  0.5178  0.5415
 7393SOL     OW33640   2.441   4.189   5.210 -0.5015  0.4229  0.4990
 7393SOL    HW133641   2.489   4.224   5.285 -0.4654 -0.4815  0.8982
 7393SOL    HW233642   2.352   4.219   5.229 -0.1569  1.4736  0.4402
 7394SOL     OW33643   1.513   1.040  12.665  0.3192 -0.3767  0.0525
 7394SOL    HW133644   1.485   1.041  12.574 -1.1433  2.9958  0.4955
 7394SOL    HW233645   1.599   0.999  12.662 -0.0377 -1.0904 -0.3211
 7395SOL     OW33646   2.855   4.309   3.862  0.4187  0.1251 -0.0489
 7395SOL    HW133647   2.805   4.229   3.849  0.6028 -0.3668  2.1390
 7395SOL    HW233648   2.809   4.362   3.797 -1.3196 -0.5928  0.5876
 7396SOL     OW33649   0.668   2.896   4.115 -0.2713  0.0081 -0.2782
 7396SOL    HW133650   0.759   2.891   4.083  0.1101  0.8570  0.6700
 7396SOL    HW233651   0.688   2.961   4.183  0.2960  1.1059 -1.4807
 7397SOL     OW33652   3.193   3.530   7.040  0.5532  0.4723 -0.1150
 7397SOL    HW133653   3.233   3.484   7.113  1.5544  1.0810 -0.2797
 7397SOL    HW233654   3.224   3.465   6.977  0.9821 -0.1956  0.7996
 7398SOL     OW33655   2.071   1.018   5.120 -0.1477 -0.0914 -0.4523
 7398SOL    HW133656   2.152   0.971   5.138 -1.1506 -1.6537 -0.0540
 7398SOL    HW233657   2.116   1.102   5.108  0.8539 -0.0652  3.5366
 7399SOL     OW33658   1.018   0.617   6.709 -0.1681  0.4979 -0.1135
 7399SOL    HW133659   0.932   0.657   6.718  1.4691  3.2310  3.8191
 7399SOL    HW233660   1.076   0.693   6.718  1.1588 -0.7515  2.2016
 7400SOL     OW33661   3.767   0.605   1.839  0.3308  0.1645  0.1354
 7400SOL    HW133662   3.694   0.577   1.895 -0.3761 -0.5422 -1.1245
 7400SOL    HW233663   3.841   0.565   1.884  0.9206  0.7522 -0.3202
 7401SOL     OW33664   3.013   3.167   1.449  0.3594  0.0698 -0.1859
 7401SOL    HW133665   3.056   3.121   1.377  0.0212  2.4027 -1.8900
 7401SOL    HW233666   2.946   3.103   1.471  1.4867 -1.0989 -0.1652
 7402SOL     OW33667   4.210   0.214  12.124  0.3098 -0.0817  0.0771
 7402SOL    HW133668   4.304   0.198  12.123  0.5108  0.9521  2.9765
 7402SOL    HW233669   4.185   0.179  12.038 -0.9722 -0.9581  0.8069
 7403SOL     OW33670   0.894   4.551  12.775 -0.0118 -0.3770  0.1181
 7403SOL    HW133671   0.945   4.614  12.825 -1.4112 -0.0823  1.1557
 7403SOL    HW233672   0.961   4.484  12.760 -0.0440 -0.2445 -0.5912
 7404SOL     OW33673   2.390   0.645   4.294  0.7850 -0.0015 -0.4368
 7404SOL    HW133674   2.421   0.579   4.356 -2.5553 -0.9610  0.2469
 7404SOL    HW233675   2.409   0.591   4.217 -0.2681 -1.4366  0.3048
 7405SOL     OW33676   1.283   1.997   3.497 -0.0447 -0.0723 -0.1795
 7405SOL    HW133677   1.258   2.088   3.481  0.5315  0.0184 -0.5848
 7405SOL    HW233678   1.354   2.018   3.558 -1.1375  1.2830  0.6122
 7406SOL     OW33679   0.117   2.754   2.834  0.1309 -0.2318 -0.5869
 7406SOL    HW133680   0.194   2.810   2.825 -0.7549  0.9208 -0.9806
 7406SOL    HW233681   0.126   2.729   2.926  4.0155 -1.4720 -1.3178
 7407SOL     OW33682   4.433   0.193   5.058  0.4593 -0.2629  0.2826
 7407SOL    HW133683   4.340   0.215   5.049  1.0983  1.8510 -1.2271
 7407SOL    HW233684   4.477   0.275   5.081 -1.0169 -0.1814  2.7331
 7408SOL     OW33685   2.461   4.094   1.173 -0.3256 -0.2761  0.4006
 7408SOL    HW133686   2.475   4.013   1.126  3.7466  0.5847  0.1620
 7408SOL    HW233687   2.411   4.135   1.102 -2.0629 -2.3320  0.4583
 7409SOL     OW33688   3.509   0.742   3.711 -0.4914  0.3928 -0.3139
 7409SOL    HW133689   3.567   0.668   3.732  0.7649  1.9268  1.5893
 7409SOL    HW233690   3.538   0.794   3.785  0.5462 -0.0005 -0.4315
 7410SOL     OW33691   2.185   3.964  15.041  0.0651  0.5236  0.3683
 7410SOL    HW133692   2.280   3.968  15.028 -0.3615  1.1262 -2.6308
 7410SOL    HW233693   2.187   3.887  15.099  0.7685 -0.2816 -0.7179
 7411SOL     OW33694   0.702   0.215  12.914 -0.8352 -0.3613 -0.0559
 7411SOL    HW133695   0.628   0.267  12.882  0.0289  0.6767 -0.3226
 7411SOL    HW233696   0.765   0.282  12.941  0.9180 -2.0345  0.0084
 7412SOL     OW33697   1.721   3.086   3.010  0.0298  0.1233 -0.6998
 7412SOL    HW133698   1.739   3.176   3.037 -1.0588 -1.1334  4.1458
 7412SOL    HW233699   1.724   3.101   2.915  1.6257  0.4196 -0.5914
 7413SOL     OW33700   2.466   1.427   6.237 -0.6449  0.3172 -0.1566
 7413SOL    HW133701   2.487   1.494   6.303 -0.0330  1.2388 -1.2838
 7413SOL    HW233702   2.406   1.376   6.292 -0.0000  0.7709  0.9793
 7414SOL     OW33703   1.328   1.835   5.903 -0.1861 -0.2116  0.4198
 7414SOL    HW133704   1.390   1.763   5.890 -0.6147 -0.1661 -1.9435
 7414SOL    HW233705   1.353   1.894   5.831 -1.9920  1.9154  1.5482
 7415SOL     OW33706   4.513   2.356   6.003  0.4102 -0.3964  0.0757
 7415SOL    HW133707   4.596   2.396   6.030 -0.5576  1.4337  0.3227
 7415SOL    HW233708   4.503   2.394   5.916 -0.4880 -0.5982  0.0884
 7416SOL     OW33709   2.276   1.005   4.738 -0.4060 -0.5227 -0.1445
 7416SOL    HW133710   2.321   1.007   4.653  0.6469  2.5915  0.5223
 7416SOL    HW233711   2.344   1.039   4.795 -1.4134  1.1926  0.0205
 7417SOL     OW33712   3.136   4.556   3.126 -0.9273  0.3787 -0.3471
 7417SOL    HW133713   3.127   4.464   3.151  0.2743  0.2934 -0.2331
 7417SOL    HW233714   3.230   4.569   3.128 -0.7797 -0.5024 -2.0120
 7418SOL     OW33715   1.878   0.171   7.623 -0.4818 -0.1876 -0.0182
 7418SOL    HW133716   1.965   0.140   7.649 -0.0907  1.5845  0.8350
 7418SOL    HW233717   1.827   0.109   7.675 -1.0606 -0.9782 -1.5383
 7419SOL     OW33718   0.393   4.686   9.956 -0.3574  0.2364 -0.2784
 7419SOL    HW133719   0.392   4.705   9.862  1.5325  1.6946 -0.0119
 7419SOL    HW233720   0.359   0.047   9.989  1.7122  0.1170  2.1175
 7420SOL     OW33721   2.009   4.446   8.707  0.4382  0.2189 -0.0952
 7420SOL    HW133722   1.952   4.474   8.636 -0.8905 -0.0816  0.8472
 7420SOL    HW233723   2.070   4.519   8.700  1.3146 -0.6687 -1.6273
 7421SOL     OW33724   3.698   4.569   2.229 -0.5454  0.2018 -0.4987
 7421SOL    HW133725   3.615   4.535   2.194 -1.8571 -0.0563  2.8629
 7421SOL    HW233726   3.696   4.550   2.322 -1.0698  0.8546 -0.3757
 7422SOL     OW33727   1.170   3.613   2.768 -0.7721  0.2525  0.1157
 7422SOL    HW133728   1.143   3.642   2.681  0.5567 -1.1475 -0.7699
 7422SOL    HW233729   1.085   3.592   2.808 -1.7597 -0.6313 -2.3963
 7423SOL     OW33730   2.243   2.873  12.288  0.2329 -0.6198 -0.1411
 7423SOL    HW133731   2.180   2.939  12.259 -0.9175 -1.3386  0.7407
 7423SOL    HW233732   2.324   2.917  12.260 -0.3175  2.0044  2.4523
 7424SOL     OW33733   3.619   0.703  13.631  0.5299  0.1570  0.1119
 7424SOL    HW133734   3.610   0.612  13.657  1.0871  0.4416  1.3111
 7424SOL    HW233735   3.552   0.731  13.694  0.2854 -3.0147  1.2542
 7425SOL     OW33736   1.690   0.597  15.504 -0.0841  0.1703 -0.2215
 7425SOL    HW133737   1.698   0.599  15.409 -1.1182  1.2320 -0.2806
 7425SOL    HW233738   1.755   0.661  15.534  2.1993 -2.3750  0.3515
 7426SOL     OW33739   2.059   3.294   5.681  0.0635 -0.0064  0.0086
 7426SOL    HW133740   1.980   3.348   5.687  0.6796  1.1363 -2.5273
 7426SOL    HW233741   2.018   3.208   5.679 -0.3990  0.2066  0.3781
 7427SOL     OW33742   1.090   3.337   6.272 -0.2457 -0.6472  0.0505
 7427SOL    HW133743   1.160   3.306   6.215 -1.4394 -0.4773 -1.5317
 7427SOL    HW233744   1.129   3.312   6.356  0.2603 -0.9310 -0.2730
 7428SOL     OW33745   1.044   0.762   8.339  0.0922  0.6817  0.2511
 7428SOL    HW133746   1.004   0.843   8.369  0.9172  0.6883  1.3357
 7428SOL    HW233747   1.119   0.800   8.292 -0.0555  1.3480  0.5568
 7429SOL     OW33748   2.278   3.347  13.773  0.3353 -1.0665  0.0383
 7429SOL    HW133749   2.219   3.418  13.746 -0.3975 -1.3998  0.7544
 7429SOL    HW233750   2.315   3.332  13.686 -0.6861  1.4201 -0.8358
 7430SOL     OW33751   0.028   3.074   2.093  0.0603 -0.0448  0.0012
 7430SOL    HW133752   0.113   3.064   2.049 -0.2537 -0.7568 -0.4391
 7430SOL    HW233753   0.039   3.014   2.167 -0.9881 -1.2201 -0.8025
 7431SOL     OW33754   2.953   2.427   3.394  0.3464  0.7649 -0.7283
 7431SOL    HW133755   2.891   2.384   3.452 -0.4242  3.3508  0.3857
 7431SOL    HW233756   2.899   2.444   3.317  1.0899  1.7125 -1.0389
 7432SOL     OW33757   0.913   1.513   5.997  0.1099  0.4159 -0.2405
 7432SOL    HW133758   0.922   1.423   5.966  1.2371  0.1480  0.8593
 7432SOL    HW233759   0.943   1.559   5.919  1.6988  0.6707  0.5215
 7433SOL     OW33760   4.495   2.987   9.034  0.0337  0.2064 -0.1560
 7433SOL    HW133761   4.544   2.905   9.037 -1.5253 -0.6743  1.2212
 7433SOL    HW233762   4.494   3.008   9.127 -1.0681 -0.4269 -0.0264
 7434SOL     OW33763   3.530   0.544   2.278 -0.1147  0.6257 -0.3682
 7434SOL    HW133764   3.620   0.577   2.283 -0.3938  1.6857 -2.2908
 7434SOL    HW233765   3.531   0.470   2.338 -1.9712 -0.7011 -1.9883
 7435SOL     OW33766   2.321   3.053  13.013 -0.1317 -0.2210 -0.0622
 7435SOL    HW133767   2.374   2.993  12.961 -2.0421 -0.2558 -2.0215
 7435SOL    HW233768   2.301   3.116  12.943 -0.6577  0.3012  0.5602
 7436SOL     OW33769   4.371   3.471   5.597 -0.5231 -0.3400 -0.8652
 7436SOL    HW133770   4.295   3.517   5.635  1.4755  2.8144 -0.6754
 7436SOL    HW233771   4.409   3.538   5.540 -0.9567 -0.2056 -0.9976
 7437SOL     OW33772   1.194   2.525   8.087 -0.2198  0.2223 -0.2182
 7437SOL    HW133773   1.234   2.439   8.102 -1.7508 -0.4463 -0.0130
 7437SOL    HW233774   1.214   2.580   8.163 -1.5481 -0.7053  0.8169
 7438SOL     OW33775   3.977   0.703   6.313 -0.3857  0.1013 -0.2391
 7438SOL    HW133776   3.994   0.723   6.405  0.7692  0.4202 -0.5210
 7438SOL    HW233777   4.057   0.653   6.296  0.3812  0.6019  1.8168
 7439SOL     OW33778   1.998   1.490   3.445  0.7569 -0.2672  0.2129
 7439SOL    HW133779   2.036   1.517   3.528  1.2114  6.0202 -2.0894
 7439SOL    HW233780   1.918   1.447   3.477  1.5548 -1.5214  0.5128
 7440SOL     OW33781   4.303   1.905  14.240  0.1709  0.4722 -0.0727
 7440SOL    HW133782   4.223   1.957  14.235  0.7207  1.4155  0.7828
 7440SOL    HW233783   4.265   1.823  14.270 -0.2352 -0.2795 -2.6254
 7441SOL     OW33784   3.786   4.193   3.103 -0.4958  0.2170  0.4911
 7441SOL    HW133785   3.813   4.237   3.183 -0.8799  2.2810 -0.5325
 7441SOL    HW233786   3.840   4.115   3.118 -1.1598 -0.5150 -0.8553
 7442SOL     OW33787   1.182   1.274   8.799  0.1446 -0.3924 -0.2028
 7442SOL    HW133788   1.100   1.238   8.832  0.5080  0.1025  1.2346
 7442SOL    HW233789   1.190   1.354   8.850 -1.5509 -0.2634 -0.1544
 7443SOL     OW33790   4.507   0.632   3.675  1.0103 -0.2291 -0.0014
 7443SOL    HW133791   4.588   0.634   3.624  0.8652  2.1075 -0.1370
 7443SOL    HW233792   4.538   0.634   3.765  0.6925  1.5845  0.0606
 7444SOL     OW33793   4.467   0.095   4.630 -0.4646  0.2834 -0.2247
 7444SOL    HW133794   4.463   0.111   4.724  0.1074  1.2832 -0.3680
 7444SOL    HW233795   4.528   0.022   4.627 -1.3617 -0.4984  0.9175
 7445SOL     OW33796   0.935   0.985  13.453 -0.3003  0.6563  0.8160
 7445SOL    HW133797   0.917   1.075  13.483 -0.5294  0.8234  0.1724
 7445SOL    HW233798   1.009   0.966  13.510 -1.1539 -0.7175  1.4690
 7446SOL     OW33799   2.236   4.051  16.806 -0.2893  0.1905  0.4438
 7446SOL    HW133800   2.238   4.092  16.719 -1.9158 -6.0737 -2.4627
 7446SOL    HW233801   2.330   4.046  16.825 -0.0065 -0.4393 -1.1094
 7447SOL     OW33802   2.688   4.236   7.044 -0.2267  0.5334  0.4795
 7447SOL    HW133803   2.673   4.319   6.998 -0.6996  0.0009 -0.3244
 7447SOL    HW233804   2.646   4.253   7.128 -0.2534  2.6791  0.0445
 7448SOL     OW33805   4.470   0.300  10.420 -0.0542  0.2365  0.0736
 7448SOL    HW133806   4.558   0.288  10.457  1.1265  1.5600 -2.3470
 7448SOL    HW233807   4.455   0.207  10.407 -0.3545  0.4180 -0.8214
 7449SOL     OW33808   1.195   0.430  15.461  0.3948  0.5411  0.3186
 7449SOL    HW133809   1.264   0.468  15.515 -0.0831 -0.8671  1.9041
 7449SOL    HW233810   1.115   0.480  15.479 -0.1695  0.1068 -0.9930
 7450SOL     OW33811   4.168   2.344   8.256  0.3697  0.0216 -0.1838
 7450SOL    HW133812   4.192   2.379   8.342  0.9285  2.0406 -1.1858
 7450SOL    HW233813   4.133   2.416   8.204 -0.4600  0.3758  0.8616
 7451SOL     OW33814   4.400   0.608   3.386  0.0176 -0.0759 -0.2682
 7451SOL    HW133815   4.446   0.672   3.332 -0.5044  0.6382  0.1239
 7451SOL    HW233816   4.465   0.582   3.450 -0.0493 -3.2133 -1.4672
 7452SOL     OW33817   4.077   0.161   2.305  0.0966  0.0927  0.4048
 7452SOL    HW133818   4.069   0.128   2.394 -0.0452 -0.5870  0.1466
 7452SOL    HW233819   4.032   0.094   2.253 -1.1804  0.0336  1.5930
 7453SOL     OW33820   1.218   4.276   1.873 -0.5105  0.4320  0.4156
 7453SOL    HW133821   1.190   4.358   1.913 -2.0095 -0.2505  0.7261
 7453SOL    HW233822   1.307   4.268   1.909  0.3322  2.3441 -1.1608
 7454SOL     OW33823   0.954   1.575   6.640  0.7011 -0.0598  0.2076
 7454SOL    HW133824   0.917   1.586   6.727  0.6472 -2.4723  0.4791
 7454SOL    HW233825   0.978   1.663   6.612 -1.7618  0.0580 -1.5474
 7455SOL     OW33826   3.944   4.225   9.220  0.2560  0.1206  0.8887
 7455SOL    HW133827   3.985   4.310   9.204 -1.9617  0.8768 -0.7750
 7455SOL    HW233828   3.912   4.244   9.309 -2.8323  2.6744 -0.7644
 7456SOL     OW33829   1.302   1.989  15.315  0.6784  0.2050  0.2203
 7456SOL    HW133830   1.209   1.978  15.293  0.6194 -3.4613  2.2306
 7456SOL    HW233831   1.300   2.077  15.354 -2.7391  0.8180 -1.3039
 7457SOL     OW33832   2.861   0.968  16.968  0.0806  0.0814  0.0279
 7457SOL    HW133833   2.919   0.966  17.045 -1.3736  2.4075  1.1817
 7457SOL    HW233834   2.805   1.045  16.981 -0.3719 -0.3309  0.5573
 7458SOL     OW33835   1.539   0.855  13.495 -0.1976  0.6108 -0.1873
 7458SOL    HW133836   1.455   0.896  13.515 -1.8165 -1.8153 -1.9886
 7458SOL    HW233837   1.602   0.925  13.510  0.9658 -0.0535 -2.0104
 7459SOL     OW33838   1.229   0.958   7.776 -0.0009  0.1344 -0.2175
 7459SOL    HW133839   1.150   0.927   7.820  0.0875  1.5188  0.9091
 7459SOL    HW233840   1.243   0.872   7.737 -1.0323 -0.7180  1.2824
 7460SOL     OW33841   0.608   3.730   6.463 -0.4264 -0.7629  0.1142
 7460SOL    HW133842   0.610   3.691   6.550  1.1229  1.6689  1.1890
 7460SOL    HW233843   0.609   3.650   6.411 -0.2805  0.2621 -1.4957
 7461SOL     OW33844   0.614   0.542   1.098  0.7301  0.6601  0.1984
 7461SOL    HW133845   0.550   0.588   1.043 -0.9289 -0.6464  1.0538
 7461SOL    HW233846   0.595   0.451   1.078 -0.7761  1.2909 -1.3468
 7462SOL     OW33847   2.096   0.448  10.057  0.4427 -0.5939  0.2974
 7462SOL    HW133848   2.067   0.508   9.989  1.2738 -1.0328 -0.4383
 7462SOL    HW233849   2.179   0.432  10.012  0.8996  1.1067  0.5472
 7463SOL     OW33850   3.980   0.565   4.405  0.3519 -0.2543  0.4753
 7463SOL    HW133851   3.954   0.646   4.448  0.4331  0.7389 -1.3611
 7463SOL    HW233852   4.065   0.546   4.445  0.7566 -2.2325 -1.2896
 7464SOL     OW33853   3.325   1.646  17.259 -0.3115  0.4275  0.2884
 7464SOL    HW133854   3.256   1.581  17.249  0.1496 -0.1204  0.7152
 7464SOL    HW233855   3.390   1.581  17.233  0.3997  0.8564  1.0065
 7465SOL     OW33856   3.644   1.111   1.028 -0.4160 -0.3344  0.3668
 7465SOL    HW133857   3.591   1.066   0.963  1.5109 -0.4196 -1.1390
 7465SOL    HW233858   3.702   1.150   0.963  0.3152 -0.4211  0.9575
 7466SOL     OW33859   0.350   2.597   3.376 -0.0384 -0.2699 -0.4831
 7466SOL    HW133860   0.383   2.683   3.352 -0.4725  0.4249  1.4227
 7466SOL    HW233861   0.428   2.542   3.369  1.6946  2.1897 -0.4553
 7467SOL     OW33862   0.712   0.764   3.123 -0.4105 -0.4648  0.3266
 7467SOL    HW133863   0.695   0.736   3.213 -2.1813  0.1029  0.1753
 7467SOL    HW233864   0.644   0.713   3.079 -0.8830 -1.1201  1.8318
 7468SOL     OW33865   4.424   4.390   1.571 -0.3732  0.0336  0.5887
 7468SOL    HW133866   4.344   4.414   1.618 -0.8991 -1.0185  0.2295
 7468SOL    HW233867   4.491   4.419   1.632  2.4635 -1.5896 -1.7468
 7469SOL     OW33868   1.485   4.533   6.624  0.3896 -0.5054  0.0534
 7469SOL    HW133869   1.506   4.440   6.629  1.1210 -0.2652  1.5724
 7469SOL    HW233870   1.409   4.532   6.566 -0.7712  1.6601  1.5534
 7470SOL     OW33871   0.537   1.169   1.473 -0.2875  0.1799 -0.0381
 7470SOL    HW133872   0.527   1.224   1.395  1.1046 -2.1910 -1.9278
 7470SOL    HW233873   0.471   1.211   1.527  1.3570  0.4558  1.7413
 7471SOL     OW33874   4.538   1.461  13.470 -0.0093 -0.2084  0.2069
 7471SOL    HW133875   4.603   1.521  13.506  0.0129 -0.1724  0.1076
 7471SOL    HW233876   4.579   1.418  13.395 -0.1879 -2.0229  1.1543
 7472SOL     OW33877   3.025   1.898   7.093  0.3010 -0.1351  0.1866
 7472SOL    HW133878   2.997   1.820   7.141  0.6865 -0.6409 -0.4117
 7472SOL    HW233879   3.104   1.863   7.051  2.3249  1.7647  2.4155
 7473SOL     OW33880   3.456   1.473  10.515 -0.2717 -0.4323  0.5830
 7473SOL    HW133881   3.494   1.429  10.440 -0.0786 -0.2383  0.5672
 7473SOL    HW233882   3.363   1.461  10.495 -0.2119 -2.1336  1.3997
 7474SOL     OW33883   3.656   1.587   3.512  0.1698  0.3232  0.0731
 7474SOL    HW133884   3.667   1.672   3.554  0.4388  0.1700  0.3148
 7474SOL    HW233885   3.636   1.604   3.420 -1.9617  0.8965  0.6345
 7475SOL     OW33886   3.825   0.039   0.700 -0.1569 -0.1758  0.1832
 7475SOL    HW133887   3.798   0.049   0.791 -3.2349  1.2999 -0.8838
 7475SOL    HW233888   3.917   0.064   0.708 -0.4409  1.1100 -0.5648
 7476SOL     OW33889   3.885   2.409  11.808 -0.3660  0.0350 -0.4331
 7476SOL    HW133890   3.894   2.317  11.784  1.5313  0.2487 -0.5371
 7476SOL    HW233891   3.952   2.442  11.749 -0.9691 -0.0217 -1.1414
 7477SOL     OW33892   2.018   2.768  14.977  0.4947  0.4315  0.1666
 7477SOL    HW133893   2.016   2.743  15.069 -0.6246 -2.3712 -0.5994
 7477SOL    HW233894   2.092   2.829  14.976  0.6011  0.3154  0.6955
 7478SOL     OW33895   2.378   2.143   3.215  0.5311 -0.2085  0.6961
 7478SOL    HW133896   2.379   2.158   3.121 -1.4120 -1.5848  0.4534
 7478SOL    HW233897   2.388   2.047   3.217 -1.2983 -0.3915  1.2355
 7479SOL     OW33898   2.740   4.225   5.806  0.1308 -0.0436 -0.4420
 7479SOL    HW133899   2.785   4.142   5.789  1.1993  0.1425  1.4181
 7479SOL    HW233900   2.742   4.269   5.721 -1.3856  1.3783  0.2672
 7480SOL     OW33901   4.002   4.134  12.368  0.1905 -0.2704  0.4803
 7480SOL    HW133902   3.987   4.228  12.352  0.9677 -0.9516 -4.2458
 7480SOL    HW233903   4.045   4.138  12.453  0.7701 -1.2460  0.2262
 7481SOL     OW33904   2.685   4.422  13.405  0.1670  0.3292 -0.2044
 7481SOL    HW133905   2.647   4.402  13.320  0.2253  0.1701 -0.1922
 7481SOL    HW233906   2.614   4.406  13.467  0.1930 -0.9172 -0.4928
 7482SOL     OW33907   0.564   2.916   5.584 -0.1475 -0.2188  0.5520
 7482SOL    HW133908   0.513   2.937   5.506 -0.1707  1.3541  0.9858
 7482SOL    HW233909   0.619   2.844   5.555 -0.3101  0.1616 -0.6970
 7483SOL     OW33910   2.437   1.070  10.381  0.1410 -0.1463  0.3625
 7483SOL    HW133911   2.368   1.136  10.387  1.5721  1.4009 -0.2389
 7483SOL    HW233912   2.433   1.037  10.471  0.8132  0.8378  0.7451
 7484SOL     OW33913   3.183   4.167   7.726  0.2920  0.0527  0.1605
 7484SOL    HW133914   3.253   4.136   7.783  2.2161  3.0346 -0.6011
 7484SOL    HW233915   3.236   4.193   7.651 -0.2387 -0.3198 -0.3523
 7485SOL     OW33916   0.784   1.775  15.792  0.0573  0.2509  0.1958
 7485SOL    HW133917   0.749   1.864  15.802 -1.3637 -0.1970 -0.6368
 7485SOL    HW233918   0.870   1.786  15.831 -0.0876 -2.2925  1.2395
 7486SOL     OW33919   0.279   3.429   2.526 -0.4722  0.1214 -0.0089
 7486SOL    HW133920   0.238   3.344   2.515 -1.2994 -0.0830  4.9172
 7486SOL    HW233921   0.205   3.490   2.525 -0.6510 -0.0563  1.8624
 7487SOL     OW33922   0.019   0.621   7.651 -0.0830  0.2286 -0.3948
 7487SOL    HW133923   0.113   0.640   7.643 -0.4390  1.3929 -1.9319
 7487SOL    HW233924   0.001   0.561   7.579  1.6865  0.4820 -1.0517
 7488SOL     OW33925   2.401   1.125   2.980  0.3433  0.3415 -0.1313
 7488SOL    HW133926   2.488   1.098   2.951  1.2221  1.1665  1.7589
 7488SOL    HW233927   2.347   1.084   2.912  0.7526  0.5793 -0.5929
 7489SOL     OW33928   1.423   2.888   9.564 -0.5209 -0.2072 -0.3023
 7489SOL    HW133929   1.467   2.813   9.523 -1.5250 -0.2509 -1.3016
 7489SOL    HW233930   1.355   2.847   9.618 -0.1050 -0.6583 -0.1167
 7490SOL     OW33931   4.166   0.186   6.644  0.3832 -0.3913  0.3786
 7490SOL    HW133932   4.193   0.267   6.600 -1.8236  0.0454 -0.1914
 7490SOL    HW233933   4.137   0.134   6.569 -2.3624  2.3417 -0.4501
 7491SOL     OW33934   2.111   1.624  13.486  0.4506  0.7542 -0.5059
 7491SOL    HW133935   2.074   1.620  13.398  2.5064 -1.9583 -1.2315
 7491SOL    HW233936   2.045   1.576  13.537  0.3455  0.3578 -1.0162
 7492SOL     OW33937   1.150   3.847   6.913  0.5861  0.0842  0.0981
 7492SOL    HW133938   1.186   3.781   6.972 -0.4642 -1.1807 -0.6925
 7492SOL    HW233939   1.157   3.801   6.830  0.6641  0.3672 -0.0529
 7493SOL     OW33940   3.002   4.715   2.623 -0.7927  0.4202  0.0396
 7493SOL    HW133941   3.007   4.676   2.710  0.4817 -1.2175 -0.7618
 7493SOL    HW233942   2.908   4.702   2.612 -0.7163  0.1473 -0.2835
 7494SOL     OW33943   0.580   1.031   6.246 -0.1805 -0.5010 -0.1467
 7494SOL    HW133944   0.508   1.094   6.232  1.1560  1.3611  1.4527
 7494SOL    HW233945   0.643   1.083   6.295 -0.8172  0.2793 -0.1332
 7495SOL     OW33946   0.567   2.262  11.946  0.7069  0.2813  0.0479
 7495SOL    HW133947   0.489   2.250  11.891  1.0140  1.8368 -0.7104
 7495SOL    HW233948   0.628   2.230  11.879  0.2505  0.0302 -0.2513
 7496SOL     OW33949   2.438   2.220   7.050  0.0829 -0.2629 -0.2246
 7496SOL    HW133950   2.398   2.290   6.998 -0.7923 -0.9301 -0.4514
 7496SOL    HW233951   2.429   2.159   6.977  0.3781  0.2878 -0.7182
 7497SOL     OW33952   0.252   0.657   4.541  0.1866  0.5806 -0.5098
 7497SOL    HW133953   0.241   0.680   4.449 -2.3606  2.6862  0.3225
 7497SOL    HW233954   0.341   0.689   4.548  0.7384 -1.6900  2.6828
 7498SOL     OW33955   3.182   0.348   8.460 -0.6509  0.8542  0.0786
 7498SOL    HW133956   3.207   0.435   8.491  0.9616 -1.0230  4.2022
 7498SOL    HW233957   3.128   0.324   8.535  0.4289  1.0768  0.9353
 7499SOL     OW33958   2.800   1.334   4.592  0.5716  0.0007 -0.0195
 7499SOL    HW133959   2.886   1.365   4.622  0.6379  0.6939 -0.9181
 7499SOL    HW233960   2.828   1.250   4.556 -0.5405 -0.9949  1.4687
 7500SOL     OW33961   1.767   1.792  12.368  0.5828  0.2182 -0.3081
 7500SOL    HW133962   1.748   1.867  12.425  0.8100  0.2355 -0.2539
 7500SOL    HW233963   1.737   1.811  12.280 -0.0386  0.1655 -0.1075
 7501SOL     OW33964   3.302   4.512   6.999 -0.0889 -0.0069  0.1275
 7501SOL    HW133965   3.381   4.492   7.049  0.0296 -3.7855 -1.5822
 7501SOL    HW233966   3.268   4.425   6.981 -1.6382  0.2695  1.7223
 7502SOL     OW33967   0.958   1.628   2.651 -0.0563 -0.3245  0.2063
 7502SOL    HW133968   1.023   1.583   2.598 -2.5086  0.2529 -3.2904
 7502SOL    HW233969   0.940   1.708   2.602 -1.9248 -0.8249  0.0583
 7503SOL     OW33970   3.950   0.617   4.148  0.2836 -0.4782  0.2993
 7503SOL    HW133971   3.957   0.587   4.239  2.0572 -0.4916  0.1573
 7503SOL    HW233972   3.931   0.709   4.167 -0.5743 -0.6285  0.1348
 7504SOL     OW33973   3.871   3.950   6.413 -0.1751 -0.0509 -0.8010
 7504SOL    HW133974   3.791   3.910   6.378 -1.4859  1.8003  0.0384
 7504SOL    HW233975   3.934   3.924   6.346 -0.0958 -0.4992 -0.5504
 7505SOL     OW33976   2.203   3.410  12.565 -0.0074  0.0834  0.1238
 7505SOL    HW133977   2.299   3.415  12.558  0.0736  1.6303  2.4927
 7505SOL    HW233978   2.189   3.377  12.476 -2.1596 -2.0752  1.2652
 7506SOL     OW33979   1.462   3.560   7.527  0.2423 -0.2480 -0.1767
 7506SOL    HW133980   1.382   3.609   7.546 -0.2989  0.4414 -4.2901
 7506SOL    HW233981   1.527   3.603   7.582 -0.7674 -1.2283  1.7823
 7507SOL     OW33982   2.419   1.102   6.430 -0.1655  0.4554  0.5677
 7507SOL    HW133983   2.347   1.146   6.386  0.8051  1.0962 -0.3620
 7507SOL    HW233984   2.383   1.081   6.517 -0.2402 -1.3268  0.1093
 7508SOL     OW33985   2.179   3.473   2.380 -0.2238  0.3750 -0.2541
 7508SOL    HW133986   2.122   3.537   2.424 -1.7105 -0.3780 -1.0983
 7508SOL    HW233987   2.180   3.404   2.445 -2.5362 -0.2701 -0.9048
 7509SOL     OW33988   1.570   1.857   1.983  0.2284  0.6552 -0.3596
 7509SOL    HW133989   1.491   1.846   1.930  0.6387 -2.8283 -0.2390
 7509SOL    HW233990   1.594   1.767   2.004 -0.8908  0.5033  0.2268
 7510SOL     OW33991   3.528   2.233   5.370  0.0407 -0.6029 -0.1228
 7510SOL    HW133992   3.517   2.277   5.454 -2.8350 -0.3310 -0.6359
 7510SOL    HW233993   3.604   2.281   5.337  0.2070 -0.2330  0.8133
 7511SOL     OW33994   4.102   0.793   9.817 -0.3042 -0.4335  0.5795
 7511SOL    HW133995   4.126   0.812   9.908 -2.4879 -1.1362  1.2902
 7511SOL    HW233996   4.128   0.865   9.759  2.6012 -2.2267 -0.3196
 7512SOL     OW33997   1.755   4.434  13.589  0.1335  0.3253  0.2076
 7512SOL    HW133998   1.680   4.387  13.625  1.1971 -0.8351  0.8844
 7512SOL    HW233999   1.773   4.371  13.519 -0.8200 -1.1995  1.3259
 7513SOL     OW34000   3.272   1.425   2.756  0.7030 -0.1534 -0.2562
 7513SOL    HW134001   3.323   1.471   2.689  0.1131  2.0369  0.7873
 7513SOL    HW234002   3.236   1.495   2.810 -0.3256 -1.6536  0.9972
 7514SOL     OW34003   2.072   2.119   9.577  0.7922  0.2817  0.1566
 7514SOL    HW134004   2.020   2.088   9.651 -1.4157  2.6155 -0.4475
 7514SOL    HW234005   2.058   2.041   9.523 -0.0598  2.0163 -2.0985
 7515SOL     OW34006   0.751   3.948  10.401  0.2097  0.0234  0.1026
 7515SOL    HW134007   0.787   3.942  10.313  0.0967 -1.4168  0.1535
 7515SOL    HW234008   0.810   4.014  10.437 -0.7378  2.2948 -2.5554
 7516SOL     OW34009   4.263   0.865   1.102  0.4231 -0.2653 -0.2933
 7516SOL    HW134010   4.280   0.936   1.164  0.6880 -0.2613 -0.3664
 7516SOL    HW234011   4.338   0.807   1.118  0.7795  0.0607 -0.7639
 7517SOL     OW34012   2.916   3.009   6.343 -0.2880 -0.2086 -0.7192
 7517SOL    HW134013   2.901   3.100   6.319 -0.6023  0.1801  0.9941
 7517SOL    HW234014   2.841   2.989   6.400 -2.6081  3.1187 -2.6061
 7518SOL     OW34015   3.217   2.986   5.054  0.9661  0.5956  0.7906
 7518SOL    HW134016   3.303   2.945   5.057  0.1352 -1.0368  2.1736
 7518SOL    HW234017   3.173   2.928   4.992 -0.7178  1.0210  1.5834
 7519SOL     OW34018   2.197   3.706   7.321  0.1641  0.3036  0.3478
 7519SOL    HW134019   2.241   3.700   7.405 -0.3656  0.0761  0.6105
 7519SOL    HW234020   2.114   3.748   7.344 -0.2169 -0.1263 -0.2449
 7520SOL     OW34021   1.073   1.349  17.485  0.1307 -0.1900  0.3875
 7520SOL    HW134022   1.016   1.423  17.467  2.8248  0.9334 -3.4087
 7520SOL    HW234023   1.022   1.290  17.541 -0.6753 -0.1759 -0.3490
 7521SOL     OW34024   1.373   0.386  11.216  0.1653  0.1631  1.1934
 7521SOL    HW134025   1.392   0.476  11.242 -1.9387  0.0547  3.0977
 7521SOL    HW234026   1.402   0.336  11.293  1.2897 -2.7172 -1.1083
 7522SOL     OW34027   4.333   4.078   9.534  0.3069  0.0938  0.1343
 7522SOL    HW134028   4.350   4.157   9.482  0.7128  0.9315  1.5446
 7522SOL    HW234029   4.238   4.089   9.536  0.2951 -0.1222  0.7177
 7523SOL     OW34030   3.517   3.594   1.098  0.3777 -0.1272 -0.0153
 7523SOL    HW134031   3.499   3.574   1.190 -0.5714 -1.5657 -0.5100
 7523SOL    HW234032   3.547   3.683   1.113 -2.2041  0.7356  0.0059
 7524SOL     OW34033   3.136   1.596  11.340  0.3699  0.7065  0.3164
 7524SOL    HW134034   3.079   1.662  11.300  0.6140  0.4110 -0.5311
 7524SOL    HW234035   3.204   1.583  11.274 -0.2346 -1.7396  0.1734
 7525SOL     OW34036   3.343   3.836   7.633  0.1943 -0.1337 -0.0490
 7525SOL    HW134037   3.258   3.869   7.605  0.4776  0.0808 -0.6461
 7525SOL    HW234038   3.321   3.830   7.726  2.0820  0.8944  0.4839
 7526SOL     OW34039   2.614   3.464   2.867  0.3489 -0.0552 -0.5370
 7526SOL    HW134040   2.583   3.515   2.942 -1.4360  0.9498 -1.9798
 7526SOL    HW234041   2.707   3.486   2.871  0.2764 -0.0166  1.1085
 7527SOL     OW34042   3.063   4.349   1.850 -0.3767 -0.0624  0.2964
 7527SOL    HW134043   2.981   4.394   1.828 -0.6485  0.2771  2.0009
 7527SOL    HW234044   3.112   4.396   1.783 -0.3968  0.2189  0.4798
 7528SOL     OW34045   1.224   3.119   8.305 -0.2344  0.9471  0.1297
 7528SOL    HW134046   1.166   3.184   8.345 -0.1882  0.9700  0.1602
 7528SOL    HW234047   1.168   3.108   8.228  0.9850 -1.5504 -0.3752
 7529SOL     OW34048   2.899   1.083   4.488 -0.7462 -0.1137 -0.1419
 7529SOL    HW134049   2.994   1.074   4.476 -1.1075 -2.7585 -0.9326
 7529SOL    HW234050   2.870   1.001   4.527  1.7817 -0.5922  0.7558
 7530SOL     OW34051   3.087   1.305   3.307  0.0375  0.5229  0.1452
 7530SOL    HW134052   3.126   1.246   3.373 -1.0995 -1.6880 -1.1545
 7530SOL    HW234053   3.060   1.242   3.240 -1.7758  1.3824  0.0870
 7531SOL     OW34054   0.258   4.684   3.451 -0.3138  0.3976  0.3508
 7531SOL    HW134055   0.295   0.040   3.410 -0.5924 -0.3596 -1.3322
 7531SOL    HW234056   0.237   4.638   3.370  2.1759  0.2122 -0.1815
 7532SOL     OW34057   2.201   1.258   5.121  0.1609  0.0464  0.1486
 7532SOL    HW134058   2.278   1.224   5.166  1.9483  0.3817 -2.6714
 7532SOL    HW234059   2.149   1.313   5.179 -2.6822 -2.4650 -0.0320
 7533SOL     OW34060   3.842   2.921   6.544 -0.2390  0.0279 -0.1056
 7533SOL    HW134061   3.799   2.849   6.496  0.7368 -0.2394 -0.5855
 7533SOL    HW234062   3.825   2.997   6.488  1.3395  0.6281  0.2427
 7534SOL     OW34063   4.191   0.919   2.677 -0.2959 -0.0309  0.0677
 7534SOL    HW134064   4.251   0.954   2.743  0.1831 -0.1255 -0.3173
 7534SOL    HW234065   4.150   0.994   2.635  0.4281  0.2225 -0.1888
 7535SOL     OW34066   2.585   1.086   6.727 -0.0159  0.2404 -0.3030
 7535SOL    HW134067   2.490   1.081   6.720  0.0473 -0.0111 -0.9908
 7535SOL    HW234068   2.612   0.995   6.737 -0.6043  0.1915  0.7749
 7536SOL     OW34069   0.599   4.704   8.646 -0.4107  0.0440  0.0514
 7536SOL    HW134070   0.598   4.633   8.581  0.2245  0.1025 -0.0261
 7536SOL    HW234071   0.534   4.663   8.703  0.0789 -0.0354  0.5515
 7537SOL     OW34072   3.237   0.691  12.273  0.7175  0.1894  0.4926
 7537SOL    HW134073   3.146   0.669  12.292  0.2591  0.2564 -1.5404
 7537SOL    HW234074   3.270   0.605  12.246 -1.8952 -1.3234  2.1708
 7538SOL     OW34075   3.366   0.789  17.524 -0.2055  0.2609  0.4137
 7538SOL    HW134076   3.410   0.723  17.471 -3.3477 -0.8186 -0.8021
 7538SOL    HW234077   3.393   0.777  17.615  2.2561  0.3239 -0.2939
 7539SOL     OW34078   2.118   0.173   8.815  0.3435  0.3803  0.1616
 7539SOL    HW134079   2.115   0.188   8.910 -2.0004  0.5841  0.0415
 7539SOL    HW234080   2.189   0.108   8.811 -0.2388 -0.2535  0.1077
 7540SOL     OW34081   1.310   0.144   6.500 -0.3556  0.1438 -0.1155
 7540SOL    HW134082   1.381   0.108   6.446 -0.4751 -2.9312  1.7470
 7540SOL    HW234083   1.276   0.213   6.443 -1.2465 -0.2622 -0.0741
 7541SOL     OW34084   3.528   1.632   2.947  0.0498  0.1488  0.7438
 7541SOL    HW134085   3.491   1.703   2.894  0.6106 -0.8535 -0.9533
 7541SOL    HW234086   3.467   1.626   3.021  0.0142 -0.1376  0.6899
 7542SOL     OW34087   2.611   2.199   3.875  0.6037 -0.3564  0.0375
 7542SOL    HW134088   2.662   2.139   3.822  1.3349  0.5393 -0.2845
 7542SOL    HW234089   2.564   2.140   3.934 -2.8392  2.3424  0.0241
 7543SOL     OW34090   2.094   3.968  14.330 -0.3069  0.9977  0.0809
 7543SOL    HW134091   2.128   4.031  14.267  2.3638 -0.6417 -0.1416
 7543SOL    HW234092   2.101   3.883  14.287 -0.4856  1.6042 -1.1424
 7544SOL     OW34093   2.778   4.642   6.219 -0.0677 -0.1370 -0.0725
 7544SOL    HW134094   2.803   4.549   6.211 -1.5459 -0.4410 -1.1559
 7544SOL    HW234095   2.844   4.667   6.284 -0.7080  1.6210 -0.1246
 7545SOL     OW34096   2.684   3.335   1.166  0.2613  0.1144  0.2057
 7545SOL    HW134097   2.665   3.279   1.242 -2.9306 -0.2532 -0.8770
 7545SOL    HW234098   2.604   3.387   1.171 -1.3054 -2.2933  0.2610
 7546SOL     OW34099   1.725   1.487  10.930 -0.5254 -0.0566  0.5713
 7546SOL    HW134100   1.768   1.556  10.880  0.3160 -1.1818 -0.2527
 7546SOL    HW234101   1.761   1.489  11.019  1.4494  0.4760 -0.2559
 7547SOL     OW34102   4.557   4.708   1.555  0.0761  0.1518  0.3371
 7547SOL    HW134103   4.535   4.617   1.579  0.0767  0.2861  0.8596
 7547SOL    HW234104   4.511   4.706   1.471  0.2780 -1.0016  0.2500
 7548SOL     OW34105   4.665   0.532  12.784  0.9289  0.3263  0.1273
 7548SOL    HW134106   0.037   0.516  12.774  0.8784 -0.0466  0.2477
 7548SOL    HW234107   4.647   0.567  12.872  0.8940  1.6139 -0.3978
 7549SOL     OW34108   1.822   2.719   8.412  0.1590 -0.0202  0.5514
 7549SOL    HW134109   1.749   2.732   8.351 -0.3243 -1.2031  0.8790
 7549SOL    HW234110   1.828   2.797   8.466 -0.0491  0.4732 -0.1286
 7550SOL     OW34111   2.398   1.629  13.500 -0.0500  0.1997 -0.2445
 7550SOL    HW134112   2.412   1.675  13.417 -1.1936  2.1854  0.6752
 7550SOL    HW234113   2.303   1.622  13.508  0.1532 -0.2624  1.7374
 7551SOL     OW34114   3.728   3.708   8.693  0.0142 -0.0116 -0.3813
 7551SOL    HW134115   3.787   3.661   8.751 -0.6315  0.1503  0.4147
 7551SOL    HW234116   3.746   3.799   8.717  1.1993 -0.9767  2.3076
 7552SOL     OW34117   4.581   3.401   4.147  0.0820 -0.1035  0.0236
 7552SOL    HW134118   4.496   3.370   4.115  0.7401 -0.0150 -1.7980
 7552SOL    HW234119   4.556   3.420   4.237  2.0035 -1.2569  0.7857
 7553SOL     OW34120   0.854   1.492   6.270 -0.3624  0.6698 -0.6811
 7553SOL    HW134121   0.842   1.478   6.177  1.6359 -0.1572 -0.8157
 7553SOL    HW234122   0.838   1.586   6.269 -0.1293  0.7322  1.3615
 7554SOL     OW34123   0.818   4.047   3.219  0.2163  0.6196 -0.2637
 7554SOL    HW134124   0.758   4.044   3.144  2.1455  0.3505 -1.7942
 7554SOL    HW234125   0.847   4.138   3.218 -0.9955  1.0092  2.1818
 7555SOL     OW34126   2.114   2.934   6.201 -0.0766  0.0189 -0.1351
 7555SOL    HW134127   2.165   2.973   6.272 -0.3119 -0.7179  0.4469
 7555SOL    HW234128   2.056   2.874   6.248 -0.6626 -0.5011 -1.4983
 7556SOL     OW34129   0.726   0.155   5.222  0.3361  0.2194  0.3563
 7556SOL    HW134130   0.666   0.080   5.226 -1.3741  1.4970 -1.0549
 7556SOL    HW234131   0.789   0.131   5.290 -0.3503  0.9087  1.2477
 7557SOL     OW34132   1.693   3.104  15.337  0.1943 -0.1060  0.1476
 7557SOL    HW134133   1.775   3.101  15.288  0.1507  1.0361  0.0021
 7557SOL    HW234134   1.656   3.188  15.312  0.2154  0.1887  1.1215
 7558SOL     OW34135   3.232   1.054   6.926  0.1050  0.0892 -0.0042
 7558SOL    HW134136   3.170   1.119   6.958 -1.1828 -1.7107  1.1347
 7558SOL    HW234137   3.260   1.101   6.847  0.9620  0.8138  0.7372
 7559SOL     OW34138   2.094   0.171  10.344 -0.0123  0.5315  0.1464
 7559SOL    HW134139   2.054   0.089  10.315  1.9840 -0.4667  0.1674
 7559SOL    HW234140   2.128   0.152  10.432  0.1524 -1.8217 -0.4257
 7560SOL     OW34141   0.945   0.058  10.696  0.2072  0.3418  0.7841
 7560SOL    HW134142   1.012   0.045  10.764 -0.1796 -2.4010  0.6243
 7560SOL    HW234143   0.899   0.134  10.734  1.0792  2.1398 -1.8077
 7561SOL     OW34144   3.323   3.004  16.252 -0.0308  0.1006 -0.5060
 7561SOL    HW134145   3.330   3.023  16.346  1.9215  1.3915 -0.9163
 7561SOL    HW234146   3.387   2.933  16.247 -2.1220 -1.7112 -1.9219
 7562SOL     OW34147   0.985   4.033  15.111 -0.4804  0.0815 -0.1317
 7562SOL    HW134148   0.928   4.077  15.174 -0.2391  1.4460 -0.8845
 7562SOL    HW234149   1.059   4.093  15.109  0.8946 -1.5183  1.7915
 7563SOL     OW34150   3.550   3.252   3.997  0.4976  0.2232 -0.1885
 7563SOL    HW134151   3.515   3.202   4.071  0.7620 -0.7912 -0.7562
 7563SOL    HW234152   3.626   3.301   4.028  1.2687 -0.1086 -1.5643
 7564SOL     OW34153   4.042   4.025   9.501  0.0364 -0.4685  0.2098
 7564SOL    HW134154   4.006   4.114   9.508 -0.2872 -0.4687 -1.3831
 7564SOL    HW234155   3.970   3.964   9.493 -1.3142  0.7331  3.1214
 7565SOL     OW34156   3.399   2.917   6.197 -0.3924  0.8720  0.0622
 7565SOL    HW134157   3.324   2.971   6.223 -1.1308 -0.4423  0.6610
 7565SOL    HW234158   3.370   2.889   6.110  0.2000  0.8768 -0.1378
 7566SOL     OW34159   3.655   0.181   0.498  0.0419  0.0453 -0.0295
 7566SOL    HW134160   3.600   0.192   0.576  0.0235 -2.4773  0.3150
 7566SOL    HW234161   3.736   0.139   0.526  0.5580 -0.0378 -1.6659
 7567SOL     OW34162   2.330   0.777   0.298 -0.4731 -0.2536 -0.3689
 7567SOL    HW134163   2.406   0.778   0.355 -0.0695 -0.3446 -0.9013
 7567SOL    HW234164   2.263   0.813   0.356  0.0459  1.0683 -0.5807
 7568SOL     OW34165   0.858   4.314   3.121 -0.1492 -0.3755  0.1490
 7568SOL    HW134166   0.888   4.292   3.033  1.3524  2.9514 -0.1519
 7568SOL    HW234167   0.772   4.350   3.097 -1.4543 -1.0204  3.9224
 7569SOL     OW34168   4.231   4.014   5.889 -0.5035 -0.3238 -0.2534
 7569SOL    HW134169   4.190   4.084   5.938 -2.0930 -1.8548  0.5991
 7569SOL    HW234170   4.160   3.978   5.835  0.7815 -0.9352 -1.5548
 7570SOL     OW34171   1.633   2.689  14.158 -0.0996 -0.0321 -0.8182
 7570SOL    HW134172   1.707   2.643  14.118 -0.5231 -0.5588 -0.9961
 7570SOL    HW234173   1.583   2.711  14.080 -0.1058  0.1859 -0.7516
 7571SOL     OW34174   2.887   1.038  16.141  0.8577 -0.0618 -0.0651
 7571SOL    HW134175   2.854   1.081  16.220  0.4695  2.7866 -1.7665
 7571SOL    HW234176   2.982   1.045  16.152  1.1388 -0.7845 -1.9084
 7572SOL     OW34177   1.598   1.989   6.999 -0.1626  0.2317 -0.6349
 7572SOL    HW134178   1.641   2.034   6.927  1.8640  0.0256  0.4369
 7572SOL    HW234179   1.592   2.061   7.061  0.8280 -0.4445  0.2622
 7573SOL     OW34180   3.632   0.423  16.048 -0.5883  0.1693 -0.1813
 7573SOL    HW134181   3.620   0.502  15.996 -0.0776  1.5077  1.7424
 7573SOL    HW234182   3.565   0.371  16.004 -0.0831 -0.5347 -0.1211
 7574SOL     OW34183   3.877   2.898  10.932  0.7194  0.0869  0.5881
 7574SOL    HW134184   3.800   2.894  10.989  2.3272  1.5063  2.8589
 7574SOL    HW234185   3.898   2.805  10.924  0.0181 -0.0793  0.7213
 7575SOL     OW34186   2.416   3.939   5.107  0.8033 -0.1474 -0.3188
 7575SOL    HW134187   2.481   3.917   5.174 -0.5485 -1.4079  0.5809
 7575SOL    HW234188   2.401   4.031   5.129 -3.3737 -0.7633 -0.5916
 7576SOL     OW34189   2.161   2.708   3.160 -0.3357 -0.1307  0.1444
 7576SOL    HW134190   2.137   2.700   3.252  0.6510  0.3232  0.4438
 7576SOL    HW234191   2.137   2.797   3.132  1.0616  0.1847 -0.0806
 7577SOL     OW34192   2.056   3.878   2.682  0.7583  0.2275 -0.0474
 7577SOL    HW134193   2.101   3.959   2.657 -0.0862  0.7302  0.0645
 7577SOL    HW234194   1.989   3.911   2.742 -3.1934 -4.6110 -1.8232
 7578SOL     OW34195   0.859   2.580   4.848 -0.1086  0.2634  0.0171
 7578SOL    HW134196   0.924   2.510   4.849 -0.0100  0.3809  1.5276
 7578SOL    HW234197   0.870   2.607   4.757  0.7412  0.5368  0.2018
 7579SOL     OW34198   3.356   3.611   1.971 -0.0177 -0.3422  0.1309
 7579SOL    HW134199   3.383   3.590   1.882 -1.6909  1.1211 -0.7295
 7579SOL    HW234200   3.282   3.671   1.959  0.9045  0.3466 -2.0994
 7580SOL     OW34201   4.656   2.765   3.347  0.4661  0.4852  0.0457
 7580SOL    HW134202   4.637   2.694   3.407  0.1109  2.6237  2.4618
 7580SOL    HW234203   4.705   2.825   3.403 -0.4119 -1.8287  3.2626
 7581SOL     OW34204   4.009   3.298   4.743 -0.2140 -0.1059 -0.0528
 7581SOL    HW134205   3.930   3.251   4.771 -0.0493 -0.6196 -0.4447
 7581SOL    HW234206   3.995   3.311   4.649 -2.6192 -0.3247  0.2711
 7582SOL     OW34207   0.893   3.294   7.803  0.0820 -0.2956 -0.1274
 7582SOL    HW134208   0.956   3.366   7.796  0.6636 -0.9532 -1.6697
 7582SOL    HW234209   0.841   3.318   7.727 -0.5039  1.4702  0.8200
 7583SOL     OW34210   1.825   2.717  11.310 -0.2437  0.2416 -0.0371
 7583SOL    HW134211   1.775   2.636  11.327 -0.9059  0.0747 -2.8442
 7583SOL    HW234212   1.859   2.730  11.398  1.7845  1.1626 -0.9690
 7584SOL     OW34213   1.953   1.254   7.742 -0.2707 -0.7638  0.1446
 7584SOL    HW134214   2.047   1.249   7.723  0.0015  0.0256  1.2939
 7584SOL    HW234215   1.946   1.346   7.718  1.8766 -0.3146  1.2208
 7585SOL     OW34216   0.791   0.772   4.292 -0.0999  0.1599  0.1966
 7585SOL    HW134217   0.698   0.781   4.271 -0.1796 -0.4019  0.3090
 7585SOL    HW234218   0.823   0.850   4.246  0.4297  0.6823  1.4276
 7586SOL     OW34219   3.676   2.233   9.871 -0.5366  0.2840  0.0587
 7586SOL    HW134220   3.668   2.224   9.776 -1.1941 -0.3562  0.1755
 7586SOL    HW234221   3.704   2.324   9.870 -0.0901  0.1308 -1.5174
 7587SOL     OW34222   2.259   2.314   5.388 -0.4090 -0.3188  0.3486
 7587SOL    HW134223   2.195   2.245   5.370 -0.2258  0.1040 -1.9019
 7587SOL    HW234224   2.263   2.359   5.304  0.8853  1.4582  1.3429
 7588SOL     OW34225   1.627   4.327   8.762 -0.1985 -0.0793 -0.4320
 7588SOL    HW134226   1.629   4.358   8.852 -1.5650  1.1796 -0.8221
 7588SOL    HW234227   1.665   4.406   8.724  0.6618 -0.1012  0.3859
 7589SOL     OW34228   1.474   0.568   9.808 -0.2534  0.0915  0.1018
 7589SOL    HW134229   1.524   0.649   9.820  2.1339 -1.2506 -0.8866
 7589SOL    HW234230   1.398   0.584   9.863  0.8269 -0.1841  1.6820
 7590SOL     OW34231   3.158   0.883  11.529  0.2570 -0.2407  0.2849
 7590SOL    HW134232   3.169   0.910  11.438 -2.4969  0.4393  0.1541
 7590SOL    HW234233   3.079   0.829  11.526 -1.3536  2.2067 -1.4008
 7591SOL     OW34234   2.115   3.814   1.680  0.3605  0.3816  0.0445
 7591SOL    HW134235   2.188   3.803   1.742 -0.4602  0.9657  1.1148
 7591SOL    HW234236   2.133   3.884   1.618 -1.1780  0.8945  0.1845
 7592SOL     OW34237   0.628   0.136   0.308  0.2210  0.5002  0.3759
 7592SOL    HW134238   0.617   0.203   0.240 -0.5723 -0.4219 -0.3985
 7592SOL    HW234239   0.699   0.174   0.359 -1.6576  3.5067  0.7973
 7593SOL     OW34240   0.639   4.719  12.784 -0.4958  0.1176 -0.5316
 7593SOL    HW134241   0.690   0.070  12.821 -0.4689  0.7031 -1.7227
 7593SOL    HW234242   0.551   0.034  12.779 -0.8901 -0.8493 -0.6589
 7594SOL     OW34243   0.042   2.883   9.542 -0.4808 -0.6696  0.1989
 7594SOL    HW134244   0.048   2.972   9.509 -0.2753 -0.8246 -0.1762
 7594SOL    HW234245   4.687   2.844   9.500 -0.1676  0.2758 -1.2603
 7595SOL     OW34246   4.279   1.876   4.956 -0.1007  0.2654 -0.0220
 7595SOL    HW134247   4.335   1.810   4.995 -1.7769 -0.8249  0.5429
 7595SOL    HW234248   4.242   1.922   5.031 -0.5252 -1.0365  0.5641
 7596SOL     OW34249   2.155   1.077   7.142 -0.1837 -0.1380  0.0806
 7596SOL    HW134250   2.068   1.048   7.168  0.0149  0.8103  1.8276
 7596SOL    HW234251   2.215   1.035   7.204 -1.0230 -0.0195  0.9797
 7597SOL     OW34252   1.761   4.366   9.976 -0.3360  0.0919 -0.2358
 7597SOL    HW134253   1.683   4.313   9.957  0.5043 -1.4810  0.6861
 7597SOL    HW234254   1.749   4.397  10.066  1.7214  0.0997  0.0275
 7598SOL     OW34255   3.944   0.734   8.234  0.0879 -0.5950 -0.5321
 7598SOL    HW134256   3.948   0.709   8.142 -0.0439  1.0333 -0.9787
 7598SOL    HW234257   3.849   0.739   8.245  0.2644 -0.0983  0.7722
 7599SOL     OW34258   3.166   0.668   7.493 -0.1892  0.2957  0.8046
 7599SOL    HW134259   3.207   0.601   7.547  0.5404  0.0983  0.0017
 7599SOL    HW234260   3.118   0.711   7.564 -0.6054  0.0245  0.6886
 7600SOL     OW34261   2.711   3.196   2.777  0.2940  0.3121 -0.5851
 7600SOL    HW134262   2.627   3.150   2.782  0.4334  0.5568  4.3520
 7600SOL    HW234263   2.695   3.278   2.824  1.6640  0.5782 -0.6025
 7601SOL     OW34264   3.450   3.121  17.490  0.3651 -0.4213 -0.7728
 7601SOL    HW134265   3.363   3.133  17.528  0.8011  0.0844  0.0597
 7601SOL    HW234266   3.467   3.211  17.460 -3.3926  0.6021  0.2177
 7602SOL     OW34267   0.701   3.370   5.772 -0.2597 -0.2533 -0.0272
 7602SOL    HW134268   0.713   3.354   5.865 -3.3860  2.3101  0.8177
 7602SOL    HW234269   0.636   3.301   5.758  1.3911 -1.9809  0.7659
 7603SOL     OW34270   2.284   4.445  16.905  0.1327  0.2710 -0.1615
 7603SOL    HW134271   2.302   4.530  16.944 -1.5045  1.0258 -1.0910
 7603SOL    HW234272   2.346   4.462  16.834 -0.9292 -1.6391 -1.5511
 7604SOL     OW34273   4.273   0.615   1.981  0.0279 -0.0288  0.7130
 7604SOL    HW134274   4.277   0.578   1.893 -1.7504  1.3495  0.0514
 7604SOL    HW234275   4.333   0.689   1.975  1.3375 -1.1346  0.3163
 7605SOL     OW34276   3.841   2.638   3.517 -0.2005 -0.0596 -0.2101
 7605SOL    HW134277   3.898   2.697   3.565  0.1730  0.5817 -1.4298
 7605SOL    HW234278   3.914   2.583   3.487  0.8866  1.9064 -1.1443
 7606SOL     OW34279   0.897   4.462   7.637 -0.1886  0.5132 -0.5657
 7606SOL    HW134280   0.935   4.536   7.589  2.1772  0.7553  1.6741
 7606SOL    HW234281   0.879   4.404   7.564 -3.8529  0.3067  0.5170
 7607SOL     OW34282   4.457   4.580   8.585 -0.1919 -0.3181  0.5591
 7607SOL    HW134283   4.432   4.528   8.508  1.8558 -0.0930 -0.2657
 7607SOL    HW234284   4.464   4.515   8.655  2.0000  1.2843  1.8206
 7608SOL     OW34285   2.594   4.510   5.012  0.1465 -0.0833 -0.3042
 7608SOL    HW134286   2.612   4.521   4.919 -0.9668 -2.4143 -0.7919
 7608SOL    HW234287   2.498   4.506   5.013  0.1150  1.1579  1.3079
 7609SOL     OW34288   3.968   1.826   7.347  0.4798  0.1670 -0.0061
 7609SOL    HW134289   3.943   1.744   7.388  1.6766  0.0034  0.4164
 7609SOL    HW234290   3.919   1.891   7.398  1.0239  1.3336 -0.9683
 7610SOL     OW34291   4.106   3.039   5.751  0.0557  0.0578  0.1864
 7610SOL    HW134292   4.194   3.053   5.786  0.6244 -0.7581 -0.9082
 7610SOL    HW234293   4.091   3.134   5.746 -0.7600 -0.0021  1.5775
 7611SOL     OW34294   3.779   0.025   8.868  1.0889  0.4957  0.2716
 7611SOL    HW134295   3.798   4.654   8.874  0.6990  0.1415 -4.0570
 7611SOL    HW234296   3.732   0.034   8.951 -0.1808 -0.3326 -0.3716
 7612SOL     OW34297   1.533   1.589   7.909 -0.4921  0.0570 -0.0938
 7612SOL    HW134298   1.499   1.667   7.953  1.7677  0.5618  0.7832
 7612SOL    HW234299   1.454   1.547   7.877  0.8973 -0.9028 -2.2661
 7613SOL     OW34300   1.857   3.362   2.572  0.3933 -0.0536  0.1210
 7613SOL    HW134301   1.836   3.294   2.508  1.8292  0.1926 -0.6026
 7613SOL    HW234302   1.922   3.321   2.629  0.1025  0.4882  0.8402
 7614SOL     OW34303   3.011   2.100   8.616 -0.2909 -0.1449 -0.4857
 7614SOL    HW134304   2.942   2.033   8.611 -0.1793 -0.5051  2.5521
 7614SOL    HW234305   3.063   2.075   8.540  0.0399  0.6820 -0.5342
 7615SOL     OW34306   3.419   0.945  11.630 -0.0426 -0.1067  0.3015
 7615SOL    HW134307   3.452   0.986  11.550 -1.2138  0.4256  0.0868
 7615SOL    HW234308   3.331   0.938  11.594 -0.4585  0.4141  1.2159
 7616SOL     OW34309   2.783   0.703   4.639 -0.6902  0.8381  0.0336
 7616SOL    HW134310   2.712   0.728   4.698 -1.5305 -0.3177 -0.4727
 7616SOL    HW234311   2.852   0.769   4.647  0.6697 -0.1332 -3.6195
 7617SOL     OW34312   4.350   1.302   4.967 -0.2120 -0.6614  0.1316
 7617SOL    HW134313   4.441   1.322   4.990 -0.3332  1.0727 -0.9440
 7617SOL    HW234314   4.291   1.349   5.026  0.6006  0.3371  0.1394
 7618SOL     OW34315   2.735   2.116   8.920 -0.4912  0.2094  0.3428
 7618SOL    HW134316   2.654   2.070   8.942 -0.3099 -1.2575 -2.1622
 7618SOL    HW234317   2.697   2.200   8.893 -1.4500 -0.6721 -1.0146
 7619SOL     OW34318   3.246   3.491   8.789  0.0994  0.5027 -0.8625
 7619SOL    HW134319   3.250   3.404   8.748  0.2020  0.0993 -0.0037
 7619SOL    HW234320   3.336   3.520   8.778  0.1781  0.0836 -1.3154
 7620SOL     OW34321   0.907   4.024   3.475  0.0884 -0.0081  0.3558
 7620SOL    HW134322   0.845   3.996   3.408  0.2616  1.5425 -0.4587
 7620SOL    HW234323   0.920   4.116   3.454  0.3412 -0.6329 -2.1566
 7621SOL     OW34324   1.681   1.459   6.659 -0.1201 -0.0533 -0.2692
 7621SOL    HW134325   1.756   1.497   6.613 -0.5048 -0.8499 -1.5688
 7621SOL    HW234326   1.606   1.496   6.612  0.5918 -0.3063 -1.5963
 7622SOL     OW34327   2.124   0.906  15.670  0.4664 -0.1202 -0.0287
 7622SOL    HW134328   2.077   0.938  15.747  1.4186 -1.5414  1.1318
 7622SOL    HW234329   2.103   0.974  15.606  0.3126  1.1014  1.3543
 7623SOL     OW34330   3.312   4.400   2.735  0.2021 -0.2245  0.1397
 7623SOL    HW134331   3.289   4.317   2.693  2.6406 -1.2568  0.8338
 7623SOL    HW234332   3.307   4.471   2.671 -0.2479 -1.2349 -0.9474
 7624SOL     OW34333   3.247   4.121   6.262  0.4367  0.1741 -0.0865
 7624SOL    HW134334   3.304   4.071   6.202 -0.6133 -0.7408 -0.3151
 7624SOL    HW234335   3.303   4.127   6.340 -0.8319 -2.8937  1.0587
 7625SOL     OW34336   1.376   1.575  17.291 -0.4453 -0.0230  0.5000
 7625SOL    HW134337   1.407   1.655  17.333  2.8716 -0.5194 -1.0039
 7625SOL    HW234338   1.297   1.556  17.341 -1.2010  0.4211 -0.5183
 7626SOL     OW34339   0.088   1.092  17.084 -0.4089 -0.7233 -0.0169
 7626SOL    HW134340   0.027   1.083  17.157 -1.4432  1.4539 -0.6149
 7626SOL    HW234341   0.149   1.023  17.109  1.1011  0.3657 -0.6884
 7627SOL     OW34342   4.556   2.841   9.320  0.2496 -0.0408 -0.6586
 7627SOL    HW134343   4.498   2.777   9.280 -1.3870  0.9058  0.2236
 7627SOL    HW234344   4.502   2.850   9.398  1.9794  0.0278  0.5280
 7628SOL     OW34345   1.095   2.216   8.859  0.5096 -0.7064  0.0886
 7628SOL    HW134346   1.161   2.263   8.908 -1.0948 -0.2076  1.7658
 7628SOL    HW234347   1.092   2.262   8.775 -1.2383 -0.8794  0.0495
 7629SOL     OW34348   3.118   0.543   6.526  0.1431  0.3159 -0.7650
 7629SOL    HW134349   3.040   0.518   6.476 -0.4263  0.5212  0.0174
 7629SOL    HW234350   3.134   0.621   6.473  0.7425  0.4625 -0.3674
 7630SOL     OW34351   4.380   4.191   4.944  0.2962  0.7753  0.2988
 7630SOL    HW134352   4.405   4.270   4.896 -0.3949  0.2950 -0.8513
 7630SOL    HW234353   4.360   4.241   5.023 -0.2247  1.8525 -0.5184
 7631SOL     OW34354   3.368   0.013   2.332 -0.0017 -0.3285 -0.2726
 7631SOL    HW134355   3.457   0.030   2.301 -0.1083 -1.3107 -1.1124
 7631SOL    HW234356   3.328   4.712   2.248 -1.9820 -0.0907  0.5925
 7632SOL     OW34357   1.714   2.442  15.123  0.2291 -0.2403  0.4028
 7632SOL    HW134358   1.647   2.509  15.138  1.1669  0.5947  0.8247
 7632SOL    HW234359   1.786   2.503  15.136 -0.0735 -0.4085  2.8456
 7633SOL     OW34360   4.603   4.535   3.590 -0.1303 -0.4143  0.2619
 7633SOL    HW134361   4.695   4.545   3.566 -0.6567  2.0327 -0.7837
 7633SOL    HW234362   4.601   4.531   3.685  1.5853  1.2505  0.3603
 7634SOL     OW34363   3.493   3.991   4.586 -0.1330 -0.5099  0.0704
 7634SOL    HW134364   3.571   4.037   4.556 -0.2102 -0.3837  0.0619
 7634SOL    HW234365   3.431   4.064   4.588  1.4685  0.9455 -3.0892
 7635SOL     OW34366   4.605   3.412   6.458 -0.3359  0.1589  0.4681
 7635SOL    HW134367   4.540   3.476   6.487  0.5061  1.1934  0.0370
 7635SOL    HW234368   4.596   3.424   6.364 -1.3326 -1.7212  0.3186
 7636SOL     OW34369   2.728   3.638   2.443  0.5655  0.8435  0.0697
 7636SOL    HW134370   2.718   3.729   2.471  0.8209  0.6096  0.9190
 7636SOL    HW234371   2.768   3.635   2.356 -2.2724  0.4172 -1.2245
 7637SOL     OW34372   1.267   2.688  11.294  0.1064 -0.0822  0.2620
 7637SOL    HW134373   1.325   2.616  11.269 -0.3763 -0.5492  0.5021
 7637SOL    HW234374   1.199   2.680  11.228 -0.5735  0.6757  0.8665
 7638SOL     OW34375   3.874   3.351  10.521 -0.2322 -0.4689  0.3381
 7638SOL    HW134376   3.906   3.323  10.436  3.8293 -1.5424  2.2293
 7638SOL    HW234377   3.848   3.272  10.568 -2.9279  0.4608  0.4259
 7639SOL     OW34378   2.674   2.945  12.343  0.1919  0.0696  0.8156
 7639SOL    HW134379   2.700   2.962  12.434  0.6157 -2.1312  1.0941
 7639SOL    HW234380   2.752   2.984  12.303 -1.0815  2.4611  0.6709
 7640SOL     OW34381   2.105   0.625   3.118  0.2185 -0.5290  0.0113
 7640SOL    HW134382   2.157   0.703   3.099  0.6695 -0.9519 -0.5037
 7640SOL    HW234383   2.122   0.570   3.042 -1.3035 -0.3381 -0.4561
 7641SOL     OW34384   3.865   2.197   5.921  0.6962 -0.1863 -0.1578
 7641SOL    HW134385   3.897   2.121   5.872  0.0567 -0.9917  0.6670
 7641SOL    HW234386   3.928   2.181   5.991  1.2422  2.8299  0.0217
 7642SOL     OW34387   3.336   0.071  16.408 -0.6823  0.1034 -0.0370
 7642SOL    HW134388   3.318   4.708  16.368  1.1779 -0.7955  1.0174
 7642SOL    HW234389   3.378   0.117  16.335  1.0310 -0.5833  0.5163
 7643SOL     OW34390   4.665   3.467  16.918 -0.0415 -0.6801  0.0076
 7643SOL    HW134391   4.693   3.395  16.975  1.0690  0.0500  0.3871
 7643SOL    HW234392   4.606   3.419  16.860  1.3498 -0.8720 -1.2717
 7644SOL     OW34393   2.597   4.445   6.219  0.1681 -0.0894 -0.7364
 7644SOL    HW134394   2.541   4.409   6.150 -1.3785  0.2766  0.3290
 7644SOL    HW234395   2.609   4.538   6.198 -1.1023  0.1428 -0.4591
 7645SOL     OW34396   1.659   2.466   5.984  0.4990 -0.0112  0.3000
 7645SOL    HW134397   1.708   2.492   5.906 -1.0525  1.3616 -0.2414
 7645SOL    HW234398   1.597   2.405   5.944  0.3226  0.3707 -0.0146
 7646SOL     OW34399   3.332   2.355   5.140 -0.4339  0.1155 -0.1550
 7646SOL    HW134400   3.419   2.382   5.112  1.8371 -1.5648  5.2747
 7646SOL    HW234401   3.295   2.442   5.158  2.0456  1.0245  0.5645
 7647SOL     OW34402   3.174   1.818   5.110 -1.0091  0.1137 -0.9286
 7647SOL    HW134403   3.248   1.873   5.137 -0.9729 -0.5703  0.3734
 7647SOL    HW234404   3.156   1.841   5.019 -0.4617  0.3458 -0.9766
 7648SOL     OW34405   2.714   4.256   7.484 -0.0702 -0.2357  0.2714
 7648SOL    HW134406   2.701   4.322   7.416 -0.2610 -0.0697  0.4670
 7648SOL    HW234407   2.677   4.295   7.563  0.3769 -0.8441  0.7760
 7649SOL     OW34408   4.077   3.216   1.850 -0.9891  0.4413  0.8356
 7649SOL    HW134409   4.157   3.248   1.809 -2.4041  0.7903 -1.6277
 7649SOL    HW234410   4.032   3.301   1.843  0.2189  0.9391 -0.7222
 7650SOL     OW34411   2.421   1.826   6.219  0.4962  0.1361  0.1776
 7650SOL    HW134412   2.500   1.862   6.261 -0.6888 -0.9917  3.3408
 7650SOL    HW234413   2.387   1.898   6.165 -0.8108 -0.5431  0.1019
 7651SOL     OW34414   0.695   3.153   7.917 -0.1044 -0.0615 -0.5079
 7651SOL    HW134415   0.624   3.204   7.879  0.4345  0.4521 -0.8165
 7651SOL    HW234416   0.773   3.204   7.895 -0.7188  1.2564  0.4066
 7652SOL     OW34417   1.172   2.784  12.013  0.0247 -0.0396 -0.0390
 7652SOL    HW134418   1.143   2.866  12.051  0.0213 -0.0176 -0.0900
 7652SOL    HW234419   1.094   2.730  12.022 -0.4816  0.4143 -1.7149
 7653SOL     OW34420   3.638   3.009  10.828  0.9926 -0.7053  0.8939
 7653SOL    HW134421   3.709   2.960  10.868  1.0389 -1.0380  0.3968
 7653SOL    HW234422   3.694   3.056  10.767 -0.9220 -0.7288 -0.8860
 7654SOL     OW34423   3.993   3.014   7.606  0.8151  0.6330  0.2774
 7654SOL    HW134424   3.995   3.033   7.512  1.0008 -2.5498 -0.3769
 7654SOL    HW234425   4.083   3.034   7.632  1.6934 -1.8814 -0.8349
 7655SOL     OW34426   2.520   3.188   5.916 -0.1543 -0.4941  0.1236
 7655SOL    HW134427   2.486   3.252   5.854 -0.9157 -0.1404  0.8957
 7655SOL    HW234428   2.447   3.134   5.947 -0.7756 -0.1567 -0.7375
 7656SOL     OW34429   4.272   3.425  12.030 -0.5055  0.7657  0.1324
 7656SOL    HW134430   4.367   3.428  12.020 -0.6579 -1.4177 -2.0768
 7656SOL    HW234431   4.238   3.468  11.952 -0.9703 -0.6675 -0.4632
 7657SOL     OW34432   2.439   1.002  13.477  0.5394 -0.0316 -0.1889
 7657SOL    HW134433   2.454   0.909  13.459 -1.3715  0.1121 -2.5501
 7657SOL    HW234434   2.416   0.988  13.569  1.3177  1.2692  0.2013
 7658SOL     OW34435   3.635   4.180   5.786  0.6795  0.0342  0.1792
 7658SOL    HW134436   3.577   4.144   5.718  0.1545  0.1643  0.5602
 7658SOL    HW234437   3.611   4.272   5.788  3.4077  0.7731 -1.7172
 7659SOL     OW34438   2.887   0.416   1.503 -0.3024 -0.3946 -0.2088
 7659SOL    HW134439   2.831   0.377   1.436  0.0112 -0.4368 -0.4448
 7659SOL    HW234440   2.817   0.449   1.560 -0.3615 -1.7872  0.5250
 7660SOL     OW34441   3.400   2.716   3.065 -0.0944 -0.2747  0.5447
 7660SOL    HW134442   3.461   2.790   3.065 -0.1796 -0.2151 -1.6070
 7660SOL    HW234443   3.367   2.727   3.155  0.9133  0.8786  0.7684
 7661SOL     OW34444   3.188   1.731  17.502 -0.0541  0.2345 -0.1681
 7661SOL    HW134445   3.252   1.705  17.436  0.6267  1.7561 -0.1078
 7661SOL    HW234446   3.113   1.687  17.462  0.8711  0.7167 -2.4248
 7662SOL     OW34447   4.379   1.624   4.307 -0.0206  0.2314  0.1738
 7662SOL    HW134448   4.413   1.633   4.397 -2.5640 -1.5747  1.3059
 7662SOL    HW234449   4.290   1.593   4.319 -0.1505 -0.1913 -2.0091
 7663SOL     OW34450   0.881   4.469   6.377 -0.2356 -0.4054  0.1694
 7663SOL    HW134451   0.787   4.451   6.384 -0.1004 -1.2484 -0.2335
 7663SOL    HW234452   0.911   4.410   6.446  0.9048  0.6695  0.6018
 7664SOL     OW34453   0.826   2.669   5.908 -0.0705 -0.2761  0.7606
 7664SOL    HW134454   0.839   2.753   5.951 -1.0367  0.2115  0.0973
 7664SOL    HW234455   0.769   2.625   5.970 -2.7541 -0.2074 -1.6825
 7665SOL     OW34456   4.703   2.512   6.080 -0.2292  0.3446 -0.4109
 7665SOL    HW134457   0.051   2.528   6.016  1.5654  0.6322  1.5948
 7665SOL    HW234458   4.719   2.581   6.144  0.1136 -0.6766  0.6246
 7666SOL     OW34459   2.627   0.707   5.529 -0.3729  0.1516  0.2670
 7666SOL    HW134460   2.590   0.621   5.550 -1.0701  0.1143 -1.1340
 7666SOL    HW234461   2.638   0.754   5.612 -0.3227  2.0091 -0.8119
 7667SOL     OW34462   3.888   4.092   4.444  0.0526 -0.2199  0.2242
 7667SOL    HW134463   3.804   4.117   4.481 -2.1618 -4.8207 -1.6657
 7667SOL    HW234464   3.923   4.037   4.514 -1.4958  0.2280  1.3461
 7668SOL     OW34465   3.258   2.189  17.253 -0.2173  0.0416  0.2637
 7668SOL    HW134466   3.260   2.094  17.239  1.6198  0.3448 -1.5262
 7668SOL    HW234467   3.215   2.186  17.338  0.4980 -2.4680  0.5336
 7669SOL     OW34468   2.719   2.821   8.768  0.1923  0.1450  0.5088
 7669SOL    HW134469   2.701   2.877   8.844 -0.4099  0.3624  0.2057
 7669SOL    HW234470   2.788   2.870   8.723 -0.7210  0.3378 -0.6777
 7670SOL     OW34471   2.558   3.320  12.826 -0.1767 -0.1755 -0.6672
 7670SOL    HW134472   2.504   3.260  12.774  1.2974 -0.0502 -2.3272
 7670SOL    HW234473   2.582   3.377  12.753  0.3423  1.7697  1.0352
 7671SOL     OW34474   3.374   2.873   3.751  0.0231  0.2112 -0.6460
 7671SOL    HW134475   3.351   2.960   3.721 -1.0117 -0.0233 -0.5206
 7671SOL    HW234476   3.466   2.873   3.722  0.6267  0.5611  1.2685
 7672SOL     OW34477   0.700   2.152  11.726  0.1346  0.5458  0.6545
 7672SOL    HW134478   0.690   2.232  11.675  1.1577  2.1177  2.9392
 7672SOL    HW234479   0.626   2.099  11.697 -0.3976  1.1508  0.9161
 7673SOL     OW34480   1.022   0.414   2.481  0.1494  0.2012  0.5948
 7673SOL    HW134481   1.038   0.327   2.519 -3.5739 -1.3341 -1.4015
 7673SOL    HW234482   1.099   0.440   2.431 -0.7561 -0.1505 -0.9921
 7674SOL     OW34483   3.017   2.081  16.678  0.0675 -0.3712  0.0165
 7674SOL    HW134484   3.015   2.175  16.658 -2.0982 -0.2596  0.7904
 7674SOL    HW234485   3.039   2.077  16.771  1.1786 -1.4328 -0.2941
 7675SOL     OW34486   0.611   1.532  11.956  0.3860  0.1440  0.5687
 7675SOL    HW134487   0.636   1.440  11.956  1.1456  0.3530  0.7213
 7675SOL    HW234488   0.561   1.537  11.874  2.3354  1.4268 -0.5378
 7676SOL     OW34489   0.680   0.009   4.929  0.5289  0.4064 -0.3008
 7676SOL    HW134490   0.608   0.071   4.917 -0.7104 -1.1422 -0.8274
 7676SOL    HW234491   0.645   4.649   4.893  1.1580 -0.0199  0.0738
 7677SOL     OW34492   2.672   2.492   3.680 -0.5673  0.0708 -0.2830
 7677SOL    HW134493   2.707   2.418   3.631 -2.5412 -2.4932  2.1889
 7677SOL    HW234494   2.577   2.477   3.675 -0.4108  0.3013 -3.7862
 7678SOL     OW34495   1.619   2.981  15.816  0.4480 -0.1933 -0.5298
 7678SOL    HW134496   1.674   3.054  15.844 -0.4053  1.5387 -3.4139
 7678SOL    HW234497   1.595   2.947  15.902 -0.0140 -0.8792 -0.9280
 7679SOL     OW34498   1.770   2.152   0.618  0.4006  0.3560 -0.2185
 7679SOL    HW134499   1.740   2.162   0.528  2.5202 -0.8772 -1.0820
 7679SOL    HW234500   1.757   2.241   0.651 -1.7653  0.4861 -1.4457
 7680SOL     OW34501   1.666   3.395   4.015  0.2812  0.1726  0.1089
 7680SOL    HW134502   1.582   3.406   4.060 -0.1375 -1.0964 -0.3702
 7680SOL    HW234503   1.676   3.302   4.031 -0.4620  0.0044 -0.3847
 7681SOL     OW34504   0.126   1.573   2.756 -0.6387  0.4135  0.3536
 7681SOL    HW134505   0.081   1.541   2.834  0.4294 -1.0190  0.3903
 7681SOL    HW234506   0.093   1.518   2.686  0.1479  1.6571 -1.0068
 7682SOL     OW34507   3.101   0.161   2.975 -0.0145  0.5759 -0.0404
 7682SOL    HW134508   3.071   0.247   2.945  0.8772  0.7604 -0.3942
 7682SOL    HW234509   3.093   0.178   3.069 -1.8896  0.5101 -0.1768
 7683SOL     OW34510   2.542   1.627   3.134  0.0212 -0.1898 -0.3931
 7683SOL    HW134511   2.478   1.598   3.069 -1.5880  2.0106  0.2275
 7683SOL    HW234512   2.491   1.600   3.210  0.5030  1.7149  0.5987
 7684SOL     OW34513   4.503   0.606   7.022 -0.0658  0.2601  1.0038
 7684SOL    HW134514   4.411   0.628   7.006 -0.2015 -0.3200  0.9802
 7684SOL    HW234515   4.520   0.663   7.097  1.7667  3.7978 -2.0714
 7685SOL     OW34516   3.432   3.226   5.187 -0.2399  0.2239  0.0326
 7685SOL    HW134517   3.380   3.166   5.240 -0.4709  0.0277 -0.4151
 7685SOL    HW234518   3.402   3.312   5.217  2.4749  0.1917  2.8082
 7686SOL     OW34519   1.281   4.687   5.120  0.6309 -0.6817  0.2638
 7686SOL    HW134520   1.220   0.039   5.121  1.8434  0.3008  0.9047
 7686SOL    HW234521   1.329   0.009   5.189 -2.1861  1.6756  0.7422
 7687SOL     OW34522   3.236   3.249  10.955  0.4335 -0.1650 -0.0945
 7687SOL    HW134523   3.158   3.223  10.905  0.7304 -0.7742 -0.2545
 7687SOL    HW234524   3.205   3.319  11.011  2.9461  1.2255 -0.4305
 7688SOL     OW34525   4.086   2.890   0.901  0.3831 -0.0720 -0.2651
 7688SOL    HW134526   4.042   2.906   0.984  2.5271 -0.6029  0.9912
 7688SOL    HW234527   4.180   2.894   0.922  0.6871 -0.6073 -1.5137
 7689SOL     OW34528   4.719   3.858   2.526 -0.3233  0.3277 -0.2061
 7689SOL    HW134529   4.642   3.872   2.581  0.0857 -0.8572  0.6491
 7689SOL    HW234530   0.016   3.945   2.488  3.1783 -0.7012 -0.8005
 7690SOL     OW34531   0.241   2.217   3.025  0.2452  0.3056 -0.1554
 7690SOL    HW134532   0.307   2.246   3.089 -0.9153 -0.9225  1.6014
 7690SOL    HW234533   0.298   2.215   2.948  1.4516  0.5393  0.7347
 7691SOL     OW34534   0.359   2.586  14.024  0.6410 -0.2478 -0.0579
 7691SOL    HW134535   0.357   2.616  14.115  1.8855  0.0132 -0.1174
 7691SOL    HW234536   0.451   2.560  14.026  0.4060 -1.1913 -2.1741
 7692SOL     OW34537   2.988   4.084  10.503 -0.6574 -0.2899 -0.5792
 7692SOL    HW134538   3.078   4.107  10.481 -0.2947 -0.8046  0.3632
 7692SOL    HW234539   2.999   3.990  10.519 -2.1787 -0.7870 -2.4694
 7693SOL     OW34540   2.272   0.821   3.678  0.4112 -0.2870 -0.3924
 7693SOL    HW134541   2.310   0.898   3.634 -0.5960  0.4610  0.0334
 7693SOL    HW234542   2.245   0.862   3.760 -2.1377 -3.1576  0.1963
 7694SOL     OW34543   3.838   1.701   5.931  0.4443  0.5136 -0.3012
 7694SOL    HW134544   3.781   1.625   5.942 -0.0908  1.1950  1.6014
 7694SOL    HW234545   3.774   1.768   5.908 -1.4958 -1.5161 -0.8935
 7695SOL     OW34546   2.066   1.111  15.915 -0.2200 -0.0487  0.3189
 7695SOL    HW134547   2.044   1.201  15.890  1.2509  0.4446  0.7621
 7695SOL    HW234548   1.993   1.058  15.882 -0.0128 -0.4481  0.5065
 7696SOL     OW34549   3.159   1.283   7.317 -0.4277 -0.4474 -0.1809
 7696SOL    HW134550   3.157   1.361   7.261  1.8865 -0.3904 -0.1775
 7696SOL    HW234551   3.099   1.241   7.256 -0.9475  1.2047 -0.8194
 7697SOL     OW34552   0.850   0.525   0.836 -0.1950 -0.2504 -0.3559
 7697SOL    HW134553   0.762   0.488   0.838 -1.3014  2.4242 -0.6617
 7697SOL    HW234554   0.851   0.607   0.788  0.4715 -0.8013 -1.2952
 7698SOL     OW34555   0.501   3.260   9.592 -0.4276 -0.0407 -0.6382
 7698SOL    HW134556   0.419   3.219   9.563  1.3517 -1.9291 -2.9726
 7698SOL    HW234557   0.486   3.256   9.686  1.5331 -1.0446 -0.3647
 7699SOL     OW34558   4.652   0.862  16.056 -0.3598  0.1300 -0.1552
 7699SOL    HW134559   4.564   0.889  16.030  0.4199  0.1031 -2.8768
 7699SOL    HW234560   4.703   0.942  16.068  1.4791 -0.7646 -1.9180
 7700SOL     OW34561   0.196   2.098   6.150  0.1191  0.0507  0.2227
 7700SOL    HW134562   0.198   2.059   6.237 -0.8245  0.6769  0.5173
 7700SOL    HW234563   0.137   2.172   6.165 -1.2328 -0.6847 -1.4495
 7701SOL     OW34564   2.909   1.675  14.985 -0.2977  0.9101  0.2975
 7701SOL    HW134565   2.986   1.725  15.012  0.7788 -1.8083  2.2595
 7701SOL    HW234566   2.849   1.749  15.001 -0.0524  0.9182  1.1689
 7702SOL     OW34567   3.838   3.167   5.337  0.0741  0.3559 -0.0246
 7702SOL    HW134568   3.751   3.160   5.375 -0.1697 -0.7900 -0.7912
 7702SOL    HW234569   3.867   3.251   5.373 -0.0590  0.1507  0.5697
 7703SOL     OW34570   2.396   3.899  11.415 -0.1579 -0.1215 -0.0941
 7703SOL    HW134571   2.344   3.976  11.439 -0.2194 -0.0134 -0.5818
 7703SOL    HW234572   2.339   3.855  11.353 -1.9016  1.9835  0.0159
 7704SOL     OW34573   0.575   1.023   8.104  0.1345 -0.4993 -0.0656
 7704SOL    HW134574   0.601   0.959   8.170 -0.1777  0.7993  1.3066
 7704SOL    HW234575   0.656   1.026   8.054 -0.9344  1.2013 -1.6822
 7705SOL     OW34576   3.212   2.467   2.575  0.0251  0.3960 -0.3835
 7705SOL    HW134577   3.276   2.446   2.643  0.4896 -0.3041 -1.0406
 7705SOL    HW234578   3.201   2.562   2.588  1.0462  0.5019 -0.3123
 7706SOL     OW34579   2.778   1.134  14.591  0.2595  0.2552  0.3277
 7706SOL    HW134580   2.745   1.084  14.516 -0.3275 -0.8978  1.3602
 7706SOL    HW234581   2.872   1.141  14.579  0.1658 -2.3797 -2.0473
 7707SOL     OW34582   2.826   0.087   5.661  0.0066 -0.0489  0.1867
 7707SOL    HW134583   2.897   0.027   5.684  0.5929  0.5844  0.0632
 7707SOL    HW234584   2.844   0.157   5.723 -1.6128  1.6125 -1.2079
 7708SOL     OW34585   3.772   1.226  11.494 -0.0678  0.3194  0.1145
 7708SOL    HW134586   3.835   1.207  11.425  0.6493  0.5383  0.7099
 7708SOL    HW234587   3.711   1.153  11.480  1.3247 -0.6550 -0.8387
 7709SOL     OW34588   0.586   1.794   1.616  0.2425  0.0891 -0.2918
 7709SOL    HW134589   0.504   1.779   1.664 -1.2798  0.3876 -2.7834
 7709SOL    HW234590   0.607   1.874   1.666  0.2346 -0.6966  0.9834
 7710SOL     OW34591   2.337   4.019   7.742 -0.2460 -0.2304  0.1367
 7710SOL    HW134592   2.350   4.008   7.836  0.9587  1.2039  0.1407
 7710SOL    HW234593   2.242   4.027   7.751 -0.0573  2.7805 -0.6437
 7711SOL     OW34594   4.151   1.892   8.215  0.2443  0.3492  0.6639
 7711SOL    HW134595   4.205   1.900   8.293  1.1639 -0.3362  0.0904
 7711SOL    HW234596   4.082   1.958   8.226 -0.9164 -0.8000  0.2978
 7712SOL     OW34597   2.308   0.667   6.138 -0.3296  0.2768  0.0664
 7712SOL    HW134598   2.309   0.762   6.151  1.3514  0.1407  0.9129
 7712SOL    HW234599   2.266   0.661   6.052 -1.8055 -0.5088  0.8358
 7713SOL     OW34600   1.429   4.301   9.541  0.2069  0.1379  0.7200
 7713SOL    HW134601   1.429   4.206   9.538  2.7730  0.1788 -0.0439
 7713SOL    HW234602   1.519   4.315   9.513  0.4762 -0.9574  1.0566
 7714SOL     OW34603   4.223   1.198   2.809 -0.0134 -0.1711 -0.5159
 7714SOL    HW134604   4.195   1.284   2.839  0.6718  0.2391 -1.0430
 7714SOL    HW234605   4.149   1.171   2.754  0.6645 -0.6498 -1.1917
 7715SOL     OW34606   0.708   0.411  16.532  0.2710  0.4917 -0.6991
 7715SOL    HW134607   0.618   0.435  16.507 -0.6085 -0.9155  1.1834
 7715SOL    HW234608   0.690   0.351  16.604  0.5440  1.2947  0.0439
 7716SOL     OW34609   3.377   4.176  11.209 -0.2985 -0.1586 -0.5338
 7716SOL    HW134610   3.403   4.268  11.215 -1.1727  0.0709 -0.2005
 7716SOL    HW234611   3.457   4.142  11.171  0.3289 -0.0015  0.6455
 7717SOL     OW34612   3.301   2.184   3.809 -0.1657  0.2870 -0.4182
 7717SOL    HW134613   3.383   2.177   3.760  1.1426 -0.2060  1.8397
 7717SOL    HW234614   3.295   2.279   3.814  0.3767  0.4034 -2.2219
 7718SOL     OW34615   0.093   0.309   9.150  0.3518  0.0080 -0.4673
 7718SOL    HW134616   0.150   0.385   9.166  1.6395 -1.2876  1.0833
 7718SOL    HW234617   0.103   0.263   9.234  0.4360 -0.8508 -0.9569
 7719SOL     OW34618   1.148   0.299   2.907 -0.2116 -0.0025  0.3942
 7719SOL    HW134619   1.058   0.296   2.876 -0.3249 -0.1761  0.7533
 7719SOL    HW234620   1.129   0.308   3.000  0.3501 -1.5064  0.6429
 7720SOL     OW34621   4.224   2.166   6.956  0.0136 -0.1104 -0.3376
 7720SOL    HW134622   4.294   2.148   7.018 -0.5272  0.1212  0.3349
 7720SOL    HW234623   4.180   2.081   6.950 -0.3924 -0.1018  2.7098
 7721SOL     OW34624   4.376   0.170  17.619 -0.0844  0.9882  0.3664
 7721SOL    HW134625   4.438   0.222  17.568  0.8372 -0.4723 -0.0202
 7721SOL    HW234626   4.437   0.140  17.686 -1.3539 -1.1819  0.5586
 7722SOL     OW34627   1.116   0.473  11.000 -0.0278 -0.2028 -0.1852
 7722SOL    HW134628   1.098   0.395  11.053  0.0092  0.3698  0.6681
 7722SOL    HW234629   1.122   0.541  11.067 -0.8683 -2.4576  2.1672
 7723SOL     OW34630   3.973   0.406   4.967 -0.5687  0.2222  0.1365
 7723SOL    HW134631   4.052   0.454   4.941 -0.0010  0.1389  1.7386
 7723SOL    HW234632   3.906   0.433   4.905 -0.0341  0.4157 -0.3604
 7724SOL     OW34633   2.514   0.192   7.405  0.5458 -0.7291  0.0657
 7724SOL    HW134634   2.596   0.224   7.442  0.4682  1.5574 -1.7660
 7724SOL    HW234635   2.489   0.131   7.474 -1.7833  1.2269  0.9270
 7725SOL     OW34636   3.398   4.067   3.753 -0.0971 -0.5102 -0.1222
 7725SOL    HW134637   3.324   4.058   3.694 -1.6901  1.2340  1.6041
 7725SOL    HW234638   3.423   3.981   3.785  0.6908 -0.7498 -1.3792
 7726SOL     OW34639   0.832   2.783   1.578  0.3095  0.2251 -0.2959
 7726SOL    HW134640   0.784   2.749   1.503 -0.1829  1.5449 -0.5681
 7726SOL    HW234641   0.778   2.857   1.604  0.4095  0.7009 -1.4529
 7727SOL     OW34642   4.527   1.098   6.207  0.0057  0.3281 -0.8277
 7727SOL    HW134643   4.479   1.176   6.179 -0.1093  0.7110  0.4209
 7727SOL    HW234644   4.477   1.063   6.281 -0.1026  0.2760 -0.9263
 7728SOL     OW34645   3.155   0.820  13.869 -0.1023 -0.5998  0.4680
 7728SOL    HW134646   3.076   0.870  13.848  0.5761  0.6317  0.8598
 7728SOL    HW234647   3.184   0.872  13.944  1.5108 -0.0537 -0.5314
 7729SOL     OW34648   3.309   3.947  14.426 -0.2365  0.2988  0.5539
 7729SOL    HW134649   3.300   3.978  14.336 -0.5663  2.3579  1.3083
 7729SOL    HW234650   3.346   3.860  14.412 -3.1469 -0.4407 -2.5700
 7730SOL     OW34651   4.093   3.452  13.946  0.5523  0.5342  0.1969
 7730SOL    HW134652   4.101   3.399  13.867  0.4272  0.1616  0.4351
 7730SOL    HW234653   4.002   3.480  13.939 -0.5611 -2.9588  0.5337
 7731SOL     OW34654   0.292   0.201  10.123 -0.5246  0.1942 -0.0525
 7731SOL    HW134655   0.278   0.143  10.197  0.4778  0.3069  0.2313
 7731SOL    HW234656   0.353   0.266  10.158  0.7349 -0.6987 -0.5977
 7732SOL     OW34657   1.442   0.623  11.320  0.5525 -0.2019 -0.0061
 7732SOL    HW134658   1.506   0.690  11.296 -0.0670  1.2600  2.4473
 7732SOL    HW234659   1.439   0.650  11.412  0.7358 -0.7322  0.1494
 7733SOL     OW34660   2.657   4.035   3.995  0.4449  0.1493  0.6306
 7733SOL    HW134661   2.608   4.109   4.030  0.0326 -0.5176  1.4713
 7733SOL    HW234662   2.698   4.016   4.080  0.4689  0.6527  0.7299
 7734SOL     OW34663   2.300   1.954   9.136 -0.5670 -0.3963  0.2199
 7734SOL    HW134664   2.304   2.017   9.208 -0.0534 -0.9318  0.6544
 7734SOL    HW234665   2.246   1.999   9.070 -1.1241 -0.8615  0.3632
 7735SOL     OW34666   3.361   4.547   0.919 -0.6170  0.8610 -0.3012
 7735SOL    HW134667   3.388   4.527   1.009 -2.5342 -3.3908 -0.6851
 7735SOL    HW234668   3.337   4.458   0.896 -0.4711  1.0375 -1.1568
 7736SOL     OW34669   2.041   3.560   3.371  0.4845  0.5412  0.1255
 7736SOL    HW134670   2.010   3.631   3.316 -1.0394  0.2334  0.5816
 7736SOL    HW234671   1.961   3.540   3.420  0.1765  0.1659 -0.5327
 7737SOL     OW34672   0.674   2.905  13.311 -0.0857 -0.1353 -0.1806
 7737SOL    HW134673   0.688   2.821  13.354 -0.3052  0.6289  1.4077
 7737SOL    HW234674   0.584   2.927  13.334  0.2134  1.5967 -0.6491
 7738SOL     OW34675   1.392   4.044  15.535  0.2730  0.2208  0.2382
 7738SOL    HW134676   1.386   4.046  15.440 -0.7927  0.1571  0.3065
 7738SOL    HW234677   1.485   4.065  15.547  0.3097 -0.2127  0.7324
 7739SOL     OW34678   3.623   0.031   9.581 -0.6532 -0.2315 -0.0586
 7739SOL    HW134679   3.598   0.069   9.666  2.1989 -1.1415  1.1854
 7739SOL    HW234680   3.691   0.092   9.553 -0.4231 -0.2578  0.4357
 7740SOL     OW34681   1.600   2.572   7.436 -0.2862  0.2707 -0.3606
 7740SOL    HW134682   1.642   2.654   7.462 -0.1855  0.0917  0.0362
 7740SOL    HW234683   1.635   2.565   7.348 -1.8559 -2.0891 -0.7964
 7741SOL     OW34684   1.978   1.677   1.254  0.2430  0.0873 -0.0802
 7741SOL    HW134685   2.068   1.695   1.224  0.5814  1.7677  1.9427
 7741SOL    HW234686   1.986   1.582   1.266 -1.4820 -0.4448 -3.3908
 7742SOL     OW34687   0.986   2.734   6.523  0.4841  0.5737  0.4984
 7742SOL    HW134688   1.008   2.714   6.432  0.1145  1.0187  0.3107
 7742SOL    HW234689   0.915   2.676   6.549  0.8715 -0.4902 -0.8971
 7743SOL     OW34690   3.775   2.165   6.923  0.8894  0.0548 -0.3761
 7743SOL    HW134691   3.737   2.252   6.931 -0.4053 -0.5503  0.0807
 7743SOL    HW234692   3.813   2.162   6.836  0.7600 -1.6218 -0.3802
 7744SOL     OW34693   4.505   0.295   2.550 -0.3086  0.5337  0.1005
 7744SOL    HW134694   4.412   0.287   2.572 -0.2336 -0.6930 -0.0150
 7744SOL    HW234695   4.538   0.212   2.585 -1.9459 -0.7265 -1.2853
 7745SOL     OW34696   1.366   2.041   5.723 -0.5228 -0.1494 -0.2273
 7745SOL    HW134697   1.294   2.098   5.751  1.7750  1.5376  2.2344
 7745SOL    HW234698   1.377   2.074   5.634 -0.7747 -1.0306 -0.5846
 7746SOL     OW34699   0.172   4.157  16.452  0.0191 -0.4613 -0.1420
 7746SOL    HW134700   0.091   4.124  16.414  0.9112 -1.3792 -1.2339
 7746SOL    HW234701   0.208   4.187  16.368 -0.5740  1.3419  0.2490
 7747SOL     OW34702   0.211   4.063  16.141 -0.0382  0.0376  0.1041
 7747SOL    HW134703   0.258   4.146  16.151 -0.0906 -0.1239  1.7029
 7747SOL    HW234704   0.204   4.050  16.046  0.7293 -0.0531  0.0629
 7748SOL     OW34705   0.447   0.441   9.920 -0.1206  0.1653 -0.0174
 7748SOL    HW134706   0.469   0.400  10.004  2.7977  0.7772 -0.4898
 7748SOL    HW234707   0.435   0.368   9.859  0.1168  0.5622 -0.5382
 7749SOL     OW34708   0.567   2.414   3.431  0.0968  0.3808 -0.5216
 7749SOL    HW134709   0.645   2.436   3.482 -1.5491  0.7749  1.8273
 7749SOL    HW234710   0.610   2.371   3.357  0.4698  1.4043 -0.9069
 7750SOL     OW34711   0.659   3.376   4.318  0.1203 -0.3467 -0.1409
 7750SOL    HW134712   0.616   3.399   4.236  0.4076  0.1410 -0.1521
 7750SOL    HW234713   0.666   3.282   4.303 -0.9909 -0.5808  0.7503
 7751SOL     OW34714   3.982   1.212   0.851  0.3627 -0.1351 -0.6837
 7751SOL    HW134715   4.016   1.230   0.938  0.2713  0.5318 -0.7862
 7751SOL    HW234716   3.962   1.302   0.826 -0.7983 -0.8067 -2.1997
 7752SOL     OW34717   4.137   0.350   3.449  0.1146 -0.1081  0.9877
 7752SOL    HW134718   4.167   0.394   3.370  2.6881 -1.5238  1.1954
 7752SOL    HW234719   4.213   0.340   3.506  2.0196 -1.1356 -1.7947
 7753SOL     OW34720   4.240   2.800   5.439  0.2437  0.6382 -0.3509
 7753SOL    HW134721   4.295   2.818   5.515 -2.2041  1.5746  1.1811
 7753SOL    HW234722   4.151   2.791   5.471  0.5876  2.3327  1.1368
 7754SOL     OW34723   1.481   2.459   3.494 -0.0254 -0.1074 -0.1029
 7754SOL    HW134724   1.414   2.469   3.561 -0.1646 -2.4045  0.0972
 7754SOL    HW234725   1.435   2.498   3.419 -0.5670  0.7942  0.6914
 7755SOL     OW34726   4.541   0.914   2.583  0.3960 -0.3368  0.0709
 7755SOL    HW134727   4.634   0.911   2.606  0.3686 -0.1945  0.2010
 7755SOL    HW234728   4.511   0.978   2.648  2.6401  0.8050 -0.0461
 7756SOL     OW34729   0.356   1.021  11.526  0.2958  0.0917  0.0596
 7756SOL    HW134730   0.353   1.092  11.462  1.8822 -0.8108 -1.0222
 7756SOL    HW234731   0.309   0.958  11.472  0.4154 -0.6909  0.8623
 7757SOL     OW34732   0.174   0.899   0.317 -0.3435  1.1332  0.3482
 7757SOL    HW134733   0.080   0.916   0.305 -0.1925 -0.6654 -3.3356
 7757SOL    HW234734   0.195   0.902   0.411  1.1005 -3.2245  0.1291
 7758SOL     OW34735   2.501   4.179   3.066  0.1212  0.0835  0.5285
 7758SOL    HW134736   2.432   4.195   3.002  0.8289 -4.1050 -1.3053
 7758SOL    HW234737   2.584   4.186   3.018  0.0256  3.3940  0.8553
 7759SOL     OW34738   3.232   2.483   6.895  0.1757 -0.6608 -0.1733
 7759SOL    HW134739   3.148   2.498   6.939  0.9570  1.3281  0.6085
 7759SOL    HW234740   3.210   2.498   6.803 -0.2363 -1.5159 -0.2133
 7760SOL     OW34741   3.024   0.494   9.169 -0.5142 -0.7298 -0.2545
 7760SOL    HW134742   2.988   0.568   9.217  0.1810  1.3532 -2.9649
 7760SOL    HW234743   3.096   0.541   9.128 -0.0572  0.7786  2.2536
 7761SOL     OW34744   2.740   2.445   6.810 -0.3545  0.3235 -0.2611
 7761SOL    HW134745   2.748   2.395   6.891  0.8311 -0.2142 -0.7209
 7761SOL    HW234746   2.714   2.377   6.747 -0.6010 -0.7129  0.9703
 7762SOL     OW34747   1.583   0.181   9.839 -0.4887  0.1198 -0.0800
 7762SOL    HW134748   1.534   0.252   9.797 -1.3225  0.5985  1.6990
 7762SOL    HW234749   1.558   0.107   9.784  1.5560 -0.6155 -0.0267
 7763SOL     OW34750   1.287   3.432  10.736 -0.4248  0.4131  0.1061
 7763SOL    HW134751   1.335   3.468  10.810 -1.2580  0.4335  0.6320
 7763SOL    HW234752   1.214   3.404  10.791 -0.2743  1.7296  0.9462
 7764SOL     OW34753   1.629   0.329   3.628  0.3442 -0.7530 -0.4011
 7764SOL    HW134754   1.713   0.308   3.588  0.7265  0.4044 -0.2006
 7764SOL    HW234755   1.595   0.239   3.637 -1.7469  0.4162  3.1351
 7765SOL     OW34756   4.596   3.513   7.369  0.0029  0.1223  0.3574
 7765SOL    HW134757   4.622   3.452   7.299  1.6340  0.1681  0.9332
 7765SOL    HW234758   4.592   3.455   7.445 -2.0409  2.1128  1.7475
 7766SOL     OW34759   3.430   1.549   4.095  0.0795  0.0155  1.3952
 7766SOL    HW134760   3.485   1.627   4.101 -1.0876  0.7702  2.4090
 7766SOL    HW234761   3.397   1.548   4.184  0.2902 -1.6007  1.4431
 7767SOL     OW34762   3.888   4.653  17.159 -0.2670  0.1748 -0.5029
 7767SOL    HW134763   3.931   4.700  17.231  0.5332  0.4808 -1.1878
 7767SOL    HW234764   3.818   4.709  17.125 -0.6952  0.0537  0.1730
 7768SOL     OW34765   2.220   0.524  11.330 -0.2278  0.1137 -0.2636
 7768SOL    HW134766   2.273   0.499  11.255  1.1030  0.5125  0.5341
 7768SOL    HW234767   2.279   0.585  11.374 -0.6392  0.3203  0.0066
 7769SOL     OW34768   3.034   0.778   4.035 -0.3088 -0.2780  0.1275
 7769SOL    HW134769   3.115   0.740   4.001 -2.0720 -1.6666 -2.5594
 7769SOL    HW234770   2.972   0.707   4.016  0.9200 -0.9709 -1.2775
 7770SOL     OW34771   2.908   3.934   1.985  0.0219  0.0480 -0.3464
 7770SOL    HW134772   2.864   3.967   2.063 -0.1942 -1.2991  0.1049
 7770SOL    HW234773   2.883   3.997   1.918  2.2746  0.7911 -0.5111
 7771SOL     OW34774   0.390   4.214   2.940 -0.8387  0.4040  0.2899
 7771SOL    HW134775   0.372   4.158   2.865 -1.6618 -0.2461  0.9705
 7771SOL    HW234776   0.395   4.301   2.900  0.4255  0.5075  0.6711
 7772SOL     OW34777   1.514   4.410   2.149 -0.0124  0.2690 -0.0600
 7772SOL    HW134778   1.597   4.454   2.165  0.9733 -1.9162  0.7567
 7772SOL    HW234779   1.448   4.479   2.146  0.0297  0.2846 -0.7897
 7773SOL     OW34780   4.397   3.065   0.715  0.1065  0.5030 -0.3592
 7773SOL    HW134781   4.343   3.142   0.727 -1.8907 -0.9011 -0.3830
 7773SOL    HW234782   4.399   3.047   0.621  0.2142  0.5032 -0.3570
 7774SOL     OW34783   0.640   4.051   3.003  0.3675  0.0712  0.5236
 7774SOL    HW134784   0.628   4.042   2.908  0.8071  1.9058  0.3028
 7774SOL    HW234785   0.583   4.126   3.020  1.1055  0.5237  1.0077
 7775SOL     OW34786   1.467   0.033  13.490  0.0575 -0.3401  0.2563
 7775SOL    HW134787   1.530   4.703  13.540  0.2451  1.5572  1.9901
 7775SOL    HW234788   1.420   0.071  13.564  0.1540 -0.1605  0.2251
 7776SOL     OW34789   1.611   1.755   6.766 -0.8272  0.6345 -0.4482
 7776SOL    HW134790   1.638   1.759   6.858  1.8899  2.9003 -1.3329
 7776SOL    HW234791   1.698   1.762   6.727 -0.4318 -2.6294 -0.1811
 7777SOL     OW34792   3.533   2.714   4.580 -0.3580 -0.2690  0.4242
 7777SOL    HW134793   3.501   2.744   4.495  0.1807  0.3836  0.4494
 7777SOL    HW234794   3.620   2.678   4.562 -1.0690 -1.6924 -0.1515
 7778SOL     OW34795   1.582   2.853   4.080 -0.0677 -0.5310  0.0329
 7778SOL    HW134796   1.623   2.789   4.023  2.7495  1.8060 -0.5658
 7778SOL    HW234797   1.539   2.909   4.016  3.3327  1.4354 -0.4845
 7779SOL     OW34798   1.284   0.811  10.172  0.3345 -0.1763 -1.1341
 7779SOL    HW134799   1.273   0.906  10.179 -0.4134 -0.3590  0.1567
 7779SOL    HW234800   1.240   0.772  10.246  0.0602 -1.0881 -1.7845
 7780SOL     OW34801   2.412   2.895   9.097 -0.0980 -0.0139  0.3869
 7780SOL    HW134802   2.420   2.888   9.192  0.4020 -0.7588  0.2916
 7780SOL    HW234803   2.369   2.817   9.061  0.0138  0.2083 -0.2209
 7781SOL     OW34804   1.276   3.776   6.651  0.1440 -0.0427  0.3657
 7781SOL    HW134805   1.333   3.768   6.575  0.8739  1.2308  0.7872
 7781SOL    HW234806   1.337   3.791   6.723  1.1732  1.3938 -0.8174
 7782SOL     OW34807   3.144   4.353   3.937  0.4249  0.4443 -0.2607
 7782SOL    HW134808   3.059   4.317   3.914  0.6898  0.3152 -1.0797
 7782SOL    HW234809   3.163   4.417   3.867 -1.2652  0.4100 -0.7399
 7783SOL     OW34810   3.629   4.156   3.944 -0.3087 -0.2717  0.2343
 7783SOL    HW134811   3.610   4.236   3.994  1.5205  0.7079 -0.6153
 7783SOL    HW234812   3.554   4.102   3.966 -0.9804  0.2941 -0.7001
 7784SOL     OW34813   3.456   0.419   3.788 -0.0663  0.0775  0.3692
 7784SOL    HW134814   3.512   0.437   3.712  0.5907 -1.7562  0.4165
 7784SOL    HW234815   3.419   0.337   3.756  1.8167  0.4049 -2.6124
 7785SOL     OW34816   2.025   3.753  12.770  0.0608  0.2805  0.1086
 7785SOL    HW134817   2.085   3.756  12.695  1.2088 -0.2344  1.0035
 7785SOL    HW234818   2.037   3.659  12.784  0.5460  0.1912 -0.8777
 7786SOL     OW34819   3.199   0.347   2.309  0.1079  0.4081 -0.3869
 7786SOL    HW134820   3.130   0.322   2.371  0.0258  0.3847 -0.4879
 7786SOL    HW234821   3.283   0.338   2.354 -0.6854 -3.7255  0.3215
 7787SOL     OW34822   3.677   1.263   5.851  0.1116 -0.2249  0.0598
 7787SOL    HW134823   3.649   1.220   5.932  0.7283  0.6629  0.7346
 7787SOL    HW234824   3.649   1.193   5.791 -0.6926  2.1071 -2.3250
 7788SOL     OW34825   0.389   4.669  12.021 -0.4571  0.3701 -0.2685
 7788SOL    HW134826   0.331   0.010  12.063 -0.4492 -0.0390  0.3611
 7788SOL    HW234827   0.338   4.588  12.019 -1.7136  1.1835 -0.7346
 7789SOL     OW34828   1.269   3.098   2.407  0.2811 -0.1060 -0.2650
 7789SOL    HW134829   1.301   3.016   2.443 -1.8383 -2.1027 -2.9290
 7789SOL    HW234830   1.219   3.070   2.330  0.6525  0.6029 -0.7674
 7790SOL     OW34831   0.524   2.839   1.486 -0.6159  0.0171 -0.5346
 7790SOL    HW134832   0.529   2.780   1.562 -0.6756 -0.1135 -0.6320
 7790SOL    HW234833   0.431   2.855   1.477 -1.1984 -1.8707  2.0480
 7791SOL     OW34834   1.368   2.715   5.352  0.1852 -0.5262  0.5256
 7791SOL    HW134835   1.298   2.737   5.414 -0.2435  0.4819 -0.3202
 7791SOL    HW234836   1.419   2.796   5.349  0.7297 -0.9315 -1.5409
 7792SOL     OW34837   0.311   2.053  11.153 -0.7504  1.1579  0.2134
 7792SOL    HW134838   0.384   1.991  11.153 -1.5851  0.1779  0.8224
 7792SOL    HW234839   0.322   2.096  11.238  0.9927  1.1400 -0.0077
 7793SOL     OW34840   4.082   3.839   2.664 -0.1377 -0.4211  0.1615
 7793SOL    HW134841   4.109   3.830   2.573  2.1501 -3.4462  1.1340
 7793SOL    HW234842   4.103   3.748   2.689 -0.0243 -0.9196 -1.7757
 7794SOL     OW34843   4.264   1.650   0.636 -0.5144  0.6756  1.1842
 7794SOL    HW134844   4.255   1.701   0.716  0.1989 -2.7778  3.4946
 7794SOL    HW234845   4.329   1.598   0.684  0.9951  1.0538 -0.4509
 7795SOL     OW34846   2.148   3.613   2.911  0.5130 -0.7214  0.7109
 7795SOL    HW134847   2.203   3.581   2.839 -2.2896  0.0551 -1.7701
 7795SOL    HW234848   2.065   3.567   2.895 -1.2722  1.8717  2.5372
 7796SOL     OW34849   2.885   4.188   2.521 -0.0885  0.3012 -0.1699
 7796SOL    HW134850   2.951   4.258   2.520  0.2571 -0.0486 -1.8677
 7796SOL    HW234851   2.798   4.228   2.527 -0.9914 -1.4482 -1.6643
 7797SOL     OW34852   3.225   4.105  15.357  0.1437  0.3103  0.0344
 7797SOL    HW134853   3.136   4.138  15.372  0.0325  1.3776 -2.9391
 7797SOL    HW234854   3.274   4.147  15.427  1.4966 -0.6947 -0.3172
 7798SOL     OW34855   3.845   4.414  17.060 -0.1689  0.1085 -0.0416
 7798SOL    HW134856   3.882   4.412  16.972 -0.9638 -0.1202 -0.3682
 7798SOL    HW234857   3.871   4.502  17.087 -1.8619  1.1419 -1.7555
 7799SOL     OW34858   4.494   2.272  10.623 -0.4741 -0.2635  0.4036
 7799SOL    HW134859   4.515   2.356  10.664 -0.9505 -0.1793  0.4733
 7799SOL    HW234860   4.566   2.211  10.638  2.2665  2.6251 -0.8960
 7800SOL     OW34861   0.751   2.384  11.598  0.2176 -0.1345  0.0251
 7800SOL    HW134862   0.748   2.479  11.610 -2.1379 -0.3124  0.8186
 7800SOL    HW234863   0.830   2.364  11.649  0.5355 -2.2202 -1.2862
 7801SOL     OW34864   2.846   1.138   3.326  0.0256  0.4262  0.5938
 7801SOL    HW134865   2.853   1.153   3.420  2.9571  0.4242  0.3640
 7801SOL    HW234866   2.844   1.042   3.321 -0.1670  0.4584  0.1201
 7802SOL     OW34867   2.431   1.779   8.775  0.2647  0.0778  0.0822
 7802SOL    HW134868   2.504   1.718   8.782 -0.7468 -0.8298  2.5612
 7802SOL    HW234869   2.360   1.715   8.770  0.2570 -0.0068  1.4032
 7803SOL     OW34870   1.369   1.444  15.112 -0.9193  0.3736  0.0276
 7803SOL    HW134871   1.348   1.515  15.051  0.0774  3.0344  2.8294
 7803SOL    HW234872   1.387   1.487  15.195  0.0642  0.0069 -0.0003
 7804SOL     OW34873   3.946   4.054  12.119 -0.5759 -0.1776  0.4526
 7804SOL    HW134874   4.009   4.070  12.190 -1.8421  1.5809  1.1721
 7804SOL    HW234875   3.870   4.070  12.176 -1.2083  1.4122 -0.8520
 7805SOL     OW34876   0.153   2.677   6.251  1.3135  0.3447 -0.0704
 7805SOL    HW134877   0.131   2.767   6.229  1.5380  0.2459 -0.6920
 7805SOL    HW234878   0.174   2.690   6.344  0.8618 -0.1222  0.0968
 7806SOL     OW34879   0.763   2.077  10.037  0.2598 -0.3399 -0.5035
 7806SOL    HW134880   0.668   2.084  10.033  0.2225 -0.9876 -0.9221
 7806SOL    HW234881   0.788   2.098  10.127 -2.4677  1.2098 -0.1152
 7807SOL     OW34882   4.214   4.050   6.714 -0.4368 -0.0867 -0.6460
 7807SOL    HW134883   4.306   4.052   6.741 -0.4448 -2.1717 -0.4897
 7807SOL    HW234884   4.190   3.963   6.747 -0.6513  0.7351  1.3517
 7808SOL     OW34885   1.539   3.533   8.271  0.1173  0.0854  0.2576
 7808SOL    HW134886   1.579   3.618   8.288  1.5203 -0.4746 -0.2249
 7808SOL    HW234887   1.573   3.519   8.183  0.1398  0.6131  0.1807
 7809SOL     OW34888   0.325   3.020   9.551  0.1866 -0.3871  0.0916
 7809SOL    HW134889   0.247   3.069   9.576 -0.2802 -1.1469  0.1115
 7809SOL    HW234890   0.294   2.934   9.578 -0.3453 -0.0632  0.5287
 7810SOL     OW34891   1.301   0.540   2.365 -0.5895  0.7971  0.4486
 7810SOL    HW134892   1.285   0.626   2.326 -0.7726 -0.5690 -2.5086
 7810SOL    HW234893   1.388   0.563   2.398 -0.2439 -0.6778  0.5546
 7811SOL     OW34894   0.434   3.901   4.446 -0.3090 -0.5121 -0.3069
 7811SOL    HW134895   0.507   3.840   4.429  0.6694  0.9519 -1.3554
 7811SOL    HW234896   0.356   3.868   4.403  0.1540  0.7222 -2.0898
 7812SOL     OW34897   4.530   3.395   0.663 -0.2127  0.1895 -0.2769
 7812SOL    HW134898   4.442   3.379   0.695  0.4881  0.4600  1.8122
 7812SOL    HW234899   4.528   3.358   0.574 -0.1718  0.8857 -0.5719
 7813SOL     OW34900   3.842   3.808  12.653 -0.3417 -0.6891 -0.4706
 7813SOL    HW134901   3.842   3.857  12.735 -0.7207 -1.0222 -0.2735
 7813SOL    HW234902   3.812   3.878  12.595  0.5514  1.8281  2.1224
 7814SOL     OW34903   2.825   0.556   1.166 -0.2072  0.1048  0.0737
 7814SOL    HW134904   2.809   0.592   1.253 -0.2165 -0.7427  0.4282
 7814SOL    HW234905   2.746   0.511   1.136 -0.4795 -0.0834  1.1037
 7815SOL     OW34906   1.449   2.138   7.415  0.2901  0.4887  0.6369
 7815SOL    HW134907   1.393   2.063   7.433  1.3881 -0.6885 -0.8841
 7815SOL    HW234908   1.517   2.124   7.480  1.6243  0.8196 -0.6837
 7816SOL     OW34909   1.654   4.312  17.566  0.2226 -0.4222  0.5054
 7816SOL    HW134910   1.703   4.234  17.594 -0.1185 -0.3602  1.2680
 7816SOL    HW234911   1.566   4.283  17.544  0.4076 -1.4400  1.0808
 7817SOL     OW34912   0.169   2.255   3.927  0.4191 -0.1247  0.3814
 7817SOL    HW134913   0.200   2.173   3.889 -0.2004 -0.3326  0.3390
 7817SOL    HW234914   0.098   2.285   3.869  0.3519  1.7943  1.4507
 7818SOL     OW34915   0.743   2.861   8.320  0.0338  0.0818  0.3379
 7818SOL    HW134916   0.778   2.784   8.364 -0.6047  0.2621  1.1757
 7818SOL    HW234917   0.805   2.888   8.253 -1.1562  1.5524 -0.1940
 7819SOL     OW34918   1.786   3.823   5.444 -0.4704 -0.2469 -0.1715
 7819SOL    HW134919   1.745   3.825   5.530  0.0233 -0.5515  0.0739
 7819SOL    HW234920   1.783   3.728   5.431  2.3920 -0.3411 -0.1933
 7820SOL     OW34921   1.450   0.595  14.737 -0.5720  0.2397 -0.0823
 7820SOL    HW134922   1.367   0.606  14.690  0.5087 -0.7331 -2.2260
 7820SOL    HW234923   1.431   0.524  14.798  1.6087 -0.1583  0.1216
 7821SOL     OW34924   4.472   1.804  10.843  0.0808  0.1898 -0.1380
 7821SOL    HW134925   4.534   1.732  10.830  1.4473  0.9434  2.2620
 7821SOL    HW234926   4.394   1.751  10.823 -1.2983  1.8921  0.7973
 7822SOL     OW34927   4.049   0.321   9.570 -0.1043 -0.0603  0.5628
 7822SOL    HW134928   4.047   0.417   9.568 -2.6343 -0.1004  1.6042
 7822SOL    HW234929   4.046   0.293   9.661 -2.1115  1.1701  0.8713
 7823SOL     OW34930   3.834   4.525  10.192 -0.1563  0.2452 -0.2141
 7823SOL    HW134931   3.836   4.434  10.164 -1.2260  0.5111 -1.1799
 7823SOL    HW234932   3.893   4.520  10.267  2.5762  0.1737 -2.3586
 7824SOL     OW34933   2.918   0.540   3.361 -0.2739  0.5559 -0.6445
 7824SOL    HW134934   2.990   0.516   3.301 -1.4158  0.4237 -1.9700
 7824SOL    HW234935   2.848   0.516   3.301  0.6791 -0.6514 -1.2896
 7825SOL     OW34936   2.352   2.016   8.094  0.4874 -0.1670  0.0986
 7825SOL    HW134937   2.363   2.111   8.094 -4.0042  0.3646 -2.3214
 7825SOL    HW234938   2.260   2.016   8.123  0.8484  1.0361  1.2717
 7826SOL     OW34939   4.410   0.064  14.577 -1.0578  0.3548  0.0904
 7826SOL    HW134940   4.321   0.093  14.597 -0.6074 -0.3485  3.1302
 7826SOL    HW234941   4.469   0.120  14.627  1.2561 -1.7298 -0.3430
 7827SOL     OW34942   4.407   3.886   3.089 -0.5250 -0.3207 -0.0667
 7827SOL    HW134943   4.360   3.823   3.033  0.6753 -1.4972  0.2517
 7827SOL    HW234944   4.361   3.970   3.086  1.0934  0.5766  0.5378
 7828SOL     OW34945   0.597   1.708   9.384 -0.0359 -0.2908 -0.1349
 7828SOL    HW134946   0.522   1.742   9.335  1.7679 -0.2055 -2.7909
 7828SOL    HW234947   0.659   1.779   9.369 -0.0536 -0.5541 -1.4796
 7829SOL     OW34948   4.674   3.638   3.057  0.4405  0.4727 -0.3899
 7829SOL    HW134949   4.705   3.719   3.098  0.2585  0.3724 -0.0549
 7829SOL    HW234950   4.631   3.669   2.977  2.2132  0.3488 -1.3961
 7830SOL     OW34951   3.202   3.142   3.114  0.0732  0.2434  0.0009
 7830SOL    HW134952   3.125   3.091   3.141  0.6672 -0.3200  0.6301
 7830SOL    HW234953   3.234   3.091   3.039 -1.3984 -1.4012  0.4752
 7831SOL     OW34954   0.589   0.574   9.310  0.0619  0.4923 -0.5409
 7831SOL    HW134955   0.587   0.641   9.379  0.7523 -1.0556  0.9783
 7831SOL    HW234956   0.581   0.630   9.233  1.0400 -0.5144 -1.3742
 7832SOL     OW34957   3.766   1.599   3.094  0.0364  0.3137 -0.0633
 7832SOL    HW134958   3.760   1.516   3.141  0.9435 -0.7861 -1.8936
 7832SOL    HW234959   3.684   1.604   3.045  0.8132 -0.6236 -1.4545
 7833SOL     OW34960   2.799   1.054   4.025  0.2252  0.1644  0.4880
 7833SOL    HW134961   2.855   1.081   4.097  0.7739 -1.5603  0.6966
 7833SOL    HW234962   2.852   0.986   3.982 -0.8734 -0.6177  0.3679
 7834SOL     OW34963   3.742   3.065  13.531  0.8681  0.0783  0.1951
 7834SOL    HW134964   3.743   3.107  13.445 -1.1491 -2.1246 -0.9199
 7834SOL    HW234965   3.806   3.119  13.577 -0.5222  0.6353  1.4596
 7835SOL     OW34966   3.163   2.752  16.075  0.3476  0.2947  0.6007
 7835SOL    HW134967   3.101   2.787  16.011  1.5075 -0.6394 -1.0424
 7835SOL    HW234968   3.112   2.766  16.154  1.5911 -0.9563  1.6231
 7836SOL     OW34969   1.864   2.094   6.641 -0.4795 -0.2467  1.0613
 7836SOL    HW134970   1.846   2.000   6.648 -0.1873 -0.2845  1.3018
 7836SOL    HW234971   1.823   2.109   6.556  0.5050 -0.2936  0.5767
 7837SOL     OW34972   0.978   2.214   9.984  0.4854 -0.1026  0.0986
 7837SOL    HW134973   0.893   2.174  10.004 -0.3341  2.0826  0.9943
 7837SOL    HW234974   0.968   2.227   9.890 -0.6567  3.1253  0.6528
 7838SOL     OW34975   2.293   4.474  15.435 -0.3822  0.6445  0.4608
 7838SOL    HW134976   2.255   4.466  15.347  1.9638  2.4801 -0.7344
 7838SOL    HW234977   2.385   4.484  15.411 -0.0926 -0.7695  0.9897
 7839SOL     OW34978   0.124   2.018   7.088  0.0245  0.1597  0.1631
 7839SOL    HW134979   0.110   2.011   7.182  1.2049 -1.8138  0.1769
 7839SOL    HW234980   0.031   2.013   7.064  0.0812 -1.3785  0.2726
 7840SOL     OW34981   2.486   1.128   4.907  0.0479 -0.5297 -0.1479
 7840SOL    HW134982   2.491   1.176   4.989 -0.4875 -1.8304  0.6408
 7840SOL    HW234983   2.508   1.200   4.848 -2.0022  0.6670  0.5484
 7841SOL     OW34984   1.418   0.692   1.356 -0.0392  0.3644  0.0195
 7841SOL    HW134985   1.348   0.638   1.318 -1.6069  1.5031  1.2871
 7841SOL    HW234986   1.418   0.765   1.295  0.5860 -1.4709 -2.1747
 7842SOL     OW34987   2.814   3.866  10.356 -0.5856 -0.2626 -0.6453
 7842SOL    HW134988   2.836   3.959  10.363  0.7764 -0.6017 -0.2774
 7842SOL    HW234989   2.789   3.862  10.264  0.7752  0.1204 -1.0318
 7843SOL     OW34990   4.297   2.895   3.555 -0.1376  0.0819 -0.4364
 7843SOL    HW134991   4.360   2.947   3.606 -0.9364 -0.0323  0.6709
 7843SOL    HW234992   4.332   2.911   3.467  1.3362  2.0907  0.5026
 7844SOL     OW34993   3.532   0.510   2.652 -0.0207  0.2675 -0.1488
 7844SOL    HW134994   3.490   0.585   2.694 -2.2939 -0.3486 -1.3224
 7844SOL    HW234995   3.599   0.491   2.717 -0.9456 -3.9287 -0.3871
 7845SOL     OW34996   0.382   4.013   2.739 -0.1643 -0.5980  0.0866
 7845SOL    HW134997   0.355   3.985   2.651 -0.2965  0.3621 -0.1787
 7845SOL    HW234998   0.322   3.962   2.794 -0.6601 -0.6935 -0.5293
 7846SOL     OW34999   0.774   3.229  10.456  0.3004  0.0522 -0.2624
 7846SOL    HW135000   0.853   3.182  10.484  0.6506  0.1874 -1.0120
 7846SOL    HW235001   0.713   3.219  10.529  0.1602  3.3351  0.0427
 7847SOL     OW35002   0.974   4.307   5.953  0.3109  0.1380 -0.1364
 7847SOL    HW135003   0.934   4.221   5.947  1.5115 -0.4021 -0.4237
 7847SOL    HW235004   1.006   4.301   6.043  0.9341 -4.5687 -0.6962
 7848SOL     OW35005   0.556   4.360   2.664  0.2479  0.4139 -0.2001
 7848SOL    HW135006   0.498   4.436   2.655 -1.7492 -1.1419 -0.4007
 7848SOL    HW235007   0.531   4.302   2.592 -0.3258 -1.1254  1.2419
 7849SOL     OW35008   2.953   4.691   6.439  0.1754 -0.0565  0.8816
 7849SOL    HW135009   2.909   0.050   6.467 -0.3958  0.3093 -1.0973
 7849SOL    HW235010   2.892   4.628   6.477 -0.7679 -0.3357 -1.1381
 7850SOL     OW35011   4.021   4.308   4.298 -0.1220 -0.5351 -0.2787
 7850SOL    HW135012   3.985   4.220   4.308  1.4656 -0.9481  1.8276
 7850SOL    HW235013   3.962   4.361   4.352 -1.8048 -0.3578 -2.2512
 7851SOL     OW35014   2.125   1.406  17.608 -0.3177  0.0725  0.2371
 7851SOL    HW135015   2.189   1.337  17.588  0.4260  1.2113 -1.2850
 7851SOL    HW235016   2.052   1.392  17.548 -0.2807  1.0956 -0.0549
 7852SOL     OW35017   4.041   0.071  14.818 -0.0428  0.4971 -0.4302
 7852SOL    HW135018   3.955   0.035  14.796  0.7519  0.1267 -2.8867
 7852SOL    HW235019   4.021   0.158  14.784 -0.3347  1.3466  1.9271
 7853SOL     OW35020   2.833   0.731  10.028  0.1814  0.0529  0.1994
 7853SOL    HW135021   2.900   0.745  10.094 -0.2741  0.9230  0.4797
 7853SOL    HW235022   2.754   0.727  10.082  0.0529 -0.6186 -0.0302
 7854SOL     OW35023   0.858   1.385   2.730 -0.4350  0.1176  0.3601
 7854SOL    HW135024   0.898   1.465   2.698  0.0228 -0.7889 -1.3134
 7854SOL    HW235025   0.892   1.372   2.819 -0.1910  1.2969  0.4424
 7855SOL     OW35026   0.608   1.335  15.161  0.6224 -0.3974  0.7184
 7855SOL    HW135027   0.704   1.330  15.165  0.6043 -1.8871 -0.6737
 7855SOL    HW235028   0.579   1.315  15.249 -1.4869  1.6450  0.4802
 7856SOL     OW35029   4.343   0.251  15.757 -0.3462  0.3030 -0.1645
 7856SOL    HW135030   4.370   0.254  15.849 -1.2424  0.1896  0.1047
 7856SOL    HW235031   4.369   0.162  15.732  1.3245  0.7135  0.1376
 7857SOL     OW35032   2.761   3.306  14.613  0.0912 -0.0001 -0.6843
 7857SOL    HW135033   2.666   3.298  14.607 -0.0839 -0.2430  2.7648
 7857SOL    HW235034   2.769   3.232  14.552  1.8502 -1.8721  1.8218
 7858SOL     OW35035   2.744   0.714   0.330  0.1495  0.3661  0.5045
 7858SOL    HW135036   2.690   0.692   0.407 -0.8161 -3.1375 -1.1762
 7858SOL    HW235037   2.738   0.810   0.333  0.6420  0.3989  0.3907
 7859SOL     OW35038   3.195   1.322   6.590 -0.7810  0.4189 -0.3536
 7859SOL    HW135039   3.232   1.235   6.596  1.2951  1.3860  0.6888
 7859SOL    HW235040   3.274   1.366   6.557  0.0827 -0.0142  1.1709
 7860SOL     OW35041   2.119   1.435   7.394  0.2851  0.0381  0.4436
 7860SOL    HW135042   2.052   1.413   7.329 -0.0187  0.5328  0.5847
 7860SOL    HW235043   2.122   1.349   7.436 -3.0822 -0.2836  0.0220
 7861SOL     OW35044   0.198   1.209   8.889 -0.0554 -0.0075  0.1148
 7861SOL    HW135045   0.143   1.179   8.962  0.5572 -1.9405 -0.2034
 7861SOL    HW235046   0.254   1.132   8.879 -2.9498 -1.9470 -1.2120
 7862SOL     OW35047   3.542   4.499   9.868  0.2433  0.0304  0.1120
 7862SOL    HW135048   3.475   4.453   9.817 -0.1049  0.6782 -0.0136
 7862SOL    HW235049   3.491   4.564   9.916 -1.5391 -2.5941  1.7441
 7863SOL     OW35050   2.064   0.534   5.262  0.3443 -0.3996 -0.2505
 7863SOL    HW135051   2.141   0.581   5.231 -0.4378  1.0131 -0.0558
 7863SOL    HW235052   1.992   0.554   5.202  1.2401  2.3298 -0.4130
 7864SOL     OW35053   0.470   1.232   1.812 -0.5840 -0.4876 -0.1570
 7864SOL    HW135054   0.525   1.159   1.839  0.7368  0.3036 -0.7311
 7864SOL    HW235055   0.424   1.255   1.892  0.6139  3.1518 -0.5009
 7865SOL     OW35056   0.831   4.059   7.314  0.5009 -0.4430 -0.5652
 7865SOL    HW135057   0.744   4.021   7.330  0.8511 -0.8274  0.4238
 7865SOL    HW235058   0.837   4.060   7.219 -1.3679 -0.5241 -0.6954
 7866SOL     OW35059   0.970   2.887   5.318  0.3934  0.2146  0.3856
 7866SOL    HW135060   1.020   2.822   5.268 -0.6049 -0.3668  0.1574
 7866SOL    HW235061   0.908   2.919   5.254 -1.3434  0.0045  1.9554
 7867SOL     OW35062   4.667   2.962   8.380 -0.8793  0.1869  0.3823
 7867SOL    HW135063   0.013   2.979   8.315 -1.1505  1.9730  0.5742
 7867SOL    HW235064   4.677   2.868   8.394 -0.1424  0.8348  4.0960
 7868SOL     OW35065   1.761   3.076   2.745 -0.1838 -0.3357 -0.2190
 7868SOL    HW135066   1.736   2.986   2.725 -1.8113 -0.1344  0.8930
 7868SOL    HW235067   1.852   3.066   2.775 -0.6891 -0.2539  1.3551
 7869SOL     OW35068   0.801   1.952   6.726 -0.6524 -0.1538  0.0385
 7869SOL    HW135069   0.820   1.941   6.819 -0.0889  0.2960 -0.0245
 7869SOL    HW235070   0.888   1.950   6.685 -0.8095 -2.5112 -0.1764
 7870SOL     OW35071   2.878   3.630   5.690 -0.1674  0.4875  0.6384
 7870SOL    HW135072   2.844   3.704   5.741  0.0745  1.3049 -0.3913
 7870SOL    HW235073   2.967   3.663   5.674 -0.8506  0.5919 -2.9143
 7871SOL     OW35074   1.708   4.302  16.417 -0.0128 -0.6818  0.0488
 7871SOL    HW135075   1.723   4.295  16.511 -0.6733  1.3782  0.2947
 7871SOL    HW235076   1.685   4.395  16.413  1.0701 -0.3804  0.8299
 7872SOL     OW35077   2.221   2.212   3.841  0.0278  0.4586  0.4084
 7872SOL    HW135078   2.141   2.179   3.883  0.0535 -0.2214 -0.0812
 7872SOL    HW235079   2.291   2.181   3.898 -0.9630 -1.8037  0.4009
 7873SOL     OW35080   3.670   2.066   5.177  0.0322  0.6165 -0.1598
 7873SOL    HW135081   3.596   2.090   5.232  0.0480  1.0131 -0.3161
 7873SOL    HW235082   3.625   2.072   5.093 -0.5946 -1.3885  0.0195
 7874SOL     OW35083   2.291   2.750   2.472  0.4930  0.1676 -0.0628
 7874SOL    HW135084   2.289   2.668   2.422  3.4549 -0.5487  1.0039
 7874SOL    HW235085   2.386   2.745   2.473  0.5300  0.3500 -1.6298
 7875SOL     OW35086   1.714   4.143  13.728  0.0006  0.1327 -0.4414
 7875SOL    HW135087   1.733   4.226  13.772 -0.4937 -0.3042  0.6056
 7875SOL    HW235088   1.618   4.150  13.731 -0.2948 -3.6126 -1.4235
 7876SOL     OW35089   0.004   2.549   4.439 -0.3956  0.1095  0.0487
 7876SOL    HW135090   4.669   2.514   4.508  0.9063 -0.6748  0.7084
 7876SOL    HW235091   0.090   2.564   4.478 -1.0181 -1.3239  2.0035
 7877SOL     OW35092   3.788   0.674   1.017 -0.5314  0.3539 -0.0873
 7877SOL    HW135093   3.805   0.587   0.981  2.0047  0.8648 -0.1467
 7877SOL    HW235094   3.713   0.709   0.970  0.0909  1.2189 -0.4264
 7878SOL     OW35095   2.777   3.573   5.425 -0.0809 -0.5645 -0.2525
 7878SOL    HW135096   2.793   3.559   5.518 -3.1767  0.8293  0.4818
 7878SOL    HW235097   2.682   3.564   5.416 -0.2482  0.1305  0.8598
 7879SOL     OW35098   2.528   2.482   0.208  0.6763 -0.4133  0.1571
 7879SOL    HW135099   2.533   2.388   0.224  3.8056 -0.3850 -0.6951
 7879SOL    HW235100   2.492   2.492   0.120 -0.3501 -0.7510  0.5392
 7880SOL     OW35101   3.155   3.369   4.500  0.4388  0.2450 -0.1055
 7880SOL    HW135102   3.164   3.374   4.595 -1.4876  4.6115 -0.1577
 7880SOL    HW235103   3.233   3.413   4.466  1.0192 -2.3598 -2.1334
 7881SOL     OW35104   4.173   3.558   5.254  0.1015 -0.3129 -0.0301
 7881SOL    HW135105   4.241   3.503   5.215  1.1964 -0.2977  1.8510
 7881SOL    HW235106   4.176   3.636   5.198 -1.6588 -1.2153 -1.3998
 7882SOL     OW35107   0.694   1.524  15.704 -0.7976 -0.1793 -0.3086
 7882SOL    HW135108   0.725   1.533  15.614  1.5834  0.3673  0.5638
 7882SOL    HW235109   0.701   1.615  15.734 -0.5665 -0.2983 -0.0015
 7883SOL     OW35110   0.770   0.489   8.820 -0.0852 -0.9834  0.0259
 7883SOL    HW135111   0.859   0.513   8.848 -0.2968  1.7636 -1.5772
 7883SOL    HW235112   0.759   0.564   8.761 -0.1738 -2.3169 -1.6167
 7884SOL     OW35113   2.850   0.364   7.227  0.0789 -0.4394  0.2193
 7884SOL    HW135114   2.851   0.460   7.234  1.6486 -0.4807  0.6526
 7884SOL    HW235115   2.867   0.365   7.133  2.4587  1.1377  0.6445
 7885SOL     OW35116   0.670   0.611   3.343  0.4068 -1.0707 -0.1073
 7885SOL    HW135117   0.589   0.642   3.384  0.2624 -0.4851 -0.8420
 7885SOL    HW235118   0.688   0.542   3.406  1.6761  0.0750  0.7933
 7886SOL     OW35119   4.203   2.937  13.741 -0.6444  0.2779  0.6907
 7886SOL    HW135120   4.237   2.988  13.668 -2.9064 -1.2099 -1.4267
 7886SOL    HW235121   4.254   2.857  13.731 -3.6477 -1.8627  2.3789
 7887SOL     OW35122   1.981   1.485   9.428  0.5393  0.0077  0.7319
 7887SOL    HW135123   1.998   1.487   9.334  1.6023 -0.0635  0.9225
 7887SOL    HW235124   1.886   1.474   9.424  0.2282  2.2451  2.1317
 7888SOL     OW35125   0.295   0.633   6.409  0.5696  0.1589 -0.3353
 7888SOL    HW135126   0.266   0.615   6.319  2.1370  0.7115 -0.9466
 7888SOL    HW235127   0.381   0.673   6.399 -0.1325  1.0812 -2.7214
 7889SOL     OW35128   0.009   3.791   0.794 -0.3486 -0.0788 -0.2560
 7889SOL    HW135129   0.091   3.819   0.834 -0.9705 -0.2539  1.1156
 7889SOL    HW235130   4.689   3.876   0.780 -1.1685 -0.3294  0.7088
 7890SOL     OW35131   2.723   2.865   0.886  0.0149 -0.1192  0.1391
 7890SOL    HW135132   2.735   2.933   0.952  1.7938  0.4594 -0.8059
 7890SOL    HW235133   2.651   2.904   0.837 -0.1495 -0.7996 -0.1683
 7891SOL     OW35134   2.620   2.603   7.118  0.7256 -0.3071  0.1992
 7891SOL    HW135135   2.590   2.532   7.175 -1.3957 -2.1085 -3.1538
 7891SOL    HW235136   2.688   2.558   7.068 -1.2896 -0.4767 -2.3505
 7892SOL     OW35137   0.357   4.278   6.519  0.1200 -0.1413  0.0368
 7892SOL    HW135138   0.439   4.326   6.516  0.9169 -1.5383 -0.6190
 7892SOL    HW235139   0.364   4.234   6.434 -0.1443 -0.3709  0.1311
 7893SOL     OW35140   1.399   1.881   2.927 -0.2002 -0.4397  0.3825
 7893SOL    HW135141   1.306   1.902   2.921 -0.0195  0.8411  2.0745
 7893SOL    HW235142   1.397   1.811   2.993  0.9457 -0.7877  0.0505
 7894SOL     OW35143   0.936   2.359   4.264 -0.0860  0.2351 -0.1398
 7894SOL    HW135144   0.840   2.356   4.265 -0.0704 -0.5022 -0.7168
 7894SOL    HW235145   0.958   2.319   4.348  2.4975  0.8744 -0.5124
 7895SOL     OW35146   4.397   2.578   1.230 -0.3169 -0.2637  0.3932
 7895SOL    HW135147   4.403   2.531   1.147 -2.2399 -0.2627  0.2436
 7895SOL    HW235148   4.486   2.611   1.238  0.8225 -3.9108  2.7168
 7896SOL     OW35149   0.077   0.329   6.141 -0.2894  0.2806 -0.1996
 7896SOL    HW135150   0.135   0.252   6.135 -2.3854 -1.2775 -0.7055
 7896SOL    HW235151   4.712   0.289   6.146  1.2832 -2.9379  2.0591
 7897SOL     OW35152   4.544   3.534  12.395 -0.2295 -0.2855  0.0552
 7897SOL    HW135153   4.637   3.548  12.415 -0.0735 -0.3199 -0.6369
 7897SOL    HW235154   4.530   3.591  12.318 -0.8328  1.7026  1.6297
 7898SOL     OW35155   3.884   3.418   3.546 -0.5478  0.5475 -0.4966
 7898SOL    HW135156   3.911   3.494   3.598 -1.5176  0.2005  0.4991
 7898SOL    HW235157   3.795   3.448   3.527 -1.3667 -2.1378 -0.8483
 7899SOL     OW35158   4.063   0.674  16.632  0.9250 -0.1608  0.2406
 7899SOL    HW135159   4.046   0.764  16.660  0.5300 -0.0812 -0.2610
 7899SOL    HW235160   4.023   0.619  16.700  1.9145  0.4736  1.3315
 7900SOL     OW35161   3.006   2.499  17.156  0.0645  0.1171  0.1243
 7900SOL    HW135162   2.956   2.580  17.148  1.9537  1.4981  2.2235
 7900SOL    HW235163   3.020   2.493  17.251  0.5114 -0.0620  0.0521
 7901SOL     OW35164   1.740   2.903   8.006 -0.3132 -0.0373 -0.2256
 7901SOL    HW135165   1.795   2.824   8.010  2.9491  2.1816 -1.4891
 7901SOL    HW235166   1.796   2.965   8.052 -0.9454 -0.3198  0.9144
 7902SOL     OW35167   1.898   1.041   1.265  0.1905 -0.4245 -0.1412
 7902SOL    HW135168   1.906   0.947   1.282  2.4064 -0.0135  0.9954
 7902SOL    HW235169   1.953   1.080   1.332 -3.1288 -0.7472  2.8067
 7903SOL     OW35170   3.453   3.351   6.012  0.0379 -0.2428 -0.6634
 7903SOL    HW135171   3.439   3.270   5.963 -2.8596 -0.5148  0.6542
 7903SOL    HW235172   3.381   3.360   6.074  0.6958  1.1101 -0.0857
 7904SOL     OW35173   0.052   4.532   7.968 -0.0761 -0.1219 -0.0854
 7904SOL    HW135174   0.107   4.471   8.017  0.0071 -0.2608 -0.3545
 7904SOL    HW235175   0.115   4.582   7.915  0.6822  0.2170  1.1432
 7905SOL     OW35176   0.377   3.412  16.924  0.2383  0.6913 -0.0340
 7905SOL    HW135177   0.460   3.459  16.919 -1.7244  4.1147 -0.4421
 7905SOL    HW235178   0.382   3.351  16.998  1.2935  0.6330 -0.1481
 7906SOL     OW35179   3.024   0.738   3.034 -0.4380 -0.4224 -0.3381
 7906SOL    HW135180   3.062   0.692   3.109 -1.6902 -1.0969 -0.1258
 7906SOL    HW235181   3.099   0.748   2.975 -2.3302  1.7662 -2.3793
 7907SOL     OW35182   2.508   2.921   1.417  0.2749 -0.5974  0.2444
 7907SOL    HW135183   2.535   2.890   1.330 -1.0602  3.2086 -1.5188
 7907SOL    HW235184   2.530   3.013   1.408 -0.6441 -0.3075  1.0564
 7908SOL     OW35185   2.313   4.091  17.328 -0.2939 -0.4081  0.3644
 7908SOL    HW135186   2.359   4.173  17.341  1.2326 -1.0414 -0.8708
 7908SOL    HW235187   2.222   4.114  17.309  0.2673 -0.1362 -2.1021
 7909SOL     OW35188   0.253   1.875   5.404 -0.3941  0.1925  0.4607
 7909SOL    HW135189   0.218   1.874   5.493 -0.2953 -4.4581  0.4475
 7909SOL    HW235190   0.189   1.835   5.346 -0.0092 -0.5019  0.5072
 7910SOL     OW35191   0.027   3.753   5.491 -0.3926 -0.1136  0.4905
 7910SOL    HW135192   0.066   3.817   5.550  1.6188 -0.0071 -0.9279
 7910SOL    HW235193   0.095   3.759   5.424  0.0622  2.6648  1.2146
 7911SOL     OW35194   3.826   0.514  14.884  0.1801 -0.3303  0.0162
 7911SOL    HW135195   3.731   0.503  14.876  0.1023  1.2558 -1.0657
 7911SOL    HW235196   3.836   0.605  14.910  0.1157 -0.8852  1.9855
 7912SOL     OW35197   2.965   1.884   4.588 -0.0546 -0.5475  0.2731
 7912SOL    HW135198   2.973   1.803   4.538 -0.9531 -1.9933  2.4648
 7912SOL    HW235199   2.904   1.932   4.531  0.7419 -0.3826 -0.4304
 7913SOL     OW35200   2.958   1.855   8.227 -0.6960 -0.4027 -0.1496
 7913SOL    HW135201   3.050   1.873   8.211 -0.3589 -1.5014  0.5858
 7913SOL    HW235202   2.939   1.765   8.202 -3.1075 -0.9380  3.5386
 7914SOL     OW35203   0.424   1.358  16.952 -0.0166  0.9334 -0.3531
 7914SOL    HW135204   0.398   1.372  16.860 -0.0703  1.3272 -0.2782
 7914SOL    HW235205   0.343   1.376  16.999 -0.0473  0.6853 -0.3108
 7915SOL     OW35206   2.784   0.738   1.370  0.5697 -0.2475 -0.7963
 7915SOL    HW135207   2.689   0.751   1.376  0.5838 -0.6093  0.2438
 7915SOL    HW235208   2.818   0.809   1.425 -1.5601 -1.2860  1.8886
 7916SOL     OW35209   0.062   2.705   6.626 -1.0264 -0.7920 -0.5238
 7916SOL    HW135210   0.056   2.610   6.639  1.2127 -0.9731 -0.8624
 7916SOL    HW235211   4.691   2.729   6.631  0.3587  4.1488  1.5422
 7917SOL     OW35212   2.899   2.887   5.749  0.5409  0.4459 -0.0515
 7917SOL    HW135213   2.929   2.843   5.828  1.5678 -0.4194 -0.9170
 7917SOL    HW235214   2.811   2.918   5.771 -0.2942 -0.1002 -2.5641
 7918SOL     OW35215   1.123   4.058   1.757  0.4037 -0.4425 -1.0315
 7918SOL    HW135216   1.159   4.026   1.840  0.3554  0.9797 -0.4538
 7918SOL    HW235217   1.137   4.152   1.768 -1.0002 -0.3969  0.4338
 7919SOL     OW35218   2.131   3.824   5.792  0.2220  0.4272  0.0113
 7919SOL    HW135219   2.099   3.736   5.771  0.9784 -0.1381  1.1974
 7919SOL    HW235220   2.110   3.820   5.885 -3.8133  2.2543 -0.8232
 7920SOL     OW35221   0.786   3.323   7.322 -0.8425  0.4374 -0.1766
 7920SOL    HW135222   0.840   3.383   7.374 -1.4165 -0.5139  1.5120
 7920SOL    HW235223   0.699   3.343   7.357 -1.1997 -0.5838 -0.4735
 7921SOL     OW35224   3.336   0.239   8.942 -0.0136 -0.3126 -0.3066
 7921SOL    HW135225   3.351   0.286   9.024 -0.7445 -3.4113  1.6207
 7921SOL    HW235226   3.296   0.161   8.982 -1.0018  0.9593  1.1934
 7922SOL     OW35227   0.446   2.673   8.553 -1.3371 -0.6331  0.4438
 7922SOL    HW135228   0.486   2.588   8.533  1.1020  0.1310  1.9801
 7922SOL    HW235229   0.459   2.678   8.648 -2.1817 -1.9377  0.6296
 7923SOL     OW35230   2.767   3.022   4.834  0.2399 -0.2199 -0.0879
 7923SOL    HW135231   2.840   3.022   4.773 -0.7333  0.3188 -1.2653
 7923SOL    HW235232   2.792   2.943   4.881  0.6426  0.7845  1.4063
 7924SOL     OW35233   1.222   0.952   6.044 -0.2802 -0.6449 -0.3197
 7924SOL    HW135234   1.275   0.913   6.114  0.5977  0.2664 -0.4668
 7924SOL    HW235235   1.138   0.921   6.077 -1.1857 -0.0262 -2.0342
 7925SOL     OW35236   1.146   1.316  10.415  0.1239 -0.9171  0.0939
 7925SOL    HW135237   1.096   1.391  10.445  0.6583 -0.6585  0.3417
 7925SOL    HW235238   1.238   1.334  10.438  0.0771  1.6182 -1.6540
 7926SOL     OW35239   4.260   0.205   8.118  0.1202  0.0543  0.2483
 7926SOL    HW135240   4.225   0.291   8.139  1.3337  0.9476 -1.2955
 7926SOL    HW235241   4.342   0.219   8.166 -0.1778  0.5105  0.6104
 7927SOL     OW35242   3.928   3.850   5.057 -0.1111 -0.3963  0.0758
 7927SOL    HW135243   3.892   3.881   4.974  0.7059  1.1620  0.3153
 7927SOL    HW235244   3.848   3.818   5.099  0.6977  0.1969  2.0724
 7928SOL     OW35245   1.546   3.210   8.294 -0.3742  0.3357  0.2493
 7928SOL    HW135246   1.570   3.137   8.351  0.4627  0.9907  0.7415
 7928SOL    HW235247   1.478   3.253   8.347  0.1630  2.3205 -0.6584
 7929SOL     OW35248   0.801   4.015   8.404 -0.4720  0.3938  0.7426
 7929SOL    HW135249   0.896   4.020   8.392 -0.4554  0.6566  0.9778
 7929SOL    HW235250   0.776   3.959   8.331  0.0976 -0.7873  1.4642
 7930SOL     OW35251   1.928   2.818   3.954  0.5756  0.4321  0.2712
 7930SOL    HW135252   1.956   2.901   3.915  0.4414 -0.3834 -1.5655
 7930SOL    HW235253   1.833   2.819   3.951  0.5572 -1.6869 -0.0786
 7931SOL     OW35254   0.595   0.548   6.603 -0.0275 -0.0153 -0.4024
 7931SOL    HW135255   0.645   0.531   6.683  0.4399  1.0561 -0.4549
 7931SOL    HW235256   0.654   0.609   6.558 -1.1246 -0.5536 -2.5226
 7932SOL     OW35257   1.082   3.326   4.274  0.0767 -0.1339  0.2765
 7932SOL    HW135258   1.035   3.385   4.215 -0.1594  0.4289  1.0347
 7932SOL    HW235259   1.014   3.307   4.339 -3.8360  3.2099 -2.8074
 7933SOL     OW35260   0.234   0.331   5.672  0.6035  0.6047 -0.3148
 7933SOL    HW135261   0.167   0.366   5.613  0.0604  0.0829 -0.0100
 7933SOL    HW235262   0.186   0.355   5.751  0.4864  2.1355 -0.8536
 7934SOL     OW35263   3.082   0.290   2.565 -0.4594 -0.1189  0.1591
 7934SOL    HW135264   3.055   0.207   2.526  1.1226 -1.0736  1.0645
 7934SOL    HW235265   3.009   0.294   2.626  0.1398 -1.8161  0.9812
 7935SOL     OW35266   4.507   0.220   7.095  0.1563 -0.3662 -0.0737
 7935SOL    HW135267   4.467   0.307   7.098 -1.1980 -0.9913 -0.0040
 7935SOL    HW235268   4.554   0.226   7.012  1.2105  1.5217  0.6519
 7936SOL     OW35269   0.457   2.881   9.823 -0.3122 -0.1912 -0.7046
 7936SOL    HW135270   0.497   2.933   9.893  0.6197 -2.0885  0.1578
 7936SOL    HW235271   0.519   2.882   9.750 -3.1967 -1.8727 -3.1870
 7937SOL     OW35272   2.317   0.300   8.335  0.5295 -0.4316  0.0356
 7937SOL    HW135273   2.330   0.222   8.390 -0.7074 -0.1958  0.6530
 7937SOL    HW235274   2.233   0.273   8.299  0.8372  2.4257 -2.8025
 7938SOL     OW35275   0.660   2.612   3.868 -0.1160 -0.2177 -0.9187
 7938SOL    HW135276   0.675   2.687   3.810 -0.0857 -2.1069 -3.3153
 7938SOL    HW235277   0.746   2.569   3.871  0.3299  0.9161  2.4286
 7939SOL     OW35278   0.375   0.524   2.149  0.5866 -0.3670 -0.8691
 7939SOL    HW135279   0.316   0.553   2.080 -0.8273 -1.8241 -0.2823
 7939SOL    HW235280   0.458   0.572   2.140  1.1515 -1.1250  0.3184
 7940SOL     OW35281   2.060   3.645   5.320 -0.1032 -0.2213 -0.9914
 7940SOL    HW135282   2.047   3.738   5.301 -0.4683 -0.2724 -0.9978
 7940SOL    HW235283   1.972   3.614   5.340 -1.4262  4.2603  0.2595
 7941SOL     OW35284   3.917   1.240   4.384 -0.1500  0.4565  0.1474
 7941SOL    HW135285   3.846   1.296   4.355  0.3593  0.9072 -0.2109
 7941SOL    HW235286   3.877   1.213   4.467 -1.7836 -1.5109 -1.2790
 7942SOL     OW35287   0.040   2.566   6.898 -0.5403  0.1698 -0.7921
 7942SOL    HW135288   0.027   2.642   6.955 -0.3245 -1.7201  1.7631
 7942SOL    HW235289   4.683   2.514   6.914  0.0247 -0.1980  0.7812
 7943SOL     OW35290   4.109   1.119   3.579  0.2346 -0.0238  0.1532
 7943SOL    HW135291   4.130   1.051   3.515 -1.8995 -0.4784 -0.0649
 7943SOL    HW235292   4.139   1.201   3.542 -1.7419  0.0026 -1.4288
 7944SOL     OW35293   0.073   1.241  16.873  0.2497 -0.2138 -0.4828
 7944SOL    HW135294   0.118   1.300  16.934 -1.0176  2.5701 -2.2872
 7944SOL    HW235295   0.070   1.170  16.938  4.8139  0.4453  0.4784
 7945SOL     OW35296   2.295   2.158   3.595 -0.4592 -0.4506 -0.0053
 7945SOL    HW135297   2.383   2.121   3.598 -0.8055 -1.3752 -1.2276
 7945SOL    HW235298   2.282   2.184   3.686 -2.1733 -3.2859  0.5493
 7946SOL     OW35299   1.818   3.578   4.161 -0.0756 -0.1943  0.2485
 7946SOL    HW135300   1.769   3.505   4.122 -0.1665 -0.4833  0.9069
 7946SOL    HW235301   1.751   3.623   4.212  0.2100  0.7955 -0.2579
 7947SOL     OW35302   1.058   2.153   6.564 -0.1725 -0.4446 -0.0914
 7947SOL    HW135303   0.979   2.202   6.589  0.4307  0.2123  0.5283
 7947SOL    HW235304   1.126   2.221   6.565  1.6731 -2.3338  1.3257
 7948SOL     OW35305   2.224   1.274   4.602  0.0313 -0.2663  0.0383
 7948SOL    HW135306   2.170   1.269   4.524  1.0180  1.6399 -0.7664
 7948SOL    HW235307   2.264   1.188   4.592  1.5276  0.4548 -0.1916
 7949SOL     OW35308   3.050   3.129  12.357 -0.3953  0.1184  0.0631
 7949SOL    HW135309   3.107   3.121  12.434 -3.7656  1.4951  2.6856
 7949SOL    HW235310   3.063   3.221  12.334  1.1822 -0.5708 -1.8111
 7950SOL     OW35311   4.306   3.791   9.813 -0.1709  0.0433  0.3547
 7950SOL    HW135312   4.399   3.810   9.823 -0.3067  1.3882 -0.9069
 7950SOL    HW235313   4.291   3.723   9.878 -0.5328 -1.6022 -1.4359
 7951SOL     OW35314   3.103   3.737   7.768 -0.3300 -0.1859 -0.1950
 7951SOL    HW135315   3.029   3.677   7.782 -1.9916  1.9846  0.3667
 7951SOL    HW235316   3.069   3.786   7.693 -2.8175 -0.3140  0.8437
 7952SOL     OW35317   4.620   0.244   3.411 -0.3575  0.4444  0.9693
 7952SOL    HW135318   4.685   0.314   3.414 -1.3656  1.3466  1.6475
 7952SOL    HW235319   4.542   0.286   3.447 -0.7598  0.7363 -0.2426
 7953SOL     OW35320   1.909   2.473   5.344 -0.2828 -0.2659  0.2615
 7953SOL    HW135321   1.887   2.385   5.375 -0.8732 -0.3037 -0.2702
 7953SOL    HW235322   1.997   2.489   5.379 -0.4001  0.2902  0.2979
 7954SOL     OW35323   2.030   2.325   2.292  0.3934  0.1623 -0.2955
 7954SOL    HW135324   2.054   2.305   2.202 -2.6497 -1.8947 -0.6379
 7954SOL    HW235325   1.997   2.240   2.320 -0.7313  1.5347  2.5504
 7955SOL     OW35326   3.945   2.356   6.347 -0.4232 -0.6371 -0.6748
 7955SOL    HW135327   3.999   2.434   6.359 -1.3048 -0.4318  1.9078
 7955SOL    HW235328   3.856   2.390   6.348 -0.0184  0.4237 -0.0303
 7956SOL     OW35329   0.448   2.403   1.028 -0.5543 -0.2032 -0.2457
 7956SOL    HW135330   0.374   2.446   0.986  0.0689  1.8834  0.7746
 7956SOL    HW235331   0.482   2.480   1.073  2.3246 -1.4435 -0.2955
 7957SOL     OW35332   2.874   2.147  13.832  0.6484 -0.4015 -0.6620
 7957SOL    HW135333   2.901   2.210  13.898 -0.7354  0.2424 -0.6913
 7957SOL    HW235334   2.869   2.214  13.764 -2.6244 -1.3419 -1.3591
 7958SOL     OW35335   3.727   1.344   3.708  0.2475  0.0265 -0.0284
 7958SOL    HW135336   3.656   1.368   3.768 -1.4894  1.6140 -2.6959
 7958SOL    HW235337   3.696   1.400   3.636  1.5512 -1.0968 -1.4554
 7959SOL     OW35338   1.352   1.200  15.982 -0.4586 -0.0591  0.5259
 7959SOL    HW135339   1.305   1.145  15.919 -1.0980  0.6376  0.3885
 7959SOL    HW235340   1.363   1.276  15.924  0.8592  0.1098  1.0069
 7960SOL     OW35341   0.754   2.080   8.306  0.2420 -0.4727  0.5654
 7960SOL    HW135342   0.771   1.986   8.302 -1.3127 -0.6555 -1.8887
 7960SOL    HW235343   0.839   2.111   8.275 -0.1495  0.4585  0.4184
 7961SOL     OW35344   2.677   2.055   7.123  0.2534 -0.1706  0.5285
 7961SOL    HW135345   2.688   1.971   7.078  0.0801  0.6065 -0.9690
 7961SOL    HW235346   2.584   2.069   7.105  0.0155 -3.1015 -0.5437
 7962SOL     OW35347   2.793   2.216   2.302 -0.3176  0.2533  0.0353
 7962SOL    HW135348   2.732   2.152   2.265 -0.0606 -0.0787  0.1852
 7962SOL    HW235349   2.739   2.295   2.304 -0.7544 -0.0578  0.3727
 7963SOL     OW35350   3.763   0.266  15.052  0.0552  0.0991  0.5817
 7963SOL    HW135351   3.811   0.247  15.132  1.2430 -0.0097 -0.1463
 7963SOL    HW235352   3.812   0.338  15.011  1.1215  0.1261  1.9250
 7964SOL     OW35353   2.458   3.432  12.475 -0.2490 -0.2587  0.1804
 7964SOL    HW135354   2.480   3.472  12.391 -1.7033 -0.3338 -0.2345
 7964SOL    HW235355   2.540   3.425  12.523 -1.2428  0.1459  1.9709
 7965SOL     OW35356   2.557   1.690   7.371  0.5082  0.3733  0.4860
 7965SOL    HW135357   2.633   1.638   7.345  1.0813  1.2152  0.4860
 7965SOL    HW235358   2.592   1.724   7.453  0.0254  1.2634  0.3260
 7966SOL     OW35359   2.573   4.584   3.045  0.2325 -0.1502  0.1595
 7966SOL    HW135360   2.493   4.564   3.095  0.1273  0.8476  0.3748
 7966SOL    HW235361   2.589   4.672   3.077 -1.2608 -0.1091  0.8118
 7967SOL     OW35362   0.481   4.630  13.618  0.0532  0.0388  0.1124
 7967SOL    HW135363   0.526   4.640  13.534 -3.3497 -1.3932 -1.8909
 7967SOL    HW235364   0.401   4.584  13.591 -0.8744  1.1672  0.9171
 7968SOL     OW35365   3.857   0.039   0.982 -0.7989 -0.4452 -0.6045
 7968SOL    HW135366   3.781   0.077   1.026 -0.1040  0.2655 -0.0105
 7968SOL    HW235367   3.858   4.674   1.022  0.2376 -1.5365 -3.0108
 7969SOL     OW35368   0.413   1.000   0.667  0.2243  0.3247 -0.0904
 7969SOL    HW135369   0.394   1.016   0.760  0.5580  3.4635 -0.5919
 7969SOL    HW235370   0.509   0.993   0.667  0.2987  1.1742  3.1196
 7970SOL     OW35371   4.299   1.945  17.186  0.2096  0.1667  0.4027
 7970SOL    HW135372   4.213   1.913  17.214  0.3086 -0.2397  0.2356
 7970SOL    HW235373   4.330   1.982  17.268 -0.8722  1.4790  0.2245
 7971SOL     OW35374   1.868   4.392  14.999 -0.2489 -0.0747 -0.5166
 7971SOL    HW135375   1.911   4.476  14.986  1.4115 -1.1404 -1.8406
 7971SOL    HW235376   1.837   4.384  14.908  0.7166 -0.1822 -0.8337
 7972SOL     OW35377   3.144   2.357   4.386 -0.5103  0.1267 -0.4013
 7972SOL    HW135378   3.176   2.382   4.299  0.3879 -0.3792 -0.2141
 7972SOL    HW235379   3.100   2.439   4.409 -2.4321 -0.7290 -0.9948
 7973SOL     OW35380   2.795   4.363   0.534  0.2794  0.1601 -0.0182
 7973SOL    HW135381   2.891   4.361   0.539  0.2599 -0.2472  0.2384
 7973SOL    HW235382   2.788   4.416   0.455  0.4436  2.2634  1.3839
 7974SOL     OW35383   3.680   1.949  11.691 -0.2055 -0.8468 -0.1597
 7974SOL    HW135384   3.697   1.875  11.750  0.1434 -1.5496 -1.1277
 7974SOL    HW235385   3.730   2.023  11.726  1.0796 -0.7131 -2.2808
 7975SOL     OW35386   0.004   1.113   6.474  0.6497  0.1567 -0.2418
 7975SOL    HW135387   4.659   1.045   6.475 -0.3179  1.0576 -2.7571
 7975SOL    HW235388   0.082   1.068   6.439  0.8419  0.1737  0.1632
 7976SOL     OW35389   1.650   4.655   5.543  0.1621 -0.3880 -0.2419
 7976SOL    HW135390   1.727   4.703   5.574  1.3200 -1.0867 -2.0604
 7976SOL    HW235391   1.608   4.619   5.622  0.7025 -0.5722 -0.0394
 7977SOL     OW35392   0.744   4.565   4.407 -0.8054 -0.2904  0.0690
 7977SOL    HW135393   0.654   4.535   4.416 -0.5750 -0.8650  0.4636
 7977SOL    HW235394   0.736   4.621   4.330  1.8958 -0.4092 -0.3272
 7978SOL     OW35395   2.080   4.067  17.510  0.3148  0.1573  0.3003
 7978SOL    HW135396   2.165   4.091  17.548  0.4925  1.1488 -0.7090
 7978SOL    HW235397   2.055   4.152  17.473 -1.7086  1.1588  4.0500
 7979SOL     OW35398   3.892   4.256  10.602 -0.5034 -0.8105  0.6541
 7979SOL    HW135399   3.986   4.251  10.589 -0.5002  0.9923  0.0109
 7979SOL    HW235400   3.863   4.322  10.538  3.2838  1.5337  1.4098
 7980SOL     OW35401   1.042   0.692   2.625  0.2891 -0.3238  0.2625
 7980SOL    HW135402   1.064   0.782   2.649  0.5729  0.0860 -1.4806
 7980SOL    HW235403   1.119   0.647   2.660  1.9532  2.7810  0.6298
 7981SOL     OW35404   2.690   1.024  13.181  0.4340  0.0318  0.3444
 7981SOL    HW135405   2.613   1.081  13.193 -1.4778 -2.0939 -1.9477
 7981SOL    HW235406   2.733   1.053  13.101  0.9487 -0.6393  0.3862
 7982SOL     OW35407   1.260   2.894   5.803  0.6104  0.5957  0.2949
 7982SOL    HW135408   1.309   2.942   5.871 -0.0930 -0.9988  1.9197
 7982SOL    HW235409   1.173   2.906   5.841  1.5572  2.2483  2.0202
 7983SOL     OW35410   1.978   3.992  11.081 -0.2971  0.4760 -0.2846
 7983SOL    HW135411   2.064   3.949  11.080 -0.1187  0.9157 -3.8941
 7983SOL    HW235412   1.983   4.020  11.173  0.1461 -0.5710  0.0166
 7984SOL     OW35413   1.184   3.791   1.583 -0.1067 -0.3423 -0.2154
 7984SOL    HW135414   1.167   3.872   1.630  1.8909 -0.1831  0.2351
 7984SOL    HW235415   1.275   3.811   1.559 -0.4466  0.2626 -0.9749
 7985SOL     OW35416   3.716   4.652  16.799 -0.0433 -0.3136 -0.2357
 7985SOL    HW135417   3.674   4.689  16.722 -1.1077  1.7125  1.3318
 7985SOL    HW235418   3.751   4.565  16.777  0.7015 -0.7374  2.5685
 7986SOL     OW35419   3.640   0.448   1.338 -0.5174 -0.1523  0.3668
 7986SOL    HW135420   3.603   0.421   1.254  0.6216  1.1500 -0.5511
 7986SOL    HW235421   3.620   0.370   1.390  1.4570  0.1722  1.6106
 7987SOL     OW35422   0.134   3.427  11.503 -0.4358  0.5026  0.6071
 7987SOL    HW135423   0.227   3.424  11.482 -0.0305  1.1002  2.2665
 7987SOL    HW235424   0.103   3.469  11.422  0.6219 -0.1366 -0.1309
 7988SOL     OW35425   3.774   3.171   1.225 -0.0392 -0.1936  0.0381
 7988SOL    HW135426   3.683   3.200   1.212  1.1749  3.5217 -0.1076
 7988SOL    HW235427   3.813   3.198   1.142 -0.4186  3.4916  1.0438
 7989SOL     OW35428   0.345   1.767   6.308 -0.0040 -0.3808 -0.4774
 7989SOL    HW135429   0.287   1.813   6.246 -0.8941 -2.7327 -1.3811
 7989SOL    HW235430   0.287   1.695   6.334 -3.0337  2.5527  0.9952
 7990SOL     OW35431   0.940   1.075  13.866  0.1253 -0.1958 -0.3324
 7990SOL    HW135432   0.925   1.154  13.813 -0.0194 -1.0328 -1.5485
 7990SOL    HW235433   1.008   1.114  13.920  0.7098 -0.5681 -0.8003
 7991SOL     OW35434   0.966   3.856   7.533 -0.1548  1.1349  0.3642
 7991SOL    HW135435   0.973   3.833   7.626 -0.2448 -0.4866 -0.0297
 7991SOL    HW235436   1.007   3.943   7.537  0.8884  0.6577 -0.0628
 7992SOL     OW35437   4.598   0.447   2.352 -0.3314 -0.0586  0.2622
 7992SOL    HW135438   4.563   0.408   2.433 -0.7760  1.6993  0.9182
 7992SOL    HW235439   4.519   0.433   2.299  1.3392  0.4031 -2.3718
 7993SOL     OW35440   3.131   2.741   2.601 -0.3709 -0.4552  0.3383
 7993SOL    HW135441   3.096   2.828   2.616  1.8947  0.8340 -1.7111
 7993SOL    HW235442   3.202   2.743   2.665 -2.0016  1.2158  2.0656
 7994SOL     OW35443   3.138   1.730   6.187 -0.5075  0.2101 -0.0377
 7994SOL    HW135444   3.160   1.696   6.101  0.7440  0.0120  0.3468
 7994SOL    HW235445   3.142   1.650   6.240  1.0438  1.1090  1.2493
 7995SOL     OW35446   3.462   0.634   7.688 -0.5371 -0.0002 -0.0125
 7995SOL    HW135447   3.399   0.563   7.679  0.1817 -0.3288 -2.2636
 7995SOL    HW235448   3.489   0.651   7.598  0.9636 -0.0331  0.4324
 7996SOL     OW35449   0.236   3.497   4.428  0.5576 -0.8033 -0.6406
 7996SOL    HW135450   0.167   3.439   4.461  0.5521 -0.0781  0.6378
 7996SOL    HW235451   0.300   3.483   4.498  1.2430 -3.0771 -1.7054
 7997SOL     OW35452   4.382   3.079   8.336  0.6523  0.1361  0.2120
 7997SOL    HW135453   4.388   3.152   8.275 -0.8322 -0.5927 -0.7865
 7997SOL    HW235454   4.471   3.046   8.345 -0.1079 -1.9929 -0.1165
 7998SOL     OW35455   4.711   0.254   4.043 -0.1246 -0.6010 -0.6678
 7998SOL    HW135456   0.036   0.176   4.015 -0.5050 -0.7018 -1.0167
 7998SOL    HW235457   4.671   0.219   4.123 -3.2596 -1.9245 -2.8554
 7999SOL     OW35458   3.423   4.361   7.339  0.3347  0.1075  0.5759
 7999SOL    HW135459   3.469   4.344   7.257  0.5831 -0.7493  0.8880
 7999SOL    HW235460   3.333   4.370   7.308 -0.0171  0.6678  1.7812
 8000SOL     OW35461   3.476   2.809  11.691  0.2492 -0.1747  0.2414
 8000SOL    HW135462   3.486   2.904  11.695 -0.2984 -0.2750  4.5595
 8000SOL    HW235463   3.557   2.781  11.735  0.2067 -0.5919  0.0446
 8001SOL     OW35464   0.759   3.220  14.240  0.0234 -0.0049 -0.5041
 8001SOL    HW135465   0.740   3.158  14.310 -0.0060  2.7654  1.9124
 8001SOL    HW235466   0.756   3.157  14.168 -2.6765 -1.0991  0.5642
 8002SOL     OW35467   0.390   2.092   5.624 -0.0074  0.5051  0.2415
 8002SOL    HW135468   0.468   2.038   5.628 -1.2157 -1.3654 -1.3217
 8002SOL    HW235469   0.390   2.129   5.712  0.9838  1.6181 -0.2234
 8003SOL     OW35470   2.950   0.254   5.856  0.1736  0.2055 -0.1248
 8003SOL    HW135471   3.020   0.286   5.798 -0.1327 -0.9376 -1.1221
 8003SOL    HW235472   3.000   0.199   5.916 -0.0822 -1.5839 -1.5610
 8004SOL     OW35473   2.211   2.380   4.359 -0.0008  0.4753 -0.0820
 8004SOL    HW135474   2.261   2.327   4.421  0.5637 -1.4764 -2.2545
 8004SOL    HW235475   2.171   2.306   4.314 -0.0640  1.2920 -1.3745
 8005SOL     OW35476   1.406   0.361  10.438 -0.4148  0.3180  0.0835
 8005SOL    HW135477   1.378   0.430  10.377 -0.8957  1.3430  1.4784
 8005SOL    HW235478   1.499   0.357  10.418 -0.4723 -1.0800  0.0538
 8006SOL     OW35479   4.477   0.075   9.859 -0.5159  0.4464  0.3514
 8006SOL    HW135480   4.570   0.076   9.835 -0.2131 -3.6039  1.2196
 8006SOL    HW235481   4.484   0.096   9.952  0.3373  1.3538  0.0766
 8007SOL     OW35482   2.825   3.153   8.110 -0.0866 -0.2235 -0.0417
 8007SOL    HW135483   2.908   3.131   8.068 -0.0437  0.4112 -0.2834
 8007SOL    HW235484   2.831   3.248   8.102  2.2636 -0.3910 -0.3603
 8008SOL     OW35485   2.279   1.564   0.182  0.3311  0.2955 -0.4728
 8008SOL    HW135486   2.360   1.565   0.234  0.9265 -0.7942 -1.3914
 8008SOL    HW235487   2.230   1.638   0.218 -0.2896 -0.1159 -0.4904
 8009SOL     OW35488   3.860   2.414   4.050  0.1077 -0.1968 -0.1475
 8009SOL    HW135489   3.826   2.350   3.987 -0.5867 -0.6624  0.6891
 8009SOL    HW235490   3.913   2.464   3.989 -0.7262  3.1261  1.8455
 8010SOL     OW35491   3.652   1.081   9.483  0.0331 -0.8364 -0.1659
 8010SOL    HW135492   3.696   1.016   9.537  1.8015 -1.0564 -1.8774
 8010SOL    HW235493   3.728   1.129   9.451 -0.1841 -0.1148  0.3972
 8011SOL     OW35494   1.120   4.098   4.340 -0.1008 -0.4197  0.3598
 8011SOL    HW135495   1.027   4.113   4.326  0.3426  1.8074 -0.3467
 8011SOL    HW235496   1.121   4.097   4.436 -1.7613 -1.5374  0.3602
 8012SOL     OW35497   2.147   0.757   4.609 -0.5668  0.0287 -0.0002
 8012SOL    HW135498   2.121   0.802   4.529 -1.2016 -0.2930  0.0210
 8012SOL    HW235499   2.137   0.829   4.672 -1.8507 -0.5094  0.4233
 8013SOL     OW35500   0.841   2.079   4.261 -0.8166  0.0750  0.1175
 8013SOL    HW135501   0.747   2.090   4.269 -0.5328  0.7827  2.6164
 8013SOL    HW235502   0.870   2.147   4.322  1.1996 -0.6040 -0.0770
 8014SOL     OW35503   2.311   1.319   3.155 -0.2075 -0.1698  0.1121
 8014SOL    HW135504   2.356   1.385   3.101 -0.6348  1.4891  1.7715
 8014SOL    HW235505   2.345   1.246   3.103 -1.3407  0.0347 -0.9209
 8015SOL     OW35506   1.227   1.722   5.601 -0.0464 -0.1708 -1.0061
 8015SOL    HW135507   1.303   1.695   5.548 -0.4642  0.2728 -1.8308
 8015SOL    HW235508   1.247   1.813   5.620  1.9722 -0.6880 -0.6821
 8016SOL     OW35509   0.176   3.494   8.024  0.0582  0.1085  0.1217
 8016SOL    HW135510   0.147   3.538   8.103  2.4786 -0.8841  1.5592
 8016SOL    HW235511   0.244   3.559   8.006  2.3096 -2.1257  0.4167
 8017SOL     OW35512   4.716   0.949  11.956 -0.0976 -0.6263  0.1079
 8017SOL    HW135513   4.673   0.880  11.906  1.8781 -0.2311 -2.1065
 8017SOL    HW235514   4.686   1.028  11.913 -2.7713  0.1908  3.4752
 8018SOL     OW35515   2.842   2.493  13.245  0.0466  0.3428  0.3394
 8018SOL    HW135516   2.852   2.502  13.339 -0.3220  1.3641  0.2731
 8018SOL    HW235517   2.883   2.570  13.206  1.1183 -0.0929  0.5974
 8019SOL     OW35518   2.659   0.809   6.787 -0.3981  0.0354  0.0957
 8019SOL    HW135519   2.623   0.733   6.833  1.6633 -0.5674  0.7128
 8019SOL    HW235520   2.677   0.769   6.703  0.0376  0.1861  0.1169
 8020SOL     OW35521   3.335   2.119   3.013 -0.2327  0.2587  0.2212
 8020SOL    HW135522   3.278   2.188   2.981 -2.2282 -0.7665  1.5150
 8020SOL    HW235523   3.416   2.168   3.023 -0.6821  0.9917  0.2918
 8021SOL     OW35524   1.665   3.659   0.091 -0.5335 -0.4294  0.1176
 8021SOL    HW135525   1.734   3.665   0.157 -1.2916 -1.6159  1.0156
 8021SOL    HW235526   1.670   3.752   0.067  0.4251 -0.6719 -0.5829
 8022SOL     OW35527   0.739   0.281   5.942  0.6477 -0.2609  0.2820
 8022SOL    HW135528   0.716   0.266   5.850 -1.2273 -2.2752  1.0916
 8022SOL    HW235529   0.826   0.321   5.935  0.1983  0.6990  0.1476
 8023SOL     OW35530   0.965   4.323   4.076 -0.1515 -0.2769  0.3502
 8023SOL    HW135531   0.988   4.372   4.155 -0.2346  2.9631 -1.6568
 8023SOL    HW235532   1.040   4.263   4.075  0.1729  0.1339 -0.2843
 8024SOL     OW35533   2.809   0.450   6.954 -0.3592  0.0290  0.4420
 8024SOL    HW135534   2.868   0.500   6.897 -0.3875 -0.2496  0.1714
 8024SOL    HW235535   2.735   0.511   6.960 -0.6758 -0.5699  2.5006
 8025SOL     OW35536   1.839   0.720   8.351 -0.5903  0.9998 -0.3117
 8025SOL    HW135537   1.807   0.700   8.263 -0.4851 -1.5324  0.2156
 8025SOL    HW235538   1.890   0.795   8.321 -1.5034  1.0533 -1.7234
 8026SOL     OW35539   3.732   3.367   6.156  0.1506 -0.5833  0.0569
 8026SOL    HW135540   3.682   3.340   6.080  2.8234 -1.7023 -1.2990
 8026SOL    HW235541   3.673   3.439   6.181  1.1175 -0.2030  1.2485
 8027SOL     OW35542   0.656   4.026   2.694 -0.2028 -0.3175  0.3645
 8027SOL    HW135543   0.618   3.940   2.711  0.1709 -0.8803 -1.6469
 8027SOL    HW235544   0.578   4.072   2.665 -0.5189 -0.7229  0.5793
 8028SOL     OW35545   4.295   2.241   9.722  0.5384  0.1055 -0.3643
 8028SOL    HW135546   4.371   2.184   9.710  0.2452 -0.3980  0.1735
 8028SOL    HW235547   4.262   2.242   9.632 -1.1456  0.7114  0.2597
 8029SOL     OW35548   4.221   3.680   5.696  0.3891 -0.3061 -0.1064
 8029SOL    HW135549   4.196   3.739   5.625 -0.6215 -0.3759  0.1935
 8029SOL    HW235550   4.212   3.747   5.764 -2.1414  0.6671 -1.3855
 8030SOL     OW35551   0.518   4.251   5.470  0.0288  0.1700  0.2011
 8030SOL    HW135552   0.538   4.173   5.522 -0.4833  0.4389  0.8088
 8030SOL    HW235553   0.454   4.294   5.527  1.4209 -0.3782  2.1661
 8031SOL     OW35554   1.168   1.482   7.612 -0.4473  0.5592  0.0355
 8031SOL    HW135555   1.210   1.452   7.693 -0.2826 -3.9230 -1.7028
 8031SOL    HW235556   1.115   1.405   7.593 -2.9691  2.5238 -0.8995
 8032SOL     OW35557   0.672   1.188   2.823  0.2458  0.2597 -0.0252
 8032SOL    HW135558   0.605   1.184   2.755  1.7749  0.1730 -1.5159
 8032SOL    HW235559   0.726   1.263   2.795  2.2213 -1.5172 -0.9349
 8033SOL     OW35560   3.229   4.207   5.551  0.0186  0.0681  0.1538
 8033SOL    HW135561   3.141   4.168   5.555 -0.5748  1.5735  1.5798
 8033SOL    HW235562   3.236   4.234   5.459  0.0483  0.6162  0.3193
 8034SOL     OW35563   3.343   0.883   7.419  0.0742  0.2654 -0.4138
 8034SOL    HW135564   3.277   0.815   7.432  0.0416  0.7674  1.9593
 8034SOL    HW235565   3.321   0.900   7.328 -0.9067  0.0382 -0.2115
 8035SOL     OW35566   4.622   1.308  10.381 -0.0538 -0.0805  0.3637
 8035SOL    HW135567   4.642   1.249  10.308  0.6880  0.4744  0.1090
 8035SOL    HW235568   4.664   1.268  10.456  0.3061  0.4089  0.4256
 8036SOL     OW35569   1.927   4.343   2.554  0.3237  0.4200 -0.0737
 8036SOL    HW135570   1.857   4.281   2.575  2.2350 -2.0807 -1.0897
 8036SOL    HW235571   1.893   4.419   2.602  1.9086  0.4748  0.9791
 8037SOL     OW35572   0.177   3.689   6.601  0.9417  0.1451 -0.0294
 8037SOL    HW135573   0.187   3.637   6.681 -0.8602 -0.4861 -0.2069
 8037SOL    HW235574   0.178   3.624   6.530  1.8837  0.5763 -0.4066
 8038SOL     OW35575   4.412   3.450   8.465 -0.4347 -0.8216 -0.0430
 8038SOL    HW135576   4.486   3.494   8.423  0.3327 -0.2947  1.8337
 8038SOL    HW235577   4.453   3.363   8.468 -0.6215 -0.9504 -1.2426
 8039SOL     OW35578   2.131   4.627   6.639  0.1492  0.3816 -0.3668
 8039SOL    HW135579   2.058   4.599   6.584  1.6654 -0.2640 -2.0333
 8039SOL    HW235580   2.084   4.667   6.712 -1.6107  1.4821 -2.0883
 8040SOL     OW35581   2.024   0.893   2.658  0.0148 -0.2500  0.0946
 8040SOL    HW135582   1.948   0.890   2.716 -0.2998 -1.4305 -0.3939
 8040SOL    HW235583   1.980   0.888   2.574  1.1223  0.1062 -0.5128
 8041SOL     OW35584   4.356   3.799   9.378 -0.4805  0.7325  0.4773
 8041SOL    HW135585   4.354   3.865   9.447 -0.2938  2.1282 -0.8699
 8041SOL    HW235586   4.451   3.796   9.363 -0.4549 -0.7668  0.8729
 8042SOL     OW35587   1.270   4.632   9.585 -0.5024  0.5720 -0.2140
 8042SOL    HW135588   1.221   4.551   9.597 -0.1019  0.6260  1.8205
 8042SOL    HW235589   1.279   4.643   9.490 -2.2697  0.4810 -0.3877
 8043SOL     OW35590   3.014   1.706   8.723 -0.0887 -0.6895  0.0628
 8043SOL    HW135591   3.036   1.657   8.802 -0.5930 -0.1572  0.5401
 8043SOL    HW235592   2.953   1.775   8.751  1.0525  0.6928 -0.8663
 8044SOL     OW35593   4.224   0.358   7.085  0.0733 -0.2372 -0.1992
 8044SOL    HW135594   4.225   0.440   7.134 -1.0795 -0.3417 -0.0021
 8044SOL    HW235595   4.239   0.400   7.000 -1.5345  1.1559  0.2124
 8045SOL     OW35596   3.553   2.409   8.198 -0.2145 -0.3748 -0.5448
 8045SOL    HW135597   3.597   2.493   8.191 -1.5351  0.3136 -0.5124
 8045SOL    HW235598   3.469   2.432   8.236 -0.5310 -0.1143 -1.3996
 8046SOL     OW35599   1.153   0.833   3.058 -0.1702 -0.1857  0.7300
 8046SOL    HW135600   1.222   0.791   3.007 -0.0679  1.8855 -0.8511
 8046SOL    HW235601   1.206   0.875   3.126  1.6663 -0.5107 -0.5135
 8047SOL     OW35602   2.264   0.967   3.909  0.7536 -0.2985  0.2512
 8047SOL    HW135603   2.237   0.909   3.981 -0.3078  0.3746  0.4013
 8047SOL    HW235604   2.182   1.016   3.902 -0.5144 -2.2428  1.3893
 8048SOL     OW35605   4.502   1.515   8.719 -0.5845 -0.1243 -0.1047
 8048SOL    HW135606   4.534   1.454   8.785  1.9603  2.2464  0.8696
 8048SOL    HW235607   4.447   1.449   8.677  1.7667 -2.4374  0.4281
 8049SOL     OW35608   0.291   0.999   5.642  0.0493 -0.1825 -0.0962
 8049SOL    HW135609   0.347   0.922   5.651  1.3977  0.6108 -1.8148
 8049SOL    HW235610   0.207   0.953   5.649  0.2729 -0.9328 -2.4247
 8050SOL     OW35611   0.865   0.434  14.750  0.1800 -0.4389  0.0597
 8050SOL    HW135612   0.802   0.500  14.779  0.8481  1.0719 -1.8544
 8050SOL    HW235613   0.933   0.475  14.696 -1.1924  1.5031 -0.1973
 8051SOL     OW35614   1.447   3.790   6.865 -0.2974 -0.1896  0.0277
 8051SOL    HW135615   1.536   3.825   6.863  1.0614 -3.6108  1.1324
 8051SOL    HW235616   1.431   3.797   6.959 -0.6517  0.8702 -0.1198
 8052SOL     OW35617   2.627   3.662   4.391  0.1252  0.0948 -0.0506
 8052SOL    HW135618   2.615   3.575   4.352 -1.2784  0.5157 -0.5751
 8052SOL    HW235619   2.600   3.648   4.482 -0.3681 -0.0539 -0.2169
 8053SOL     OW35620   2.612   2.684  12.312 -0.1870  0.4125 -0.1203
 8053SOL    HW135621   2.650   2.663  12.397  1.0193  2.9319 -0.0404
 8053SOL    HW235622   2.630   2.776  12.295  0.5042 -0.1364 -2.3925
 8054SOL     OW35623   0.102   3.009   7.353  0.2845  0.0414  0.0245
 8054SOL    HW135624   0.100   3.004   7.449 -2.4170  1.1235  0.0101
 8054SOL    HW235625   0.038   3.076   7.328  0.9120  0.0781 -1.4665
 8055SOL     OW35626   1.147   1.964  10.641 -0.9777  0.0992  0.1363
 8055SOL    HW135627   1.157   1.895  10.574  2.5285 -0.1808  0.9319
 8055SOL    HW235628   1.070   2.007  10.604 -0.0549  2.1077  0.5666
 8056SOL     OW35629   3.137   4.419   9.824 -0.0238  0.3934 -0.2276
 8056SOL    HW135630   3.219   4.370   9.817 -1.5216 -2.1314 -0.5365
 8056SOL    HW235631   3.120   4.435   9.731 -0.2294  2.3254  0.1572
 8057SOL     OW35632   2.069   3.183   8.618  0.8764  0.1551  0.1506
 8057SOL    HW135633   2.001   3.239   8.656 -0.6872 -2.7809  1.6417
 8057SOL    HW235634   2.088   3.141   8.702 -2.1999  0.5563  1.0307
 8058SOL     OW35635   4.152   1.606   1.968 -0.5305  0.2837  0.6526
 8058SOL    HW135636   4.155   1.681   1.908 -1.0420 -0.4039 -0.2341
 8058SOL    HW235637   4.244   1.583   1.982 -0.5648  0.0676  0.5123
 8059SOL     OW35638   3.337   4.305   5.963  0.3169  0.0290 -0.1123
 8059SOL    HW135639   3.339   4.392   5.925 -1.7257  0.9334  1.8362
 8059SOL    HW235640   3.290   4.327   6.044 -2.4784 -0.0255 -1.7347
 8060SOL     OW35641   4.192   3.473   4.344 -0.1485 -0.2024  0.1649
 8060SOL    HW135642   4.176   3.386   4.308  0.4460 -0.2681  0.0672
 8060SOL    HW235643   4.192   3.456   4.438  0.9724 -2.1507 -0.1802
 8061SOL     OW35644   1.340   2.306  10.928 -0.4697 -0.4208  0.0043
 8061SOL    HW135645   1.258   2.305  10.880  0.4691 -0.9853 -1.5754
 8061SOL    HW235646   1.393   2.239  10.886  0.0824 -0.1460  0.2600
 8062SOL     OW35647   1.345   0.903  11.039 -0.1827 -0.3217 -0.9079
 8062SOL    HW135648   1.342   0.904  11.135 -3.7100  0.3987 -1.0328
 8062SOL    HW235649   1.388   0.820  11.020  0.6682 -0.6624  2.4172
 8063SOL     OW35650   3.775   1.509   5.064  0.4983  0.1206 -0.2588
 8063SOL    HW135651   3.750   1.418   5.045 -2.1088  0.4064  1.8709
 8063SOL    HW235652   3.809   1.538   4.979 -0.5764  2.8504  0.2678
 8064SOL     OW35653   4.195   3.664   6.771 -0.4183  0.0295  0.1619
 8064SOL    HW135654   4.118   3.607   6.775  1.1942 -2.2343 -1.4970
 8064SOL    HW235655   4.168   3.747   6.731  0.1312  0.5648  0.8984
 8065SOL     OW35656   2.520   1.621  10.872 -0.0190  0.3435  0.1010
 8065SOL    HW135657   2.469   1.602  10.951  0.3572  2.0568  0.7439
 8065SOL    HW235658   2.566   1.537  10.863  0.8282  0.7319  0.8138
 8066SOL     OW35659   3.831   1.315   6.779 -0.1246 -0.1066  0.1341
 8066SOL    HW135660   3.878   1.235   6.799  0.4967  0.0341 -0.7949
 8066SOL    HW235661   3.881   1.373   6.837  0.2898 -2.9142  2.5774
 8067SOL     OW35662   1.859   0.010  13.860  0.1727  0.5596 -0.3080
 8067SOL    HW135663   1.948   0.040  13.840  0.1882  1.6704  1.3568
 8067SOL    HW235664   1.860   0.002  13.956 -4.0217  0.2890 -0.2934
 8068SOL     OW35665   0.012   4.589  11.834  0.1397 -0.5434 -0.0359
 8068SOL    HW135666   0.047   4.669  11.794 -2.0300  0.4370  0.0206
 8068SOL    HW235667   0.025   4.530  11.760 -2.2499  0.0607 -0.9246
 8069SOL     OW35668   0.653   4.713   6.130 -0.3429  0.0862  0.2762
 8069SOL    HW135669   0.644   0.020   6.221  0.8657  1.1966  0.0496
 8069SOL    HW235670   0.692   0.070   6.093 -0.6728 -0.8267 -1.9961
 8070SOL     OW35671   3.620   1.104   3.443 -0.0142  0.6166  0.4440
 8070SOL    HW135672   3.623   1.018   3.401 -0.0272  0.0377  1.6308
 8070SOL    HW235673   3.689   1.097   3.509  0.8383 -1.6564 -0.6853
 8071SOL     OW35674   0.266   2.110   3.454  0.2507  0.0556 -0.1291
 8071SOL    HW135675   0.299   2.195   3.483 -2.0177  0.8872  0.0764
 8071SOL    HW235676   0.197   2.135   3.392 -1.5919  2.5940  2.9427
 8072SOL     OW35677   3.710   1.084   7.257  0.5203 -0.1148  0.0234
 8072SOL    HW135678   3.804   1.098   7.271  0.4763  1.0436 -0.7813
 8072SOL    HW235679   3.689   1.163   7.207  1.9355  1.7869  2.4392
 8073SOL     OW35680   4.379   0.702   6.465  0.1089 -0.3687 -0.5821
 8073SOL    HW135681   4.374   0.651   6.384  0.7709 -1.3791  0.0197
 8073SOL    HW235682   4.470   0.730   6.454 -0.5791  2.8671  2.0113
 8074SOL     OW35683   0.516   3.552   2.392  0.1848 -0.6906 -0.4417
 8074SOL    HW135684   0.588   3.524   2.449  0.4784 -0.2001 -0.5680
 8074SOL    HW235685   0.439   3.507   2.426 -0.2428  0.1611 -0.2691
 8075SOL     OW35686   3.769   4.349   0.303  0.0696  0.1555 -0.6369
 8075SOL    HW135687   3.854   4.378   0.271  1.2190 -1.3396  1.0164
 8075SOL    HW235688   3.784   4.255   0.292 -1.7341 -0.3467  1.0877
 8076SOL     OW35689   2.672   2.819   0.145  0.2086 -0.0750 -0.2592
 8076SOL    HW135690   2.705   2.738   0.105  1.4386  0.0455  0.5129
 8076SOL    HW235691   2.686   2.798   0.237 -0.3679 -0.7164 -0.3182
 8077SOL     OW35692   2.037   0.962   3.326 -0.0946  0.1545  0.5721
 8077SOL    HW135693   2.126   0.946   3.296 -0.0833  0.1187  0.6239
 8077SOL    HW235694   2.045   1.053   3.352  0.4931 -0.2579  1.8452
 8078SOL     OW35695   2.230   4.072   6.886  0.2740 -0.5474  0.9050
 8078SOL    HW135696   2.212   4.069   6.980  1.1795 -0.1319  1.0964
 8078SOL    HW235697   2.309   4.021   6.870 -0.8793 -1.4811 -1.8533
 8079SOL     OW35698   4.682   3.150   0.756 -0.0703  0.0232  0.3587
 8079SOL    HW135699   4.606   3.094   0.766 -0.5112  0.2210 -2.0182
 8079SOL    HW235700   4.635   3.233   0.753  0.0264  0.0952  0.7355
 8080SOL     OW35701   0.796   2.044   9.645 -0.4682  0.1157 -0.5189
 8080SOL    HW135702   0.714   2.011   9.681 -0.4126 -1.2441 -1.6359
 8080SOL    HW235703   0.831   2.116   9.696 -0.6767  0.1719 -0.4572
 8081SOL     OW35704   3.659   2.499   6.345  0.1929  0.0024 -0.2883
 8081SOL    HW135705   3.658   2.424   6.286 -0.3807 -1.3553  1.4603
 8081SOL    HW235706   3.576   2.545   6.335 -0.6603 -1.2035  1.3060
 8082SOL     OW35707   0.750   0.530   4.430  0.3375 -0.5200 -0.1447
 8082SOL    HW135708   0.782   0.584   4.357 -2.2493 -0.8431 -1.5271
 8082SOL    HW235709   0.797   0.447   4.417  0.5610  0.1723 -3.8883
 8083SOL     OW35710   1.501   4.280  11.764 -1.0431  0.1563  0.0830
 8083SOL    HW135711   1.434   4.257  11.828 -1.1721 -0.5932 -0.3135
 8083SOL    HW235712   1.566   4.314  11.825 -1.1744  1.6538 -0.6163
 8084SOL     OW35713   3.383   1.044   4.715 -0.0103 -0.0121  0.6510
 8084SOL    HW135714   3.423   1.127   4.742 -1.1052  0.6551  0.2469
 8084SOL    HW235715   3.351   1.008   4.798  0.5043  1.1624  1.3613
 8085SOL     OW35716   4.111   0.119   1.620  0.0025 -0.3294 -0.1428
 8085SOL    HW135717   4.121   0.121   1.715  1.7090 -0.2142 -0.3292
 8085SOL    HW235718   4.018   0.137   1.605 -0.2245 -0.7736  0.7608
 8086SOL     OW35719   3.565   1.306   9.617 -0.4005  0.2332  0.2244
 8086SOL    HW135720   3.596   1.235   9.561  0.3499  0.2410  0.6376
 8086SOL    HW235721   3.650   1.322   9.657  0.0387 -1.0456 -0.2169
 8087SOL     OW35722   3.971   1.982   6.638 -0.6684  0.6804 -0.1727
 8087SOL    HW135723   4.053   1.966   6.590 -0.2107  2.4184  0.0249
 8087SOL    HW235724   3.988   2.066   6.680 -2.4516  0.3191  1.2504
 8088SOL     OW35725   4.045   3.081  11.043  0.2666  0.7087 -0.1350
 8088SOL    HW135726   4.008   3.000  11.009 -3.1363  3.1794 -2.3127
 8088SOL    HW235727   4.109   3.048  11.106 -0.8761 -2.0537 -0.4138
 8089SOL     OW35728   4.018   1.692  15.915 -0.5408  0.1631 -0.4534
 8089SOL    HW135729   3.933   1.707  15.956 -1.0520 -1.2340 -1.0193
 8089SOL    HW235730   4.009   1.718  15.823 -1.5597 -2.4856 -1.0828
 8090SOL     OW35731   3.639   1.399   7.964  0.7080 -0.3625 -0.1755
 8090SOL    HW135732   3.557   1.390   7.915  0.2566 -0.7791  0.6553
 8090SOL    HW235733   3.622   1.351   8.045 -0.7335 -0.4102 -0.5002
 8091SOL     OW35734   1.740   0.186   2.632  0.5295  0.1950  0.1692
 8091SOL    HW135735   1.736   0.275   2.665  0.8168 -0.4321  1.8657
 8091SOL    HW235736   1.731   0.207   2.539 -1.2477  0.1991  0.3364
 8092SOL     OW35737   0.595   3.411   2.159 -0.1666  0.0657 -0.6271
 8092SOL    HW135738   0.686   3.402   2.188 -0.8302 -0.5633  1.2861
 8092SOL    HW235739   0.573   3.481   2.220  0.2252  0.8260 -1.3696
 8093SOL     OW35740   3.735   3.968   5.950 -0.2483  0.2493 -0.4928
 8093SOL    HW135741   3.684   4.036   5.904 -0.6304 -0.8136 -1.6346
 8093SOL    HW235742   3.733   4.006   6.037 -2.1936 -3.3966  1.0478
 8094SOL     OW35743   4.571   2.313   7.884  0.0034 -0.9774 -0.9843
 8094SOL    HW135744   4.507   2.308   7.955  2.7071 -1.8771  1.3766
 8094SOL    HW235745   4.648   2.270   7.920 -0.9815 -1.0774  0.9640
 8095SOL     OW35746   1.817   1.412   4.529  0.2731  0.1194 -0.1850
 8095SOL    HW135747   1.740   1.355   4.522  0.3870 -0.1931  0.9704
 8095SOL    HW235748   1.881   1.346   4.559  0.6527  0.9409  0.7866
 8096SOL     OW35749   2.067   2.570   4.214 -0.1386  0.1835 -0.1246
 8096SOL    HW135750   2.141   2.577   4.154  1.0165 -1.2771  1.1364
 8096SOL    HW235751   2.101   2.518   4.287 -2.6274  2.0669  2.3616
 8097SOL     OW35752   1.594   1.598   3.777 -0.2835  0.3224 -0.0489
 8097SOL    HW135753   1.557   1.569   3.694  0.5309  1.6014 -0.8652
 8097SOL    HW235754   1.610   1.691   3.758  0.6342 -0.2946 -2.2593
 8098SOL     OW35755   1.824   2.430   3.113 -0.0687 -0.7883  0.2367
 8098SOL    HW135756   1.768   2.481   3.172  0.5968  1.4085 -1.0102
 8098SOL    HW235757   1.886   2.388   3.172  3.4744  0.9256 -2.2464
 8099SOL     OW35758   3.336   3.100   1.823 -0.0588  0.3994 -0.1537
 8099SOL    HW135759   3.324   3.016   1.867  1.3942  0.2934  0.0378
 8099SOL    HW235760   3.250   3.118   1.783 -0.4840  1.3135  1.1618
 8100SOL     OW35761   4.480   4.169   5.427 -0.0744  0.6147  0.3559
 8100SOL    HW135762   4.558   4.222   5.410  0.5026 -0.2975  0.1454
 8100SOL    HW235763   4.419   4.236   5.396  1.5293  1.0476 -1.8474
 8101SOL     OW35764   4.076   3.851  14.443 -0.0707 -0.4654 -0.2607
 8101SOL    HW135765   4.025   3.788  14.393 -0.0184  0.9274 -2.0727
 8101SOL    HW235766   4.104   3.796  14.516  2.4234  1.2617  0.0905
 8102SOL     OW35767   0.696   3.342  17.451 -0.2052  0.4711  0.3211
 8102SOL    HW135768   0.744   3.417  17.485 -2.4881  1.3570  1.6222
 8102SOL    HW235769   0.703   3.278  17.522  3.7485  0.6832  0.0895
 8103SOL     OW35770   3.095   0.750   8.712  0.4079  0.2437 -0.3675
 8103SOL    HW135771   3.055   0.818   8.658 -2.4787 -1.6508 -0.5931
 8103SOL    HW235772   3.022   0.691   8.732 -0.1851  0.3921 -2.1028
 8104SOL     OW35773   0.866   2.347   2.744  0.2843  0.6070 -0.4572
 8104SOL    HW135774   0.904   2.313   2.826  0.4625  1.0034 -0.3759
 8104SOL    HW235775   0.775   2.338   2.770  1.0773  0.3299  2.2358
 8105SOL     OW35776   1.214   1.889   4.542  0.1841  0.1382 -0.4916
 8105SOL    HW135777   1.171   1.815   4.585  3.6350 -1.8699 -0.3891
 8105SOL    HW235778   1.305   1.865   4.562 -0.9511 -2.5122  1.5385
 8106SOL     OW35779   3.095   4.380  10.611  0.4036  0.0036  0.3612
 8106SOL    HW135780   3.012   4.334  10.626  1.3287 -1.8576 -0.1642
 8106SOL    HW235781   3.154   4.333  10.670  1.2443  0.8236  0.1648
 8107SOL     OW35782   4.714   2.125   5.524 -0.2886  0.1937  0.3502
 8107SOL    HW135783   4.671   2.089   5.446 -0.3496 -0.9568  0.9033
 8107SOL    HW235784   0.074   2.150   5.481  0.0730 -0.5837  0.5825
 8108SOL     OW35785   2.142   4.581   7.604  0.0299  0.3822 -0.0140
 8108SOL    HW135786   2.211   4.529   7.562 -0.6501  1.4716 -2.4388
 8108SOL    HW235787   2.181   4.589   7.691  0.0165  0.2854  0.0015
 8109SOL     OW35788   4.210   1.333   6.885 -0.2541 -0.4769  0.3897
 8109SOL    HW135789   4.126   1.359   6.922 -0.4305  0.6721 -0.8195
 8109SOL    HW235790   4.194   1.327   6.791  0.6425  0.4837  0.1787
 8110SOL     OW35791   0.064   4.172   2.491  0.5586 -0.1357 -0.0591
 8110SOL    HW135792   0.123   4.248   2.486  0.4467  0.0410  1.4564
 8110SOL    HW235793   0.031   4.166   2.401 -1.2277  0.9087  0.5294
 8111SOL     OW35794   4.086   3.516   1.538 -0.5792  0.4827  0.3706
 8111SOL    HW135795   4.161   3.575   1.528 -2.2454  2.3975 -0.7210
 8111SOL    HW235796   4.035   3.527   1.458 -0.6546  0.1758  0.3773
 8112SOL     OW35797   4.187   1.450   7.487 -0.2470 -0.3001  0.1861
 8112SOL    HW135798   4.199   1.507   7.562 -0.0988 -0.3983  0.2378
 8112SOL    HW235799   4.243   1.379   7.519 -1.5327 -1.2468  0.3398
 8113SOL     OW35800   4.215   1.898   6.551 -0.1822  0.1595  0.3570
 8113SOL    HW135801   4.201   1.866   6.462 -0.6986  2.2545 -0.3221
 8113SOL    HW235802   4.304   1.931   6.545 -1.1395  2.5758 -0.7941
 8114SOL     OW35803   3.761   3.363   7.978 -0.0522  0.2659  0.1862
 8114SOL    HW135804   3.815   3.437   7.951 -2.2164  2.3681  1.6907
 8114SOL    HW235805   3.812   3.299   7.927 -1.3687  0.7228 -1.6536
 8115SOL     OW35806   3.487   1.253   7.005  0.1123  0.0577  0.1281
 8115SOL    HW135807   3.565   1.287   7.049  0.4025 -0.1030 -0.2619
 8115SOL    HW235808   3.508   1.161   6.986 -0.9953 -0.2400  0.3730
 8116SOL     OW35809   1.879   1.149  14.754  0.1929  0.0618  0.1948
 8116SOL    HW135810   1.805   1.090  14.738  0.5369 -0.2965 -0.0819
 8116SOL    HW235811   1.943   1.078  14.758 -0.0131  0.0295  2.5852
 8117SOL     OW35812   2.760   4.128   9.323 -0.2173  0.1315 -0.0229
 8117SOL    HW135813   2.770   4.080   9.405 -0.0328 -0.2851 -0.2898
 8117SOL    HW235814   2.777   4.217   9.351 -0.7781  0.0315  0.6359
 8118SOL     OW35815   0.267   4.300   5.272  0.2127  0.4509 -0.0245
 8118SOL    HW135816   0.272   4.207   5.251 -0.1603  0.3764  0.1982
 8118SOL    HW235817   0.312   4.310   5.356 -1.5175 -0.4171  1.0194
 8119SOL     OW35818   4.230   0.805  13.772  0.0321 -0.0109  0.3674
 8119SOL    HW135819   4.224   0.810  13.676 -1.7571 -0.0699  0.4782
 8119SOL    HW235820   4.188   0.889  13.791  1.8799  0.8264  0.7050
 8120SOL     OW35821   0.879   1.306  13.457 -0.3659  0.3886  0.6246
 8120SOL    HW135822   0.796   1.343  13.428 -0.0030  0.9382  0.2778
 8120SOL    HW235823   0.916   1.281  13.372 -3.4725 -1.4640 -0.1723
 8121SOL     OW35824   4.375   3.561  16.373 -0.3725 -0.3308 -0.3757
 8121SOL    HW135825   4.383   3.545  16.279 -0.4301 -1.0918 -0.2524
 8121SOL    HW235826   4.284   3.540  16.394 -0.0888 -0.3711  0.7986
 8122SOL     OW35827   3.474   1.456   6.749 -0.6220  0.9484  0.3988
 8122SOL    HW135828   3.562   1.468   6.786 -0.7068 -2.3971  1.7314
 8122SOL    HW235829   3.463   1.363   6.772 -0.0347  0.6286 -0.5891
 8123SOL     OW35830   0.141   0.476  15.883  0.0300 -0.3140 -0.6070
 8123SOL    HW135831   0.115   0.461  15.974  4.4997 -1.0851  0.5433
 8123SOL    HW235832   0.144   0.572  15.881 -0.7516 -0.2623  0.7169
 8124SOL     OW35833   1.560   2.063   5.144  0.1068 -0.3391 -0.2266
 8124SOL    HW135834   1.640   2.021   5.177 -0.2901 -0.2805  0.8110
 8124SOL    HW235835   1.504   1.999   5.187 -0.2062  0.5434  0.6774
 8125SOL     OW35836   2.795   2.962   6.588  0.2482 -0.3840  0.3762
 8125SOL    HW135837   2.703   2.985   6.597  0.0993 -1.0122  0.4907
 8125SOL    HW235838   2.792   2.936   6.680  1.1481 -1.5572  0.0730
 8126SOL     OW35839   2.304   3.187   9.115  0.5851 -0.2922  0.1669
 8126SOL    HW135840   2.366   3.136   9.064 -1.7838 -2.6367 -0.3800
 8126SOL    HW235841   2.350   3.221   9.192 -0.8080  1.3696  0.2812
 8127SOL     OW35842   3.663   4.133  16.717 -0.1012 -0.0472 -0.6629
 8127SOL    HW135843   3.713   4.144  16.637  0.3294  1.5802 -0.1618
 8127SOL    HW235844   3.675   4.040  16.739 -0.0799  0.3232  0.9105
 8128SOL     OW35845   1.165   0.142  12.852 -0.0718 -0.0668  0.1670
 8128SOL    HW135846   1.169   0.238  12.849 -1.7197 -0.0300 -1.3048
 8128SOL    HW235847   1.236   0.122  12.912  0.0085 -1.3256 -0.3436
 8129SOL     OW35848   3.646   1.857   5.872  0.8510 -0.0422  0.1395
 8129SOL    HW135849   3.600   1.882   5.792  0.6326  0.6792  0.4912
 8129SOL    HW235850   3.572   1.841   5.931  1.1448 -0.5696  0.3673
 8130SOL     OW35851   0.149   2.494   4.107 -0.8348 -0.6920  0.2066
 8130SOL    HW135852   0.154   2.558   4.037  4.1621 -1.0919  0.1655
 8130SOL    HW235853   0.074   2.443   4.075 -0.4480 -1.2938  0.2542
 8131SOL     OW35854   1.564   2.888   6.658  0.2496 -0.2152 -0.0368
 8131SOL    HW135855   1.643   2.919   6.613  1.4835 -0.9865  1.5887
 8131SOL    HW235856   1.532   2.963   6.707  1.9406 -0.8663  2.0792
 8132SOL     OW35857   2.751   0.616   0.075  0.2320 -0.2476 -0.3148
 8132SOL    HW135858   2.759   0.615   0.170 -1.5838  0.7794 -0.1560
 8132SOL    HW235859   2.662   0.649   0.063  0.4257 -0.5208 -2.4967
 8133SOL     OW35860   1.037   4.307  12.673  0.0706 -0.0365  0.0393
 8133SOL    HW135861   1.006   4.224  12.708  2.6387 -0.6162  0.9346
 8133SOL    HW235862   1.126   4.280  12.652 -0.4091 -1.4157 -0.1999
 8134SOL     OW35863   1.951   3.928   8.402  0.1439 -0.2749 -0.0161
 8134SOL    HW135864   2.009   3.936   8.478  1.5774  0.6815 -1.2015
 8134SOL    HW235865   1.920   3.841   8.427 -1.8780  0.3033 -0.4822
 8135SOL     OW35866   4.145   4.523   4.560 -0.6316 -0.1114 -0.3158
 8135SOL    HW135867   4.086   4.594   4.534 -0.9832 -0.4724 -0.4988
 8135SOL    HW235868   4.229   4.556   4.528 -1.9540  1.3638 -2.3391
 8136SOL     OW35869   2.312   3.493   6.353  0.0269 -0.2927 -0.2624
 8136SOL    HW135870   2.372   3.489   6.428 -0.8633 -1.9016  0.3726
 8136SOL    HW235871   2.301   3.399   6.337 -1.3720 -0.6325  2.6380
 8137SOL     OW35872   0.374   2.907   3.394  0.3726 -0.0078 -0.1990
 8137SOL    HW135873   0.283   2.922   3.422  0.2037  0.2424 -0.8805
 8137SOL    HW235874   0.413   2.982   3.439 -0.5703 -0.6859  1.7153
 8138SOL     OW35875   2.915   1.452   3.730 -0.6036 -0.1947 -0.0077
 8138SOL    HW135876   2.887   1.391   3.798  1.1160 -0.0403  0.8257
 8138SOL    HW235877   2.995   1.410   3.700 -0.1807 -0.7185  1.8943
 8139SOL     OW35878   3.355   4.465   0.115  0.2684 -0.5234 -0.2035
 8139SOL    HW135879   3.408   4.487   0.038 -1.4558  1.3004 -0.8635
 8139SOL    HW235880   3.317   4.552   0.124  0.5584 -0.6544  2.2569
 8140SOL     OW35881   2.224   3.366   1.498 -0.0906  0.1047 -0.0098
 8140SOL    HW135882   2.206   3.311   1.574 -2.4555  0.3475 -0.4099
 8140SOL    HW235883   2.170   3.443   1.516 -2.0509 -1.4639  0.8609
 8141SOL     OW35884   3.365   3.978  13.915  0.1029 -0.0847 -0.3811
 8141SOL    HW135885   3.375   3.934  13.830  0.5771  0.6170 -0.6819
 8141SOL    HW235886   3.389   4.063  13.879 -0.7599 -0.2635 -1.4017
 8142SOL     OW35887   0.786   4.669   3.537  0.4775  0.0001 -0.1205
 8142SOL    HW135888   0.879   4.659   3.554  0.6774  0.0470 -1.1778
 8142SOL    HW235889   0.765   4.585   3.495  1.3230  0.1738 -0.8973
 8143SOL     OW35890   2.772   2.061  16.910 -0.0540 -0.1732 -0.1167
 8143SOL    HW135891   2.723   2.141  16.931  0.8218 -0.3311  2.4233
 8143SOL    HW235892   2.855   2.103  16.931 -0.1773  0.5788 -1.1157
 8144SOL     OW35893   2.353   3.455   3.751  0.3667  0.1570 -0.1930
 8144SOL    HW135894   2.265   3.466   3.716  0.9177  0.7092 -1.3945
 8144SOL    HW235895   2.340   3.446   3.846 -0.2824 -1.5432 -0.4428
 8145SOL     OW35896   0.642   2.435   4.364  0.2468 -0.5361  0.1857
 8145SOL    HW135897   0.547   2.444   4.362  0.2842 -0.2739 -0.4041
 8145SOL    HW235898   0.665   2.447   4.457 -0.4988  1.1893  0.1478
 8146SOL     OW35899   0.483   0.536   4.446 -0.1367 -0.1868 -0.2409
 8146SOL    HW135900   0.579   0.529   4.437 -0.1213  0.2096 -0.3709
 8146SOL    HW235901   0.463   0.530   4.352  2.8812  1.0324 -0.9897
 8147SOL     OW35902   2.629   1.950  17.682 -0.0032  0.2424 -0.2586
 8147SOL    HW135903   2.656   1.911   0.075 -1.3434  0.0387  0.0746
 8147SOL    HW235904   2.704   1.956  17.623  0.4092  0.4627  0.2846
 8148SOL     OW35905   4.573   0.099   8.532 -0.1149 -0.0721 -0.0562
 8148SOL    HW135906   4.572   0.006   8.552 -1.4950 -0.0686 -0.1203
 8148SOL    HW235907   4.619   0.100   8.448  0.4418  0.0602  0.2513
 8149SOL     OW35908   3.860   2.943   8.489 -0.1693 -0.0482 -0.1072
 8149SOL    HW135909   3.924   2.908   8.427 -1.1823 -1.0122 -0.6153
 8149SOL    HW235910   3.823   3.017   8.441  0.9850 -0.2057 -1.2189
 8150SOL     OW35911   3.921   1.736   6.223 -0.3903  1.0017  0.4168
 8150SOL    HW135912   3.838   1.784   6.221 -1.9974 -1.6225  3.0772
 8150SOL    HW235913   3.921   1.742   6.127 -0.0932 -0.3235  0.3323
 8151SOL     OW35914   0.687   2.230   3.276 -0.0094  0.0538 -0.6360
 8151SOL    HW135915   0.677   2.162   3.209 -0.4397  0.4548 -0.9779
 8151SOL    HW235916   0.781   2.221   3.292 -0.1636  0.4364  0.5148
 8152SOL     OW35917   0.743   3.600   5.050  0.3628  0.5269 -0.3533
 8152SOL    HW135918   0.649   3.583   5.061  0.1270  1.1423 -1.5221
 8152SOL    HW235919   0.742   3.687   5.088  2.4067  0.1733  0.5227
 8153SOL     OW35920   0.393   0.172   3.862  0.7856  0.4004  0.3110
 8153SOL    HW135921   0.420   0.202   3.949 -1.7771  0.9078  0.9481
 8153SOL    HW235922   0.323   0.112   3.888 -1.4896  1.7791 -2.5633
 8154SOL     OW35923   3.331   1.110  15.414 -0.1881 -0.0182 -0.0441
 8154SOL    HW135924   3.275   1.156  15.352  0.2107 -0.7602 -0.9536
 8154SOL    HW235925   3.279   1.036  15.446 -0.0014  0.6951  1.9240
 8155SOL     OW35926   0.973   3.162   2.239 -0.5221 -0.3406 -0.8155
 8155SOL    HW135927   1.042   3.107   2.201  0.1533  0.1402 -0.3031
 8155SOL    HW235928   0.905   3.107   2.201  0.7830 -2.3098 -0.3358
 8156SOL     OW35929   1.586   4.045   3.657  0.0749 -0.3654  0.3588
 8156SOL    HW135930   1.632   4.006   3.731  0.4680 -0.2217  0.1861
 8156SOL    HW235931   1.508   3.989   3.657 -1.4993  1.8426  0.8301
 8157SOL     OW35932   1.864   3.521   4.650 -0.2181  0.0118  0.3176
 8157SOL    HW135933   1.945   3.572   4.647  0.2105 -0.7162 -0.4882
 8157SOL    HW235934   1.896   3.441   4.607  2.0545 -0.4382  2.8241
 8158SOL     OW35935   4.245   0.743   8.091  0.9618 -0.1315  0.1930
 8158SOL    HW135936   4.206   0.802   8.157 -0.7465 -1.3364  0.2530
 8158SOL    HW235937   4.337   0.765   8.100  1.4884 -1.3823 -2.1994
 8159SOL     OW35938   4.490   4.260   4.156 -0.1349  0.6174  0.1339
 8159SOL    HW135939   4.500   4.167   4.178  1.1095  0.6754 -0.1423
 8159SOL    HW235940   4.582   4.286   4.147 -0.0203  0.0349 -0.3729
 8160SOL     OW35941   3.309   3.031  14.633  0.5618  0.7279  0.6301
 8160SOL    HW135942   3.219   3.065  14.639 -0.3905 -1.8316  0.8222
 8160SOL    HW235943   3.354   3.104  14.591  0.7843 -0.6683 -1.5399
 8161SOL     OW35944   1.580   3.516   3.298 -0.0358 -0.5614  0.0609
 8161SOL    HW135945   1.570   3.559   3.383  2.2761 -1.0530  0.5888
 8161SOL    HW235946   1.516   3.560   3.241  0.2960 -1.2745 -0.8638
 8162SOL     OW35947   2.205   4.218  15.095  0.8181  0.3846 -0.1424
 8162SOL    HW135948   2.210   4.124  15.080  1.0630  0.1379  1.5674
 8162SOL    HW235949   2.178   4.249  15.008 -0.5135 -1.9895 -0.5732
 8163SOL     OW35950   0.024   3.762  10.906  0.0016  0.3804  0.6148
 8163SOL    HW135951   0.070   3.828  10.959 -1.4186  2.1368 -0.3256
 8163SOL    HW235952   4.654   3.776  10.930 -0.1278 -0.8254  0.8003
 8164SOL     OW35953   0.403   4.448   9.746  0.0956 -0.1221 -0.7341
 8164SOL    HW135954   0.419   4.533   9.706  2.2832 -0.7285 -1.1563
 8164SOL    HW235955   0.308   4.443   9.740  0.0877 -0.0346 -0.6785
 8165SOL     OW35956   3.089   2.321   0.908  0.6568 -0.3557  0.5464
 8165SOL    HW135957   3.158   2.268   0.947  1.4692 -0.3989 -0.9659
 8165SOL    HW235958   3.140   2.382   0.855 -2.8341  2.0248 -0.0733
 8166SOL     OW35959   0.843   3.962   0.231 -0.0208 -0.0808  0.3342
 8166SOL    HW135960   0.757   3.986   0.197 -0.2070 -0.6947  0.3845
 8166SOL    HW235961   0.815   3.876   0.261 -0.1555 -0.4629 -0.8753
 8167SOL     OW35962   2.040   1.661   6.385 -0.1230 -0.6569 -0.0802
 8167SOL    HW135963   2.032   1.750   6.351  1.6877 -0.7260 -0.7067
 8167SOL    HW235964   2.108   1.670   6.452 -0.8535 -0.3627  0.6170
 8168SOL     OW35965   0.150   1.086   7.992  0.1402 -0.7331  0.5365
 8168SOL    HW135966   0.241   1.114   7.987 -0.5282  1.4725  0.6286
 8168SOL    HW235967   0.124   1.118   7.905  1.4329 -0.3641  0.2923
 8169SOL     OW35968   4.311   4.088   2.537  0.4525  0.0519 -0.1274
 8169SOL    HW135969   4.352   4.174   2.533 -0.0188  0.1998 -2.2720
 8169SOL    HW235970   4.262   4.095   2.455  1.3180  2.5508 -0.4332
 8170SOL     OW35971   4.230   2.630  10.032 -0.1676 -0.1229  0.3110
 8170SOL    HW135972   4.159   2.569  10.052 -1.3688  0.4828 -2.0579
 8170SOL    HW235973   4.233   2.669  10.120  0.7065  0.1195  0.1730
 8171SOL     OW35974   2.926   3.514   7.827 -0.2681  0.2828  0.7038
 8171SOL    HW135975   2.907   3.443   7.766 -0.1030  0.4902  0.4099
 8171SOL    HW235976   2.878   3.495   7.908 -1.9578 -0.5361 -0.4861
 8172SOL     OW35977   0.848   1.142   6.120  0.5019 -0.2819 -0.1050
 8172SOL    HW135978   0.765   1.189   6.121  1.1169  0.8085  0.3068
 8172SOL    HW235979   0.900   1.177   6.048 -1.0944  0.3730 -0.9360
 8173SOL     OW35980   1.667   0.488   8.573  0.1808  0.1633 -0.5566
 8173SOL    HW135981   1.735   0.430   8.608 -0.2062 -0.4706 -0.8536
 8173SOL    HW235982   1.715   0.570   8.570 -1.3367  1.0311 -0.8828
 8174SOL     OW35983   3.864   3.905  15.997  0.2180 -0.3167  0.1632
 8174SOL    HW135984   3.806   3.852  15.941  1.1029 -1.1347  0.0086
 8174SOL    HW235985   3.924   3.835  16.023  1.0952  1.0612  1.7638
 8175SOL     OW35986   2.842   4.683   8.225 -0.1115  0.1780 -0.2524
 8175SOL    HW135987   2.894   0.041   8.236 -0.2428  0.0875  1.0606
 8175SOL    HW235988   2.766   4.700   8.281 -0.9070  2.0395 -1.9128
 8176SOL     OW35989   0.153   3.562  10.604  0.5778  0.1830 -0.4176
 8176SOL    HW135990   0.187   3.554  10.693  3.6231  0.6022 -1.5632
 8176SOL    HW235991   0.177   3.653  10.588  2.4665 -0.1653  0.4483
 8177SOL     OW35992   3.780   3.967   8.751 -0.2438  0.1917 -0.2392
 8177SOL    HW135993   3.726   4.024   8.806  0.5730  0.0633  0.6855
 8177SOL    HW235994   3.854   3.967   8.812 -0.2355  0.2553 -0.2500
 8178SOL     OW35995   3.027   1.835  11.186 -0.0187  0.6330 -0.2727
 8178SOL    HW135996   2.938   1.817  11.155  0.1003 -1.5483  0.6564
 8178SOL    HW235997   3.058   1.857  11.098 -2.6114 -0.6723 -1.5121
 8179SOL     OW35998   4.489   1.646   7.432 -0.7745  0.1876 -0.5267
 8179SOL    HW135999   4.463   1.729   7.390  2.5462  1.6770  0.3751
 8179SOL    HW236000   4.421   1.588   7.396 -0.9678  0.1642 -0.1200
 8180SOL     OW36001   0.793   3.642  11.762 -0.4451 -0.2147 -0.3866
 8180SOL    HW136002   0.883   3.672  11.770 -0.7507  0.5727 -0.0025
 8180SOL    HW236003   0.782   3.577  11.832  1.9171 -0.2649 -0.0674
 8181SOL     OW36004   4.656   0.525   1.644 -0.2093  0.0408  0.0807
 8181SOL    HW136005   4.588   0.538   1.578  0.5385  0.6936 -0.5608
 8181SOL    HW236006   0.004   0.578   1.605 -1.2472  1.8756  0.7354
 8182SOL     OW36007   1.500   3.600  16.604  0.0491  0.0686 -0.3790
 8182SOL    HW136008   1.533   3.679  16.560 -0.9860  1.1130  0.7162
 8182SOL    HW236009   1.575   3.558  16.647 -0.4945 -1.2098 -0.6727
 8183SOL     OW36010   2.888   4.093   2.213  0.1110  0.7201  0.4959
 8183SOL    HW136011   2.854   4.172   2.172 -1.3393  0.1137  0.5175
 8183SOL    HW236012   2.815   4.063   2.268 -0.4675 -0.2770 -0.8001
 8184SOL     OW36013   4.159   1.537   6.099 -0.4106 -0.0825 -0.1210
 8184SOL    HW136014   4.220   1.585   6.043  0.9562  0.4767  1.8438
 8184SOL    HW236015   4.111   1.605   6.146  0.2063  0.1341  0.1899
 8185SOL     OW36016   2.652   0.824   9.003 -0.0736 -0.0126  0.0894
 8185SOL    HW136017   2.607   0.817   8.919 -0.0485 -1.6977  0.2257
 8185SOL    HW236018   2.590   0.768   9.050  0.6572 -2.0598 -1.4268
 8186SOL     OW36019   2.792   0.954   7.483 -0.1420 -0.3617 -0.0677
 8186SOL    HW136020   2.729   0.895   7.440  0.4329 -0.2833 -0.9970
 8186SOL    HW236021   2.874   0.934   7.438 -0.5292 -1.4053 -0.3226
 8187SOL     OW36022   2.300   3.407   4.009 -0.7935 -0.0347  0.2632
 8187SOL    HW136023   2.319   3.374   4.097  0.1368  1.4262  0.6083
 8187SOL    HW236024   2.336   3.496   4.010 -2.1476  0.5250 -0.6078
 8188SOL     OW36025   3.430   4.628   1.762  0.4935 -0.3160  0.2460
 8188SOL    HW136026   3.401   4.549   1.808 -0.1743  0.6541  1.4979
 8188SOL    HW236027   3.367   4.627   1.690  0.3589 -1.8204  0.3819
 8189SOL     OW36028   4.557   2.694  16.058 -0.6925 -0.1894 -0.2197
 8189SOL    HW136029   4.518   2.738  16.133 -1.6830 -1.2718 -0.0910
 8189SOL    HW236030   4.642   2.735  16.051 -1.0930  0.6906  0.1251
 8190SOL     OW36031   1.795   1.452   0.897 -0.1901 -0.5428  0.2420
 8190SOL    HW136032   1.801   1.391   0.824  0.6710  1.0316 -0.9966
 8190SOL    HW236033   1.756   1.527   0.852 -0.1505 -0.5568  0.1841
 8191SOL     OW36034   1.308   1.444   6.643 -0.0294 -0.2450 -0.2809
 8191SOL    HW136035   1.224   1.483   6.666  0.5656 -0.6249  2.5473
 8191SOL    HW236036   1.363   1.479   6.713 -2.2163  1.7660  0.4332
 8192SOL     OW36037   1.621   4.200   3.307  0.4168  0.0344  0.2477
 8192SOL    HW136038   1.657   4.273   3.256  0.7909  0.5441  1.2480
 8192SOL    HW236039   1.577   4.246   3.378 -0.7520 -0.2032 -0.3217
 8193SOL     OW36040   3.126   1.745   0.056 -0.4772 -0.4435 -0.2004
 8193SOL    HW136041   3.166   1.729  17.661  1.7437  1.5751  0.4298
 8193SOL    HW236042   3.200   1.743   0.117 -2.3332 -0.7646  2.0101
 8194SOL     OW36043   0.124   1.031   1.340  0.1348  0.4756 -0.0299
 8194SOL    HW136044   0.190   1.097   1.323  0.4662  0.0144 -0.5344
 8194SOL    HW236045   0.180   0.957   1.363 -0.4549  0.7691  2.3870
 8195SOL     OW36046   1.117   2.137  15.836  0.3632 -0.4213  0.3523
 8195SOL    HW136047   1.189   2.076  15.846 -0.2993 -1.2412  0.1112
 8195SOL    HW236048   1.138   2.145  15.743  0.9830 -0.1180  0.5254
 8196SOL     OW36049   0.878   2.736   4.370 -0.3268 -0.0820  0.5346
 8196SOL    HW136050   0.793   2.768   4.401 -0.2458 -0.7644  1.4390
 8196SOL    HW236051   0.860   2.714   4.278  0.7541  0.0854  0.2835
 8197SOL     OW36052   2.997   3.026   3.648 -0.2439 -0.0827  0.1565
 8197SOL    HW136053   2.976   3.107   3.601 -0.5916 -0.4218 -0.2660
 8197SOL    HW236054   2.913   3.011   3.692  1.1402  0.3089  2.9778
 8198SOL     OW36055   4.416   4.251  16.008  0.4787  0.2946  0.7482
 8198SOL    HW136056   4.364   4.171  16.004  1.2176 -0.1464 -0.2154
 8198SOL    HW236057   4.496   4.227  15.962 -0.0382  2.0166 -1.0827
 8199SOL     OW36058   2.641   0.462  10.896  0.1616 -0.1610 -0.0565
 8199SOL    HW136059   2.694   0.476  10.818  1.5309  0.1022  0.9111
 8199SOL    HW236060   2.641   0.368  10.918  2.5693  0.1360  1.2897
 8200SOL     OW36061   4.609   2.094  12.841 -0.0025  0.0359 -0.8438
 8200SOL    HW136062   4.647   2.154  12.777  1.2305 -0.2869 -0.4167
 8200SOL    HW236063   4.685   2.067  12.893  0.9713  2.3054 -1.0910
 8201SOL     OW36064   4.594   1.079   7.777 -0.5799 -0.3200 -0.0324
 8201SOL    HW136065   4.500   1.075   7.798 -0.3347  1.1810  1.3871
 8201SOL    HW236066   4.628   1.089   7.866 -0.2173  0.0585 -0.2171
 8202SOL     OW36067   2.471   1.195   0.568  0.0084 -0.6554  0.0288
 8202SOL    HW136068   2.541   1.138   0.600 -0.3975 -1.1100  0.1136
 8202SOL    HW236069   2.406   1.212   0.636 -0.4192 -0.4435 -0.4374
 8203SOL     OW36070   0.980   4.716   8.257 -0.4966 -0.3118 -0.5839
 8203SOL    HW136071   1.044   4.649   8.280  0.3943  1.2490  1.4205
 8203SOL    HW236072   1.018   0.041   8.183  0.2086  0.3324  0.2002
 8204SOL     OW36073   3.319   3.628   3.254 -0.0922  0.0302 -0.1108
 8204SOL    HW136074   3.294   3.543   3.218  1.2069  0.1306 -1.2697
 8204SOL    HW236075   3.236   3.670   3.232 -1.0960 -1.2778  1.2463
 8205SOL     OW36076   4.610   1.599  14.176 -1.0012  0.3742 -0.1205
 8205SOL    HW136077   4.663   1.603  14.096  0.4409 -0.7658  0.7792
 8205SOL    HW236078   4.538   1.656  14.149 -0.8176 -0.0563 -1.5390
 8206SOL     OW36079   0.288   0.915   9.111  0.3326 -0.2118 -0.1659
 8206SOL    HW136080   0.217   0.978   9.099  1.8652  1.2039 -1.8245
 8206SOL    HW236081   0.280   0.890   9.203  2.2461  1.2232  0.3973
 8207SOL     OW36082   1.050   3.094   7.821 -0.0110  0.1844  0.5439
 8207SOL    HW136083   0.978   3.154   7.801 -1.0700 -1.9222 -2.0317
 8207SOL    HW236084   1.007   3.014   7.850 -2.5335  0.9383 -1.0373
 8208SOL     OW36085   0.567   3.995   5.645  0.4145 -0.4423 -0.2272
 8208SOL    HW136086   0.518   3.913   5.638 -0.8034  0.1511  1.6176
 8208SOL    HW236087   0.568   4.000   5.741 -1.2334 -0.0352 -0.2406
 8209SOL     OW36088   3.707   0.739  10.826 -0.2492  0.4266 -0.6619
 8209SOL    HW136089   3.760   0.735  10.906 -2.1255  0.9036  0.6170
 8209SOL    HW236090   3.643   0.673  10.856 -0.0176  2.0665  3.4874
 8210SOL     OW36091   3.778   0.636  13.417  0.2442 -0.1248  0.0135
 8210SOL    HW136092   3.724   0.667  13.490  2.4024  0.3257  1.4144
 8210SOL    HW236093   3.788   0.719  13.370 -0.9586 -0.3763 -0.6681
 8211SOL     OW36094   4.253   1.409   5.662 -0.1253  0.1148 -0.3296
 8211SOL    HW136095   4.271   1.500   5.639 -0.9566  0.4556  0.3573
 8211SOL    HW236096   4.209   1.383   5.581 -1.0508  3.6468 -0.9595
 8212SOL     OW36097   1.870   1.708   2.005 -0.3228  0.2706  0.1355
 8212SOL    HW136098   1.865   1.680   1.913 -2.7376  0.8420  0.1128
 8212SOL    HW236099   1.889   1.622   2.043  1.7900  0.7812  0.2661
 8213SOL     OW36100   1.192   3.231   1.827 -0.0242  0.3467 -0.7368
 8213SOL    HW136101   1.238   3.147   1.832  0.3145  0.3948 -3.0727
 8213SOL    HW236102   1.141   3.225   1.745 -0.2862 -0.0387 -0.5471
 8214SOL     OW36103   2.018   3.031  15.758  0.0252  0.1868 -0.2785
 8214SOL    HW136104   1.957   2.961  15.734  0.5338 -0.7012  1.0365
 8214SOL    HW236105   2.092   2.974  15.779 -0.1978  0.0594  0.1509
 8215SOL     OW36106   0.230   3.202  16.709 -0.4249 -0.5337  0.3247
 8215SOL    HW136107   0.280   3.259  16.768  0.1503 -1.4155  0.6900
 8215SOL    HW236108   0.259   3.242  16.626  2.1215 -1.2043  0.8688
 8216SOL     OW36109   3.524   0.957  13.534  0.0885  0.4783  0.0580
 8216SOL    HW136110   3.560   0.976  13.620 -1.3366  1.8471  0.3648
 8216SOL    HW236111   3.559   0.869  13.523  0.1822  0.6266 -0.8694
 8217SOL     OW36112   1.398   3.369   6.783 -0.3791  0.3695  0.4347
 8217SOL    HW136113   1.450   3.437   6.739 -1.6489  1.1275  0.1074
 8217SOL    HW236114   1.313   3.377   6.739  0.2774  0.0174 -0.8946
 8218SOL     OW36115   2.745   4.543   8.550 -0.1864  0.0241  0.1205
 8218SOL    HW136116   2.713   4.538   8.640 -4.4373  0.5348 -1.3811
 8218SOL    HW236117   2.829   4.589   8.552 -1.6507  2.9082 -3.7607
 8219SOL     OW36118   2.902   4.614  11.982 -0.2502 -0.2592 -0.7556
 8219SOL    HW136119   2.875   4.558  11.909  1.9025 -0.5203 -1.3754
 8219SOL    HW236120   2.994   4.588  11.987  0.0326  1.7768  4.1945
 8220SOL     OW36121   1.103   4.282  10.329 -0.2015  0.0320  0.2373
 8220SOL    HW136122   1.159   4.312  10.401  2.5339 -1.0198 -1.4810
 8220SOL    HW236123   1.033   4.252  10.387  0.0831 -1.4104 -0.1671
 8221SOL     OW36124   2.475   0.333  13.685  0.0484 -0.0833 -0.0311
 8221SOL    HW136125   2.477   0.257  13.626  1.6776  0.1929 -0.3249
 8221SOL    HW236126   2.405   0.307  13.745  2.4914 -2.2308  1.8844
 8222SOL     OW36127   1.310   3.480  16.404 -0.2607 -0.3609 -0.2881
 8222SOL    HW136128   1.388   3.481  16.458 -0.4438  0.4750 -0.0424
 8222SOL    HW236129   1.343   3.536  16.334 -0.5739 -0.2642 -0.3591
 8223SOL     OW36130   1.544   0.664  10.134 -0.2957  0.0195 -0.5479
 8223SOL    HW136131   1.470   0.717  10.166  1.7883  0.8688  2.8593
 8223SOL    HW236132   1.499   0.587  10.100 -0.1761 -1.0433  1.6589
 8224SOL     OW36133   0.992   4.008  11.201  0.7059  0.0985 -0.1830
 8224SOL    HW136134   0.946   4.025  11.283 -0.0356 -0.8267 -0.4070
 8224SOL    HW236135   1.069   3.968  11.242 -0.1321 -0.2894  1.0103
 8225SOL     OW36136   3.586   0.753   0.869 -0.3861  0.1740  0.1180
 8225SOL    HW136137   3.582   0.843   0.835 -2.3180 -0.1374 -0.5019
 8225SOL    HW236138   3.513   0.722   0.815  1.3344 -1.4020 -1.2768
 8226SOL     OW36139   2.165   4.248   8.938  0.3234  0.1014  0.4568
 8226SOL    HW136140   2.143   4.303   9.013 -0.5459  0.8996 -0.3786
 8226SOL    HW236141   2.077   4.215   8.922 -0.2823  2.5943 -1.3920
 8227SOL     OW36142   0.444   0.621   3.475 -0.4444 -0.7405 -0.0843
 8227SOL    HW136143   0.464   0.665   3.558  1.6495 -0.0071 -0.9704
 8227SOL    HW236144   0.356   0.655   3.456  0.7014  1.2814 -1.8032
 8228SOL     OW36145   0.909   2.684   9.081  0.2873  0.9095 -0.3519
 8228SOL    HW136146   1.002   2.700   9.093 -0.6258  2.3633  4.4020
 8228SOL    HW236147   0.865   2.750   9.134  0.5074  0.5454  0.2779
 8229SOL     OW36148   1.141   2.764   5.143  0.4275 -0.1666  0.0106
 8229SOL    HW136149   1.195   2.717   5.080 -1.1897 -1.3702 -0.4888
 8229SOL    HW236150   1.217   2.794   5.193  0.0970  0.7206 -0.0087
 8230SOL     OW36151   4.522   2.019   6.821  0.0797 -0.3835  0.6193
 8230SOL    HW136152   4.472   1.943   6.850 -0.2820 -0.1458  0.6074
 8230SOL    HW236153   4.544   2.066   6.901 -1.5805  0.9444  0.2941
 8231SOL     OW36154   0.647   4.344  15.541 -0.4609 -0.3838  0.0504
 8231SOL    HW136155   0.718   4.381  15.594  0.0882  1.3168 -1.9165
 8231SOL    HW236156   0.650   4.388  15.457  1.3784 -1.2156 -0.3321
 8232SOL     OW36157   2.244   4.046   7.157 -0.5946 -0.0765  0.1302
 8232SOL    HW136158   2.206   4.045   7.245 -0.1923  1.3448  0.3166
 8232SOL    HW236159   2.333   4.028   7.188 -0.7086 -0.1800  0.3940
 8233SOL     OW36160   3.136   4.354   7.291 -0.4099  0.7293  0.5180
 8233SOL    HW136161   3.090   4.344   7.374 -1.7109 -1.5055 -0.4802
 8233SOL    HW236162   3.082   4.417   7.245 -1.6903 -0.4414  0.4319
 8234SOL     OW36163   0.798   3.376   8.216 -0.2411  0.2279 -0.4178
 8234SOL    HW136164   0.862   3.342   8.277 -0.8454 -3.1151 -1.6778
 8234SOL    HW236165   0.737   3.302   8.219 -0.8721  0.7633  0.0336
 8235SOL     OW36166   4.665   1.947   3.890  0.1051  0.5722 -0.0863
 8235SOL    HW136167   4.714   1.914   3.964  0.8077  0.1190 -0.7609
 8235SOL    HW236168   4.719   1.902   3.825 -0.2121  0.2438 -0.1250
 8236SOL     OW36169   2.771   1.476   4.330 -0.3962  0.0406  0.4033
 8236SOL    HW136170   2.744   1.414   4.262 -1.4720  0.2871  0.6012
 8236SOL    HW236171   2.754   1.436   4.415  2.3378 -0.9619  0.4753
 8237SOL     OW36172   3.642   2.843  11.091 -0.1517 -0.4443 -0.3239
 8237SOL    HW136173   3.636   2.751  11.067 -1.3284 -0.7520  1.1329
 8237SOL    HW236174   3.667   2.839  11.184 -0.8509 -0.7478 -0.1512
 8238SOL     OW36175   3.534   2.595   8.958 -0.4235  0.2382  0.2848
 8238SOL    HW136176   3.504   2.509   8.928 -0.2528  1.3083 -2.8975
 8238SOL    HW236177   3.629   2.588   8.962 -0.4879 -1.6649 -1.8721
 8239SOL     OW36178   0.304   1.461  13.035  0.1041  0.3111 -0.1964
 8239SOL    HW136179   0.368   1.529  13.016  0.8850 -0.3483  0.0855
 8239SOL    HW236180   0.233   1.478  12.973 -0.3038  1.9622  0.7324
 8240SOL     OW36181   3.516   2.903  14.315  0.4492 -0.2989 -0.0159
 8240SOL    HW136182   3.606   2.934  14.314  0.8892 -1.6315 -0.8836
 8240SOL    HW236183   3.471   2.974  14.361  0.8996  1.3446 -2.1426
 8241SOL     OW36184   2.957   0.246   4.291 -0.7202  0.6974  0.1928
 8241SOL    HW136185   3.017   0.206   4.354  1.4119 -2.5308 -3.9056
 8241SOL    HW236186   3.012   0.285   4.223 -0.8972  2.2478  0.9406
 8242SOL     OW36187   2.840   3.378   1.781 -0.2311 -0.2719  0.0216
 8242SOL    HW136188   2.752   3.373   1.818 -0.4053 -1.0297 -0.5130
 8242SOL    HW236189   2.816   3.393   1.690 -1.4532  0.6451  0.4904
 8243SOL     OW36190   2.407   0.134   4.587  0.0184 -0.4170  0.1901
 8243SOL    HW136191   2.380   0.199   4.652  4.3514  3.2114 -1.6522
 8243SOL    HW236192   2.481   0.187   4.557  1.2653 -2.3148 -0.0751
 8244SOL     OW36193   4.374   3.392   5.091 -0.1943  0.4123  0.4874
 8244SOL    HW136194   4.428   3.314   5.080 -0.8312  0.3230 -1.9657
 8244SOL    HW236195   4.318   3.386   5.014 -0.4250  1.2299  0.5896
 8245SOL     OW36196   4.140   0.290  17.471 -0.1514  0.3322 -0.0304
 8245SOL    HW136197   4.137   0.338  17.553  2.0567  0.6805 -0.1720
 8245SOL    HW236198   4.231   0.264  17.483 -0.9425 -2.1988  0.5230
 8246SOL     OW36199   0.746   1.401   7.378 -0.7231  0.2066 -0.3703
 8246SOL    HW136200   0.653   1.422   7.387 -1.0588 -0.8114 -1.4945
 8246SOL    HW236201   0.746   1.328   7.439 -0.8515  0.6786  0.2005
 8247SOL     OW36202   3.742   1.396   3.292  0.1038 -0.2714  0.4226
 8247SOL    HW136203   3.679   1.371   3.360  0.4198 -0.8758  0.4856
 8247SOL    HW236204   3.793   1.315   3.293  1.3923  0.5438  1.7665
 8248SOL     OW36205   4.530   1.537   1.662  0.7766  0.0902 -0.0672
 8248SOL    HW136206   4.445   1.581   1.659  0.2677 -0.7053  2.4345
 8248SOL    HW236207   4.515   1.458   1.610 -0.9086 -0.1474  0.7846
 8249SOL     OW36208   2.901   3.390   6.039 -0.6098 -0.0573 -0.3743
 8249SOL    HW136209   2.833   3.455   6.019  0.2393  0.1484 -2.6432
 8249SOL    HW236210   2.855   3.310   6.063 -0.3719  0.5564  2.1493
 8250SOL     OW36211   3.498   1.887   4.546 -0.1621 -0.4622  0.6096
 8250SOL    HW136212   3.574   1.873   4.602  0.8084  2.7322  0.0591
 8250SOL    HW236213   3.433   1.900   4.615  0.8752  0.0055  1.4868
 8251SOL     OW36214   3.410   3.883   6.772  0.5587 -0.7206 -0.6459
 8251SOL    HW136215   3.466   3.933   6.713 -0.4834 -1.1556 -1.9875
 8251SOL    HW236216   3.375   3.948   6.833  0.7086  1.6513 -3.0886
 8252SOL     OW36217   0.646   1.777   4.172  0.1552 -0.6973 -0.0186
 8252SOL    HW136218   0.596   1.698   4.192 -0.9881 -0.4826 -2.0937
 8252SOL    HW236219   0.651   1.808   4.263  1.8982  1.8171 -0.9463
 8253SOL     OW36220   3.452   0.944   7.703  0.2983 -0.1464  0.0381
 8253SOL    HW136221   3.421   0.864   7.661  2.1814  0.4901 -2.5978
 8253SOL    HW236222   3.535   0.963   7.659  0.1959 -0.1776 -0.1680
 8254SOL     OW36223   3.526   4.057   0.285 -0.0348 -0.1733  0.4145
 8254SOL    HW136224   3.598   4.036   0.344 -0.4016 -0.4628  0.7616
 8254SOL    HW236225   3.553   4.013   0.204 -1.4392 -1.6735  0.7772
 8255SOL     OW36226   1.897   1.193   5.598  0.1927 -0.4517 -0.3969
 8255SOL    HW136227   1.889   1.221   5.689  0.3946 -1.0571 -0.1924
 8255SOL    HW236228   1.945   1.111   5.606 -1.7776 -1.5099  0.5774
 8256SOL     OW36229   2.816   0.668   8.724 -0.1301  0.0346 -0.2965
 8256SOL    HW136230   2.792   0.760   8.726  1.0120  0.3412 -1.0906
 8256SOL    HW236231   2.750   0.630   8.781  0.2559  1.3770  1.0291
 8257SOL     OW36232   4.670   4.167  15.899 -0.3854 -0.1497 -0.5850
 8257SOL    HW136233   4.699   4.250  15.937  0.3825 -0.7438  0.1291
 8257SOL    HW236234   0.029   4.117  15.908  0.1020  0.8518  0.5507
 8258SOL     OW36235   2.705   1.973   0.437 -0.3376  1.0295  0.4340
 8258SOL    HW136236   2.755   1.979   0.519  0.8981 -0.0601 -0.2410
 8258SOL    HW236237   2.750   2.041   0.386  1.2948  0.0594  0.5909
 8259SOL     OW36238   1.197   3.663  14.945 -0.1989  0.3144  0.2475
 8259SOL    HW136239   1.288   3.677  14.917  0.6395 -3.1639  1.2859
 8259SOL    HW236240   1.164   3.615  14.869 -1.8817  3.2077 -0.8524
 8260SOL     OW36241   0.978   3.782   6.414 -0.2837 -0.1496 -0.3029
 8260SOL    HW136242   0.897   3.784   6.464 -0.3586 -1.5537 -0.3659
 8260SOL    HW236243   0.935   3.787   6.328 -0.4121  1.0973 -0.1645
 8261SOL     OW36244   2.203   2.579   6.707  0.0097 -0.2106  0.5934
 8261SOL    HW136245   2.221   2.485   6.714 -1.6711 -0.5129  0.7968
 8261SOL    HW236246   2.225   2.618   6.791 -2.7993 -0.2866  1.3775
 8262SOL     OW36247   1.109   2.140  11.082 -0.4028 -0.2206 -0.6105
 8262SOL    HW136248   1.189   2.173  11.124 -1.8421 -1.3495  2.9440
 8262SOL    HW236249   1.080   2.224  11.045  0.1384 -0.8796 -2.5308
 8263SOL     OW36250   1.564   1.297   4.870 -0.0075 -0.6184 -0.1453
 8263SOL    HW136251   1.592   1.343   4.949  1.9460 -0.2979 -1.0434
 8263SOL    HW236252   1.631   1.230   4.859  0.3179 -0.0726 -1.3952
 8264SOL     OW36253   0.390   4.506   9.087 -0.2739  0.6280 -0.3795
 8264SOL    HW136254   0.307   4.548   9.109 -0.7121 -0.1877 -0.4412
 8264SOL    HW236255   0.429   4.510   9.175 -0.5721  0.0414 -0.2171
 8265SOL     OW36256   2.130   1.809   9.730 -0.2372  0.1334 -0.1616
 8265SOL    HW136257   2.191   1.879   9.706 -0.9298  0.1800 -1.7600
 8265SOL    HW236258   2.164   1.745   9.667  2.3686  2.3220 -0.9942
 8266SOL     OW36259   4.711   4.685   3.265  0.1330  0.2053  0.4712
 8266SOL    HW136260   0.080   4.659   3.251  0.1312 -0.0964  1.0116
 8266SOL    HW236261   4.719   0.023   3.339  2.6408 -0.4480  0.7239
 8267SOL     OW36262   2.736   0.001  14.870  0.4741  0.0896  0.1353
 8267SOL    HW136263   2.682   4.691  14.797  1.0475  0.8154 -0.6049
 8267SOL    HW236264   2.821   4.693  14.837  0.1869  1.2572 -1.6797
 8268SOL     OW36265   0.755   0.363  13.394  0.5459 -0.8923 -0.1882
 8268SOL    HW136266   0.733   0.402  13.309 -1.5469 -0.5172  0.5264
 8268SOL    HW236267   0.703   0.283  13.393 -2.2849  0.9356  1.0739
 8269SOL     OW36268   2.822   1.417  15.677 -0.8374  0.5012  0.2386
 8269SOL    HW136269   2.794   1.467  15.754 -0.8280  0.6041  0.1740
 8269SOL    HW236270   2.893   1.467  15.639 -0.5643  0.2653  0.4430
 8270SOL     OW36271   1.721   4.551   8.663 -0.2694  0.3246  0.2887
 8270SOL    HW136272   1.741   4.547   8.569 -1.0839 -1.4394  0.1863
 8270SOL    HW236273   1.663   4.627   8.666 -0.5473  0.1068  0.5532
 8271SOL     OW36274   1.619   0.121   6.986  0.0636  0.0348 -0.1385
 8271SOL    HW136275   1.642   0.201   6.939  0.2449  0.6231  0.9478
 8271SOL    HW236276   1.572   0.067   6.922 -0.2477  1.1202 -0.8176
 8272SOL     OW36277   1.868   2.098   2.328  0.5705 -0.1646 -0.1153
 8272SOL    HW136278   1.856   2.084   2.234  0.2747  1.9857 -0.3945
 8272SOL    HW236279   1.778   2.111   2.358  0.0087 -0.9431 -1.4661
 8273SOL     OW36280   3.149   4.614  11.922 -0.2777 -0.1539  1.1369
 8273SOL    HW136281   3.236   4.638  11.954  0.8470 -2.5717 -0.0966
 8273SOL    HW236282   3.129   4.694  11.873 -0.5275 -0.6090  0.4981
 8274SOL     OW36283   4.402   4.626   7.485 -0.8999 -0.3387  0.2831
 8274SOL    HW136284   4.475   4.661   7.536 -1.6936  2.6941 -0.7097
 8274SOL    HW236285   4.356   4.701   7.449  0.2392 -0.0773 -0.6044
 8275SOL     OW36286   3.101   4.427  15.412  0.2279 -0.1579  0.2291
 8275SOL    HW136287   3.172   4.460  15.357 -1.7121  0.4521 -1.9057
 8275SOL    HW236288   3.042   4.502  15.417 -0.6276 -0.7090 -1.6073
 8276SOL     OW36289   3.024   1.844  16.094  0.4343  0.2927 -0.0921
 8276SOL    HW136290   2.940   1.800  16.107  0.2365  1.0989  1.3671
 8276SOL    HW236291   3.080   1.768  16.078  0.0164  0.0993 -0.6428
 8277SOL     OW36292   3.464   2.343   9.139 -0.0550  0.2997 -0.1471
 8277SOL    HW136293   3.394   2.282   9.163  1.0218  0.5381  3.6039
 8277SOL    HW236294   3.465   2.336   9.043  0.3246  2.4223 -0.2972
 8278SOL     OW36295   3.724   3.383   8.899  0.1266 -0.3045  0.3735
 8278SOL    HW136296   3.788   3.450   8.875 -2.4114  2.1517  0.4729
 8278SOL    HW236297   3.754   3.357   8.986 -1.4769 -1.7510  0.4983
 8279SOL     OW36298   2.929   4.002   8.838  0.1964 -0.5684 -0.3848
 8279SOL    HW136299   2.977   4.071   8.884 -0.7862  1.1322 -1.9410
 8279SOL    HW236300   2.942   3.931   8.902  0.5019  1.0117  1.3193
 8280SOL     OW36301   2.979   4.473   6.708 -0.5027 -0.1307  0.1070
 8280SOL    HW136302   2.920   4.471   6.633 -0.4171  1.1189  0.0110
 8280SOL    HW236303   2.964   4.384   6.741 -2.7541  0.5465  0.9335
 8281SOL     OW36304   4.631   1.164   8.062 -0.1416 -0.5831  0.2411
 8281SOL    HW136305   4.598   1.126   8.143  2.3849 -1.2680  0.9432
 8281SOL    HW236306   0.000   1.135   8.061  0.5497  1.5538  3.4681
 8282SOL     OW36307   4.675   0.649   3.454 -0.2288 -0.1641  0.1279
 8282SOL    HW136308   0.020   0.584   3.475 -1.6258 -2.3694 -2.2322
 8282SOL    HW236309   4.673   0.640   3.359  2.5786  2.7524 -0.2207
 8283SOL     OW36310   2.130   1.356   0.450 -0.6853  0.1627  0.4974
 8283SOL    HW136311   2.174   1.281   0.409 -0.5667 -0.7661  2.3386
 8283SOL    HW236312   2.096   1.402   0.373  1.2315  0.4857 -0.1381
 8284SOL     OW36313   4.262   2.483   5.036 -0.3639  0.4135  0.5746
 8284SOL    HW136314   4.244   2.424   4.963 -0.1728  0.1154  0.7666
 8284SOL    HW236315   4.345   2.524   5.012 -2.5242  3.7350 -1.2000
 8285SOL     OW36316   0.432   2.715   8.270  0.1561  0.4347 -0.1871
 8285SOL    HW136317   0.515   2.762   8.267 -0.7526  2.0116 -0.7454
 8285SOL    HW236318   0.404   2.720   8.361 -1.3939  0.2943 -0.6547
 8286SOL     OW36319   1.119   0.174   8.851 -0.6532  0.4213 -0.6584
 8286SOL    HW136320   1.094   0.218   8.769  0.0511 -0.1616 -1.1883
 8286SOL    HW236321   1.094   0.085   8.829  1.2139 -0.8510  2.3434
 8287SOL     OW36322   1.857   0.638   4.691  0.5884 -0.3394  0.4448
 8287SOL    HW136323   1.827   0.689   4.766 -0.6776 -2.1530  1.1734
 8287SOL    HW236324   1.795   0.651   4.618  1.8121  0.1576 -0.5002
 8288SOL     OW36325   0.157   0.329   2.744  0.0702  0.5905  0.3726
 8288SOL    HW136326   0.129   0.421   2.750  0.2848  0.6684  0.1625
 8288SOL    HW236327   0.171   0.320   2.650  2.2138  0.8457  0.6803
 8289SOL     OW36328   2.632   1.384   1.000  0.3500 -0.5873  0.1980
 8289SOL    HW136329   2.649   1.471   1.037 -1.4590  0.1347 -0.6439
 8289SOL    HW236330   2.705   1.375   0.938  0.1861  0.0416 -0.0898
 8290SOL     OW36331   3.950   4.641   3.977 -0.2117  0.5752 -0.0494
 8290SOL    HW136332   3.939   4.562   3.923  1.5184  0.1177  0.2494
 8290SOL    HW236333   3.991   4.604   4.055 -0.4821  0.3401 -0.0210
 8291SOL     OW36334   1.261   4.273  15.517  0.6521  0.1928 -0.1313
 8291SOL    HW136335   1.295   4.347  15.567  0.0525  0.5987 -0.3186
 8291SOL    HW236336   1.316   4.198  15.537  1.8376  0.9162 -0.6879
 8292SOL     OW36337   2.929   3.028   4.589 -0.5789  0.1311 -0.8465
 8292SOL    HW136338   2.939   3.079   4.509  2.7224  0.0274 -0.4952
 8292SOL    HW236339   2.987   2.953   4.573  0.5204  1.2257 -1.9739
 8293SOL     OW36340   4.704   1.460   9.998  0.1525 -0.0069  0.2241
 8293SOL    HW136341   0.034   1.441   9.920 -0.1472 -2.6562  0.6922
 8293SOL    HW236342   4.719   1.378  10.045 -1.8149 -1.2787 -1.4164
 8294SOL     OW36343   4.420   1.195   3.488  0.0031 -0.6744 -0.5326
 8294SOL    HW136344   4.399   1.106   3.517  0.1570 -0.2440  0.8983
 8294SOL    HW236345   4.340   1.220   3.442 -0.4112 -0.0831  0.5227
 8295SOL     OW36346   2.443   1.344   5.817 -0.2315 -0.5346 -0.5302
 8295SOL    HW136347   2.420   1.271   5.759 -0.0593 -0.9222 -0.1152
 8295SOL    HW236348   2.357   1.377   5.840  0.3958  1.1271 -0.5888
 8296SOL     OW36349   3.507   3.232  10.861 -0.0960  0.0735  0.2005
 8296SOL    HW136350   3.424   3.228  10.908  0.8837 -0.3427  1.9071
 8296SOL    HW236351   3.529   3.139  10.856  2.0558  0.5149  1.5966
 8297SOL     OW36352   1.660   4.431   3.140 -0.2966 -1.1300 -0.4628
 8297SOL    HW136353   1.620   4.427   3.053 -1.3815 -2.4861  0.1025
 8297SOL    HW236354   1.722   4.502   3.122 -1.1284 -0.5122 -0.8858
 8298SOL     OW36355   1.046   3.259   3.287  0.5161 -0.8515 -0.7822
 8298SOL    HW136356   0.965   3.289   3.246  0.5924  1.3930  0.7299
 8298SOL    HW236357   1.108   3.305   3.230 -0.7880  1.0684 -0.6369
 8299SOL     OW36358   3.107   4.600   1.092 -0.2086  0.7552 -0.2018
 8299SOL    HW136359   3.166   4.616   1.166 -0.6703  0.2255  0.2822
 8299SOL    HW236360   3.094   4.511   1.125 -0.3500  0.7450 -0.2861
 8300SOL     OW36361   1.486   2.097  15.514 -0.3495 -0.8120 -0.2166
 8300SOL    HW136362   1.535   2.070  15.436 -0.0805  1.7048 -0.9110
 8300SOL    HW236363   1.433   2.164  15.471 -0.3822 -1.2674 -0.8839
 8301SOL     OW36364   4.114   2.710   9.607  0.0279  0.1915 -0.1546
 8301SOL    HW136365   4.157   2.647   9.663 -0.2793 -0.0530 -0.1948
 8301SOL    HW236366   4.069   2.757   9.678 -0.2458 -1.0439  0.4780
 8302SOL     OW36367   1.456   3.427   9.321  0.3284 -0.3713  0.3969
 8302SOL    HW136368   1.425   3.409   9.410 -0.4739 -2.4114 -0.2940
 8302SOL    HW236369   1.382   3.391   9.271 -0.2932  1.4654 -0.0078
 8303SOL     OW36370   4.262   0.980   6.801 -0.0371  0.2092 -0.5781
 8303SOL    HW136371   4.209   1.003   6.725 -2.4347 -0.8289  0.7753
 8303SOL    HW236372   4.252   0.885   6.810  0.4529  0.2367  0.2633
 8304SOL     OW36373   3.740   3.358  12.022  0.2855  0.0617 -0.1714
 8304SOL    HW136374   3.758   3.328  11.933  1.7698 -0.3160  0.2645
 8304SOL    HW236375   3.757   3.282  12.078  2.0725  0.6209  0.0373
 8305SOL     OW36376   1.093   2.681   1.581 -0.0249 -0.4191 -0.5836
 8305SOL    HW136377   1.156   2.692   1.509 -1.4138 -0.1749 -1.7604
 8305SOL    HW236378   1.015   2.722   1.544 -0.0668  1.0034  1.1242
 8306SOL     OW36379   2.650   0.927   4.843 -0.1885 -0.3337  0.2199
 8306SOL    HW136380   2.590   1.000   4.851 -0.3264 -0.5032  0.7861
 8306SOL    HW236381   2.697   0.919   4.926  1.4737  1.0637 -0.5973
 8307SOL     OW36382   3.489   4.329  16.851 -0.2894 -0.3942 -0.2084
 8307SOL    HW136383   3.557   4.274  16.813 -2.1364 -2.4120 -0.6192
 8307SOL    HW236384   3.463   4.375  16.771  0.8487 -2.8082 -1.9858
 8308SOL     OW36385   0.120   1.931   1.789 -0.2544 -0.1873 -0.2856
 8308SOL    HW136386   0.039   1.909   1.742 -1.0464 -2.2013  2.0075
 8308SOL    HW236387   0.093   2.022   1.802 -0.5576 -0.1159 -1.4249
 8309SOL     OW36388   1.113   2.266   4.705 -0.4222 -0.1740  0.1832
 8309SOL    HW136389   1.162   2.201   4.754  0.1356 -0.6110 -0.9407
 8309SOL    HW236390   1.067   2.315   4.773  0.6229 -1.4914  1.8364
 8310SOL     OW36391   4.460   3.261   0.415 -0.1817  0.1649  1.0303
 8310SOL    HW136392   4.428   3.174   0.435  0.0818 -0.1706  0.0313
 8310SOL    HW236393   4.384   3.305   0.376  1.0166  1.9442  0.6860
 8311SOL     OW36394   2.912   0.332   8.979 -0.3344 -0.0522 -0.5714
 8311SOL    HW136395   2.980   0.274   9.014  0.4185  0.9518 -0.4052
 8311SOL    HW236396   2.906   0.397   9.049 -0.6217 -1.0818  0.3753
 8312SOL     OW36397   0.575   3.928   4.161 -0.5981 -0.5976 -0.5525
 8312SOL    HW136398   0.483   3.906   4.173 -0.0706 -2.0540  0.8225
 8312SOL    HW236399   0.618   3.846   4.137  0.3255 -0.4091  0.4848
 8313SOL     OW36400   1.082   0.375  15.127  0.2327  0.4944 -0.5799
 8313SOL    HW136401   1.033   0.293  15.135 -0.3080  0.7321 -1.4365
 8313SOL    HW236402   1.012   0.437  15.109 -0.6538  0.2862  2.0484
 8314SOL     OW36403   2.278   1.850   2.448  0.0443 -0.6678 -0.1659
 8314SOL    HW136404   2.218   1.860   2.374  1.0388  0.4548 -0.8227
 8314SOL    HW236405   2.268   1.757   2.469 -2.9471 -0.1071  0.9238
 8315SOL     OW36406   4.680   2.893   6.310  0.0858 -0.0592  0.4962
 8315SOL    HW136407   4.622   2.897   6.234  1.6994 -1.5630 -0.8252
 8315SOL    HW236408   4.620   2.856   6.375 -3.3958  2.6648 -1.1534
 8316SOL     OW36409   2.850   4.395  13.716  0.6735 -0.2917 -0.3512
 8316SOL    HW136410   2.773   4.372  13.769  0.8547  2.2059  0.9816
 8316SOL    HW236411   2.804   4.401  13.632 -0.1393 -0.3524  0.0834
 8317SOL     OW36412   1.023   2.608   2.497  0.0556  0.0016 -0.0066
 8317SOL    HW136413   1.025   2.641   2.407  2.6926  0.3962  0.2099
 8317SOL    HW236414   1.046   2.685   2.549  0.0235  3.0340 -4.4912
 8318SOL     OW36415   2.066   0.395  17.630  0.2979 -0.0181 -0.2488
 8318SOL    HW136416   1.985   0.394  17.680 -0.8066  0.1693 -2.0163
 8318SOL    HW236417   2.063   0.488  17.607  4.3631 -0.0927 -1.1150
 8319SOL     OW36418   3.909   2.911   1.498  0.0236 -0.2005 -0.6205
 8319SOL    HW136419   3.976   2.953   1.443  1.1487  0.3738  1.1844
 8319SOL    HW236420   3.951   2.908   1.584  2.1663  1.5097 -1.5886
 8320SOL     OW36421   1.440   2.680  17.004  0.6987  0.3259  0.5619
 8320SOL    HW136422   1.469   2.728  17.082  0.0009  0.4621  0.7386
 8320SOL    HW236423   1.356   2.719  16.980  0.0587 -0.9289  0.7792
 8321SOL     OW36424   0.047   4.518   8.643 -0.2317  0.4376  0.0060
 8321SOL    HW136425   0.067   4.583   8.575 -0.5611 -0.0773 -0.5821
 8321SOL    HW236426   0.091   4.561   8.717  2.6343 -1.7643 -0.4255
 8322SOL     OW36427   4.525   4.186   3.877 -1.0530  0.0941 -0.0855
 8322SOL    HW136428   4.570   4.130   3.813  2.2650 -0.3673  2.6182
 8322SOL    HW236429   4.488   4.122   3.938 -2.5345  0.5715 -0.4860
 8323SOL     OW36430   3.178   1.062   4.567  0.6435 -0.4012 -0.0731
 8323SOL    HW136431   3.226   1.064   4.649  0.5091  2.7926 -0.0552
 8323SOL    HW236432   3.222   0.992   4.519 -0.0952 -3.2812  3.4979
 8324SOL     OW36433   3.658   1.281   6.450  0.5332  0.6016  0.3848
 8324SOL    HW136434   3.645   1.369   6.415  1.3456 -0.1499 -1.8360
 8324SOL    HW236435   3.754   1.282   6.447  0.5109 -0.7363 -0.9589
 8325SOL     OW36436   1.884   4.186   8.351  0.6074 -0.0568 -0.5330
 8325SOL    HW136437   1.876   4.096   8.382  2.0528  0.9562  2.6941
 8325SOL    HW236438   1.967   4.189   8.303  0.3833 -1.3958 -0.9939
 8326SOL     OW36439   1.445   2.261  17.621  0.1228  0.3880  0.0348
 8326SOL    HW136440   1.408   2.177  17.594  0.6788  0.5781 -1.3222
 8326SOL    HW236441   1.521   2.236  17.674  0.3902 -1.0661 -1.0272
 8327SOL     OW36442   4.416   2.579   8.085 -0.4606 -0.1462 -0.0294
 8327SOL    HW136443   4.455   2.621   8.008 -0.2436 -2.5890 -1.2382
 8327SOL    HW236444   4.402   2.490   8.053 -0.1381 -0.7811  1.6485
 8328SOL     OW36445   3.037   3.365   5.177  0.6720  0.1642 -0.8512
 8328SOL    HW136446   2.990   3.448   5.183 -0.2400 -0.3669 -0.5783
 8328SOL    HW236447   2.974   3.321   5.234  2.2364  0.0381  0.7598
 8329SOL     OW36448   0.353   0.247   9.760 -0.3844  0.0324  0.1061
 8329SOL    HW136449   0.353   0.272   9.668 -1.0879  3.8267  1.1065
 8329SOL    HW236450   0.262   0.225   9.778 -0.4505  0.5494  0.4230
 8330SOL     OW36451   3.800   4.346   8.688  0.6902  0.7035 -0.4114
 8330SOL    HW136452   3.736   4.396   8.739  0.2049  0.2260 -0.5510
 8330SOL    HW236453   3.854   4.301   8.754  0.9636 -1.7936 -2.3094
 8331SOL     OW36454   2.048   0.017  14.110  0.2053  0.5690  0.3251
 8331SOL    HW136455   2.129   0.005  14.061 -2.3982 -1.9031 -3.3741
 8331SOL    HW236456   2.049   0.112  14.096 -0.2663  0.4728 -0.3630
 8332SOL     OW36457   2.843   1.936   3.479 -0.0477 -0.3194 -0.1023
 8332SOL    HW136458   2.901   1.874   3.523  2.3441 -0.1550 -3.0361
 8332SOL    HW236459   2.770   1.887   3.441 -1.0498 -0.7019  2.2675
 8333SOL     OW36460   4.322   3.424   2.435  0.5313 -0.1070  0.2932
 8333SOL    HW136461   4.250   3.365   2.414 -0.1268  0.8163 -0.0464
 8333SOL    HW236462   4.296   3.508   2.397 -0.3002  0.8911  3.0743
 8334SOL     OW36463   3.517   3.427   3.745 -1.1275  0.1005  0.4141
 8334SOL    HW136464   3.422   3.439   3.736 -1.3466  0.3327  3.0237
 8334SOL    HW236465   3.522   3.372   3.823  3.6048 -3.4958 -2.4751
 8335SOL     OW36466   4.189   3.741   1.271  0.0783  0.2159  0.1595
 8335SOL    HW136467   4.257   3.786   1.221 -1.4885  3.1277  0.6541
 8335SOL    HW236468   4.248   3.708   1.338 -0.6945 -1.1131  0.1995
 8336SOL     OW36469   1.499   3.293   7.625 -0.1385 -0.5594 -0.2997
 8336SOL    HW136470   1.427   3.239   7.590 -0.6508  0.3055 -0.5831
 8336SOL    HW236471   1.484   3.377   7.582  0.1567 -1.1744 -1.6193
 8337SOL     OW36472   1.663   4.333   4.362 -0.7156  0.0698  0.2300
 8337SOL    HW136473   1.751   4.331   4.399 -0.3588  0.8680 -0.5844
 8337SOL    HW236474   1.617   4.378   4.433  2.3898  0.8035  1.7644
 8338SOL     OW36475   1.119   1.590   6.364  0.1046 -0.3987 -0.3654
 8338SOL    HW136476   1.029   1.559   6.363  0.0712 -0.3062  0.2291
 8338SOL    HW236477   1.147   1.595   6.272  0.4242  2.2443 -0.1278
 8339SOL     OW36478   3.324   2.797  14.807  0.0028 -0.6553 -0.2762
 8339SOL    HW136479   3.330   2.881  14.762  0.7022 -1.0912 -0.9932
 8339SOL    HW236480   3.386   2.749  14.753 -1.0478 -1.8794 -0.4028
 8340SOL     OW36481   4.513   3.164   3.912  0.0029  0.2440 -0.0071
 8340SOL    HW136482   4.455   3.099   3.950  0.2590 -0.3178 -0.5814
 8340SOL    HW236483   4.511   3.229   3.982  1.4143 -0.6436  0.8552
 8341SOL     OW36484   1.582   0.883  11.353 -0.4546  0.0628 -0.9461
 8341SOL    HW136485   1.494   0.913  11.375 -0.0165 -0.3917  1.3871
 8341SOL    HW236486   1.589   0.907  11.260  1.2487 -0.1608 -0.8832
 8342SOL     OW36487   1.105   1.554  15.748 -0.9083 -0.2777 -0.1374
 8342SOL    HW136488   1.168   1.482  15.760  1.3080  1.7369  0.2065
 8342SOL    HW236489   1.030   1.495  15.754  0.7646 -2.4285 -0.3716
 8343SOL     OW36490   1.565   1.698   8.767 -0.2178  0.2021  0.2404
 8343SOL    HW136491   1.485   1.724   8.722 -0.9832 -0.5294  1.1629
 8343SOL    HW236492   1.620   1.732   8.697  0.2456 -0.1065  0.4455
 8344SOL     OW36493   4.380   3.242  13.615  0.5817  0.1486  0.0741
 8344SOL    HW136494   4.423   3.175  13.669 -0.3259 -1.9345 -1.8046
 8344SOL    HW236495   4.455   3.284  13.573 -1.9578  0.8916 -3.7327
 8345SOL     OW36496   0.790   1.416   7.090  0.0156  0.0938 -0.0359
 8345SOL    HW136497   0.736   1.396   7.166 -0.0655 -0.5795 -0.2703
 8345SOL    HW236498   0.805   1.326   7.060 -1.5832 -0.0112 -0.4993
 8346SOL     OW36499   0.717   1.375  16.292 -0.6640  0.3126 -0.5572
 8346SOL    HW136500   0.671   1.340  16.368 -0.5985  1.3936 -0.0220
 8346SOL    HW236501   0.717   1.470  16.302  0.5782  0.2405  0.0239
 8347SOL     OW36502   1.414   3.213  16.011 -0.1713 -0.0021 -0.2451
 8347SOL    HW136503   1.492   3.161  16.030 -0.7639 -0.3509  1.2413
 8347SOL    HW236504   1.336   3.158  16.021 -0.1340  0.0022  0.0740
 8348SOL     OW36505   2.924   1.698   3.594 -0.6017 -0.3627  0.8780
 8348SOL    HW136506   2.944   1.652   3.675  0.3329 -0.3305  0.6666
 8348SOL    HW236507   2.940   1.630   3.529 -2.8018  0.6849 -0.7572
 8349SOL     OW36508   1.723   0.424   7.532 -0.3932 -0.1579  0.1087
 8349SOL    HW136509   1.706   0.335   7.499 -0.4056  0.2102 -0.8876
 8349SOL    HW236510   1.779   0.461   7.464  0.8144  0.1602  1.2781
 8350SOL     OW36511   3.425   3.985   9.692 -0.6982 -0.3006  0.0594
 8350SOL    HW136512   3.475   3.905   9.676 -0.8966 -0.7812  1.7803
 8350SOL    HW236513   3.336   3.955   9.674 -0.1432 -1.1147 -1.2640
 8351SOL     OW36514   2.376   1.810  17.679  0.4335 -0.4864  0.1294
 8351SOL    HW136515   2.353   1.837   0.078  3.6964 -1.0474  1.1629
 8351SOL    HW236516   2.445   1.874  17.660 -0.3567  0.0733 -0.8277
 8352SOL     OW36517   2.664   1.287  11.694  0.4528 -0.4715  0.0839
 8352SOL    HW136518   2.578   1.245  11.701 -0.0673  0.4818 -0.5021
 8352SOL    HW236519   2.670   1.322  11.783 -0.0307 -1.2461  0.4174
 8353SOL     OW36520   1.719   0.134  17.225  0.4459 -0.1709 -0.2947
 8353SOL    HW136521   1.726   0.181  17.142  0.5535 -1.4826 -1.0281
 8353SOL    HW236522   1.645   0.076  17.206  0.6343 -0.2617 -0.7437
 8354SOL     OW36523   2.695   1.679   8.022 -0.0958 -0.3155 -0.3542
 8354SOL    HW136524   2.648   1.760   8.001  0.4524  0.0005 -0.3484
 8354SOL    HW236525   2.655   1.634   7.947  0.2181  3.1063 -2.5819
 8355SOL     OW36526   3.623   2.259   6.234  0.2360  0.6492 -0.0716
 8355SOL    HW136527   3.639   2.210   6.154 -0.6037  2.1971 -1.1819
 8355SOL    HW236528   3.568   2.203   6.289  0.7779 -0.3079 -0.5186
 8356SOL     OW36529   1.551   0.576   9.448  0.0441  0.1491 -0.2791
 8356SOL    HW136530   1.498   0.613   9.377 -0.8595  0.7533  0.6993
 8356SOL    HW236531   1.579   0.652   9.498 -2.5284 -0.0397  1.4755
 8357SOL     OW36532   1.718   4.460   9.175 -0.0824  0.1956 -0.2701
 8357SOL    HW136533   1.765   4.534   9.212  0.5369 -0.6450  0.6326
 8357SOL    HW236534   1.758   4.459   9.088  1.7001 -0.1180  0.5477
 8358SOL     OW36535   3.686   0.411  11.065 -0.2558  0.0412  0.0152
 8358SOL    HW136536   3.640   0.420  11.148  1.3256  1.6293  0.7225
 8358SOL    HW236537   3.687   0.316  11.062 -0.1007  0.1334 -3.1950
 8359SOL     OW36538   2.771   1.637   5.695  0.4686  0.5122 -0.2496
 8359SOL    HW136539   2.784   1.646   5.600 -0.4933  0.4576 -0.3884
 8359SOL    HW236540   2.769   1.543   5.709  1.4838  0.8412  2.0515
 8360SOL     OW36541   1.517   0.821  12.886  0.4474 -0.3862 -0.0990
 8360SOL    HW136542   1.529   0.887  12.818  0.2310 -1.1425 -0.8716
 8360SOL    HW236543   1.469   0.877  12.948 -0.5079 -2.2490  0.8392
 8361SOL     OW36544   4.340   1.219   2.451  0.2624  0.2344 -0.2559
 8361SOL    HW136545   4.258   1.268   2.449 -0.1802 -0.5424 -0.8683
 8361SOL    HW236546   4.364   1.241   2.541  3.3442 -1.2790 -0.7201
 8362SOL     OW36547   4.580   0.631   1.279  0.2468  0.1818 -0.1287
 8362SOL    HW136548   4.589   0.726   1.279  0.5649  0.1525 -0.8504
 8362SOL    HW236549   4.581   0.604   1.187 -1.7306  0.3299 -0.1844
 8363SOL     OW36550   4.584   3.554   6.196  0.1335  0.2756 -0.0695
 8363SOL    HW136551   4.653   3.596   6.145 -0.4813  0.3055 -0.8890
 8363SOL    HW236552   4.505   3.572   6.145  1.0762 -1.1313 -2.0473
 8364SOL     OW36553   2.524   1.261   8.863 -0.5506 -0.2081 -0.4590
 8364SOL    HW136554   2.539   1.222   8.949 -0.7030  2.3036  0.7037
 8364SOL    HW236555   2.455   1.198   8.843 -0.4040 -0.6737  0.5057
 8365SOL     OW36556   4.028   3.988   4.247  0.6855 -0.5666 -0.0581
 8365SOL    HW136557   3.993   4.032   4.324  1.3480  1.9489 -1.1990
 8365SOL    HW236558   4.060   3.904   4.279  0.0784 -1.0342 -0.6676
 8366SOL     OW36559   0.721   2.780  15.100  0.3841 -0.4796 -0.0082
 8366SOL    HW136560   0.776   2.846  15.058 -1.3190  1.7832  1.3487
 8366SOL    HW236561   0.790   2.729  15.143 -0.6997 -2.5749 -0.7371
 8367SOL     OW36562   0.076   0.039   1.387 -0.1880  0.0086  0.0900
 8367SOL    HW136563   0.012   0.045   1.458  0.7189 -0.8152  0.9802
 8367SOL    HW236564   0.077   4.666   1.373 -1.9459  0.0781 -0.4530
 8368SOL     OW36565   1.549   2.208   7.185  0.1060  0.1573  0.3349
 8368SOL    HW136566   1.610   2.280   7.199 -0.5786  1.0452 -1.2633
 8368SOL    HW236567   1.509   2.185   7.268  1.1638 -0.0320  0.7877
 8369SOL     OW36568   4.316   0.468   1.751 -0.0985 -0.1692 -1.2783
 8369SOL    HW136569   4.342   0.465   1.659 -0.9907  0.4415 -1.5447
 8369SOL    HW236570   4.221   0.477   1.746 -0.4519 -2.0406  1.9104
 8370SOL     OW36571   4.069   0.165   0.687  0.2742  0.1802 -0.2255
 8370SOL    HW136572   4.103   0.252   0.706 -2.0455  1.5557 -2.2483
 8370SOL    HW236573   4.050   0.175   0.594  0.0295  2.1473  0.0437
 8371SOL     OW36574   1.685   4.314   9.468 -0.9362  0.6870 -0.5583
 8371SOL    HW136575   1.692   4.388   9.408  0.5253  0.3209 -0.8424
 8371SOL    HW236576   1.755   4.327   9.531 -0.8798 -0.1377 -0.4429
 8372SOL     OW36577   2.665   4.507   4.442  0.5375  0.6256 -0.2456
 8372SOL    HW136578   2.646   4.521   4.349  0.6525 -0.6102 -0.4522
 8372SOL    HW236579   2.612   4.429   4.458 -2.0613  2.2727 -0.8278
 8373SOL     OW36580   0.422   2.424   8.189  0.0847  0.0868  0.4256
 8373SOL    HW136581   0.353   2.379   8.237 -0.7255 -1.1742 -1.9181
 8373SOL    HW236582   0.431   2.501   8.245 -0.1241 -0.4329  1.1820
 8374SOL     OW36583   4.569   4.705  15.336 -0.0813 -0.0256  0.6825
 8374SOL    HW136584   4.630   4.712  15.409 -1.4791 -0.7218  1.9206
 8374SOL    HW236585   4.550   4.611  15.335  2.5606 -0.5664  0.1182
 8375SOL     OW36586   0.768   4.228   6.894  0.7633  1.0654  0.5450
 8375SOL    HW136587   0.778   4.147   6.844  0.1754  0.2040  1.8326
 8375SOL    HW236588   0.681   4.253   6.862  0.0974 -3.7098 -1.3724
 8376SOL     OW36589   0.785   1.638   6.868  0.6447  0.1706  0.5384
 8376SOL    HW136590   0.778   1.719   6.918 -0.7320  0.1694  0.3619
 8376SOL    HW236591   0.830   1.580   6.930 -0.4440 -2.4716 -1.1415
 8377SOL     OW36592   2.639   1.312   6.910 -0.5529 -0.8582  0.2297
 8377SOL    HW136593   2.680   1.267   6.984 -2.6790 -0.8804  1.3960
 8377SOL    HW236594   2.649   1.245   6.843 -0.2886 -2.4394  1.8581
 8378SOL     OW36595   2.544   1.457  12.761  0.1740  0.0509  0.0046
 8378SOL    HW136596   2.584   1.448  12.848  3.3752  1.3305 -1.3364
 8378SOL    HW236597   2.564   1.369  12.729 -1.1302 -0.2945  0.1346
 8379SOL     OW36598   2.267   4.270   3.393  0.1143  0.2031  0.1977
 8379SOL    HW136599   2.336   4.211   3.426 -0.0995  0.5760  1.3180
 8379SOL    HW236600   2.205   4.264   3.466 -0.0292 -1.0646 -0.0303
 8380SOL     OW36601   4.422   2.570   7.047  0.2405 -0.2482  0.0774
 8380SOL    HW136602   4.328   2.564   7.031  0.3527 -0.2408 -0.5856
 8380SOL    HW236603   4.431   2.657   7.086 -1.0845 -0.4168  0.7609
 8381SOL     OW36604   1.298   0.377  12.838  0.5469  0.2525 -0.0825
 8381SOL    HW136605   1.372   0.342  12.887 -0.4766 -0.9647  0.5706
 8381SOL    HW236606   1.292   0.468  12.866  0.4072 -0.0274  0.7805
 8382SOL     OW36607   2.334   3.910   6.132 -0.2868  0.4311  0.2641
 8382SOL    HW136608   2.325   3.834   6.190 -2.4363 -1.3314 -2.3784
 8382SOL    HW236609   2.426   3.914   6.105  0.0971 -3.9783  0.9141
 8383SOL     OW36610   4.450   0.088  16.652  0.2904  0.1946 -0.4088
 8383SOL    HW136611   4.494   0.034  16.718 -0.6705  1.5480  1.3431
 8383SOL    HW236612   4.378   0.125  16.703  1.3813  0.8729  0.6513
 8384SOL     OW36613   2.659   2.282   3.072  0.1887 -0.2893 -0.1259
 8384SOL    HW136614   2.691   2.226   3.143 -0.1392 -1.2298 -0.7155
 8384SOL    HW236615   2.639   2.212   3.010  0.4274  0.2498 -0.8055
 8385SOL     OW36616   2.958   1.188  16.828  0.2956 -0.0548  0.5947
 8385SOL    HW136617   2.908   1.217  16.904  0.8778  0.8809  0.6226
 8385SOL    HW236618   2.947   1.094  16.846  0.2440  0.2325  2.0869
 8386SOL     OW36619   4.230   4.419   9.905 -0.2915  0.3193  0.2917
 8386SOL    HW136620   4.322   4.393   9.897 -1.1617 -2.8441  0.6370
 8386SOL    HW236621   4.236   4.468   9.987  0.2514  1.6687 -0.5496
 8387SOL     OW36622   4.489   1.018   4.453  0.6916  0.0879 -0.4622
 8387SOL    HW136623   4.529   1.093   4.410 -0.3012 -0.4344 -2.2933
 8387SOL    HW236624   4.398   1.044   4.468  0.1462 -2.7358  1.2270
 8388SOL     OW36625   3.487   4.052   2.863  0.0637 -0.5388 -0.4882
 8388SOL    HW136626   3.504   3.961   2.840 -3.7187 -1.3181 -0.1627
 8388SOL    HW236627   3.394   4.056   2.841 -0.3533 -0.4322  1.3530
 8389SOL     OW36628   2.496   0.127   1.584  0.2294  0.1433 -0.4401
 8389SOL    HW136629   2.468   0.039   1.561 -2.4539  0.8301  0.2150
 8389SOL    HW236630   2.465   0.168   1.504  1.4016 -0.2307 -1.0845
 8390SOL     OW36631   1.595   2.730  15.983 -0.0553 -0.0965  0.3488
 8390SOL    HW136632   1.664   2.698  16.041  1.1355  0.1582 -0.9299
 8390SOL    HW236633   1.616   2.684  15.902  1.6360 -0.2676  0.8811
 8391SOL     OW36634   1.916   3.696   8.523 -0.3190  0.2146 -0.1059
 8391SOL    HW136635   2.002   3.713   8.561  0.1138 -0.7052 -0.6569
 8391SOL    HW236636   1.884   3.646   8.598  1.6990  0.1281  0.6925
 8392SOL     OW36637   3.966   3.486   1.802 -0.5518  0.0966  0.3036
 8392SOL    HW136638   4.007   3.507   1.718  1.4079 -0.8587  1.0224
 8392SOL    HW236639   3.882   3.529   1.789 -0.5925 -0.3244 -0.7740
 8393SOL     OW36640   0.598   1.737   7.302  0.1817  0.0478 -0.3226
 8393SOL    HW136641   0.508   1.714   7.280  0.3284 -2.6172  1.8745
 8393SOL    HW236642   0.617   1.681   7.378  1.4409 -2.2623 -2.3473
 8394SOL     OW36643   0.232   0.349   8.336  0.0120  0.3054 -0.9967
 8394SOL    HW136644   0.207   0.436   8.302 -0.0579  0.9563  0.7485
 8394SOL    HW236645   0.221   0.363   8.430 -1.3342 -0.4318 -1.0491
 8395SOL     OW36646   1.438   2.518  16.598 -0.5007 -0.1907  0.2868
 8395SOL    HW136647   1.431   2.591  16.536  2.2640  1.2092  1.6003
 8395SOL    HW236648   1.347   2.488  16.598 -0.4580 -0.3327  0.9051
 8396SOL     OW36649   3.597   3.445   0.285 -0.5999  0.1524  0.4543
 8396SOL    HW136650   3.619   3.528   0.327  0.1048  0.2465 -0.1046
 8396SOL    HW236651   3.524   3.419   0.340  0.1089 -2.7255  0.0190
 8397SOL     OW36652   0.246   1.485   2.267 -0.4265  0.0167  0.0877
 8397SOL    HW136653   0.312   1.539   2.310 -1.6927  1.2668  0.4494
 8397SOL    HW236654   0.219   1.534   2.190  1.3965  1.9098  0.6604
 8398SOL     OW36655   1.008   2.063  11.593 -0.5790 -0.1536  0.1142
 8398SOL    HW136656   1.026   2.105  11.509 -0.0199  0.4429  0.5327
 8398SOL    HW236657   0.994   2.140  11.648  0.1952  1.3585 -1.8004
 8399SOL     OW36658   2.749   4.234   6.305  0.0807 -0.0626  0.4076
 8399SOL    HW136659   2.675   4.179   6.330 -1.5132  2.5552  1.4181
 8399SOL    HW236660   2.697   4.301   6.261 -1.7911 -0.5518  1.8620
 8400SOL     OW36661   1.110   0.410   8.143  0.1274 -0.3451  0.5474
 8400SOL    HW136662   1.186   0.467   8.156 -0.1953 -0.2272  1.8999
 8400SOL    HW236663   1.038   0.468   8.120  1.9834  1.9740  0.6156
 8401SOL     OW36664   4.005   4.466   5.782 -0.1728  0.7102 -0.3640
 8401SOL    HW136665   4.052   4.390   5.750 -0.0933  0.7210 -0.2720
 8401SOL    HW236666   4.038   4.540   5.732 -2.0208  1.8756  0.1100
 8402SOL     OW36667   2.456   2.943   0.037  0.6921  0.2472 -0.2219
 8402SOL    HW136668   2.511   2.868   0.060 -0.6837 -1.3278 -2.0433
 8402SOL    HW236669   2.377   2.926   0.088  0.9429 -0.4566 -0.0629
 8403SOL     OW36670   1.171   4.526   8.390  0.7179  0.1446 -0.8305
 8403SOL    HW136671   1.243   4.475   8.428  1.5408  2.3972  0.6602
 8403SOL    HW236672   1.189   4.608   8.437 -2.0219  0.8056 -0.9391
 8404SOL     OW36673   2.478   0.390   4.371 -0.8206 -0.1159 -0.1129
 8404SOL    HW136674   2.495   0.316   4.312  1.7496  1.1212 -0.9287
 8404SOL    HW236675   2.565   0.422   4.393 -0.6684  1.0961 -2.5476
 8405SOL     OW36676   1.188   2.203   2.057 -0.1983  0.0405 -0.4362
 8405SOL    HW136677   1.112   2.253   2.088  0.3733  0.3726  0.4549
 8405SOL    HW236678   1.201   2.258   1.980  1.9549 -1.5740 -1.2131
 8406SOL     OW36679   0.715   1.735   2.815  1.0225 -0.3649 -0.3449
 8406SOL    HW136680   0.767   1.737   2.735 -0.6918 -0.2206 -1.4481
 8406SOL    HW236681   0.707   1.827   2.839 -1.8358 -0.7856  0.3755
 8407SOL     OW36682   1.364   3.427   8.609 -0.4471  0.0240  0.0249
 8407SOL    HW136683   1.347   3.358   8.673  0.0682 -0.9540 -0.8803
 8407SOL    HW236684   1.453   3.398   8.588  0.0894  0.9584  1.0014
 8408SOL     OW36685   3.539   2.603   5.488 -0.1284  0.4061 -0.1737
 8408SOL    HW136686   3.616   2.573   5.537 -0.5466  1.0747  0.8771
 8408SOL    HW236687   3.586   2.654   5.422 -0.4559 -0.1449 -0.8364
 8409SOL     OW36688   3.799   1.756  10.638  0.0089  0.3144 -0.0351
 8409SOL    HW136689   3.709   1.750  10.605  0.0768 -0.9108  0.0090
 8409SOL    HW236690   3.810   1.663  10.657  0.8193  0.7275  1.4558
 8410SOL     OW36691   1.789   3.268   8.216 -0.5360 -0.4525 -0.2329
 8410SOL    HW136692   1.694   3.261   8.204 -0.7708  1.7839  0.4484
 8410SOL    HW236693   1.787   3.363   8.227  0.7521 -0.4414 -0.1630
 8411SOL     OW36694   3.742   0.152   5.635 -0.1394  0.0662 -0.0704
 8411SOL    HW136695   3.763   0.064   5.665 -0.1565 -0.7684 -2.4913
 8411SOL    HW236696   3.656   0.130   5.597  0.5237 -0.4377 -1.2790
 8412SOL     OW36697   1.505   2.716  14.957  0.2890  0.0064 -0.0423
 8412SOL    HW136698   1.534   2.761  15.036  2.1781  0.5469 -1.0315
 8412SOL    HW236699   1.434   2.776  14.935  0.4902  1.1678  2.5480
 8413SOL     OW36700   3.561   1.050   5.362 -0.1629  0.3981  0.2210
 8413SOL    HW136701   3.559   0.955   5.345  2.1666  0.3005  0.4711
 8413SOL    HW236702   3.650   1.078   5.342  0.6586 -1.7222  0.8663
 8414SOL     OW36703   1.940   3.793   7.382  0.3493 -0.5651 -0.1556
 8414SOL    HW136704   1.897   3.708   7.392  0.0306 -0.5611 -1.5385
 8414SOL    HW236705   1.927   3.832   7.469  1.1070 -1.7570  0.4992
 8415SOL     OW36706   2.516   3.285  14.532 -0.1832  0.4202 -0.1541
 8415SOL    HW136707   2.480   3.319  14.451  0.2840  0.0415 -0.5210
 8415SOL    HW236708   2.444   3.302  14.592 -1.1028  0.1482 -1.1894
 8416SOL     OW36709   2.564   3.848   2.899  0.3791  0.4307  0.4521
 8416SOL    HW136710   2.504   3.802   2.958 -1.2288 -0.0769 -1.5707
 8416SOL    HW236711   2.517   3.831   2.817  0.4537 -2.4694  1.0054
 8417SOL     OW36712   1.350   4.344   4.777 -0.8547 -0.1484  0.1756
 8417SOL    HW136713   1.374   4.432   4.805 -2.2741  0.1279  0.5256
 8417SOL    HW236714   1.375   4.292   4.853 -1.7553 -0.7971  0.0365
 8418SOL     OW36715   2.295   3.008   3.664 -0.2096  0.1578 -0.2498
 8418SOL    HW136716   2.348   3.050   3.731 -0.7388 -0.0477  0.3060
 8418SOL    HW236717   2.222   2.994   3.724 -0.7468  2.0198 -0.4802
 8419SOL     OW36718   3.764   0.779   2.599  0.0160  0.3075 -0.2908
 8419SOL    HW136719   3.817   0.762   2.677 -0.6649 -0.3160  0.0337
 8419SOL    HW236720   3.716   0.858   2.623 -0.5844  0.0184 -0.5461
 8420SOL     OW36721   3.353   0.489   9.812  0.5872  0.1138  0.2978
 8420SOL    HW136722   3.334   0.583   9.817 -0.7708 -0.0851 -1.0386
 8420SOL    HW236723   3.320   0.468   9.899 -0.6140  2.5596  0.4546
 8421SOL     OW36724   3.674   3.005   7.184 -0.2049 -0.1190 -0.2508
 8421SOL    HW136725   3.635   3.050   7.109  0.2561 -0.9898 -1.0123
 8421SOL    HW236726   3.670   3.075   7.249 -0.8395 -1.1796  0.8526
 8422SOL     OW36727   3.214   0.294   7.395  0.3783 -0.1463 -0.1679
 8422SOL    HW136728   3.295   0.288   7.345  1.0967  2.0786  0.7298
 8422SOL    HW236729   3.180   0.205   7.383  1.3823 -0.5201 -0.2751
 8423SOL     OW36730   3.376   3.333   8.572 -0.1860  0.2297  0.3860
 8423SOL    HW136731   3.322   3.387   8.514 -0.5262  0.8124  1.2425
 8423SOL    HW236732   3.456   3.385   8.569  1.0653 -1.8573 -1.7836
 8424SOL     OW36733   2.438   3.726   6.680 -0.4423  0.2061  0.2246
 8424SOL    HW136734   2.444   3.728   6.776 -0.2153 -1.1473  0.2261
 8424SOL    HW236735   2.438   3.631   6.669 -0.3487  0.2303  0.0138
 8425SOL     OW36736   3.203   0.909  13.416  0.3151  0.1781  0.8557
 8425SOL    HW136737   3.178   0.817  13.424  1.0030 -0.2287 -1.7039
 8425SOL    HW236738   3.121   0.952  13.392 -0.4828 -0.9143  1.6229
 8426SOL     OW36739   4.404   2.182   7.606  0.1428 -0.6008 -0.0535
 8426SOL    HW136740   4.450   2.125   7.667  0.1944  0.8987  1.3217
 8426SOL    HW236741   4.353   2.126   7.547  0.2921  0.8769 -1.5627
 8427SOL     OW36742   1.541   1.535  15.367 -0.1858 -0.3660  0.9672
 8427SOL    HW136743   1.617   1.478  15.357 -0.5418 -0.4736 -1.0435
 8427SOL    HW236744   1.550   1.596  15.294  0.1182  1.2060  2.3130
 8428SOL     OW36745   2.146   3.792   2.124 -0.8318  0.1633  0.5515
 8428SOL    HW136746   2.191   3.774   2.041 -0.2445  1.0194  0.6833
 8428SOL    HW236747   2.117   3.708   2.160 -0.7144  0.6059  1.6617
 8429SOL     OW36748   2.477   4.720   7.617 -0.2016  0.3829 -0.0482
 8429SOL    HW136749   2.428   4.720   7.699  0.2676  1.0212  0.2305
 8429SOL    HW236750   2.525   4.637   7.620 -0.5963  0.1614  0.1394
 8430SOL     OW36751   4.357   2.609   8.949 -0.1845  0.3684 -0.1676
 8430SOL    HW136752   4.435   2.570   8.910  0.1863  1.5201 -0.5894
 8430SOL    HW236753   4.283   2.570   8.902 -0.7403  1.6509 -0.3763
 8431SOL     OW36754   4.419   3.814   6.499 -0.0298 -0.5108 -0.1761
 8431SOL    HW136755   4.460   3.891   6.539 -0.9141 -0.4432  0.5981
 8431SOL    HW236756   4.406   3.841   6.408  0.7068  0.7573  0.0938
 8432SOL     OW36757   1.932   3.340   8.778 -0.3937 -0.3188 -0.0552
 8432SOL    HW136758   1.848   3.340   8.823  0.1558  0.9978  1.0039
 8432SOL    HW236759   1.922   3.432   8.751  0.8894 -0.2064 -0.1501
 8433SOL     OW36760   3.253   4.313   5.311  0.0362 -0.2382 -0.6489
 8433SOL    HW136761   3.317   4.330   5.242 -0.3475 -0.8426 -1.1510
 8433SOL    HW236762   3.272   4.390   5.365 -1.1349 -1.0304  0.8971
 8434SOL     OW36763   2.852   2.751  15.349 -0.4956 -0.1215  0.3953
 8434SOL    HW136764   2.891   2.778  15.266  2.9506  1.7070  2.6094
 8434SOL    HW236765   2.931   2.743  15.403 -0.6040 -2.0144  0.2754
 8435SOL     OW36766   4.362   1.643  11.659  0.2328 -0.4577 -0.0414
 8435SOL    HW136767   4.374   1.551  11.682  0.4832 -0.3012  0.4621
 8435SOL    HW236768   4.362   1.643  11.563 -2.7862  0.1046 -0.0371
 8436SOL     OW36769   1.755   4.450   8.385 -0.2132  0.0988 -0.3849
 8436SOL    HW136770   1.774   4.503   8.308  2.5633  0.1069  0.3233
 8436SOL    HW236771   1.793   4.364   8.367  1.3045  0.3091  1.7504
 8437SOL     OW36772   2.617   4.074   8.176  0.0471 -0.3910  0.7088
 8437SOL    HW136773   2.594   4.003   8.237 -0.0486 -0.9838 -0.0109
 8437SOL    HW236774   2.631   4.144   8.240  0.3714 -0.6872  0.9641
 8438SOL     OW36775   1.490   2.257   8.409 -0.0935  0.6619  0.4924
 8438SOL    HW136776   1.473   2.339   8.457 -1.3160  0.4865  0.3665
 8438SOL    HW236777   1.457   2.196   8.474 -0.5624 -0.0753 -0.4478
 8439SOL     OW36778   4.636   1.001  16.414  0.0133 -0.3907 -0.0948
 8439SOL    HW136779   4.672   1.071  16.468 -0.7380 -0.6583  0.7668
 8439SOL    HW236780   4.696   1.012  16.341  0.1730 -0.3229  0.0469
 8440SOL     OW36781   3.570   4.631  10.165  0.1141  0.2777  0.6412
 8440SOL    HW136782   3.574   4.711  10.112  1.3228 -0.9994 -1.1642
 8440SOL    HW236783   3.660   4.610  10.191 -0.7150 -2.0371  1.5987
 8441SOL     OW36784   1.090   1.892  11.178  0.5216 -0.3800  0.2645
 8441SOL    HW136785   0.996   1.905  11.183  0.8935  1.7589  1.6509
 8441SOL    HW236786   1.108   1.975  11.133 -2.3673 -1.4639 -2.8442
 8442SOL     OW36787   4.254   2.829   5.098 -0.0050 -0.5779 -0.1136
 8442SOL    HW136788   4.313   2.773   5.048  2.8327  1.9789  0.3444
 8442SOL    HW236789   4.188   2.852   5.033  1.0605  0.0880 -0.9652
 8443SOL     OW36790   3.016   1.224   9.223 -0.5183 -0.6769  0.3217
 8443SOL    HW136791   3.077   1.295   9.240 -1.3993  0.1126  0.1761
 8443SOL    HW236792   3.076   1.176   9.166  0.6344  1.1665 -0.0228
 8444SOL     OW36793   2.205   1.807   0.685 -0.0748 -0.4594  0.5721
 8444SOL    HW136794   2.142   1.878   0.674 -0.0186 -0.6425 -1.0088
 8444SOL    HW236795   2.191   1.774   0.774  0.9484 -1.0432  0.5163
 8445SOL     OW36796   4.664   2.124  10.790 -0.3030 -0.3896 -0.5749
 8445SOL    HW136797   4.591   2.089  10.842  1.0083 -2.8439 -0.3792
 8445SOL    HW236798   4.660   2.066  10.714 -1.6496  0.2084 -0.9386
 8446SOL     OW36799   0.419   1.377   1.580 -0.5440  0.3009 -0.1326
 8446SOL    HW136800   0.433   1.348   1.670  2.2099  1.9752 -0.0195
 8446SOL    HW236801   0.470   1.458   1.575  0.8591 -0.6291 -0.9274
 8447SOL     OW36802   4.337   0.055  10.402  0.4767  0.5855  0.0054
 8447SOL    HW136803   4.335   4.685  10.426  1.1220  1.0174  1.7171
 8447SOL    HW236804   4.245   0.084  10.400 -0.7148 -3.1031  1.0447
 8448SOL     OW36805   4.368   2.754   9.836 -0.3566  0.3844 -0.4001
 8448SOL    HW136806   4.315   2.708   9.900  1.0922  2.1238  2.0540
 8448SOL    HW236807   4.436   2.778   9.900  0.5567 -1.3541 -0.7070
 8449SOL     OW36808   1.203   2.845   9.758  0.1478 -0.0466  0.3781
 8449SOL    HW136809   1.177   2.893   9.837  2.2584  0.8254  0.5471
 8449SOL    HW236810   1.123   2.795   9.742 -0.4321  0.8518  0.4344
 8450SOL     OW36811   3.408   1.407   8.446 -0.8078 -0.7910  0.3927
 8450SOL    HW136812   3.502   1.420   8.440 -0.7927  0.1548  2.5723
 8450SOL    HW236813   3.388   1.392   8.539  0.9851 -0.6503  0.7918
 8451SOL     OW36814   3.819   1.822  15.167 -0.0421 -0.3098  0.1921
 8451SOL    HW136815   3.749   1.794  15.107  0.8899  0.3976 -1.2203
 8451SOL    HW236816   3.871   1.742  15.166 -0.1732 -0.3721 -2.1680
 8452SOL     OW36817   4.116   1.034   5.891  0.3261 -0.7500 -0.5296
 8452SOL    HW136818   4.085   1.007   5.978  1.0000 -1.6968 -0.5885
 8452SOL    HW236819   4.065   1.112   5.869  2.8364  0.4951 -1.7892
 8453SOL     OW36820   0.634   4.285   3.760 -0.4735 -0.2497  0.1180
 8453SOL    HW136821   0.611   4.234   3.838  1.9514 -0.5642  0.6247
 8453SOL    HW236822   0.600   4.236   3.686 -0.8862  0.3520 -0.0895
 8454SOL     OW36823   3.882   1.165   2.109 -0.4920  0.3852 -0.1050
 8454SOL    HW136824   3.970   1.143   2.141 -0.4654  1.1601  0.3558
 8454SOL    HW236825   3.901   1.255   2.082 -1.6356  1.3212  2.2337
 8455SOL     OW36826   3.413   4.022   5.622  0.2637 -0.5697 -0.4663
 8455SOL    HW136827   3.375   4.035   5.709 -0.3711 -1.3756 -0.6188
 8455SOL    HW236828   3.348   4.069   5.569  0.7602  0.5532 -0.0666
 8456SOL     OW36829   3.386   0.297   8.283  0.2123 -0.2954 -0.6842
 8456SOL    HW136830   3.434   0.300   8.366  1.6681  2.1197 -1.6127
 8456SOL    HW236831   3.302   0.296   8.328  1.7777 -2.5869  2.2127
 8457SOL     OW36832   2.128   4.082  15.409 -0.1467 -0.2147  0.3014
 8457SOL    HW136833   2.147   4.175  15.419 -0.1716 -0.2335  0.5285
 8457SOL    HW236834   2.193   4.040  15.466 -1.0319 -1.8253  0.1228
 8458SOL     OW36835   3.422   1.793   6.840  0.2908  0.6308 -0.2533
 8458SOL    HW136836   3.485   1.723   6.826  1.7866  1.4916  2.1942
 8458SOL    HW236837   3.405   1.821   6.750 -3.6623 -0.2414  0.1946
 8459SOL     OW36838   2.473   1.625  12.033  0.8281 -0.2400 -0.3520
 8459SOL    HW136839   2.464   1.680  12.111 -1.6208  2.3429 -2.4667
 8459SOL    HW236840   2.420   1.674  11.971  2.4364 -1.7784 -2.9301
 8460SOL     OW36841   0.798   1.587  11.393 -0.0686 -0.1825 -0.0628
 8460SOL    HW136842   0.881   1.597  11.346 -0.2843 -0.4200 -0.4978
 8460SOL    HW236843   0.801   1.657  11.457 -0.6554 -1.0725  0.9322
 8461SOL     OW36844   1.619   3.120  10.760 -0.0297  0.1067 -0.0263
 8461SOL    HW136845   1.643   3.209  10.787 -1.1025  0.6623 -0.9060
 8461SOL    HW236846   1.686   3.063  10.798  0.2335 -0.7419 -1.7776
 8462SOL     OW36847   0.605   3.405   8.853 -0.2999 -0.4093  0.0804
 8462SOL    HW136848   0.651   3.458   8.918 -2.2479  0.5927  0.6400
 8462SOL    HW236849   0.676   3.399   8.789  1.0169  0.5911  1.4463
 8463SOL     OW36850   0.531   2.610  12.078  0.5509  0.2865 -0.6266
 8463SOL    HW136851   0.468   2.594  12.148  1.3537 -0.1397 -0.0025
 8463SOL    HW236852   0.596   2.541  12.093  0.0695 -0.1483 -0.5513
 8464SOL     OW36853   3.701   1.350   7.138  0.4643  0.2535 -0.1903
 8464SOL    HW136854   3.788   1.317   7.115  0.3552 -1.6064  2.0977
 8464SOL    HW236855   3.713   1.445   7.145 -1.4268  0.4430  0.4628
 8465SOL     OW36856   3.265   0.395   6.698  0.2887  0.6856 -0.8281
 8465SOL    HW136857   3.233   0.314   6.657  0.5967  0.9354 -1.5556
 8465SOL    HW236858   3.221   0.457   6.640  0.0255  0.6654 -0.6533
 8466SOL     OW36859   2.481   2.888   9.370 -0.7683  0.1299  0.2053
 8466SOL    HW136860   2.566   2.933   9.378  0.6500 -2.1115 -2.1952
 8466SOL    HW236861   2.457   2.886   9.463  0.5413  0.8498  0.5547
 8467SOL     OW36862   1.979   1.073   4.028  0.0874 -0.6649  0.4923
 8467SOL    HW136863   1.921   1.001   4.003 -0.0493 -0.8566  1.3773
 8467SOL    HW236864   1.917   1.142   4.050  0.8004 -0.1438  0.8371
 8468SOL     OW36865   2.809   3.631   6.942  0.5102 -0.6661  0.2846
 8468SOL    HW136866   2.721   3.595   6.933 -0.0263  0.7566 -0.1210
 8468SOL    HW236867   2.822   3.611   7.034  1.7986 -1.0206  0.0200
 8469SOL     OW36868   2.857   2.718  17.081 -0.3890 -0.0144 -0.2736
 8469SOL    HW136869   2.911   2.751  17.009 -0.0811 -0.4026 -0.2178
 8469SOL    HW236870   2.779   2.773  17.074 -1.1942 -0.8994  1.8005
 8470SOL     OW36871   2.506   0.332   8.936 -0.2821  0.3036 -0.6492
 8470SOL    HW136872   2.533   0.288   8.855  1.0005 -0.6079  0.2668
 8470SOL    HW236873   2.573   0.301   8.997  2.6519 -0.3182 -4.1658
 8471SOL     OW36874   2.447   4.689   5.626  0.5425  0.7552 -0.2073
 8471SOL    HW136875   2.361   0.009   5.620  0.0837 -0.3076 -0.9462
 8471SOL    HW236876   2.474   4.716   5.714 -0.7683  2.1056 -0.2176
 8472SOL     OW36877   2.104   0.483   8.487  0.0315  0.0939 -0.0953
 8472SOL    HW136878   2.044   0.448   8.421 -0.9057  1.4976  0.0163
 8472SOL    HW236879   2.036   0.523   8.541 -0.1331 -0.5807  0.1921
 8473SOL     OW36880   2.155   4.031   1.091  0.0264  0.0077  0.0778
 8473SOL    HW136881   2.190   4.120   1.098  1.0168 -0.1109 -2.9966
 8473SOL    HW236882   2.072   4.066   1.058 -0.0325  1.4627  1.7988
 8474SOL     OW36883   4.014   2.163   6.129  0.5776 -0.1358  0.3320
 8474SOL    HW136884   4.037   2.145   6.220  0.1254  0.3874  0.5477
 8474SOL    HW236885   3.980   2.250   6.146  0.9949  0.2267 -0.6945
 8475SOL     OW36886   0.564   3.262  17.056 -0.4030 -0.2837  0.1426
 8475SOL    HW136887   0.580   3.340  17.110  1.5146  0.2133 -1.1369
 8475SOL    HW236888   0.646   3.272  17.008 -1.0705  0.0712 -0.9114
 8476SOL     OW36889   3.257   3.774  17.209 -0.4136 -0.1065  0.2630
 8476SOL    HW136890   3.286   3.762  17.118  0.9490  0.7774  0.5823
 8476SOL    HW236891   3.272   3.687  17.246  3.0425 -0.0880 -1.0751
 8477SOL     OW36892   2.411   3.064  16.772 -0.0015 -0.0699 -0.6582
 8477SOL    HW136893   2.336   3.101  16.725 -0.1673 -0.5122 -0.7466
 8477SOL    HW236894   2.400   2.973  16.744 -0.1473 -0.4287  0.5693
 8478SOL     OW36895   0.254   2.131   2.258 -0.2476 -0.3009  0.3367
 8478SOL    HW136896   0.162   2.155   2.246  1.4095  5.0256 -1.8300
 8478SOL    HW236897   0.263   2.060   2.195  0.4795 -0.8964  1.1207
 8479SOL     OW36898   4.161   3.263   8.474 -0.3251  0.4978 -0.6030
 8479SOL    HW136899   4.191   3.217   8.395 -1.4619 -0.8961 -0.2168
 8479SOL    HW236900   4.180   3.199   8.542 -0.1015  1.4109  0.1920
 8480SOL     OW36901   4.203   2.349   4.777 -0.1241  0.1732  0.3784
 8480SOL    HW136902   4.232   2.345   4.686  1.0801 -0.7636  0.8152
 8480SOL    HW236903   4.220   2.258   4.802  1.6046  0.1846 -0.8175
 8481SOL     OW36904   2.026   3.597   6.923 -0.0219 -0.3914  0.2113
 8481SOL    HW136905   2.115   3.629   6.914  0.1119 -1.2115 -1.5587
 8481SOL    HW236906   1.982   3.680   6.941  0.5978 -0.2108  0.8885
 8482SOL     OW36907   2.102   4.361   6.437  0.3832  0.0848  0.1643
 8482SOL    HW136908   2.196   4.361   6.417  0.4953  0.8470  0.6615
 8482SOL    HW236909   2.110   4.331   6.528  1.3766 -1.4866 -0.4570
 8483SOL     OW36910   3.569   1.007   4.227  0.1120 -0.6537 -0.3208
 8483SOL    HW136911   3.589   1.101   4.221 -0.7036 -0.3771  1.2617
 8483SOL    HW236912   3.473   1.006   4.227  0.1028 -0.2101 -1.1387
 8484SOL     OW36913   1.447   0.682  10.424 -0.3049 -0.1230  0.9760
 8484SOL    HW136914   1.517   0.625  10.453  1.0947  1.1201  0.0118
 8484SOL    HW236915   1.472   0.766  10.461 -0.1099  1.2192 -2.1338
 8485SOL     OW36916   0.153   0.834   8.088  0.4438 -0.2511 -0.1510
 8485SOL    HW136917   0.063   0.817   8.060  1.3347 -1.0787 -2.5404
 8485SOL    HW236918   0.168   0.924   8.059 -0.2876 -0.4003 -0.9624
 8486SOL     OW36919   0.675   2.212   5.236 -0.4036  0.6052  0.4784
 8486SOL    HW136920   0.635   2.253   5.313 -2.9727  0.9318 -1.0231
 8486SOL    HW236921   0.623   2.253   5.166  1.9494  0.1903 -1.5295
 8487SOL     OW36922   3.932   1.775  10.387 -0.2235  1.0744 -0.3648
 8487SOL    HW136923   3.943   1.694  10.339 -1.0438  0.2653  0.8180
 8487SOL    HW236924   3.879   1.740  10.459 -0.5794  2.3469 -0.0021
 8488SOL     OW36925   3.286   1.893  14.088  0.1084  0.2162 -0.2330
 8488SOL    HW136926   3.191   1.903  14.076  0.1901 -0.2035 -1.2183
 8488SOL    HW236927   3.303   1.984  14.112  0.4261  0.4620 -1.3990
 8489SOL     OW36928   1.463   1.673   8.365  0.3371  0.1632  0.4410
 8489SOL    HW136929   1.554   1.667   8.394  0.4678 -0.6164 -0.1323
 8489SOL    HW236930   1.464   1.764   8.336  2.8372 -0.0619 -0.1766
 8490SOL     OW36931   1.701   0.670   6.971  0.7269 -0.5290  0.5863
 8490SOL    HW136932   1.614   0.663   6.931  1.0196  2.3276 -0.5118
 8490SOL    HW236933   1.680   0.650   7.063 -1.7114  1.7136  0.5103
 8491SOL     OW36934   4.700   2.125   0.727  0.1101 -0.2025  0.7114
 8491SOL    HW136935   4.693   2.036   0.692 -0.9506  0.3346 -0.4566
 8491SOL    HW236936   4.711   2.175   0.646 -1.0855  1.1133  1.3823
 8492SOL     OW36937   2.091   1.770  13.771  0.1711  0.5561  0.5289
 8492SOL    HW136938   2.158   1.818  13.723  0.0643 -0.2134 -0.3831
 8492SOL    HW236939   2.077   1.845  13.828  3.0016  0.0864  1.8351
 8493SOL     OW36940   4.045   0.967   5.297 -0.8243  0.2636 -0.1976
 8493SOL    HW136941   4.135   0.971   5.328 -0.9977  1.5471  0.1710
 8493SOL    HW236942   4.049   0.892   5.238  1.6333 -0.1727  0.4958
 8494SOL     OW36943   4.562   3.107   3.257 -0.0654 -0.7917  0.2546
 8494SOL    HW136944   4.592   3.094   3.167  0.0531 -2.7318  0.5777
 8494SOL    HW236945   4.497   3.037   3.263  0.9350 -1.6239  1.2598
 8495SOL     OW36946   2.783   2.824  13.751 -0.1210 -0.2529 -0.0592
 8495SOL    HW136947   2.834   2.807  13.830 -0.8602 -1.4280  0.1665
 8495SOL    HW236948   2.698   2.792  13.781  0.3275  1.8343  3.4164
 8496SOL     OW36949   1.541   1.507   8.966  0.1711 -0.3135  0.4518
 8496SOL    HW136950   1.556   1.553   8.883  0.7404  0.6394  1.0841
 8496SOL    HW236951   1.474   1.564   9.003 -0.7553 -0.7375 -0.5821
 8497SOL     OW36952   1.979   4.007  14.874 -0.4411 -0.1054 -0.1097
 8497SOL    HW136953   2.043   3.960  14.928 -0.4453 -0.8365 -0.7355
 8497SOL    HW236954   2.013   4.094  14.854 -1.4836  0.6463  1.4834
 8498SOL     OW36955   1.852   2.714  16.155  0.0751  0.2393 -0.8461
 8498SOL    HW136956   1.856   2.622  16.179 -0.7950  0.0421 -1.4567
 8498SOL    HW236957   1.899   2.752  16.230 -0.3703  3.3719 -2.1658
 8499SOL     OW36958   0.458   1.327   6.985  0.4703  0.0856  0.3922
 8499SOL    HW136959   0.474   1.421   6.981  0.7861 -0.1235 -2.7500
 8499SOL    HW236960   0.427   1.308   6.897 -0.9961 -1.5019  1.2536
 8500SOL     OW36961   0.200   0.008  11.692 -0.2696  0.0010 -0.0610
 8500SOL    HW136962   0.223   4.720  11.600  1.9633  1.8365  0.2795
 8500SOL    HW236963   0.287   4.717  11.729 -0.1597 -0.7102 -0.5705
 8501SOL     OW36964   3.012   3.915   2.941 -0.5553 -0.4378  0.4518
 8501SOL    HW136965   3.027   3.983   2.875 -4.2360 -0.1236 -0.0808
 8501SOL    HW236966   3.005   3.839   2.884 -1.4586 -1.2455  1.6526
 8502SOL     OW36967   3.959   1.637   2.880 -0.4874 -0.3180  0.4423
 8502SOL    HW136968   3.899   1.664   2.949 -0.0256 -1.8020  1.4212
 8502SOL    HW236969   4.001   1.719   2.853 -0.8421 -1.2194 -2.8323
 8503SOL     OW36970   4.610   0.663   4.802  0.2869 -0.4073  0.1829
 8503SOL    HW136971   4.547   0.716   4.850  0.2716 -1.5332  1.3945
 8503SOL    HW236972   4.579   0.647   4.713  0.6399  0.7652 -0.1603
 8504SOL     OW36973   0.378   3.441   4.215 -0.4003  0.0408 -0.0801
 8504SOL    HW136974   0.340   3.490   4.288  0.0777 -1.7273  1.3769
 8504SOL    HW236975   0.302   3.390   4.187 -0.8540  1.8802 -2.2357
 8505SOL     OW36976   0.972   4.353   2.854 -0.5739 -0.2499 -0.5766
 8505SOL    HW136977   1.063   4.329   2.870 -0.8565 -3.6518 -4.0703
 8505SOL    HW236978   0.949   4.311   2.771  0.6376  0.7464 -1.4209
 8506SOL     OW36979   4.459   3.455   4.377  0.3038  0.4947  0.0952
 8506SOL    HW136980   4.454   3.502   4.460  0.0988  0.2980  0.1930
 8506SOL    HW236981   4.370   3.480   4.351  0.4418  0.9003  0.0097
 8507SOL     OW36982   0.413   1.617   5.696  0.3783  0.5485 -0.5259
 8507SOL    HW136983   0.470   1.553   5.739 -1.6518 -1.1330 -0.3787
 8507SOL    HW236984   0.455   1.617   5.610 -0.7285  1.4783 -1.0717
 8508SOL     OW36985   2.592   2.400   2.244  0.4888 -0.0520  0.3887
 8508SOL    HW136986   2.635   2.458   2.180  0.1647  0.4794  0.6498
 8508SOL    HW236987   2.517   2.454   2.271  1.2609  1.0648  0.3279
 8509SOL     OW36988   2.739   2.969   3.727 -0.6126  0.0111  0.0287
 8509SOL    HW136989   2.702   3.012   3.651  0.9427 -0.3800 -0.9603
 8509SOL    HW236990   2.672   2.900   3.724 -0.7152  0.0841  0.5997
 8510SOL     OW36991   2.973   0.950   6.692  0.0474  0.0563 -0.4376
 8510SOL    HW136992   2.966   1.006   6.770  0.1561  1.3469 -1.3554
 8510SOL    HW236993   3.067   0.946   6.676  0.1939  1.5670  0.0833
 8511SOL     OW36994   2.818   3.485  11.506  0.3335  0.4300  0.2791
 8511SOL    HW136995   2.747   3.472  11.569 -0.0759  0.2009 -0.2321
 8511SOL    HW236996   2.816   3.397  11.469 -0.0316  0.6147 -0.1478
 8512SOL     OW36997   1.362   2.542   6.133  0.3321 -0.0134  0.4844
 8512SOL    HW136998   1.333   2.626   6.098 -0.9052 -1.0510 -0.9605
 8512SOL    HW236999   1.300   2.486   6.086  0.4318 -0.2668  0.6547
 8513SOL     OW37000   2.822   2.594   6.229 -0.1631 -0.3196  0.1289
 8513SOL    HW137001   2.809   2.586   6.323 -1.3421 -0.2714 -0.0320
 8513SOL    HW237002   2.729   2.602   6.205 -0.0739 -1.8143 -0.7178
 8514SOL     OW37003   2.631   4.186  17.032 -0.1420  0.1507  0.3268
 8514SOL    HW137004   2.578   4.113  17.064  0.0208  0.5045  1.4183
 8514SOL    HW237005   2.600   4.210  16.945 -0.6983 -2.5057 -0.1940
 8515SOL     OW37006   0.947   2.529  10.867 -0.3371 -0.0152 -0.3857
 8515SOL    HW137007   1.021   2.477  10.835 -1.7119 -1.2201 -1.6038
 8515SOL    HW237008   0.874   2.468  10.876  0.0957 -0.4167  0.3273
 8516SOL     OW37009   2.639   2.885   5.818  0.5604  0.1807 -0.0701
 8516SOL    HW137010   2.626   2.797   5.854  0.0466  0.3209  0.0949
 8516SOL    HW237011   2.591   2.947   5.873 -0.5239 -0.4115 -0.3611
 8517SOL     OW37012   1.668   3.713   4.415  0.1106  0.1478 -0.0726
 8517SOL    HW137013   1.604   3.783   4.431 -0.9808 -0.9107  0.2227
 8517SOL    HW237014   1.622   3.630   4.427 -0.8555  0.7207  0.2594
 8518SOL     OW37015   2.299   1.304  15.042  0.1343 -0.3885  0.3599
 8518SOL    HW137016   2.391   1.330  15.041 -0.2677  1.0129 -0.6871
 8518SOL    HW237017   2.259   1.388  15.067 -1.1580 -1.3274  1.4768
 8519SOL     OW37018   1.560   2.709   1.656  0.1647  0.2385 -0.4475
 8519SOL    HW137019   1.535   2.650   1.585 -0.4658  1.0728 -0.9154
 8519SOL    HW237020   1.491   2.775   1.653 -1.3936 -1.3481  0.4647
 8520SOL     OW37021   3.740   1.306  17.364  0.0804  0.2909 -0.2301
 8520SOL    HW137022   3.747   1.289  17.458 -2.0422  0.4938 -0.0360
 8520SOL    HW237023   3.828   1.343  17.356 -0.3352  1.4514  0.7120
 8521SOL     OW37024   3.800   0.919   3.034  0.2204 -0.0801 -0.1782
 8521SOL    HW137025   3.841   0.898   2.950  0.1759  0.5414 -0.3567
 8521SOL    HW237026   3.717   0.949   2.996  1.0066  0.6435 -1.3049
 8522SOL     OW37027   0.134   3.329   0.110  0.2088 -0.5265  0.7404
 8522SOL    HW137028   0.217   3.350   0.152  1.2365 -1.5977 -0.7489
 8522SOL    HW237029   0.088   3.304   0.190 -0.5723  1.0624  0.7989
 8523SOL     OW37030   4.581   2.690   7.877  0.1572  0.3883 -0.4803
 8523SOL    HW137031   4.654   2.649   7.830  1.2344  0.2105  1.3369
 8523SOL    HW237032   4.615   2.753   7.941  1.7540 -0.0829 -0.8679
 8524SOL     OW37033   3.412   2.681   0.567  0.0078  0.4268 -0.3241
 8524SOL    HW137034   3.328   2.674   0.612 -0.5939  1.4611 -1.3165
 8524SOL    HW237035   3.418   2.774   0.591  0.2018 -0.0931  1.6641
 8525SOL     OW37036   3.274   4.679   1.301 -0.1354 -0.5198  0.3108
 8525SOL    HW137037   3.343   4.654   1.363  0.2068  0.1523  0.2089
 8525SOL    HW237038   3.198   4.690   1.358 -0.0101  1.2737  0.1418
 8526SOL     OW37039   1.600   0.139   3.197 -0.0379  0.4332 -0.1332
 8526SOL    HW137040   1.615   0.233   3.190  1.3695  0.3698  2.0285
 8526SOL    HW237041   1.659   0.114   3.268  0.8857 -1.6958 -1.6389
 8527SOL     OW37042   2.812   0.363   0.248  0.0275  0.1187 -0.6856
 8527SOL    HW137043   2.788   0.276   0.216  0.3691 -0.1114 -0.3201
 8527SOL    HW237044   2.744   0.415   0.206 -0.8697 -0.3869  0.1606
 8528SOL     OW37045   4.541   0.528   2.722 -0.1960  0.0543 -0.1354
 8528SOL    HW137046   4.560   0.458   2.659 -0.6718  0.7213 -1.0176
 8528SOL    HW237047   4.449   0.532   2.697 -0.2704 -1.7080 -0.1324
 8529SOL     OW37048   0.619   1.309   6.139  0.7728 -0.3101  0.5607
 8529SOL    HW137049   0.574   1.387   6.107  1.7619 -0.4619 -1.1989
 8529SOL    HW237050   0.678   1.349   6.203  1.0862  0.4885 -0.2259
 8530SOL     OW37051   1.161   0.895   2.366 -0.0757 -0.0030  0.2975
 8530SOL    HW137052   1.230   0.863   2.309 -0.2358  0.1109  0.0351
 8530SOL    HW237053   1.175   0.847   2.447  1.9471 -1.1440 -0.7463
 8531SOL     OW37054   4.501   1.770   2.099 -0.1489 -0.7392 -0.1367
 8531SOL    HW137055   4.525   1.687   2.140 -0.0650 -0.0222  1.2457
 8531SOL    HW237056   4.412   1.781   2.132  0.1322  0.2231  0.2966
 8532SOL     OW37057   2.256   2.327   9.601 -0.1398 -0.4893  0.5709
 8532SOL    HW137058   2.209   2.376   9.669  0.3144 -3.0871  2.7617
 8532SOL    HW237059   2.186   2.262   9.593 -2.5796  2.2220 -0.2521
 8533SOL     OW37060   4.637   3.718   2.793  0.3733 -0.1072 -0.5139
 8533SOL    HW137061   4.651   3.653   2.724 -0.0177 -0.2382 -0.4691
 8533SOL    HW237062   4.572   3.768   2.743  0.9609  0.3842 -0.7925
 8534SOL     OW37063   2.503   3.214   5.326  0.6604 -0.5344 -0.0469
 8534SOL    HW137064   2.543   3.149   5.269  0.6307 -0.8017  0.2379
 8534SOL    HW237065   2.421   3.172   5.351 -1.0185  1.3924 -2.2940
 8535SOL     OW37066   1.755   0.373   8.916  0.1629  0.1740  0.1148
 8535SOL    HW137067   1.827   0.421   8.957  0.1668  1.0982 -1.0045
 8535SOL    HW237068   1.733   0.320   8.993 -1.2721  0.5369 -0.0595
 8536SOL     OW37069   0.086   0.883   8.825  0.2526 -0.2766  0.0722
 8536SOL    HW137070   0.065   0.959   8.770  1.2713 -0.2132 -0.2243
 8536SOL    HW237071   0.072   0.806   8.770  0.5096 -1.1011  1.1728
 8537SOL     OW37072   4.202   1.990   8.726  0.2136  0.0579  0.7308
 8537SOL    HW137073   4.288   2.027   8.708 -0.2056  0.9853  0.6139
 8537SOL    HW237074   4.232   1.901   8.742 -0.2719 -0.4216 -1.0693
 8538SOL     OW37075   0.018   4.593   9.551 -0.3353 -0.3783 -0.0373
 8538SOL    HW137076   4.661   4.632   9.514 -0.7977  0.3802  1.7600
 8538SOL    HW237077   4.705   4.506   9.568  1.1180 -0.6890  1.3460
 8539SOL     OW37078   4.106   4.450   9.158 -0.1913  0.2501  0.0225
 8539SOL    HW137079   4.197   4.466   9.131 -0.3416  1.2287  0.0709
 8539SOL    HW237080   4.100   4.516   9.228  0.5436 -1.6946  1.9316
 8540SOL     OW37081   1.395   2.797  11.853 -0.0323  0.0272  0.1694
 8540SOL    HW137082   1.390   2.764  11.763 -1.4141  3.3789 -0.9767
 8540SOL    HW237083   1.307   2.779  11.884 -0.6209  1.1542 -0.8904
 8541SOL     OW37084   4.006   1.857   7.725 -0.7312  0.2820 -0.1718
 8541SOL    HW137085   4.062   1.835   7.799  0.5516  0.7174 -1.0100
 8541SOL    HW237086   4.060   1.923   7.681 -1.8455  0.5639 -1.1063
 8542SOL     OW37087   1.086   4.303   7.895 -0.5276 -0.2329 -0.3158
 8542SOL    HW137088   1.136   4.325   7.974  0.1177  1.2240 -1.1285
 8542SOL    HW237089   1.103   4.372   7.831  0.4314 -0.6121 -0.4714
 8543SOL     OW37090   2.179   1.534   4.977 -0.2202  0.0679 -0.2037
 8543SOL    HW137091   2.201   1.445   5.004 -1.8859  0.8905  3.9534
 8543SOL    HW237092   2.260   1.581   4.999 -0.6313  1.0210 -0.7012
 8544SOL     OW37093   1.744   1.826  14.882  0.1997  0.5668 -0.3046
 8544SOL    HW137094   1.762   1.736  14.855 -0.7950  0.5117 -0.7602
 8544SOL    HW237095   1.648   1.824  14.882  0.1946  1.2509 -1.3349
 8545SOL     OW37096   1.289   2.351  11.457 -0.2882  0.1820  0.0439
 8545SOL    HW137097   1.206   2.304  11.464  0.1199 -0.3361  1.4510
 8545SOL    HW237098   1.321   2.317  11.374 -1.7699 -1.7780  0.2659
 8546SOL     OW37099   0.564   3.651   4.672 -0.6136  0.0088  1.0848
 8546SOL    HW137100   0.649   3.620   4.704 -0.1122  1.6693  1.3346
 8546SOL    HW237101   0.581   3.702   4.593 -2.0238 -0.1412  0.6818
 8547SOL     OW37102   0.062   1.926   8.622  0.0760 -0.0123  1.2119
 8547SOL    HW137103   4.717   1.859   8.606 -0.8409  1.4864 -1.3124
 8547SOL    HW237104   0.015   2.003   8.589 -0.1486 -0.2885  0.8871
 8548SOL     OW37105   1.444   0.144   5.981 -0.3188 -0.2757 -0.0913
 8548SOL    HW137106   1.392   0.209   6.028  0.7098 -0.4111  1.2260
 8548SOL    HW237107   1.377   0.102   5.928 -0.4560  0.6953 -0.6908
 8549SOL     OW37108   2.694   0.247   6.764 -0.3599 -0.3803 -0.5067
 8549SOL    HW137109   2.605   0.230   6.793  0.8174 -1.6903  2.3135
 8549SOL    HW237110   2.735   0.283   6.843  1.0514  0.4583 -1.6187
 8550SOL     OW37111   4.101   3.356   3.911 -0.4452  0.2484  0.5933
 8550SOL    HW137112   4.019   3.385   3.952 -1.2826  0.3635 -1.1763
 8550SOL    HW237113   4.057   3.295   3.851 -2.9648  0.9322  1.7240
 8551SOL     OW37114   2.719   2.393   8.803 -0.5633 -0.4312  0.1915
 8551SOL    HW137115   2.626   2.414   8.792 -0.2836  0.9317  0.4756
 8551SOL    HW237116   2.737   2.444   8.883 -2.3386  0.8321 -0.2284
 8552SOL     OW37117   2.358   2.117   9.351 -0.1591  0.7928  0.5424
 8552SOL    HW137118   2.340   2.030   9.386 -1.4008  0.7902 -0.1227
 8552SOL    HW237119   2.352   2.179   9.425  0.1006  1.7388 -0.2267
 8553SOL     OW37120   2.020   4.415   3.965 -0.0289 -0.0607 -0.2471
 8553SOL    HW137121   2.010   4.342   4.026 -0.6560  0.6746  0.5294
 8553SOL    HW237122   1.928   4.438   3.954 -0.0170 -0.9130 -2.2317
 8554SOL     OW37123   4.697   4.107   2.740  0.2090  0.0441  0.0249
 8554SOL    HW137124   4.604   4.129   2.747  0.7093  1.2990  2.6252
 8554SOL    HW237125   4.716   4.162   2.664 -0.0455  0.2313  0.0983
 8555SOL     OW37126   1.681   2.484   3.716 -0.0085  0.2583 -0.8398
 8555SOL    HW137127   1.617   2.435   3.665 -1.3643 -0.3587  1.4494
 8555SOL    HW237128   1.758   2.435   3.687 -0.8519  0.4125 -3.3287
 8556SOL     OW37129   2.385   0.653   2.721  0.4227  0.6858 -0.8572
 8556SOL    HW137130   2.372   0.736   2.676 -0.8990  0.7464 -0.3646
 8556SOL    HW237131   2.365   0.593   2.650  0.3830 -1.2864  0.8089
 8557SOL     OW37132   4.257   4.648  16.203 -0.8295 -0.2049 -0.2615
 8557SOL    HW137133   4.281   4.705  16.130  1.3373  0.9232  1.3385
 8557SOL    HW237134   4.227   4.707  16.272  3.3613  2.6005 -0.8567
 8558SOL     OW37135   1.465   1.772   3.360  0.3514  0.5505 -1.0376
 8558SOL    HW137136   1.375   1.786   3.390  0.3310 -0.0627 -0.8144
 8558SOL    HW237137   1.493   1.863   3.360  0.7797  0.4184 -0.5827
 8559SOL     OW37138   2.084   4.641  16.674 -0.4369 -0.8819 -0.0175
 8559SOL    HW137139   2.031   4.658  16.597 -2.1416 -2.7036  0.7627
 8559SOL    HW237140   2.037   4.694  16.738 -2.0976 -1.4828 -0.7512
 8560SOL     OW37141   1.533   2.634   5.570 -0.2684 -0.2892 -0.1203
 8560SOL    HW137142   1.617   2.639   5.524 -1.1536 -1.5400 -1.8575
 8560SOL    HW237143   1.479   2.670   5.500 -2.6745 -3.2790  0.2012
 8561SOL     OW37144   4.456   4.226   3.452  0.4240  0.1658  0.7690
 8561SOL    HW137145   4.372   4.229   3.407  0.0599  1.2720  1.5134
 8561SOL    HW237146   4.427   4.237   3.543  0.3769 -1.0338  0.9037
 8562SOL     OW37147   0.274   0.234   2.515  0.3647 -0.2065 -0.2589
 8562SOL    HW137148   0.243   0.151   2.478 -0.5748 -0.6976  1.6305
 8562SOL    HW237149   0.342   0.200   2.574 -0.5997 -1.0076  0.3914
 8563SOL     OW37150   1.133   1.803  15.589  0.6025 -0.1284 -0.3896
 8563SOL    HW137151   1.137   1.735  15.656 -2.1639 -0.7267 -0.8450
 8563SOL    HW237152   1.105   1.763  15.507  1.2295 -2.2039  0.4194
 8564SOL     OW37153   4.372   0.966   3.603  0.7977  0.2324  0.0155
 8564SOL    HW137154   4.397   0.971   3.695  1.6723  2.9685 -0.3605
 8564SOL    HW237155   4.370   0.870   3.600  3.4581  0.1977 -0.8097
 8565SOL     OW37156   3.720   2.384   6.680 -0.0469 -0.0843  0.0892
 8565SOL    HW137157   3.705   2.401   6.773 -1.4860 -1.4114  0.0963
 8565SOL    HW237158   3.716   2.469   6.636  0.5177 -0.7332 -1.2229
 8566SOL     OW37159   2.106   1.266   8.479  0.4154  0.3699  0.4115
 8566SOL    HW137160   2.099   1.330   8.549  0.1309 -0.5120  1.1890
 8566SOL    HW237161   2.186   1.218   8.503  0.4615  0.7726  1.0580
 8567SOL     OW37162   1.260   0.436  14.940  0.0802 -0.3763  0.0352
 8567SOL    HW137163   1.216   0.402  15.018  0.7300 -0.3406  0.4202
 8567SOL    HW237164   1.339   0.382  14.951  0.1226 -0.5043 -0.9148
 8568SOL     OW37165   4.598   2.453   2.782  0.2715 -0.4790 -0.5211
 8568SOL    HW137166   4.608   2.519   2.713 -0.0979  0.8474  0.7067
 8568SOL    HW237167   4.622   2.371   2.739  1.9285 -0.0286 -0.4614
 8569SOL     OW37168   2.899   4.628   7.690  0.1144 -0.5489 -0.0562
 8569SOL    HW137169   2.860   4.672   7.766  2.0167 -0.0804  0.6612
 8569SOL    HW237170   2.946   4.551   7.719  1.1241  0.2964  0.5482
 8570SOL     OW37171   3.949   3.190   2.602 -0.5080 -0.5731 -0.1569
 8570SOL    HW137172   3.993   3.234   2.529  1.2707 -2.8080 -0.4380
 8570SOL    HW237173   3.859   3.198   2.568 -0.4341 -1.1142 -0.4823
 8571SOL     OW37174   2.404   4.288  13.987  0.5750  0.1286 -0.2790
 8571SOL    HW137175   2.368   4.211  14.031  1.3571  0.8471  1.6099
 8571SOL    HW237176   2.415   4.348  14.061 -1.6596 -0.0164  0.1764
 8572SOL     OW37177   0.597   3.731  15.738 -0.1009 -0.5588 -0.5423
 8572SOL    HW137178   0.608   3.725  15.833 -0.4112 -0.6032 -0.5089
 8572SOL    HW237179   0.687   3.730  15.705 -0.4115 -0.6197 -1.4082
 8573SOL     OW37180   2.760   0.119   2.886 -0.0256 -0.2997  0.6240
 8573SOL    HW137181   2.792   0.141   2.974  0.3317 -1.4715  0.7877
 8573SOL    HW237182   2.804   0.034   2.880  0.7149  0.1072  0.3366
 8574SOL     OW37183   3.799   4.085   0.222 -0.4210  0.1371  0.2377
 8574SOL    HW137184   3.784   4.016   0.287 -0.5129 -0.6235 -0.5923
 8574SOL    HW237185   3.762   4.040   0.147 -1.7658  2.6948 -0.6236
 8575SOL     OW37186   1.699   1.344   4.175  0.1833 -0.1427 -0.2745
 8575SOL    HW137187   1.604   1.347   4.162  0.1849 -1.1486 -0.4647
 8575SOL    HW237188   1.716   1.255   4.204 -0.3493 -1.0075 -2.6256
 8576SOL     OW37189   2.182   2.778   5.669  0.4828  0.1659 -0.1633
 8576SOL    HW137190   2.161   2.687   5.646  0.5015  0.6656 -2.1661
 8576SOL    HW237191   2.207   2.772   5.761  0.7427  1.0338 -0.1795
 8577SOL     OW37192   3.286   1.606   4.667 -0.6654  0.3985  0.1395
 8577SOL    HW137193   3.312   1.539   4.730  0.8424  1.0334  0.2052
 8577SOL    HW237194   3.352   1.672   4.691 -2.2567  2.4614 -1.1436
 8578SOL     OW37195   2.616   2.516  17.415 -0.5501  0.5167  0.1152
 8578SOL    HW137196   2.526   2.548  17.416 -0.1575  1.6121  0.0274
 8578SOL    HW237197   2.667   2.595  17.430  0.0568 -0.2810  2.2712
 8579SOL     OW37198   3.853   4.003   8.464  0.9125 -0.1470 -0.2309
 8579SOL    HW137199   3.838   3.992   8.557 -0.7411 -0.5023 -0.5433
 8579SOL    HW237200   3.790   3.943   8.423  0.3279  0.3200 -0.0175
 8580SOL     OW37201   3.104   0.192   9.105  0.8815  0.0564  0.2889
 8580SOL    HW137202   3.126   0.101   9.122  1.2548 -0.2506 -1.8249
 8580SOL    HW237203   3.108   0.241   9.187 -1.8632  2.2869 -0.8871
 8581SOL     OW37204   0.979   0.308  10.275  0.1505  0.1519 -0.8180
 8581SOL    HW137205   0.938   0.266  10.199 -1.5537  1.2292 -0.4866
 8581SOL    HW237206   0.950   0.243  10.339  1.3081  0.1282 -0.3279
 8582SOL     OW37207   3.823   3.941   3.246  0.6158 -0.0229 -0.1672
 8582SOL    HW137208   3.867   3.918   3.328  0.0915 -2.1608 -0.4833
 8582SOL    HW237209   3.889   3.923   3.179  0.3357  1.6865 -0.8937
 8583SOL     OW37210   3.882   2.706   1.332  0.3401 -0.0127 -0.1104
 8583SOL    HW137211   3.913   2.748   1.413  1.2694  0.4051 -0.6815
 8583SOL    HW237212   3.916   2.764   1.264 -2.3065  0.6491 -0.8643
 8584SOL     OW37213   4.720   4.685   4.486  0.3272 -0.3338  0.0927
 8584SOL    HW137214   0.023   4.673   4.394 -2.5118 -0.5120 -0.6517
 8584SOL    HW237215   0.079   4.714   4.528  1.1202 -1.4654 -0.6427
 8585SOL     OW37216   0.347   1.571  10.190  0.1903  0.1033  0.3263
 8585SOL    HW137217   0.282   1.629  10.149 -0.9589 -0.4971  1.2992
 8585SOL    HW237218   0.431   1.617  10.197  1.7199 -2.9318  1.8920
 8586SOL     OW37219   1.083   0.339   3.262 -0.2089  0.7935  0.0568
 8586SOL    HW137220   1.108   0.303   3.347  1.3361 -1.3847 -1.3376
 8586SOL    HW237221   1.149   0.408   3.254  0.2752  0.2748 -0.4432
 8587SOL     OW37222   2.331   4.256   0.976 -0.2566  0.5726 -0.1750
 8587SOL    HW137223   2.273   4.309   1.031 -0.4926 -1.3830  1.4910
 8587SOL    HW237224   2.415   4.302   0.974 -0.4888  0.9148 -1.5544
 8588SOL     OW37225   3.522   0.783   1.870 -0.4415  0.3433  0.0400
 8588SOL    HW137226   3.586   0.852   1.888 -0.9229  0.7481  0.1886
 8588SOL    HW237227   3.459   0.789   1.942  2.3770  0.8813  2.5029
 8589SOL     OW37228   0.830   0.976   9.045 -0.1262 -0.5891  0.0362
 8589SOL    HW137229   0.879   0.898   9.019  0.0361 -0.4344 -0.1184
 8589SOL    HW237230   0.831   0.967   9.141 -1.7241  1.8692  0.2821
 8590SOL     OW37231   0.034   1.661   1.609 -0.3257  0.9175 -0.1763
 8590SOL    HW137232   4.679   1.613   1.638 -0.7606 -0.1060 -3.0515
 8590SOL    HW237233   4.720   1.746   1.584 -0.5224  1.3484  1.5771
 8591SOL     OW37234   1.231   3.658   9.309 -0.6891 -0.3982 -0.2570
 8591SOL    HW137235   1.258   3.566   9.299 -2.0941 -0.7028 -1.2282
 8591SOL    HW237236   1.305   3.692   9.360  0.5361 -2.7338 -0.4520
 8592SOL     OW37237   1.225   1.644  17.542  0.3898 -0.2490 -0.0462
 8592SOL    HW137238   1.270   1.560  17.553  4.1293  1.8695  1.1717
 8592SOL    HW237239   1.182   1.657  17.626 -0.5290 -0.4063 -0.4919
 8593SOL     OW37240   3.874   3.244   0.948 -0.3087 -0.7654  0.4705
 8593SOL    HW137241   3.838   3.175   0.892  1.0987 -0.3235 -0.9972
 8593SOL    HW237242   3.884   3.320   0.890  2.1575 -0.2862  1.4988
 8594SOL     OW37243   2.479   0.475   5.160 -0.0689  0.8921  0.2363
 8594SOL    HW137244   2.570   0.462   5.189 -0.0910  0.0621 -0.0536
 8594SOL    HW237245   2.499   0.493   5.069 -0.5481  2.4164  0.4429
 8595SOL     OW37246   3.453   1.366   1.378  0.2216  0.1036  0.3463
 8595SOL    HW137247   3.524   1.309   1.349  1.3656  1.6874  0.0102
 8595SOL    HW237248   3.469   1.384   1.471  1.6493 -0.3496  0.1959
 8596SOL     OW37249   3.730   0.748   0.465  0.5330  0.2132  0.1629
 8596SOL    HW137250   3.680   0.678   0.422  1.7263 -0.9899  0.7187
 8596SOL    HW237251   3.680   0.762   0.546  0.1866  1.8678 -0.3472
 8597SOL     OW37252   1.656   3.887   6.284  0.4950  0.2022 -0.0685
 8597SOL    HW137253   1.670   3.973   6.243 -1.5181  0.0968 -0.9809
 8597SOL    HW237254   1.736   3.890   6.337 -1.2827  0.4631  2.6228
 8598SOL     OW37255   2.761   2.536   8.402 -0.2868 -0.1123  0.2742
 8598SOL    HW137256   2.687   2.477   8.416  0.4384 -1.0944 -0.0150
 8598SOL    HW237257   2.807   2.529   8.486  0.8334  1.1988 -0.2314
 8599SOL     OW37258   3.429   0.450   8.769 -0.7323  0.3452  0.2766
 8599SOL    HW137259   3.445   0.513   8.839  3.3614 -0.6869  0.2736
 8599SOL    HW237260   3.402   0.375   8.822  1.6998 -1.0158 -0.3933
 8600SOL     OW37261   3.065   0.715   3.637 -0.6718  0.2218 -0.5028
 8600SOL    HW137262   3.118   0.686   3.562 -1.3005  0.5083 -1.0600
 8600SOL    HW237263   3.122   0.698   3.712 -2.6167 -0.9073  0.7220
 8601SOL     OW37264   1.146   2.559   3.067  0.3717 -0.0309  0.1559
 8601SOL    HW137265   1.192   2.631   3.111 -0.2548 -1.0966  2.5221
 8601SOL    HW237266   1.084   2.604   3.010  0.5098 -2.2360 -1.7028
 8602SOL     OW37267   0.777   0.469  11.539 -0.3275 -0.4639 -0.1643
 8602SOL    HW137268   0.860   0.504  11.570 -0.3280  0.9540 -1.7435
 8602SOL    HW237269   0.777   0.511  11.453 -2.2443  1.0507  0.5686
 8603SOL     OW37270   1.875   2.383  15.937 -0.0589 -0.0906  0.2193
 8603SOL    HW137271   1.882   2.428  16.022 -1.0822  0.2038  0.1513
 8603SOL    HW237272   1.840   2.452  15.880 -1.2757 -1.6466 -0.9133
 8604SOL     OW37273   0.153   4.401   9.730 -0.5731 -0.7747 -0.3576
 8604SOL    HW137274   0.090   4.335   9.758 -0.6095 -0.7986 -0.4972
 8604SOL    HW237275   0.099   4.476   9.705 -0.1474 -0.5577 -0.6298
 8605SOL     OW37276   3.149   1.687   3.137 -0.2120  0.1825  0.8031
 8605SOL    HW137277   3.094   1.625   3.089  0.2065  0.9806 -0.7148
 8605SOL    HW237278   3.139   1.763   3.080  1.0988 -0.8540 -0.8387
 8606SOL     OW37279   3.875   4.248  10.118  0.0882  0.1729  0.2620
 8606SOL    HW137280   3.842   4.161  10.139  0.1275 -0.1292 -0.9213
 8606SOL    HW237281   3.963   4.238  10.153  0.2900 -0.5995 -0.4736
 8607SOL     OW37282   2.673   2.284   6.310  0.5028  0.5759 -0.4107
 8607SOL    HW137283   2.667   2.188   6.316  1.7722  0.5594  0.5503
 8607SOL    HW237284   2.742   2.298   6.244  2.2222  0.2140  1.3236
 8608SOL     OW37285   0.287   1.286   4.785  0.1303 -0.4174  0.1674
 8608SOL    HW137286   0.267   1.206   4.834  0.9725 -0.9566 -0.3600
 8608SOL    HW237287   0.241   1.260   4.705 -1.5680  2.6413  0.1684
 8609SOL     OW37288   3.830   0.438   7.284 -0.1307 -0.3747 -0.3956
 8609SOL    HW137289   3.818   0.345   7.265  0.8466 -0.1961 -1.8766
 8609SOL    HW237290   3.916   0.444   7.325  0.6800 -2.7909 -1.7310
 8610SOL     OW37291   3.384   2.495   7.969  0.6292  0.3421 -0.0680
 8610SOL    HW137292   3.435   2.456   7.898 -1.6442 -0.3524 -1.3505
 8610SOL    HW237293   3.403   2.440   8.045  1.0939 -2.7010 -2.3563
 8611SOL     OW37294   1.719   0.450   6.555  0.1406  0.5727  0.0291
 8611SOL    HW137295   1.744   0.511   6.624  0.4514  0.0729  0.3548
 8611SOL    HW237296   1.744   0.366   6.595  1.6513  1.3261  0.6614
 8612SOL     OW37297   0.213   0.521  16.564  0.1119  0.4653  0.8118
 8612SOL    HW137298   0.150   0.459  16.602  1.9022 -1.5322  0.5162
 8612SOL    HW237299   0.168   0.605  16.561 -0.7557 -0.1138 -2.2880
 8613SOL     OW37300   3.047   4.434   2.556 -0.2386  0.2629 -0.6396
 8613SOL    HW137301   3.088   4.516   2.526  1.4239  0.4214  2.0688
 8613SOL    HW237302   3.121   4.374   2.564 -0.9892 -0.3499  1.7115
 8614SOL     OW37303   3.366   4.713   5.075  0.1585 -0.1212 -0.0821
 8614SOL    HW137304   3.304   0.062   5.058 -0.8783 -0.7868  0.9188
 8614SOL    HW237305   3.414   4.705   4.993  1.0626 -0.7123  0.5110
 8615SOL     OW37306   2.662   1.392   2.771 -0.2123  0.2506 -0.9759
 8615SOL    HW137307   2.692   1.399   2.862 -0.1845  3.2170 -1.2148
 8615SOL    HW237308   2.609   1.471   2.760 -0.9377  0.2437  2.4405
 8616SOL     OW37309   1.756   0.792   4.293  0.2929 -0.3287  0.1293
 8616SOL    HW137310   1.747   0.699   4.271  1.0276 -0.6920  1.3578
 8616SOL    HW237311   1.731   0.789   4.386 -1.1337 -1.5816 -0.2908
 8617SOL     OW37312   0.666   1.774   3.659 -0.0120  0.3051  0.3494
 8617SOL    HW137313   0.686   1.750   3.749 -0.0903  2.8690  1.0376
 8617SOL    HW237314   0.640   1.866   3.663 -1.3590 -0.0626  0.1279
 8618SOL     OW37315   3.855   4.554   4.368  0.1966 -0.2016 -0.5267
 8618SOL    HW137316   3.819   4.539   4.280 -2.0297 -0.1420  0.3696
 8618SOL    HW237317   3.850   4.650   4.367  0.3218 -0.1736  1.2158
 8619SOL     OW37318   3.822   3.045   5.688  0.0151 -0.5752 -0.4567
 8619SOL    HW137319   3.902   3.090   5.718  1.7524 -2.5397 -2.1114
 8619SOL    HW237320   3.826   3.046   5.593 -1.3179 -1.2741 -0.5214
 8620SOL     OW37321   2.059   1.972   2.950 -0.1326  0.3525 -0.2936
 8620SOL    HW137322   2.104   2.056   2.945  0.3625  0.3662  3.8662
 8620SOL    HW237323   2.010   1.967   2.869  1.0123 -0.6380 -0.9394
 8621SOL     OW37324   2.650   0.148   7.128  0.7613 -0.2474  0.0009
 8621SOL    HW137325   2.630   0.150   7.222 -0.7498 -1.1780 -0.2902
 8621SOL    HW237326   2.696   0.230   7.108  0.1366 -0.5662 -2.7855
 8622SOL     OW37327   1.984   4.601  14.892 -0.1246  0.6333  0.1698
 8622SOL    HW137328   1.905   4.630  14.846  0.1524 -2.3118 -2.1141
 8622SOL    HW237329   2.043   4.660  14.847  0.7071 -0.8362 -0.6549
 8623SOL     OW37330   2.752   0.246   3.639  0.2589 -0.7407  0.0807
 8623SOL    HW137331   2.806   0.239   3.718  0.3775 -2.7323 -0.1611
 8623SOL    HW237332   2.774   0.336   3.616  1.6292 -1.0029  0.3141
 8624SOL     OW37333   3.576   2.148   3.385 -0.0304 -0.0935 -0.3147
 8624SOL    HW137334   3.539   2.129   3.299  1.2747 -1.7643 -0.5110
 8624SOL    HW237335   3.621   2.230   3.366 -1.3497  1.2476  2.3802
 8625SOL     OW37336   3.142   2.676   3.190  0.2218 -0.2922 -0.3194
 8625SOL    HW137337   3.076   2.738   3.222  2.2701  1.1101  1.1325
 8625SOL    HW237338   3.217   2.709   3.240  0.1658 -2.6329  1.3045
 8626SOL     OW37339   3.598   2.444  12.345 -0.3560 -0.3798  0.0023
 8626SOL    HW137340   3.579   2.440  12.252 -2.2422  2.5302  0.2591
 8626SOL    HW237341   3.630   2.355  12.362 -0.6557 -0.5206 -0.1899
 8627SOL     OW37342   1.641   1.726   7.113  0.5329  0.3314 -0.1911
 8627SOL    HW137343   1.657   1.820   7.101 -2.4996  0.4271 -3.7558
 8627SOL    HW237344   1.699   1.713   7.187  1.0877 -0.8160 -0.8165
 8628SOL     OW37345   0.593   0.552  13.717 -0.2454 -0.0909  0.1431
 8628SOL    HW137346   0.688   0.552  13.705 -0.0997 -2.8404  1.3864
 8628SOL    HW237347   0.585   0.468  13.761  0.9820 -0.3330 -0.0972
 8629SOL     OW37348   3.304   0.297   1.432  0.2969  0.7341  0.0719
 8629SOL    HW137349   3.367   0.334   1.370  1.0653  0.9458  0.9827
 8629SOL    HW237350   3.227   0.332   1.386  1.4104 -0.0680 -2.4239
 8630SOL     OW37351   1.504   3.809  15.113  0.2670 -0.0183  0.2505
 8630SOL    HW137352   1.528   3.735  15.058  0.4066 -0.3365  0.7408
 8630SOL    HW237353   1.585   3.859  15.104  0.7990 -0.6743  1.4585
 8631SOL     OW37354   0.209   1.482   1.864  0.2517  0.6246  0.6229
 8631SOL    HW137355   0.199   1.464   1.770  1.7783  0.1960  0.5424
 8631SOL    HW237356   0.123   1.523   1.873  0.1233  0.5874 -0.4438
 8632SOL     OW37357   2.582   0.159   4.150 -0.0195 -0.0794 -0.1200
 8632SOL    HW137358   2.592   0.082   4.093  1.0292  1.1910 -1.6386
 8632SOL    HW237359   2.568   0.227   4.084  0.9199  0.1292 -0.0935
 8633SOL     OW37360   4.271   2.097   1.149  0.5738  0.1063 -0.1453
 8633SOL    HW137361   4.182   2.062   1.141  0.5033  0.1346  0.4690
 8633SOL    HW237362   4.256   2.191   1.157  0.5816  0.0679  0.3387
 8634SOL     OW37363   2.556   0.449   3.429  0.0779 -0.2599  0.2055
 8634SOL    HW137364   2.626   0.449   3.364 -0.4662  0.4137 -0.3944
 8634SOL    HW237365   2.519   0.536   3.411  0.3512 -0.4454 -1.2367
 8635SOL     OW37366   4.535   0.048   5.470 -0.7426  0.0141  0.3066
 8635SOL    HW137367   4.569   0.005   5.548  1.0431 -2.2608 -1.7125
 8635SOL    HW237368   4.527   4.694   5.413 -1.3536 -0.4226  0.9916
 8636SOL     OW37369   0.648   2.137   6.402 -0.2181 -0.1232 -0.4834
 8636SOL    HW137370   0.642   2.050   6.443 -1.5217 -0.9278 -2.3859
 8636SOL    HW237371   0.573   2.132   6.343 -0.7963 -1.8098  0.3940
 8637SOL     OW37372   3.939   3.609   6.312  1.0746  0.2339 -0.1291
 8637SOL    HW137373   3.861   3.662   6.300  0.5361 -0.4508  0.3477
 8637SOL    HW237374   3.919   3.551   6.386 -1.0261 -1.4928 -2.0552
 8638SOL     OW37375   3.069   4.603  15.770 -0.0553  0.6778  0.0625
 8638SOL    HW137376   2.995   4.662  15.752 -0.1508  0.8553  1.0040
 8638SOL    HW237377   3.133   4.667  15.800 -0.8214  0.5592  2.0171
 8639SOL     OW37378   3.450   2.468   2.740  0.7736  0.0679  0.1359
 8639SOL    HW137379   3.475   2.523   2.814 -0.3800  0.9642 -0.1342
 8639SOL    HW237380   3.532   2.422   2.723  0.7440 -0.3655  1.1590
 8640SOL     OW37381   2.206   1.156   6.017 -0.2810 -0.3970  0.5934
 8640SOL    HW137382   2.176   1.240   5.984  1.9590  0.4333  0.6712
 8640SOL    HW237383   2.123   1.119   6.048 -2.1420  1.3039 -2.3958
 8641SOL     OW37384   2.262   3.783   7.066  0.4237 -0.6992 -0.4018
 8641SOL    HW137385   2.254   3.870   7.105 -1.3627 -1.2425  0.4357
 8641SOL    HW237386   2.236   3.726   7.139 -2.8667 -0.2351 -1.2299
 8642SOL     OW37387   4.485   3.524   8.941  0.0976 -0.0686  0.4419
 8642SOL    HW137388   4.578   3.510   8.960  0.1397 -0.7718 -0.2672
 8642SOL    HW237389   4.450   3.536   9.029 -1.0850 -0.5932  0.0412
 8643SOL     OW37390   1.836   3.379   6.678 -0.6030  0.2739 -0.4208
 8643SOL    HW137391   1.841   3.348   6.768 -3.8704 -0.2281 -0.4130
 8643SOL    HW237392   1.786   3.459   6.693  1.1275  1.4860 -1.1539
 8644SOL     OW37393   3.158   2.349   6.308  0.1627 -0.1404  0.7379
 8644SOL    HW137394   3.109   2.308   6.379  1.4331 -1.3854  0.8965
 8644SOL    HW237395   3.198   2.282   6.253 -0.4716  1.6999 -1.9562
 8645SOL     OW37396   2.465   0.949  16.074 -0.2678  0.7872 -0.2309
 8645SOL    HW137397   2.379   0.927  16.039  0.2296  0.0542 -0.9874
 8645SOL    HW237398   2.441   0.940  16.166  0.7882 -0.3447 -0.0718
 8646SOL     OW37399   4.422   4.651   2.839 -0.5334  0.6867  0.2269
 8646SOL    HW137400   4.351   4.698   2.883 -0.2176  1.7792 -0.4595
 8646SOL    HW237401   4.494   4.669   2.899  1.2369 -0.8001 -1.4694
 8647SOL     OW37402   4.298   3.313   9.918  0.1909 -1.0700  0.8903
 8647SOL    HW137403   4.336   3.322  10.005  1.3831  0.1768  0.2299
 8647SOL    HW237404   4.207   3.297   9.944 -0.3200  1.5660  0.7215
 8648SOL     OW37405   2.784   2.006   3.777  0.0378 -0.0667 -0.7712
 8648SOL    HW137406   2.866   2.000   3.826 -0.0019  0.4249 -0.6483
 8648SOL    HW237407   2.748   1.917   3.783  0.0580 -0.0514 -0.4079
 8649SOL     OW37408   0.323   1.148   6.186 -0.1270 -0.0736  0.4952
 8649SOL    HW137409   0.350   1.237   6.209  0.0128 -0.0918  0.4086
 8649SOL    HW237410   0.313   1.164   6.092  2.0498  2.5788  0.7159
 8650SOL     OW37411   3.226   2.350   3.398 -0.4807 -0.5880 -0.0363
 8650SOL    HW137412   3.138   2.387   3.400 -1.0342 -1.9392  1.1641
 8650SOL    HW237413   3.241   2.351   3.303 -2.5093  2.3826 -0.3112
 8651SOL     OW37414   0.128   2.900   9.779 -0.5939 -0.5480  0.0771
 8651SOL    HW137415   0.122   2.993   9.796  0.4282 -0.3647 -0.5240
 8651SOL    HW237416   0.086   2.897   9.693 -1.3442 -1.3108  0.4656
 8652SOL     OW37417   2.276   0.208  17.115 -0.5745 -0.0535  0.1213
 8652SOL    HW137418   2.283   0.302  17.099 -0.3584 -0.3901 -1.7827
 8652SOL    HW237419   2.367   0.193  17.140 -0.8489  1.2854  1.9213
 8653SOL     OW37420   2.668   2.946  14.585  0.0323 -0.4708  0.1475
 8653SOL    HW137421   2.687   2.927  14.677  0.4435 -2.1220 -0.2844
 8653SOL    HW237422   2.720   3.024  14.563 -0.7095  0.6644  2.4534
 8654SOL     OW37423   0.260   4.649   9.600  0.3965  0.4848 -0.1745
 8654SOL    HW137424   0.268   0.013   9.559  1.1490  0.2995 -0.4249
 8654SOL    HW237425   0.167   4.630   9.588 -0.2347  3.3426  0.2467
 8655SOL     OW37426   3.928   2.035   5.321 -0.1251 -0.3277  0.0953
 8655SOL    HW137427   3.886   2.049   5.406  0.7559  0.7447  0.3507
 8655SOL    HW237428   3.852   2.048   5.263  0.2714  1.6761  0.0263
 8656SOL     OW37429   1.070   2.781  10.408 -0.6197 -0.3045 -0.3011
 8656SOL    HW137430   1.136   2.738  10.354  1.9168  1.8174  1.1236
 8656SOL    HW237431   1.113   2.794  10.493 -3.5846 -4.2326  1.7984
 8657SOL     OW37432   3.282   0.687   6.994 -0.2287 -0.2674  0.3001
 8657SOL    HW137433   3.369   0.651   6.974  0.0111 -0.0715  0.9878
 8657SOL    HW237434   3.246   0.604   7.024 -0.7263 -0.2482 -0.2512
 8658SOL     OW37435   3.321   2.207   5.661 -0.4464 -0.4855 -0.0197
 8658SOL    HW137436   3.318   2.303   5.659  0.6160 -0.4929 -1.8568
 8658SOL    HW237437   3.356   2.201   5.750  0.1494  0.4340 -0.1877
 8659SOL     OW37438   0.536   2.726   6.374  0.3079  0.0019  0.4264
 8659SOL    HW137439   0.596   2.721   6.449  0.9330  2.3612  0.0908
 8659SOL    HW237440   0.460   2.777   6.401  0.7755  0.2588  1.2439
 8660SOL     OW37441   4.412   0.682  16.355 -0.4639 -0.3717  0.2840
 8660SOL    HW137442   4.491   0.638  16.322  0.1476  1.1843 -0.3157
 8660SOL    HW237443   4.439   0.768  16.386  1.8512 -1.1208  0.3397
 8661SOL     OW37444   0.475   0.699  11.350 -0.2822  0.1772  0.2144
 8661SOL    HW137445   0.532   0.766  11.389  2.1792 -0.5149 -2.1862
 8661SOL    HW237446   0.411   0.686  11.421 -0.0843  0.4976  0.4505
 8662SOL     OW37447   2.614   3.968   6.095  0.5565 -0.2393 -0.7626
 8662SOL    HW137448   2.599   4.002   6.183  2.6166  2.6613 -1.5379
 8662SOL    HW237449   2.688   3.908   6.106 -1.0620 -2.5509 -2.1850
 8663SOL     OW37450   3.356   3.091   2.508  0.0170 -0.6026 -0.5540
 8663SOL    HW137451   3.411   3.141   2.447  0.0738 -0.6195 -0.5170
 8663SOL    HW237452   3.267   3.109   2.478  0.1845  0.4443 -0.4455
 8664SOL     OW37453   2.521   0.464   4.891 -0.3144  0.5234  0.3696
 8664SOL    HW137454   2.522   0.511   4.808 -0.2800 -3.2779 -1.7905
 8664SOL    HW237455   2.517   0.374   4.857  0.4114  1.4849 -2.2547
 8665SOL     OW37456   0.856   4.033  15.612  0.2837  0.0797 -0.0638
 8665SOL    HW137457   0.913   4.107  15.633 -1.0449  0.5971  1.6888
 8665SOL    HW237458   0.933   3.977  15.622  0.1853  0.0138  0.3224
 8666SOL     OW37459   1.526   1.325  10.813 -0.5067  0.3844  0.4807
 8666SOL    HW137460   1.585   1.271  10.760 -0.7554 -0.0104  0.6004
 8666SOL    HW237461   1.582   1.394  10.847 -0.3968  0.1087  0.8636
 8667SOL     OW37462   1.731   3.926   8.696 -0.1681 -0.0635  0.0436
 8667SOL    HW137463   1.802   3.915   8.759 -0.0306 -1.3584 -0.3438
 8667SOL    HW237464   1.743   4.021   8.689 -2.8576  0.3675  1.2572
 8668SOL     OW37465   2.469   3.957  17.120 -0.0592 -0.0218 -0.1018
 8668SOL    HW137466   2.394   3.982  17.175  0.0005 -1.4777  0.6631
 8668SOL    HW237467   2.502   3.883  17.172 -0.8252 -0.3602 -0.0804
 8669SOL     OW37468   4.547   1.873   1.795 -0.4099  0.2140  0.0726
 8669SOL    HW137469   4.456   1.873   1.826 -0.3239  2.2572  0.2976
 8669SOL    HW237470   4.536   1.891   1.702 -2.6870 -1.9935 -0.0855
 8670SOL     OW37471   0.973   3.514   9.637  0.3252  0.8740  0.3567
 8670SOL    HW137472   0.882   3.502   9.610  0.0805  0.8778  1.1763
 8670SOL    HW237473   1.009   3.426   9.620  0.0961  0.7137  0.6963
 8671SOL     OW37474   0.827   3.419   3.181  0.2616 -0.7662 -0.8277
 8671SOL    HW137475   0.801   3.445   3.093 -0.4437 -0.9527 -0.6726
 8671SOL    HW237476   0.786   3.333   3.186 -2.9459  0.9346  2.6069
 8672SOL     OW37477   3.205   4.416  11.705  0.0711  0.3599 -0.4933
 8672SOL    HW137478   3.116   4.452  11.700  0.2679  1.1043  1.0883
 8672SOL    HW237479   3.245   4.480  11.764 -2.1705 -1.7874  3.4299
 8673SOL     OW37480   0.009   3.481   2.655 -0.3840  0.5513 -0.8561
 8673SOL    HW137481   0.048   3.457   2.739  0.0282 -2.7699 -1.9956
 8673SOL    HW237482   4.667   3.410   2.659  0.1645  0.0058 -1.8355
 8674SOL     OW37483   0.778   2.506   8.313 -0.1238  0.2460  0.4182
 8674SOL    HW137484   0.701   2.511   8.369 -0.3118  2.0689 -0.0017
 8674SOL    HW237485   0.819   2.582   8.354  0.4976  0.1815 -0.0742
 8675SOL     OW37486   4.140   4.220   7.563  0.1672 -0.3911 -0.3465
 8675SOL    HW137487   4.196   4.146   7.538 -0.7250 -0.8680 -0.9452
 8675SOL    HW237488   4.060   4.173   7.588 -1.4875  2.2207 -0.6781
 8676SOL     OW37489   4.142   1.182   1.083 -0.0321  0.2764  0.5764
 8676SOL    HW137490   4.078   1.112   1.091 -0.0608  0.2411  0.0500
 8676SOL    HW237491   4.186   1.155   1.163  0.7123 -0.6869 -0.1585
 8677SOL     OW37492   1.036   4.276   6.931  0.7369  0.2817  0.1097
 8677SOL    HW137493   1.092   4.292   6.855  0.5941 -1.0474 -0.2734
 8677SOL    HW237494   0.952   4.303   6.892  0.2497 -1.5668 -0.1376
 8678SOL     OW37495   3.104   2.808   4.562 -0.3499  0.3885 -0.0208
 8678SOL    HW137496   3.164   2.855   4.505 -0.2774  0.9865  0.5488
 8678SOL    HW237497   3.081   2.725   4.521  0.0033  0.0218  0.5254
 8679SOL     OW37498   4.167   2.472   8.512 -0.2711 -0.3819  0.1529
 8679SOL    HW137499   4.143   2.382   8.536  1.0789 -0.4397  1.3293
 8679SOL    HW237500   4.082   2.512   8.494  0.1714  0.5012  0.0330
 8680SOL     OW37501   3.587   3.754   0.334 -0.8018 -0.5840 -0.6803
 8680SOL    HW137502   3.524   3.754   0.407 -0.5285  1.3436 -0.4424
 8680SOL    HW237503   3.653   3.808   0.377 -1.9445 -0.5373  1.0072
 8681SOL     OW37504   1.275   4.395   5.134 -0.0233  0.0661 -0.1315
 8681SOL    HW137505   1.222   4.355   5.065 -0.9479 -1.2501  1.3345
 8681SOL    HW237506   1.274   4.487   5.108  4.3646  0.6059  1.6161
 8682SOL     OW37507   3.209   0.710   4.550  0.0226 -0.0519 -0.5434
 8682SOL    HW137508   3.170   0.646   4.490 -0.4946  0.1642 -0.4388
 8682SOL    HW237509   3.291   0.668   4.574  0.1916  1.5814  1.6993
 8683SOL     OW37510   1.286   4.579   2.989  0.2237  0.0082 -0.6730
 8683SOL    HW137511   1.202   4.616   2.963 -0.1210  1.2362  2.1871
 8683SOL    HW237512   1.260   4.539   3.073 -0.2818 -1.3689 -1.4839
 8684SOL     OW37513   2.356   3.284   5.703  0.2334  0.4909  0.5461
 8684SOL    HW137514   2.268   3.246   5.692  0.2842  1.0087 -1.6730
 8684SOL    HW237515   2.376   3.304   5.612 -0.7422 -1.0384 -0.0165
 8685SOL     OW37516   2.781   4.704   7.421  0.4104  0.3316 -0.3192
 8685SOL    HW137517   2.762   0.067   7.462 -0.0489 -0.1630  0.4789
 8685SOL    HW237518   2.869   4.689   7.456 -1.0339 -2.7373  1.9764
 8686SOL     OW37519   3.933   2.093   8.224 -0.3918 -0.1323 -0.0354
 8686SOL    HW137520   3.856   2.042   8.200 -0.5393  0.1919 -0.2491
 8686SOL    HW237521   3.907   2.177   8.186 -0.3781 -0.5677 -1.0067
 8687SOL     OW37522   3.507   2.439   6.017  0.2612  0.7473 -0.2095
 8687SOL    HW137523   3.585   2.484   5.983 -0.5784  1.1123 -1.6463
 8687SOL    HW237524   3.456   2.503   6.066 -0.4704 -0.5278  0.6827
 8688SOL     OW37525   1.672   2.047  15.321  0.2259 -0.0097  0.6610
 8688SOL    HW137526   1.748   2.105  15.323  0.3383 -0.1399  0.1587
 8688SOL    HW237527   1.718   1.966  15.299  0.2098  0.2037 -0.1637
 8689SOL     OW37528   0.685   3.757   3.283 -0.3381 -1.0690 -0.2870
 8689SOL    HW137529   0.693   3.706   3.203 -1.8715 -0.9412 -0.5330
 8689SOL    HW237530   0.696   3.844   3.246  2.7261 -2.4005 -2.4665
 8690SOL     OW37531   4.093   4.195   7.135  0.7922  0.0559 -0.2049
 8690SOL    HW137532   4.006   4.175   7.168  0.7505  1.5821  0.5860
 8690SOL    HW237533   4.138   4.182   7.219 -1.2058  0.8135  0.9710
 8691SOL     OW37534   2.171   4.428   9.212  0.1404  0.6755  0.2018
 8691SOL    HW137535   2.113   4.485   9.262  0.9695  1.6157  0.1040
 8691SOL    HW237536   2.188   4.358   9.275  2.1431  0.9899  0.0062
 8692SOL     OW37537   1.862   2.479   7.762 -0.3573 -0.3701  0.6032
 8692SOL    HW137538   1.800   2.431   7.707  0.8143  0.5757 -1.5186
 8692SOL    HW237539   1.910   2.408   7.805  0.7432 -1.0520 -1.7531
 8693SOL     OW37540   2.564   2.449   4.526 -0.4121  0.1262 -0.0481
 8693SOL    HW137541   2.481   2.461   4.573 -1.4652 -1.8209 -1.4383
 8693SOL    HW237542   2.606   2.376   4.571  1.4529 -0.1769 -2.3039
 8694SOL     OW37543   3.416   3.553   9.431  0.6592 -0.1281  0.4246
 8694SOL    HW137544   3.418   3.531   9.524 -1.5830 -2.4112 -0.0708
 8694SOL    HW237545   3.501   3.530   9.393  0.8453 -1.3221  1.6018
 8695SOL     OW37546   2.095   2.834  16.878  0.0597 -0.0152 -0.6610
 8695SOL    HW137547   2.029   2.765  16.868  0.5679 -0.6739  0.5095
 8695SOL    HW237548   2.039   2.910  16.887 -0.5980 -0.7787  1.6400
 8696SOL     OW37549   2.369   2.143   4.048 -0.5444 -0.4505 -0.1084
 8696SOL    HW137550   2.389   2.195   4.126 -0.6332  1.1741 -1.1517
 8696SOL    HW237551   2.376   2.060   4.095 -0.7663 -0.0088  0.7063
 8697SOL     OW37552   3.336   0.981   3.821 -0.0624  0.2058  0.6489
 8697SOL    HW137553   3.409   0.934   3.861  1.0656  2.0573  0.7686
 8697SOL    HW237554   3.359   0.997   3.729 -1.6327 -0.7048  0.0882
 8698SOL     OW37555   3.085   2.379  16.585 -0.5035  0.1299 -0.0541
 8698SOL    HW137556   3.149   2.412  16.521  0.7528 -2.0444  0.0536
 8698SOL    HW237557   3.139   2.337  16.652  2.6711  2.0999 -1.3628
 8699SOL     OW37558   3.451   1.814   8.884 -0.4435  0.1717 -0.0742
 8699SOL    HW137559   3.360   1.810   8.913 -0.8211 -0.2259 -1.2834
 8699SOL    HW237560   3.490   1.841   8.967 -2.7710 -1.1831  1.4746
 8700SOL     OW37561   4.549   0.276   6.100  0.2794  0.3125  0.3240
 8700SOL    HW137562   4.570   0.183   6.098  1.1844  0.5819 -1.7698
 8700SOL    HW237563   4.456   0.271   6.124  0.8603  0.5855  2.6799
 8701SOL     OW37564   2.068   1.615   6.748 -0.4978  0.0011 -0.2358
 8701SOL    HW137565   2.045   1.579   6.833 -0.9596 -0.3801 -0.5203
 8701SOL    HW237566   2.116   1.540   6.711  1.3303  0.4992  1.1341
 8702SOL     OW37567   1.595   1.232   7.509  0.0353  0.1326 -0.4826
 8702SOL    HW137568   1.546   1.153   7.487 -1.9928  0.9272  1.1232
 8702SOL    HW237569   1.616   1.213   7.600  1.1094  3.7658  0.0569
 8703SOL     OW37570   3.684   0.384  17.634  0.0024  0.4448 -0.0851
 8703SOL    HW137571   3.708   0.317  17.570 -1.0115  0.0340 -0.0382
 8703SOL    HW237572   3.763   0.416  17.677  0.9573 -0.1211 -1.4220
 8704SOL     OW37573   4.102   3.734  12.590 -0.2179  0.2934  0.4680
 8704SOL    HW137574   4.010   3.716  12.611  0.0837 -0.6960  0.9475
 8704SOL    HW237575   4.138   3.647  12.570  2.0668  1.0194  1.3890
 8705SOL     OW37576   4.097   0.087   4.234 -0.1008  0.3354  1.2288
 8705SOL    HW137577   4.017   0.097   4.285 -0.8531  3.4230 -0.5960
 8705SOL    HW237578   4.110   4.714   4.226 -0.1005  0.4462 -0.0767
 8706SOL     OW37579   4.591   2.755  10.002  0.4628 -0.7751 -0.4986
 8706SOL    HW137580   4.649   2.701  10.055  0.9768  1.1514  0.9101
 8706SOL    HW237581   4.616   2.843  10.031 -2.5476 -0.3389  0.7897
 8707SOL     OW37582   2.658   1.693  15.572 -0.0174 -0.2546 -0.1166
 8707SOL    HW137583   2.678   1.759  15.506  2.0444  0.5643  1.3214
 8707SOL    HW237584   2.562   1.697  15.569  0.0715 -0.0143 -2.1151
 8708SOL     OW37585   3.584   1.960   2.896  0.1043  0.2566 -0.5091
 8708SOL    HW137586   3.531   2.040   2.901  0.1966  0.4390 -2.3188
 8708SOL    HW237587   3.602   1.947   2.989  0.3998  3.2496 -0.1479
 8709SOL     OW37588   4.011   0.352  14.487 -0.0057  0.3715 -0.6146
 8709SOL    HW137589   4.017   0.260  14.463 -0.1725  0.1943  0.0121
 8709SOL    HW237590   3.994   0.342  14.581  0.5838 -1.2627 -0.6859
 8710SOL     OW37591   1.922   3.027   3.795  0.2669 -0.0932 -0.5605
 8710SOL    HW137592   1.851   3.052   3.736 -1.2781 -2.9211  0.0410
 8710SOL    HW237593   1.961   3.114   3.798  2.7295 -1.2712  1.3305
 8711SOL     OW37594   1.476   0.921  16.923 -0.2392 -0.4628 -0.0148
 8711SOL    HW137595   1.459   0.827  16.920  1.5235 -0.7323 -1.7566
 8711SOL    HW237596   1.564   0.937  16.888 -0.3163  0.8905  0.4053
 8712SOL     OW37597   0.716   3.422  17.205 -0.2524  0.8023 -0.3252
 8712SOL    HW137598   0.684   3.511  17.221 -2.8832 -0.0156 -1.0513
 8712SOL    HW237599   0.697   3.394  17.295  1.2969  0.4762 -0.0910
 8713SOL     OW37600   1.088   1.532   9.888  0.4330  0.2388 -0.3508
 8713SOL    HW137601   1.040   1.586   9.825 -1.1779 -0.4369  0.2887
 8713SOL    HW237602   1.096   1.453   9.835 -2.7822 -1.7987  2.1363
 8714SOL     OW37603   2.453   0.899   0.735  0.5197  0.3327 -0.3746
 8714SOL    HW137604   2.475   0.842   0.809  0.4803  1.4310  0.4913
 8714SOL    HW237605   2.513   0.973   0.749 -1.1214  1.7139 -0.5730
 8715SOL     OW37606   3.208   0.120   0.870 -0.2074  0.1762 -0.6301
 8715SOL    HW137607   3.156   0.039   0.865 -0.9066  0.6332 -0.7468
 8715SOL    HW237608   3.230   0.132   0.962 -0.1438 -2.0283 -0.3415
 8716SOL     OW37609   1.640   2.055  10.298  0.5823 -0.2511  0.4772
 8716SOL    HW137610   1.569   2.119  10.293 -0.8247 -1.7525  1.2274
 8716SOL    HW237611   1.601   1.984  10.246 -1.1369  0.9618  0.1075
 8717SOL     OW37612   1.066   4.483   5.765  0.2223 -0.1348 -0.4600
 8717SOL    HW137613   1.000   4.469   5.697 -1.7610  1.9140  1.0267
 8717SOL    HW237614   1.028   4.425   5.831  0.8516  2.8729  2.5625
 8718SOL     OW37615   1.045   1.021   7.117 -0.8226  0.0473 -0.0712
 8718SOL    HW137616   0.999   1.104   7.103  0.3830  1.1588  2.5981
 8718SOL    HW237617   1.140   1.030   7.105 -1.0356  0.7975 -1.1747
 8719SOL     OW37618   4.400   1.351  10.579 -0.0336  0.3899  0.2933
 8719SOL    HW137619   4.474   1.336  10.638  0.4318  1.5531 -0.0009
 8719SOL    HW237620   4.440   1.309  10.503  0.9456  3.3997 -0.8143
 8720SOL     OW37621   0.282   1.976   2.022 -0.0186 -0.6798  0.0821
 8720SOL    HW137622   0.228   1.949   1.948 -1.7126 -0.2764  1.1681
 8720SOL    HW237623   0.339   1.901   2.039  1.5891  0.0587 -2.0831
 8721SOL     OW37624   0.242   4.668  10.690 -0.2084 -0.8273 -0.2608
 8721SOL    HW137625   0.270   0.024  10.641 -0.0291 -1.3844 -1.0416
 8721SOL    HW237626   0.182   4.637  10.622 -2.6366 -0.0112  1.5433
 8722SOL     OW37627   4.472   4.047   8.601 -0.4609 -0.1120 -0.1223
 8722SOL    HW137628   4.557   4.004   8.611  0.1369  1.1647  0.2898
 8722SOL    HW237629   4.491   4.130   8.558 -1.3624  0.5175  0.6844
 8723SOL     OW37630   1.055   2.617   3.579  0.3767 -0.3949  0.3725
 8723SOL    HW137631   1.150   2.621   3.585  0.2739  0.4684  1.3288
 8723SOL    HW237632   1.048   2.699   3.531 -1.2742  0.0577  1.3961
 8724SOL     OW37633   4.299   4.713   4.856  0.0324  0.0584  0.4386
 8724SOL    HW137634   4.219   4.665   4.879  1.6348 -1.4959  2.7116
 8724SOL    HW237635   4.282   0.076   4.896 -0.1579  0.5187 -0.6248
 8725SOL     OW37636   0.721   4.484  17.086 -0.2645  0.2458  0.1235
 8725SOL    HW137637   0.687   4.537  17.015 -1.5748  0.1258  0.6636
 8725SOL    HW237638   0.649   4.422  17.098 -0.2808  0.1172 -0.6562
 8726SOL     OW37639   0.584   2.010   7.645  0.2167  0.5718 -0.4864
 8726SOL    HW137640   0.654   2.008   7.580  1.7331 -0.9183  1.1665
 8726SOL    HW237641   0.626   1.999   7.731 -0.0822  0.5643 -0.3388
 8727SOL     OW37642   0.592   3.553   8.142 -0.1085 -0.1209  0.3504
 8727SOL    HW137643   0.678   3.511   8.144 -0.1597 -0.1749  1.7359
 8727SOL    HW237644   0.540   3.479   8.173  0.4162 -1.3085 -1.5756
 8728SOL     OW37645   1.967   4.694   7.820  0.2101  0.1719  0.1562
 8728SOL    HW137646   1.895   4.637   7.796 -0.1557  0.1750  1.2539
 8728SOL    HW237647   2.020   4.687   7.741 -0.5344 -2.0154 -0.1255
 8729SOL     OW37648   4.707   1.046   1.593 -0.4658 -0.0485 -0.1098
 8729SOL    HW137649   4.631   1.032   1.536 -0.0822  0.7330 -0.8183
 8729SOL    HW237650   0.060   1.028   1.536  0.5478 -0.8549  1.4869
 8730SOL     OW37651   4.200   2.299   7.853  0.0971  0.2827  0.2920
 8730SOL    HW137652   4.233   2.239   7.787 -0.1179  2.2680 -1.6137
 8730SOL    HW237653   4.129   2.333   7.798  0.1082 -3.7437 -2.1852
 8731SOL     OW37654   0.772   1.673   1.088  0.4745 -0.3154 -0.7610
 8731SOL    HW137655   0.704   1.740   1.093 -1.5523 -2.2144 -2.6983
 8731SOL    HW237656   0.828   1.724   1.029  1.1881 -1.1660 -0.8181
 8732SOL     OW37657   3.709   0.111  17.005  0.1338 -0.0747 -0.3101
 8732SOL    HW137658   3.616   0.113  17.026  0.3889  0.1431  0.8107
 8732SOL    HW237659   3.707   0.044  16.937  0.7026 -1.2083  0.7986
 8733SOL     OW37660   4.535   1.151   1.867  0.5309 -0.2474 -0.2564
 8733SOL    HW137661   4.448   1.188   1.852  0.3138 -0.4773  0.4106
 8733SOL    HW237662   4.551   1.086   1.799  2.3320  0.1145 -0.1833
 8734SOL     OW37663   3.716   1.585   6.794 -0.0101  0.0355 -0.4412
 8734SOL    HW137664   3.762   1.604   6.712 -1.2108  1.4930 -0.7783
 8734SOL    HW237665   3.785   1.566   6.857  1.4354 -0.5087 -2.1883
 8735SOL     OW37666   3.280   1.987  12.035 -0.0614 -0.6150 -0.3195
 8735SOL    HW137667   3.264   1.894  12.022 -1.0265 -0.9331  3.2332
 8735SOL    HW237668   3.264   2.008  11.943 -1.8531 -0.7168 -0.0420
 8736SOL     OW37669   1.579   2.670   6.276 -0.0211 -0.1552 -0.5727
 8736SOL    HW137670   1.525   2.611   6.224 -2.7024  0.5479  1.4412
 8736SOL    HW237671   1.662   2.635   6.243 -0.9297 -2.2643 -0.6049
 8737SOL     OW37672   0.094   0.511   4.009  0.1423  0.2800 -0.0733
 8737SOL    HW137673   0.154   0.508   3.935 -0.9124 -0.8695 -0.8682
 8737SOL    HW237674   0.055   0.424   4.010  1.8623 -0.4967 -0.9496
 8738SOL     OW37675   1.554   1.939  11.952 -0.4540  0.4773 -0.4063
 8738SOL    HW137676   1.487   1.875  11.928 -1.1652  0.0930  2.6098
 8738SOL    HW237677   1.617   1.889  12.004 -2.0558  0.7733  1.7685
 8739SOL     OW37678   1.024   1.170   8.447 -0.3103 -0.0284  0.2810
 8739SOL    HW137679   0.989   1.221   8.520  0.1436  0.2870  0.2809
 8739SOL    HW237680   1.047   1.244   8.390  1.0922 -0.6383  0.0659
 8740SOL     OW37681   3.002   1.227   5.155 -0.3239 -0.5996  0.5202
 8740SOL    HW137682   2.995   1.205   5.248 -1.2226  0.4229  0.6983
 8740SOL    HW237683   3.096   1.242   5.145 -0.3859  1.3238  2.8163
 8741SOL     OW37684   2.572   1.162  17.661 -0.2489  0.1518 -1.0366
 8741SOL    HW137685   2.516   1.223   0.019  1.5257  0.4641  0.6201
 8741SOL    HW237686   2.628   1.118   0.035 -0.5822  2.2230  0.6739
 8742SOL     OW37687   4.060   0.456  17.263 -0.5650  0.2837 -0.5057
 8742SOL    HW137688   3.995   0.392  17.235 -1.8046  0.8255  1.1755
 8742SOL    HW237689   4.088   0.422  17.348 -0.8234 -1.3626 -1.0734
 8743SOL     OW37690   0.045   0.420  10.065 -0.0378  0.4252  0.3049
 8743SOL    HW137691   4.682   0.442  10.104  0.1543  0.4997  0.6768
 8743SOL    HW237692   0.054   0.329  10.093  1.0461  0.7975  1.1699
 8744SOL     OW37693   2.747   2.109   7.926 -0.1097  0.2507  0.3544
 8744SOL    HW137694   2.816   2.139   7.866  0.5740 -0.5035  0.7763
 8744SOL    HW237695   2.753   2.185   7.984  0.5359  1.9466 -1.8879
 8745SOL     OW37696   0.965   4.048  12.784  0.0584  0.3442 -0.1489
 8745SOL    HW137697   0.928   3.960  12.779 -0.7748  0.7595 -1.5440
 8745SOL    HW237698   0.899   4.078  12.847  1.0715  0.8046  0.6830
 8746SOL     OW37699   0.384   0.892   3.245 -0.5318 -0.5607 -0.0991
 8746SOL    HW137700   0.452   0.931   3.189  0.4946 -1.4243  0.5402
 8746SOL    HW237701   0.326   0.865   3.174  2.1273 -1.1235 -2.0661
 8747SOL     OW37702   0.489   3.153   1.858 -0.1129  0.2497 -0.3172
 8747SOL    HW137703   0.497   3.246   1.878 -0.1150  0.0286  0.7191
 8747SOL    HW237704   0.431   3.170   1.784 -0.0418  1.4235 -0.0998
 8748SOL     OW37705   1.400   1.656   6.492  0.0116 -0.3643  0.6989
 8748SOL    HW137706   1.358   1.711   6.557 -1.7526 -0.1579 -0.6015
 8748SOL    HW237707   1.343   1.579   6.504 -1.6793  0.9499  1.0720
 8749SOL     OW37708   2.329   0.959   6.660  0.0589 -0.3153 -0.0321
 8749SOL    HW137709   2.274   0.884   6.640 -1.4063  0.1927  2.0664
 8749SOL    HW237710   2.327   0.958   6.756 -1.7668 -1.8306 -0.0967
 8750SOL     OW37711   0.211   1.313   1.434 -0.1238  0.3215  0.2297
 8750SOL    HW137712   0.286   1.324   1.493  0.4130 -2.0945  0.0068
 8750SOL    HW237713   0.236   1.372   1.363  2.1450 -0.4043  0.4244
 8751SOL     OW37714   3.671   4.099   2.595  0.6065 -0.3205  0.1300
 8751SOL    HW137715   3.695   4.055   2.676 -1.8892 -1.3893  0.3044
 8751SOL    HW237716   3.694   4.034   2.529 -0.9407 -1.4384  0.6919
 8752SOL     OW37717   0.159   1.949   3.193  0.3228 -0.4809  0.1099
 8752SOL    HW137718   0.232   1.954   3.132 -0.5913  0.9172 -0.8827
 8752SOL    HW237719   0.108   1.885   3.144 -1.0586 -0.0694  1.0056
 8753SOL     OW37720   0.388   3.852  17.651  0.1036  0.2047  0.0610
 8753SOL    HW137721   0.435   3.800  17.585  0.9240 -1.3189  1.8420
 8753SOL    HW237722   0.295   3.836  17.637 -0.0950  0.5582  0.9960
 8754SOL     OW37723   1.258   1.159   5.897  0.0269 -0.0185  0.0929
 8754SOL    HW137724   1.306   1.113   5.828 -0.3744  0.7557 -0.6978
 8754SOL    HW237725   1.259   1.093   5.966  1.0517  0.9792  1.0310
 8755SOL     OW37726   1.838   1.101   8.658  0.5932 -0.1701 -0.5229
 8755SOL    HW137727   1.761   1.044   8.662  0.1701  0.3242 -1.4488
 8755SOL    HW237728   1.895   1.050   8.601  0.5664 -0.6814 -0.0873
 8756SOL     OW37729   3.825   3.725   7.405  0.1563  0.0511 -0.3473
 8756SOL    HW137730   3.896   3.702   7.466  0.1301 -1.4464 -0.8789
 8756SOL    HW237731   3.790   3.797   7.458 -1.7627  0.0116 -1.5713
 8757SOL     OW37732   0.497   1.603   6.883  0.2660 -0.0308 -0.0110
 8757SOL    HW137733   0.471   1.695   6.890  2.7853  0.7552 -1.1333
 8757SOL    HW237734   0.592   1.612   6.893  0.0358 -2.4407  4.6949
 8758SOL     OW37735   4.530   4.156   1.552 -0.1083 -0.2145 -1.0693
 8758SOL    HW137736   4.479   4.237   1.544 -0.7512 -0.4355  0.7168
 8758SOL    HW237737   4.602   4.171   1.491  0.3781  2.5587  0.1904
 8759SOL     OW37738   3.894   2.796   7.768 -0.3052 -0.6301 -0.8739
 8759SOL    HW137739   3.940   2.717   7.737 -0.5281 -0.6212 -1.2188
 8759SOL    HW237740   3.940   2.856   7.710 -1.5230  0.4347 -0.7290
 8760SOL     OW37741   3.109   4.007   8.534  0.7824 -0.5801 -0.2057
 8760SOL    HW137742   3.052   3.957   8.592  2.2022 -0.5699  1.1784
 8760SOL    HW237743   3.097   4.095   8.569 -2.7572 -0.6464 -1.2137
 8761SOL     OW37744   4.443   2.890   7.331  0.4174 -0.2210  0.8752
 8761SOL    HW137745   4.507   2.945   7.376 -0.5246  0.5417  1.2950
 8761SOL    HW237746   4.494   2.812   7.311  0.8796 -0.2519  2.1634
 8762SOL     OW37747   4.019   2.601   7.614  0.6615  0.1256  0.1874
 8762SOL    HW137748   4.055   2.515   7.593  0.7320  0.7380 -2.2175
 8762SOL    HW237749   4.046   2.661   7.544  0.0893  0.2986  0.1112
 8763SOL     OW37750   0.110   1.055  16.014  0.2132  0.1082 -0.3275
 8763SOL    HW137751   0.154   1.055  15.929  4.0322  1.4933  1.6705
 8763SOL    HW237752   0.170   1.090  16.079  0.0990 -2.1781  1.0018
 8764SOL     OW37753   1.069   2.236   2.926  0.6514  0.2287 -0.1089
 8764SOL    HW137754   1.017   2.195   2.995  3.0276  0.6439  1.9091
 8764SOL    HW237755   1.145   2.252   2.981  0.4101 -0.1731  0.3386
 8765SOL     OW37756   1.624   0.544   5.994 -0.4450  0.2437 -0.0196
 8765SOL    HW137757   1.578   0.498   6.064  0.3844  2.0124  1.7079
 8765SOL    HW237758   1.550   0.556   5.935  2.4502 -0.1962 -3.7216
 8766SOL     OW37759   4.168   4.302   6.868  0.7314  0.4210  0.5181
 8766SOL    HW137760   4.119   4.307   6.950 -0.1781 -1.4139  0.0996
 8766SOL    HW237761   4.133   4.231   6.814 -1.2404  1.9079 -0.1498
 8767SOL     OW37762   2.529   1.442  14.923 -0.4097 -0.2695  0.3825
 8767SOL    HW137763   2.577   1.431  15.005 -0.8310  0.1318  0.6838
 8767SOL    HW237764   2.609   1.455  14.872 -1.1196  2.5195  0.0003
 8768SOL     OW37765   2.001   0.066   8.385  0.3773  0.3719 -0.5286
 8768SOL    HW137766   1.912   0.095   8.406  0.2964 -0.0846 -0.2224
 8768SOL    HW237767   1.995   0.040   8.293 -1.0235 -0.4518 -0.2186
 8769SOL     OW37768   3.664   0.014  15.027  0.3396 -0.3012 -0.2283
 8769SOL    HW137769   3.685   4.713  14.937 -1.9573 -3.6148  0.0805
 8769SOL    HW237770   3.696   0.105  15.029  1.6208 -0.7273 -2.1803
 8770SOL     OW37771   2.896   2.148  12.517  0.0983 -0.8188 -0.1144
 8770SOL    HW137772   2.886   2.113  12.428 -0.0839 -1.3833  0.1303
 8770SOL    HW237773   2.947   2.078  12.558 -1.8009 -2.2598 -0.2036
 8771SOL     OW37774   4.056   1.990  15.651  0.0597  0.2929 -0.6334
 8771SOL    HW137775   4.149   2.002  15.671  0.2642  0.4260 -1.6430
 8771SOL    HW237776   4.046   2.006  15.557  0.3082  1.0035 -0.5385
 8772SOL     OW37777   2.437   1.808   8.323 -0.3799 -0.1025  0.0853
 8772SOL    HW137778   2.395   1.833   8.405 -0.5317 -0.8162  0.2183
 8772SOL    HW237779   2.489   1.886   8.302 -2.0458  0.7850 -0.7321
 8773SOL     OW37780   1.785   2.157   3.495 -0.3161 -0.2068  0.3397
 8773SOL    HW137781   1.814   2.066   3.498 -0.4441 -0.1822  1.9988
 8773SOL    HW237782   1.705   2.154   3.442 -0.1806 -2.4309  0.2884
 8774SOL     OW37783   1.706   2.610  15.739  0.0700 -0.1016 -0.0541
 8774SOL    HW137784   1.713   2.565  15.656 -0.6580  2.1686 -1.3652
 8774SOL    HW237785   1.753   2.691  15.719  1.9689 -1.2231 -0.0110
 8775SOL     OW37786   4.632   1.995   2.032 -0.8085  0.8192 -0.2830
 8775SOL    HW137787   4.613   1.985   1.938 -1.1060  0.8160 -0.2216
 8775SOL    HW237788   4.588   1.917   2.065 -0.7713  0.5815 -0.7867
 8776SOL     OW37789   1.898   3.230   3.267  1.1536  0.2586  0.2868
 8776SOL    HW137790   1.915   3.277   3.349  1.4950  0.5317  0.0555
 8776SOL    HW237791   1.929   3.143   3.295  1.8475  0.5808  0.5179
 8777SOL     OW37792   2.041   4.190  16.996  0.0838  0.4285 -0.0118
 8777SOL    HW137793   2.004   4.232  16.919  1.6436 -1.6117 -1.8995
 8777SOL    HW237794   2.136   4.190  16.981 -0.0916  1.7817 -1.1425
 8778SOL     OW37795   1.892   0.851   7.441  0.1583  0.0527  0.0303
 8778SOL    HW137796   1.819   0.897   7.481  1.1058  0.4822  1.2693
 8778SOL    HW237797   1.966   0.866   7.501 -0.8137 -1.1913  1.5520
 8779SOL     OW37798   4.517   1.499   2.627 -0.1798 -0.5830  0.1934
 8779SOL    HW137799   4.432   1.538   2.643  0.1111 -0.4007  1.2754
 8779SOL    HW237800   4.570   1.568   2.589  0.7848 -1.4185  0.0151
 8780SOL     OW37801   4.101   2.720   9.181  0.0548 -0.3809  0.0996
 8780SOL    HW137802   4.179   2.674   9.213  0.5059  0.3427  0.0478
 8780SOL    HW237803   4.027   2.669   9.214 -1.6066  1.8109 -0.2613
 8781SOL     OW37804   3.971   0.544  13.772  0.0013  0.4159  0.0594
 8781SOL    HW137805   4.000   0.589  13.692 -1.4633  2.3814  0.6573
 8781SOL    HW237806   3.936   0.463  13.735 -0.1379  0.0484  1.0130
 8782SOL     OW37807   0.699   3.095   6.396 -0.5235  0.4005  0.0973
 8782SOL    HW137808   0.748   3.030   6.447  1.4778  3.4058  1.9799
 8782SOL    HW237809   0.611   3.056   6.402 -1.0233  1.8253  1.8319
 8783SOL     OW37810   2.312   4.291   2.339 -0.1369  0.1009  0.6642
 8783SOL    HW137811   2.397   4.332   2.329 -0.1916  0.3977  1.4317
 8783SOL    HW237812   2.341   4.205   2.370 -3.1619 -1.5091 -0.9129
 8784SOL     OW37813   4.503   1.248   6.865  0.2585  0.5772 -0.1688
 8784SOL    HW137814   4.410   1.262   6.851 -0.0725 -0.3599  0.9701
 8784SOL    HW237815   4.507   1.190   6.942 -1.1825 -0.8385 -1.1609
 8785SOL     OW37816   3.152   0.744   9.077  0.5417 -0.2660  0.7228
 8785SOL    HW137817   3.208   0.819   9.058  1.7835 -1.5970 -0.7812
 8785SOL    HW237818   3.063   0.769   9.053  1.4596  0.4155 -1.9815
 8786SOL     OW37819   1.488   1.675   6.216  0.0435  0.1922 -0.5600
 8786SOL    HW137820   1.484   1.634   6.303 -0.2371  2.0801  0.3218
 8786SOL    HW237821   1.395   1.685   6.194 -0.2744  3.0196  1.9789
 8787SOL     OW37822   4.158   3.409  14.512  0.2191 -0.5544  0.6418
 8787SOL    HW137823   4.164   3.487  14.567  0.6456 -0.8936  1.0790
 8787SOL    HW237824   4.171   3.455  14.429 -0.1267  0.8486  1.3614
 8788SOL     OW37825   3.814   2.228  11.534 -0.0407  0.1737  0.2686
 8788SOL    HW137826   3.798   2.286  11.460  3.1271 -2.0423 -2.1691
 8788SOL    HW237827   3.740   2.255  11.588  0.0465 -0.4242  0.6811
 8789SOL     OW37828   1.932   3.783   4.381  0.5115 -0.4959 -0.2292
 8789SOL    HW137829   1.917   3.793   4.287  2.4079 -0.4743 -0.5347
 8789SOL    HW237830   1.855   3.733   4.409  2.0937 -1.9355  1.6446
 8790SOL     OW37831   4.244   3.500   3.082  0.0830  0.2769  0.1370
 8790SOL    HW137832   4.248   3.589   3.048 -0.8755 -0.1577 -1.1036
 8790SOL    HW237833   4.232   3.499   3.177  0.5892 -1.6376  0.1964
 8791SOL     OW37834   2.259   0.098  16.126  0.1709 -0.8928 -0.1146
 8791SOL    HW137835   2.206   0.049  16.063  2.3063  2.5974 -4.6627
 8791SOL    HW237836   2.345   0.067  16.097  0.6021 -0.2642  0.4854
 8792SOL     OW37837   2.647   4.152   6.745 -0.1410  0.6414 -0.5159
 8792SOL    HW137838   2.627   4.096   6.670 -0.4876 -0.0735  0.1182
 8792SOL    HW237839   2.606   4.229   6.705  0.8469  1.2208 -0.4254
 8793SOL     OW37840   3.339   2.476   5.627 -0.0322  0.1873  1.1160
 8793SOL    HW137841   3.267   2.537   5.644 -1.7301 -1.1882 -1.1715
 8793SOL    HW237842   3.399   2.529   5.575 -1.3707  0.8392  0.2279
 8794SOL     OW37843   4.065   0.524   1.593 -0.1396 -0.2481  0.6400
 8794SOL    HW137844   3.986   0.537   1.646 -0.4842 -2.1556  0.5733
 8794SOL    HW237845   4.053   0.436   1.558  0.4935  1.1882 -3.2933
 8795SOL     OW37846   2.519   3.122   4.341 -0.0705 -0.3666 -0.5076
 8795SOL    HW137847   2.547   3.152   4.427  1.8179  0.9667 -1.5737
 8795SOL    HW237848   2.603   3.091   4.306  0.5806 -1.9376  2.4927
 8796SOL     OW37849   3.754   0.354  13.438  1.3021  0.3747 -0.1100
 8796SOL    HW137850   3.827   0.343  13.498  0.8037 -0.4341  0.3444
 8796SOL    HW237851   3.752   0.449  13.452 -2.8360  0.0342  1.6883
 8797SOL     OW37852   0.440   3.178   2.979  0.1952  0.4807  0.3990
 8797SOL    HW137853   0.481   3.255   2.941  0.6372  0.1318  0.1724
 8797SOL    HW237854   0.348   3.191   2.957  0.1940  0.2400  0.2590
 8798SOL     OW37855   4.366   0.557   6.252  0.1658  0.4039  0.2060
 8798SOL    HW137856   4.313   0.609   6.192 -0.3232 -0.8871 -0.4787
 8798SOL    HW237857   4.346   0.471   6.215 -0.5680  1.6915 -2.3583
 8799SOL     OW37858   2.549   0.615   8.837 -0.4322 -0.1258  0.0163
 8799SOL    HW137859   2.566   0.572   8.921 -0.9402  0.1041  0.2343
 8799SOL    HW237860   2.463   0.576   8.820 -0.9988  0.9803  0.4189
 8800SOL     OW37861   0.223   2.419   6.757  0.1710 -0.2267 -0.1626
 8800SOL    HW137862   0.163   2.482   6.798  2.4055  1.7978 -0.0340
 8800SOL    HW237863   0.284   2.396   6.827  1.9570  0.1083 -1.6418
 8801SOL     OW37864   1.590   0.545   2.962 -0.0526 -0.0605  0.2271
 8801SOL    HW137865   1.573   0.456   2.929  0.3615 -0.6786  1.6925
 8801SOL    HW237866   1.684   0.551   2.980  0.0022 -0.8479  0.2116
 8802SOL     OW37867   0.783   1.403   6.517 -0.1780 -0.7528  0.3251
 8802SOL    HW137868   0.845   1.459   6.563 -1.3162 -0.1042  1.0838
 8802SOL    HW237869   0.811   1.434   6.430  0.4730 -1.4280  0.2994
 8803SOL     OW37870   1.863   2.768   4.526 -0.5671  0.2522  0.1697
 8803SOL    HW137871   1.809   2.714   4.585  0.4411  0.1222  0.9652
 8803SOL    HW237872   1.918   2.821   4.583  0.3050 -2.3458  1.7114
 8804SOL     OW37873   1.282   1.933   6.603 -0.0618  0.0255  0.3538
 8804SOL    HW137874   1.326   1.934   6.688 -1.7432  0.1679  1.2331
 8804SOL    HW237875   1.239   2.019   6.601 -0.7706 -0.4013 -2.4534
 8805SOL     OW37876   3.217   3.067   7.131 -0.5895 -0.2854  0.3205
 8805SOL    HW137877   3.301   3.021   7.135 -0.5388 -0.1698  0.5802
 8805SOL    HW237878   3.187   3.039   7.044 -0.7545  0.0770  0.2575
 8806SOL     OW37879   3.268   0.515  13.355  0.2124 -0.1478  0.1982
 8806SOL    HW137880   3.303   0.471  13.432  0.2999 -2.4956 -1.1729
 8806SOL    HW237881   3.203   0.561  13.407 -0.0759  1.6190 -1.7082
 8807SOL     OW37882   1.228   1.291   4.276 -0.4511  0.5705  0.1365
 8807SOL    HW137883   1.136   1.314   4.264  0.0743  2.5805 -0.0062
 8807SOL    HW237884   1.216   1.236   4.353 -1.3586 -1.5015 -1.4770
 8808SOL     OW37885   1.155   3.033   7.200  0.1927 -0.0418  0.2852
 8808SOL    HW137886   1.069   3.074   7.187  0.0535 -0.6659 -0.8251
 8808SOL    HW237887   1.122   2.972   7.266  2.3680 -1.3452  0.1525
 8809SOL     OW37888   3.121   0.864   5.291  0.1977 -0.1616 -0.2447
 8809SOL    HW137889   3.113   0.811   5.212  1.3682  1.0780 -1.2041
 8809SOL    HW237890   3.032   0.852   5.324  0.5920  1.3759  1.3780
 8810SOL     OW37891   1.450   4.551   1.644 -0.0990 -0.1541 -0.1782
 8810SOL    HW137892   1.448   4.466   1.599  2.7891 -0.6942  0.7181
 8810SOL    HW237893   1.539   4.549   1.679 -0.7493  2.3056  1.5430
 8811SOL     OW37894   1.387   0.728   5.029 -0.2212 -0.5389  0.1204
 8811SOL    HW137895   1.329   0.693   5.096  1.6132  0.8667  2.4460
 8811SOL    HW237896   1.409   0.814   5.065  0.3780 -0.6457  0.0217
 8812SOL     OW37897   1.496   2.341   4.437 -0.6107 -0.4403 -0.2334
 8812SOL    HW137898   1.414   2.332   4.388 -1.1230 -0.1565  0.5663
 8812SOL    HW237899   1.555   2.295   4.378 -0.1521  1.3131 -1.1606
 8813SOL     OW37900   4.161   0.681   7.813  0.0492 -0.1766 -0.1121
 8813SOL    HW137901   4.222   0.610   7.791 -0.1239  0.4341 -2.5861
 8813SOL    HW237902   4.179   0.688   7.907 -2.9468 -2.0182  0.5891
 8814SOL     OW37903   1.715   3.073   6.925 -0.7029  0.4428  0.7089
 8814SOL    HW137904   1.634   3.092   6.879 -1.7084 -0.7298  2.0192
 8814SOL    HW237905   1.755   3.159   6.936  0.8074  0.0151 -1.2597
 8815SOL     OW37906   1.119   1.138   3.754 -0.2958  0.0159  0.2873
 8815SOL    HW137907   1.184   1.208   3.745  0.0609 -0.2308  1.0074
 8815SOL    HW237908   1.066   1.156   3.676 -0.3988 -1.7761 -0.0588
 8816SOL     OW37909   0.854   0.836   3.505  0.6136  1.3289 -0.2627
 8816SOL    HW137910   0.767   0.809   3.534  2.1841 -1.9864  1.4190
 8816SOL    HW237911   0.861   0.775   3.432 -0.0004 -0.6116  1.2693
 8817SOL     OW37912   0.299   2.947   5.045 -0.2718  0.2008  0.3775
 8817SOL    HW137913   0.229   2.882   5.057 -0.1833  0.2587  1.1678
 8817SOL    HW237914   0.250   3.010   4.993 -0.6742 -0.9021 -0.5837
 8818SOL     OW37915   1.942   3.572   2.046 -0.2172 -0.2548  0.0171
 8818SOL    HW137916   1.991   3.565   1.964 -0.8779 -1.3544 -0.2914
 8818SOL    HW237917   1.943   3.480   2.074  0.0042 -0.3783 -0.3938
 8819SOL     OW37918   0.456   3.572   3.158  0.0556 -0.2497  0.5160
 8819SOL    HW137919   0.494   3.559   3.245  0.0160  1.0534  0.7328
 8819SOL    HW237920   0.387   3.638   3.168  0.0415 -0.3691  1.1979
 8820SOL     OW37921   4.588   2.647  11.100  0.0061 -0.3714  0.6441
 8820SOL    HW137922   4.554   2.646  11.189  1.4654  2.0546  1.2560
 8820SOL    HW237923   4.511   2.683  11.055  1.9139  0.9022 -1.6461
 8821SOL     OW37924   1.745   0.519   4.217  0.2765  0.1003  0.1083
 8821SOL    HW137925   1.791   0.541   4.136 -1.5387  0.8395 -0.7258
 8821SOL    HW237926   1.675   0.466   4.178  0.5098  0.4507 -0.7807
 8822SOL     OW37927   3.384   4.438   9.532  0.3067 -0.3989  0.0364
 8822SOL    HW137928   3.406   4.389   9.612  0.8917 -1.1406 -0.5776
 8822SOL    HW237929   3.293   4.455   9.553 -0.1653  0.0656 -2.3855
 8823SOL     OW37930   1.545   0.307   2.867  0.0005  0.3589  0.7242
 8823SOL    HW137931   1.480   0.265   2.923  1.4971 -1.2708  1.2490
 8823SOL    HW237932   1.503   0.304   2.780 -0.9247 -1.4947  1.2430
 8824SOL     OW37933   0.449   2.578   7.035  0.3912  0.2494 -0.0011
 8824SOL    HW137934   0.504   2.623   7.099  1.0696 -1.1760  0.4315
 8824SOL    HW237935   0.371   2.632   7.047  0.8434  0.6185  1.2681
 8825SOL     OW37936   1.869   4.138  15.435 -0.3878  0.1083  0.2642
 8825SOL    HW137937   1.886   4.182  15.352  2.4901 -0.8331  0.3750
 8825SOL    HW237938   1.948   4.087  15.450  0.0014  0.8597  0.7677
 8826SOL     OW37939   2.673   0.314   2.304  0.2878 -0.1523 -0.1854
 8826SOL    HW137940   2.596   0.296   2.358  0.4810 -0.1414  0.0953
 8826SOL    HW237941   2.638   0.344   2.221  1.1972 -0.4133 -0.6672
 8827SOL     OW37942   4.476   2.350   4.590 -0.0469 -0.3105  0.1360
 8827SOL    HW137943   4.512   2.271   4.631 -0.1449  0.2272  1.2774
 8827SOL    HW237944   4.467   2.313   4.503  0.2377  0.5006 -0.2374
 8828SOL     OW37945   2.624   2.255   6.623  0.2907 -0.1585  0.5202
 8828SOL    HW137946   2.692   2.194   6.593 -1.7470 -1.2605 -1.8415
 8828SOL    HW237947   2.550   2.202   6.594  0.2569 -0.5083  1.2580
 8829SOL     OW37948   0.968   1.235  13.210  0.8355 -0.1808  0.5861
 8829SOL    HW137949   1.011   1.233  13.125 -1.0866 -2.1101 -0.3269
 8829SOL    HW237950   0.893   1.178  13.195  1.4532 -1.4450  2.2524
 8830SOL     OW37951   2.583   3.945   6.568 -0.3362 -0.6027 -0.1729
 8830SOL    HW137952   2.563   3.872   6.626 -2.6957  1.4883  1.6061
 8830SOL    HW237953   2.671   3.920   6.540 -0.1248  1.3224 -1.2415
 8831SOL     OW37954   0.342   0.166   3.262  0.6461 -0.1086  0.8262
 8831SOL    HW137955   0.427   0.189   3.299  0.8825 -0.1698  0.3237
 8831SOL    HW237956   0.320   0.237   3.202 -0.3310 -1.5981 -0.5854
 8832SOL     OW37957   0.307   4.376  14.445 -0.4007 -0.1563  0.1425
 8832SOL    HW137958   0.276   4.393  14.534 -0.4227  0.0316  0.0984
 8832SOL    HW237959   0.224   4.381  14.398 -0.7752 -0.7011  0.7402
 8833SOL     OW37960   3.420   2.797  15.628  0.2905  0.3127  0.0278
 8833SOL    HW137961   3.432   2.845  15.710  2.4509 -1.2565  0.6246
 8833SOL    HW237962   3.336   2.752  15.642 -0.1322  0.1899 -2.8623
 8834SOL     OW37963   0.474   3.544   5.072  0.8125 -0.2400  0.0785
 8834SOL    HW137964   0.417   3.536   5.149  0.5167  0.0799 -0.1033
 8834SOL    HW237965   0.460   3.457   5.034 -2.0383  0.2960 -0.1564
 8835SOL     OW37966   3.665   0.100   9.098  0.2062 -0.3817  0.4010
 8835SOL    HW137967   3.621   0.049   9.165 -1.9280 -0.9677 -1.4485
 8835SOL    HW237968   3.727   0.147   9.154  1.5455 -1.2454 -0.3553
 8836SOL     OW37969   3.943   0.645   2.802  0.4511 -0.4338 -0.5606
 8836SOL    HW137970   3.892   0.571   2.835 -0.3977  0.3695 -0.0665
 8836SOL    HW237971   3.946   0.618   2.710  0.7821  1.6805 -1.1761
 8837SOL     OW37972   3.019   0.876   4.671  0.7924 -0.1900 -0.1452
 8837SOL    HW137973   3.072   0.955   4.661 -4.1502  3.0432 -0.9369
 8837SOL    HW237974   3.060   0.806   4.621  1.2797  0.3018 -0.4336
 8838SOL     OW37975   4.316   4.024   2.810 -0.3087  0.1704 -0.5476
 8838SOL    HW137976   4.370   3.946   2.795 -1.6498 -0.4643 -2.1288
 8838SOL    HW237977   4.296   4.047   2.719 -0.9029  0.7069 -0.2798
 8839SOL     OW37978   3.090   2.140  16.044 -0.2180  0.4114  0.4917
 8839SOL    HW137979   3.168   2.106  15.999 -0.0197  1.0454  0.3480
 8839SOL    HW237980   3.030   2.067  16.033  1.0353 -0.1720 -2.6043
 8840SOL     OW37981   3.510   0.108   0.091 -0.0769 -0.1014 -0.1790
 8840SOL    HW137982   3.420   0.083   0.068  0.1634 -0.9921 -0.1557
 8840SOL    HW237983   3.491   0.173   0.159  0.7016  0.0978 -0.1589
 8841SOL     OW37984   0.088   1.449   2.531 -0.2371  0.2144  0.1207
 8841SOL    HW137985   0.004   1.443   2.486 -1.1098  3.2369  1.3420
 8841SOL    HW237986   0.147   1.503   2.478  1.6997  1.5806  3.6414
 8842SOL     OW37987   3.948   3.039   9.917  0.2612  0.0249  0.4396
 8842SOL    HW137988   3.980   2.953   9.891 -0.4442 -0.9131  2.6745
 8842SOL    HW237989   3.859   3.029   9.885  0.6855 -1.2298 -0.3302
 8843SOL     OW37990   0.169   2.354   8.315  0.0918  0.1788 -0.7424
 8843SOL    HW137991   0.115   2.433   8.326 -2.5278 -1.1958 -3.9093
 8843SOL    HW237992   0.112   2.297   8.264  1.8865 -1.2635 -1.1112
 8844SOL     OW37993   0.268   4.041  10.083 -0.2760 -0.2831  0.2341
 8844SOL    HW137994   0.322   4.114  10.052 -1.8867  0.3310 -1.1569
 8844SOL    HW237995   0.334   3.983  10.119  1.6553  1.4696 -0.4927
 8845SOL     OW37996   0.417   3.740   9.929 -0.7790 -0.1590 -0.3598
 8845SOL    HW137997   0.440   3.663   9.876  0.5859  0.8159 -1.2202
 8845SOL    HW237998   0.470   3.803   9.880 -1.5877 -0.1282 -1.1835
 8846SOL     OW37999   3.090   2.812   1.818  0.1212 -0.3942 -0.0544
 8846SOL    HW138000   3.122   2.750   1.753 -0.6578  1.9046 -2.6424
 8846SOL    HW238001   3.170   2.853   1.852  0.3817 -0.7467 -0.2386
 8847SOL     OW38002   3.956   2.954  14.561 -0.6656 -1.0777 -0.3484
 8847SOL    HW138003   3.885   2.990  14.613 -0.5758 -1.4651  0.0465
 8847SOL    HW238004   4.023   3.016  14.591 -0.2654 -2.0394  0.7257
 8848SOL     OW38005   1.510   0.138   6.682  0.5344 -0.0072  0.0659
 8848SOL    HW138006   1.503   0.223   6.725  0.9753 -0.2889  0.6993
 8848SOL    HW238007   1.424   0.124   6.643  0.3436  0.2597  0.3966
 8849SOL     OW38008   1.760   3.223   6.084 -0.0958 -0.5148 -0.7378
 8849SOL    HW138009   1.739   3.177   6.165 -1.6963  0.8506 -0.3731
 8849SOL    HW238010   1.798   3.305   6.115  2.5009 -2.1891  0.4288
 8850SOL     OW38011   2.802   1.684  16.135  0.4859  0.2846  0.0050
 8850SOL    HW138012   2.875   1.646  16.184 -0.1948 -0.9110  0.0950
 8850SOL    HW238013   2.804   1.640  16.050  0.4743 -0.5306  0.4360
 8851SOL     OW38014   1.069   0.956   2.683  0.2212  0.5005  0.0331
 8851SOL    HW138015   1.086   1.044   2.715 -0.5637  1.2287 -1.5323
 8851SOL    HW238016   0.976   0.940   2.701  0.5886 -3.7260 -1.7808
 8852SOL     OW38017   2.965   2.201   7.798 -0.0154 -0.4153 -0.7140
 8852SOL    HW138018   2.991   2.160   7.715 -0.3338  1.1049 -1.5722
 8852SOL    HW238019   2.988   2.289   7.768 -0.7940 -0.1841 -0.6290
 8853SOL     OW38020   3.057   0.533   5.023  0.3522  0.0213 -0.0896
 8853SOL    HW138021   3.063   0.520   5.118  0.4874 -0.3790 -0.1507
 8853SOL    HW238022   2.978   0.481   5.008  0.5940 -0.0745 -1.0210
 8854SOL     OW38023   4.293   1.622   1.562 -0.0680  0.4897  0.0496
 8854SOL    HW138024   4.294   1.694   1.498  2.2400  1.5850  1.3350
 8854SOL    HW238025   4.198   1.608   1.562  0.0369 -0.2603 -1.1289
 8855SOL     OW38026   0.295   2.027   5.157 -0.8025  0.7284 -0.1120
 8855SOL    HW138027   0.349   1.953   5.129 -1.4721 -0.7320  2.4538
 8855SOL    HW238028   0.292   2.013   5.251  3.0346  2.3366  0.2148
 8856SOL     OW38029   0.800   3.882   8.977 -0.3004  0.4293 -0.3571
 8856SOL    HW138030   0.712   3.874   8.940 -0.4683 -0.7998  0.3158
 8856SOL    HW238031   0.850   3.931   8.913  0.0508  1.7615  0.9289
 8857SOL     OW38032   0.216   3.260   0.677 -0.6942 -0.3597 -0.1607
 8857SOL    HW138033   0.256   3.207   0.747  0.8585  1.1677  0.1077
 8857SOL    HW238034   0.123   3.243   0.689 -0.6893  0.8808  1.5715
 8858SOL     OW38035   1.875   2.895  12.361 -0.1089  0.1576  0.3261
 8858SOL    HW138036   1.809   2.918  12.296 -1.3280  0.8280  1.7962
 8858SOL    HW238037   1.863   2.802  12.380  2.0677  0.1022  1.5167
 8859SOL     OW38038   1.116   3.702  12.516 -0.2365  0.3911  0.0610
 8859SOL    HW138039   1.119   3.783  12.566  0.3189  0.7657 -0.5764
 8859SOL    HW238040   1.192   3.717  12.458  1.2138 -2.8922  1.1043
 8860SOL     OW38041   0.318   1.790  16.117 -0.2287  0.0745  0.6131
 8860SOL    HW138042   0.244   1.774  16.176 -1.7706  1.9442 -0.7890
 8860SOL    HW238043   0.296   1.879  16.089 -0.0750  0.6561  2.3587
 8861SOL     OW38044   2.638   3.453   4.222  0.1997  0.6125  0.1733
 8861SOL    HW138045   2.664   3.441   4.131  1.5421  0.4644  0.5834
 8861SOL    HW238046   2.555   3.406   4.215  0.6044 -0.1954  0.8048
 8862SOL     OW38047   3.728   2.934   5.083 -0.0962  0.2715  0.2688
 8862SOL    HW138048   3.784   2.915   5.007 -0.0480  1.4888  0.0124
 8862SOL    HW238049   3.701   3.025   5.076 -0.1784  0.3148  1.1421
 8863SOL     OW38050   4.485   1.296   4.336  0.3803  0.0237 -0.0312
 8863SOL    HW138051   4.510   1.375   4.383  1.1590  0.2883 -0.8894
 8863SOL    HW238052   4.396   1.286   4.369  0.2913 -1.1821 -0.6233
 8864SOL     OW38053   1.447   3.143   1.054 -0.0567 -0.6126  0.0140
 8864SOL    HW138054   1.528   3.102   1.084 -0.0642 -2.1990 -2.0915
 8864SOL    HW238055   1.392   3.066   1.037  0.3494 -0.6498 -1.1477
 8865SOL     OW38056   1.949   4.585   5.165  0.1701 -0.3850  0.1281
 8865SOL    HW138057   1.967   4.634   5.246  1.4188  1.7890 -1.4876
 8865SOL    HW238058   2.031   4.605   5.121 -0.8815  2.9664 -0.3032
 8866SOL     OW38059   3.798   2.693  14.576 -0.1859  0.1082 -0.3147
 8866SOL    HW138060   3.860   2.713  14.506 -0.1440 -2.0316 -0.8876
 8866SOL    HW238061   3.797   2.777  14.622 -0.2076 -0.1975  0.2427
 8867SOL     OW38062   4.681   4.641  15.577 -0.3388  0.1450  0.1199
 8867SOL    HW138063   0.029   4.576  15.572  0.1843  0.7891 -0.9855
 8867SOL    HW238064   4.701   4.683  15.661 -0.2667 -2.8210  1.5648
 8868SOL     OW38065   0.863   4.503  10.641  0.5901 -0.6097  0.4563
 8868SOL    HW138066   0.794   4.518  10.705 -0.4172 -0.4580 -0.6709
 8868SOL    HW238067   0.904   4.590  10.639 -0.0424 -0.3566 -1.9679
 8869SOL     OW38068   2.072   3.520   3.695  0.1288  0.3300 -0.1482
 8869SOL    HW138069   2.007   3.572   3.743  1.6314  0.2548  1.9267
 8869SOL    HW238070   2.092   3.588   3.630 -2.8853  0.4704 -0.9400
 8870SOL     OW38071   0.018   1.150   5.673 -0.1580 -0.1699 -0.4074
 8870SOL    HW138072   0.031   1.203   5.752  0.3684 -0.5468 -0.2452
 8870SOL    HW238073   4.672   1.091   5.707  0.8208 -0.6533  0.6981
 8871SOL     OW38074   3.329   1.134   5.717 -0.3254 -0.2619  0.1643
 8871SOL    HW138075   3.284   1.078   5.654 -1.3816  1.3588 -0.5446
 8871SOL    HW238076   3.311   1.226   5.695 -0.9119 -0.2882  0.5482
 8872SOL     OW38077   0.580   0.032   5.674 -0.2616  0.5461  0.5653
 8872SOL    HW138078   0.532   0.065   5.751  1.8173  0.7137  1.7777
 8872SOL    HW238079   0.649   0.097   5.676  0.8540 -0.4971 -3.8111
 8873SOL     OW38080   0.862   0.968   0.105 -0.1238  0.0695 -0.8702
 8873SOL    HW138081   0.826   0.987   0.191 -2.1826  1.4913 -2.0228
 8873SOL    HW238082   0.943   0.925   0.129 -0.8150 -0.7877 -0.0949
 8874SOL     OW38083   0.540   1.095   5.076  0.1486  0.0238 -0.0976
 8874SOL    HW138084   0.569   1.044   5.151  1.1566  0.4659 -0.1905
 8874SOL    HW238085   0.592   1.048   5.011  2.2487 -1.9448  2.9948
 8875SOL     OW38086   3.194   3.055   6.287 -0.0594 -0.1120  0.3562
 8875SOL    HW138087   3.121   3.050   6.224  0.6069 -1.8077 -0.2927
 8875SOL    HW238088   3.158   3.031   6.372  1.9155 -0.3863  1.0902
 8876SOL     OW38089   0.675   1.039  10.485  0.1446  0.1991 -0.4878
 8876SOL    HW138090   0.676   0.998  10.399  1.7166  1.3539 -1.0074
 8876SOL    HW238091   0.768   1.035  10.507  0.0954 -0.2145 -0.3548
 8877SOL     OW38092   3.361   1.191   2.831 -0.2744 -0.8358 -0.5544
 8877SOL    HW138093   3.322   1.271   2.795  1.9906  0.5660  0.0522
 8877SOL    HW238094   3.294   1.133   2.796 -4.1633  2.2292  1.7337
 8878SOL     OW38095   0.763   4.318  12.619 -0.2608 -0.1987  0.7312
 8878SOL    HW138096   0.766   4.345  12.528  4.0095  1.9607  1.5245
 8878SOL    HW238097   0.855   4.306  12.641  0.6958  2.0060 -2.0970
 8879SOL     OW38098   2.241   3.876   3.761  0.3464 -0.3938  0.4480
 8879SOL    HW138099   2.289   3.958   3.773 -0.2930 -0.1799  1.4661
 8879SOL    HW238100   2.292   3.842   3.687 -1.8403 -1.3080 -0.6305
 8880SOL     OW38101   1.101   1.758  14.028 -0.2447  0.4090 -0.1024
 8880SOL    HW138102   1.156   1.691  13.988 -1.6097 -1.6532  1.4467
 8880SOL    HW238103   1.165   1.809  14.077 -0.0050  1.8447 -1.9225
 8881SOL     OW38104   2.918   1.590  13.903  0.0446 -0.1654 -0.3642
 8881SOL    HW138105   2.856   1.586  13.976  1.7593  0.6138  1.1524
 8881SOL    HW238106   2.862   1.551  13.837 -0.2611  0.2292 -0.3353
 8882SOL     OW38107   0.367   4.212   1.980 -0.1516 -0.2540 -0.0956
 8882SOL    HW138108   0.369   4.296   2.027 -1.6407  0.4423 -1.2747
 8882SOL    HW238109   0.416   4.235   1.902 -0.6351 -0.1136 -0.3571
 8883SOL     OW38110   3.154   4.507   4.873 -0.1258 -0.2794 -0.2075
 8883SOL    HW138111   3.128   4.415   4.883  0.5401 -0.5405 -0.8272
 8883SOL    HW238112   3.225   4.508   4.808 -1.1803 -0.6749 -1.3675
 8884SOL     OW38113   3.889   3.613   4.002  0.4865 -1.1110  0.0973
 8884SOL    HW138114   3.879   3.706   3.980  1.6285 -0.9268  0.3647
 8884SOL    HW238115   3.974   3.620   4.046  0.0999  1.2145  0.4432
 8885SOL     OW38116   0.449   3.182   2.259 -0.6576  0.1780 -0.1467
 8885SOL    HW138117   0.519   3.132   2.217 -0.9814 -0.7030  0.3418
 8885SOL    HW238118   0.464   3.270   2.226  0.6030  0.0882  0.1840
 8886SOL     OW38119   3.265   3.020  16.713  0.7018 -0.2258  0.3022
 8886SOL    HW138120   3.194   3.056  16.660 -0.0233 -0.8605  0.8289
 8886SOL    HW238121   3.326   2.991  16.645 -0.8375 -0.7828 -0.8589
 8887SOL     OW38122   4.551   3.563   9.633 -0.2120 -0.0463  0.2853
 8887SOL    HW138123   4.562   3.642   9.686 -0.0042  1.0175 -1.3512
 8887SOL    HW238124   4.594   3.593   9.554  1.0689  1.1891  1.4601
 8888SOL     OW38125   0.946   3.745  11.988  0.0448  0.1888 -0.1947
 8888SOL    HW138126   0.881   3.774  12.051 -0.3428 -1.8186  0.3225
 8888SOL    HW238127   0.965   3.660  12.026  1.1845  1.2270  1.5484
 8889SOL     OW38128   2.336   3.533  10.368 -0.4873 -0.2312  0.8060
 8889SOL    HW138129   2.307   3.457  10.418  1.2548 -2.2093 -1.1944
 8889SOL    HW238130   2.254   3.553  10.324 -0.5231 -0.2585  0.8608
 8890SOL     OW38131   3.144   0.048  11.519 -0.1867 -0.5522  0.0792
 8890SOL    HW138132   3.169   0.082  11.605 -1.2949  0.5242 -0.0134
 8890SOL    HW238133   3.091   4.695  11.545  0.1583 -0.5441  0.7925
 8891SOL     OW38134   1.498   1.398  13.621 -0.3037  0.0798  0.1341
 8891SOL    HW138135   1.504   1.417  13.714  1.8442 -2.4318  0.5038
 8891SOL    HW238136   1.588   1.371  13.605 -0.4860  0.3505 -1.3607
 8892SOL     OW38137   2.793   2.239  13.152 -0.3860  0.0217  0.1785
 8892SOL    HW138138   2.824   2.321  13.190  0.4865  0.0135 -0.4862
 8892SOL    HW238139   2.820   2.249  13.060 -0.6967  0.4028  0.1265
 8893SOL     OW38140   3.571   3.056  12.590  0.0243 -0.1186 -0.1739
 8893SOL    HW138141   3.527   3.137  12.562  0.3507  0.1266  0.0278
 8893SOL    HW238142   3.551   3.002  12.513 -2.0861 -0.1060  0.3686
 8894SOL     OW38143   4.356   1.867   6.949  0.0184 -0.6679  0.3324
 8894SOL    HW138144   4.316   1.847   7.034  0.1826  0.4640  0.6835
 8894SOL    HW238145   4.302   1.814   6.891  1.1202  1.4691 -2.6646
 8895SOL     OW38146   4.652   0.935   5.120 -0.3155  0.5033 -0.3207
 8895SOL    HW138147   4.591   0.990   5.169  1.0020  0.7504  1.0386
 8895SOL    HW238148   0.011   0.980   5.145 -0.3822  0.0036  0.7928
 8896SOL     OW38149   0.724   1.577   3.059 -0.0552  0.3115 -0.0744
 8896SOL    HW138150   0.734   1.616   2.971 -0.3330  0.3954 -0.0675
 8896SOL    HW238151   0.806   1.600   3.102  0.2950  1.1661 -1.1806
 8897SOL     OW38152   0.535   4.306  12.399  0.5595 -0.5228 -0.7661
 8897SOL    HW138153   0.482   4.238  12.357 -0.6703 -0.1872  0.2572
 8897SOL    HW238154   0.550   4.356  12.319  0.1608  0.8474  0.0118
 8898SOL     OW38155   0.324   2.233   4.989  0.1303  0.2231  0.0459
 8898SOL    HW138156   0.319   2.152   5.040  0.3936  0.3674  0.3046
 8898SOL    HW238157   0.258   2.213   4.923  0.0889 -0.8976  0.4253
 8899SOL     OW38158   0.845   0.546   4.986  0.1973 -0.2196  0.1801
 8899SOL    HW138159   0.906   0.563   4.915  1.1345 -1.5929  0.6604
 8899SOL    HW238160   0.830   0.452   4.980  0.8667 -0.1720 -2.1298
 8900SOL     OW38161   2.927   3.719   0.616  0.7900  0.2903 -0.0769
 8900SOL    HW138162   2.836   3.718   0.588  1.4292  0.0256 -2.1283
 8900SOL    HW238163   2.966   3.650   0.563 -0.4412 -0.6346  0.2402
 8901SOL     OW38164   0.535   2.590  15.102  0.2442  0.0267 -0.0301
 8901SOL    HW138165   0.553   2.536  15.025  1.1510  0.4757 -0.1273
 8901SOL    HW238166   0.590   2.666  15.086  2.7065 -1.2124  2.5361
 8902SOL     OW38167   0.318   4.584  17.143  0.2559 -0.2247 -0.8658
 8902SOL    HW138168   0.402   4.629  17.137  0.1196 -0.0734 -1.6275
 8902SOL    HW238169   0.295   4.593  17.236 -0.0418  1.2639 -1.0868
 8903SOL     OW38170   3.439   4.332   1.578  0.4058  0.5050 -0.1025
 8903SOL    HW138171   3.347   4.358   1.576  1.0290  2.4912 -2.7334
 8903SOL    HW238172   3.460   4.353   1.669  0.6813  0.7630 -0.2252
 8904SOL     OW38173   1.819   0.712   8.622 -0.1381  0.2356  0.1094
 8904SOL    HW138174   1.894   0.759   8.660  1.1455 -0.3400 -1.6945
 8904SOL    HW238175   1.843   0.736   8.533  0.9889 -0.2438  0.2815
 8905SOL     OW38176   3.509   3.188  13.366 -0.5410  0.3729 -0.4553
 8905SOL    HW138177   3.497   3.106  13.318  1.4107 -0.4184  0.4197
 8905SOL    HW238178   3.592   3.215  13.327  1.0926 -2.2441  1.2207
 8906SOL     OW38179   0.393   0.779   7.366  0.1379  0.2502 -0.2240
 8906SOL    HW138180   0.318   0.772   7.307  0.7711  2.6257 -1.3158
 8906SOL    HW238181   0.468   0.766   7.307 -0.7566  4.8580 -2.4101
 8907SOL     OW38182   1.717   2.957   3.521  0.2772  0.0766 -0.9324
 8907SOL    HW138183   1.678   3.028   3.471 -0.5792 -0.7763 -1.4758
 8907SOL    HW238184   1.789   2.930   3.465  2.8062 -0.4721  2.5821
 8908SOL     OW38185   2.505   3.020   2.813 -0.5348 -0.0638  0.6330
 8908SOL    HW138186   2.551   2.941   2.842 -0.4526 -0.7398 -1.3394
 8908SOL    HW238187   2.506   3.065   2.898 -0.9832  1.9344 -0.4146
 8909SOL     OW38188   0.264   1.564   9.794  0.5195  0.2627  0.6298
 8909SOL    HW138189   0.206   1.491   9.770 -0.2436  0.0199  3.2460
 8909SOL    HW238190   0.325   1.567   9.720  1.3287 -1.1307  1.2500
 8910SOL     OW38191   0.411   1.156   7.918 -0.0361 -0.3793 -0.1542
 8910SOL    HW138192   0.474   1.109   7.973  0.7500  1.2815  0.3650
 8910SOL    HW238193   0.425   1.101   7.840  0.5466 -1.1595  0.4945
 8911SOL     OW38194   0.161   2.997  16.465 -0.8336  0.1279 -0.2560
 8911SOL    HW138195   0.213   2.944  16.525  0.3637 -0.3066 -1.6775
 8911SOL    HW238196   0.160   3.085  16.503 -0.7125  0.0724 -0.1250
 8912SOL     OW38197   0.706   4.479   1.772  0.6913 -0.2618  0.3677
 8912SOL    HW138198   0.672   4.555   1.820  2.0867 -0.1922  1.2652
 8912SOL    HW238199   0.767   4.517   1.709  0.5426  2.2146  1.7232
 8913SOL     OW38200   4.058   2.378   6.984 -0.4286  0.0302 -0.0730
 8913SOL    HW138201   4.122   2.308   6.972  0.8315  1.0748  0.6531
 8913SOL    HW238202   3.989   2.341   6.929  0.2569 -0.4632 -0.5924
 8914SOL     OW38203   3.829   3.833   8.202 -0.2499 -0.2661  0.0775
 8914SOL    HW138204   3.887   3.905   8.175 -1.3380 -0.4361 -2.6547
 8914SOL    HW238205   3.892   3.760   8.200 -0.9116 -0.7803 -1.7898
 8915SOL     OW38206   0.507   0.638  13.469 -0.3860 -0.2803 -0.0648
 8915SOL    HW138207   0.515   0.632  13.564 -0.1408  0.2101 -0.0515
 8915SOL    HW238208   0.589   0.598  13.441 -0.3622  0.0909 -0.5369
 8916SOL     OW38209   0.792   1.434   4.755  0.5488 -0.5480  0.1072
 8916SOL    HW138210   0.813   1.428   4.661 -1.8054 -0.7323 -0.4051
 8916SOL    HW238211   0.701   1.404   4.758  0.6286 -1.0704 -2.6132
 8917SOL     OW38212   3.952   3.504   0.441  0.5181  0.3178 -0.0615
 8917SOL    HW138213   4.005   3.559   0.498  0.2484  0.0424  0.4470
 8917SOL    HW238214   3.902   3.459   0.509  0.1578  3.1214  1.5252
 8918SOL     OW38215   4.362   0.934   3.086  0.3851  0.0060 -0.0253
 8918SOL    HW138216   4.427   0.933   3.016  1.4152  0.3126  0.9337
 8918SOL    HW238217   4.407   0.999   3.139 -0.0710 -0.4203  0.8706
 8919SOL     OW38218   0.191   4.246  11.273 -0.0894  0.3075 -0.3476
 8919SOL    HW138219   0.120   4.190  11.304  2.4059 -2.3477  0.6373
 8919SOL    HW238220   0.177   4.323  11.327  0.8709  1.4049 -1.6600
 8920SOL     OW38221   2.609   2.150   4.599 -0.7728 -0.1981  0.4186
 8920SOL    HW138222   2.634   2.123   4.687 -3.0275 -3.8731 -0.0690
 8920SOL    HW238223   2.681   2.107   4.551 -1.6723 -0.5334 -0.6384
 8921SOL     OW38224   3.190   2.904   3.505  0.1011 -0.3838 -0.3801
 8921SOL    HW138225   3.144   2.955   3.439 -0.8566  1.3802  1.6546
 8921SOL    HW238226   3.146   2.943   3.581 -1.7423 -1.5610 -0.8676
 8922SOL     OW38227   3.666   1.533   6.350  0.5277 -0.1657 -0.8975
 8922SOL    HW138228   3.624   1.611   6.313  2.1737  0.4139 -1.5622
 8922SOL    HW238229   3.726   1.584   6.404 -0.5078  0.0544  0.0547
 8923SOL     OW38230   0.416   0.384  16.165 -0.0237  0.0889 -0.0271
 8923SOL    HW138231   0.449   0.375  16.255 -0.6323  0.5407  0.2380
 8923SOL    HW238232   0.494   0.429  16.134 -0.3327 -0.4738 -1.6027
 8924SOL     OW38233   0.943   2.923   8.142  0.4320 -0.1482  0.4048
 8924SOL    HW138234   0.938   2.896   8.050  1.4564 -3.1423  1.2376
 8924SOL    HW238235   0.968   3.015   8.133  4.0260 -1.1821 -0.2601
 8925SOL     OW38236   2.871   4.388   3.232 -0.2313  0.4714 -0.5355
 8925SOL    HW138237   2.798   4.346   3.277 -0.6180  0.3557 -1.2670
 8925SOL    HW238238   2.936   4.319   3.218  0.9610  1.2090  1.3356
 8926SOL     OW38239   3.476   3.771   2.456  0.0937 -0.0902 -0.4054
 8926SOL    HW138240   3.499   3.681   2.479 -0.4586  0.4167  2.1126
 8926SOL    HW238241   3.451   3.748   2.366  1.6179 -3.5978  0.0391
 8927SOL     OW38242   1.551   4.244   8.231 -0.7340 -0.0964  0.3087
 8927SOL    HW138243   1.643   4.255   8.205 -0.4206 -1.6552  0.7300
 8927SOL    HW238244   1.534   4.329   8.270 -0.2555  0.0730  0.1520
 8928SOL     OW38245   2.133   3.929   9.792  0.0617 -0.2274  0.1930
 8928SOL    HW138246   2.091   3.993   9.850  2.3950  0.9885  0.5592
 8928SOL    HW238247   2.105   3.847   9.833 -0.5459 -0.8281 -1.4423
 8929SOL     OW38248   3.330   3.328  16.742  0.1677  0.0512 -0.2815
 8929SOL    HW138249   3.266   3.257  16.737 -0.4468  0.6709 -1.3362
 8929SOL    HW238250   3.409   3.277  16.726  1.9882  3.2018 -1.4638
 8930SOL     OW38251   0.032   1.848   4.115  1.0801  0.4902 -0.0151
 8930SOL    HW138252   0.083   1.770   4.096  1.4751  0.1619  2.3677
 8930SOL    HW238253   0.103   1.901   4.152 -0.6007  3.0421 -0.4443
 8931SOL     OW38254   4.128   1.029   9.686  0.3114  0.4124 -0.0090
 8931SOL    HW138255   4.182   1.085   9.741  1.4997 -0.3846 -0.3612
 8931SOL    HW238256   4.132   1.089   9.611 -1.4581  0.9623  0.3386
 8932SOL     OW38257   1.358   3.937   3.510 -0.0740  0.2391  0.2461
 8932SOL    HW138258   1.317   3.929   3.424 -0.1355  0.0078  0.2981
 8932SOL    HW238259   1.335   4.028   3.528  2.0319  0.6773  0.7036
 8933SOL     OW38260   2.656   0.239   8.741  0.8974  0.0671 -0.2214
 8933SOL    HW138261   2.656   0.289   8.659  0.9359  0.2257 -0.1258
 8933SOL    HW238262   2.748   0.216   8.751  1.0542  0.7765 -0.0062
 8934SOL     OW38263   2.176   0.645   7.200 -0.0958 -0.6043  0.1548
 8934SOL    HW138264   2.188   0.731   7.241  0.4382  0.4713 -2.2230
 8934SOL    HW238265   2.103   0.606   7.247  0.0669  0.6234  1.4632
 8935SOL     OW38266   0.001   2.748   3.096 -0.3454  0.3064  0.4888
 8935SOL    HW138267   4.706   2.746   3.190 -1.0993 -2.0558  0.3082
 8935SOL    HW238268   4.647   2.696   3.071  1.6665 -2.4913  0.1266
 8936SOL     OW38269   4.003   4.447  11.815 -0.1677  0.2062  0.0472
 8936SOL    HW138270   3.983   4.539  11.832  1.1358  0.4129  0.4632
 8936SOL    HW238271   4.098   4.447  11.806 -0.1855 -0.9866 -0.1556
 8937SOL     OW38272   0.786   0.137  17.064 -0.1177 -0.5246 -0.1804
 8937SOL    HW138273   0.864   0.165  17.017 -0.3364  0.3756 -0.0109
 8937SOL    HW238274   0.775   0.193  17.141 -1.3795  0.5832 -1.1498
 8938SOL     OW38275   1.566   1.936   8.278 -0.3585  0.0410 -0.5554
 8938SOL    HW138276   1.528   2.024   8.280 -1.3744 -0.3284 -3.0739
 8938SOL    HW238277   1.612   1.937   8.361 -0.3945 -0.5688 -0.5282
 8939SOL     OW38278   2.016   1.202   9.499  0.1817 -0.0680 -0.1714
 8939SOL    HW138279   2.019   1.291   9.464 -1.2589 -0.9393 -2.5937
 8939SOL    HW238280   2.107   1.176   9.512  0.1972 -0.6029 -1.2876
 8940SOL     OW38281   1.280   4.440   3.233  0.4788 -0.5424  0.6160
 8940SOL    HW138282   1.310   4.354   3.206 -1.5551 -0.8580 -0.7009
 8940SOL    HW238283   1.186   4.422   3.243  0.1552  0.1686 -1.1851
 8941SOL     OW38284   0.195   0.261  12.969 -0.0321  0.6411 -0.6309
 8941SOL    HW138285   0.172   0.203  13.042  0.1212  1.9309  0.4427
 8941SOL    HW238286   0.174   0.345  13.011  0.5346 -0.6178  2.1551
 8942SOL     OW38287   4.675   4.530  12.091  0.0156 -0.6730  0.1962
 8942SOL    HW138288   4.711   4.442  12.100 -0.0015 -0.5637  1.3901
 8942SOL    HW238289   4.702   4.557  12.003 -1.3772 -0.5372 -0.1933
 8943SOL     OW38290   0.555   1.814   4.952  0.1445 -0.4168  0.0467
 8943SOL    HW138291   0.575   1.862   5.032 -1.5159 -1.1355  0.8907
 8943SOL    HW238292   0.464   1.791   4.968 -0.5365  2.1410 -0.2751
 8944SOL     OW38293   1.448   4.679  17.190 -0.1399  0.7716 -0.5890
 8944SOL    HW138294   1.443   4.614  17.120  1.6149  0.2355 -0.2202
 8944SOL    HW238295   1.471   0.030  17.133  0.2245  0.6509 -0.5986
 8945SOL     OW38296   3.206   3.692   4.369  0.6640 -0.1759  0.1202
 8945SOL    HW138297   3.166   3.710   4.454 -0.7679 -0.6722 -0.4439
 8945SOL    HW238298   3.135   3.644   4.325  0.4641 -0.0159  0.2683
 8946SOL     OW38299   1.301   0.054   6.900  0.0630 -0.2619 -0.0146
 8946SOL    HW138300   1.237   0.065   6.830 -0.6486 -1.2433  0.4772
 8946SOL    HW238301   1.367   0.122   6.887  0.4244 -0.2093  2.1235
 8947SOL     OW38302   2.369   2.522  15.459 -0.6706 -0.2432  0.0968
 8947SOL    HW138303   2.346   2.479  15.377 -0.4751  2.4541 -1.3658
 8947SOL    HW238304   2.435   2.588  15.438 -1.1747  0.2626  0.0842
 8948SOL     OW38305   1.724   2.247   3.964  0.2558 -0.1719 -0.9860
 8948SOL    HW138306   1.715   2.160   4.002  1.1714  0.2179  0.1437
 8948SOL    HW238307   1.731   2.292   4.048 -0.1712 -1.4668 -0.2616
 8949SOL     OW38308   1.381   4.416   4.168 -0.4899 -0.0106 -0.2312
 8949SOL    HW138309   1.327   4.441   4.093  0.6361  1.9589 -0.3860
 8949SOL    HW238310   1.427   4.497   4.190  1.3399 -1.3040  0.6648
 8950SOL     OW38311   1.253   2.664   0.810 -0.4788  0.5516  0.6123
 8950SOL    HW138312   1.292   2.616   0.737 -0.1529 -0.4884  1.4614
 8950SOL    HW238313   1.162   2.646   0.788 -0.1414 -0.6658  0.2067
 8951SOL     OW38314   3.389   3.851  13.665 -0.4713 -0.0417 -0.5823
 8951SOL    HW138315   3.369   3.891  13.580 -1.8624  0.7706  0.1371
 8951SOL    HW238316   3.448   3.778  13.644 -0.2554 -0.5778  1.9017
 8952SOL     OW38317   2.870   3.425   3.360 -0.5786  0.1999 -0.2440
 8952SOL    HW138318   2.878   3.332   3.340  2.4344  0.4771 -0.3405
 8952SOL    HW238319   2.949   3.425   3.415  0.2429  4.2546 -1.4126
 8953SOL     OW38320   1.103   3.044   3.617 -0.1030  0.3928 -0.0049
 8953SOL    HW138321   1.063   2.980   3.558  0.4748  1.6922 -1.7926
 8953SOL    HW238322   1.081   3.121   3.564  2.3008 -0.5638 -2.4460
 8954SOL     OW38323   4.532   2.369   8.544  0.3302 -0.2452 -0.1625
 8954SOL    HW138324   4.513   2.461   8.529  0.3510 -0.2593 -0.2786
 8954SOL    HW238325   4.549   2.334   8.456 -0.9120  0.0695 -0.5302
 8955SOL     OW38326   0.722   1.012   7.216  0.0883  0.0710  0.3642
 8955SOL    HW138327   0.745   1.039   7.127 -1.3712 -0.5949 -0.2191
 8955SOL    HW238328   0.638   1.055   7.226 -0.4149 -0.8549  0.0737
 8956SOL     OW38329   3.907   1.015   4.178  0.3440  0.3002  0.1182
 8956SOL    HW138330   3.877   1.105   4.179  0.8397  0.4605  0.5718
 8956SOL    HW238331   3.995   1.036   4.208  0.2598  1.1470 -0.2330
 8957SOL     OW38332   1.702   2.662   3.955 -0.4128  0.3020 -0.0497
 8957SOL    HW138333   1.769   2.608   3.996  1.0889  1.8728 -0.4753
 8957SOL    HW238334   1.695   2.623   3.868 -3.8126  0.1122  0.3042
 8958SOL     OW38335   1.888   1.629   2.570  1.1896  0.1028  0.0510
 8958SOL    HW138336   1.921   1.649   2.482  1.5712  0.2840  0.2358
 8958SOL    HW238337   1.863   1.712   2.610  1.7961  1.1207 -1.6867
 8959SOL     OW38338   1.591   2.758   8.203  0.8196 -0.1407  0.4948
 8959SOL    HW138339   1.620   2.830   8.146 -0.2478 -0.5854 -0.5975
 8959SOL    HW238340   1.567   2.692   8.138  0.9316 -0.2096  0.5226
 8960SOL     OW38341   3.983   4.357   8.482 -0.6724 -0.0303  0.0249
 8960SOL    HW138342   3.920   4.337   8.551  0.3027 -3.0824  0.0311
 8960SOL    HW238343   4.063   4.382   8.529 -0.4200  0.3934 -0.6236
 8961SOL     OW38344   1.448   1.305   8.469  0.1757 -0.0650  0.0942
 8961SOL    HW138345   1.373   1.348   8.511  0.9937  0.5497  0.9091
 8961SOL    HW238346   1.468   1.347   8.386  2.6833 -0.5375  0.4614
 8962SOL     OW38347   0.380   1.710  14.531 -0.2745  1.0436 -0.1384
 8962SOL    HW138348   0.405   1.742  14.617  1.8347  0.2877 -0.4665
 8962SOL    HW238349   0.443   1.735  14.464 -2.2032 -0.5390 -2.5427
 8963SOL     OW38350   1.055   0.561  10.748  0.0376  0.3169  0.3461
 8963SOL    HW138351   1.144   0.591  10.729 -0.1206  1.0140  0.6819
 8963SOL    HW238352   1.060   0.528  10.838  2.7184 -1.5377 -0.4904
 8964SOL     OW38353   2.029   0.063   9.078  0.1591 -0.3175  0.2315
 8964SOL    HW138354   2.031   0.134   9.142 -0.4212  0.8401 -1.0331
 8964SOL    HW238355   2.120   0.034   9.079  0.2057 -0.2004 -1.2452
 8965SOL     OW38356   3.863   2.195   3.862  0.0013 -0.3564 -0.4199
 8965SOL    HW138357   3.919   2.144   3.804  1.6266  2.0487 -0.9757
 8965SOL    HW238358   3.791   2.134   3.875  1.4960 -1.1934  4.2779
 8966SOL     OW38359   4.148   3.218   4.229 -0.1418 -0.3130  0.0383
 8966SOL    HW138360   4.114   3.156   4.164  1.9408 -1.3390 -0.0714
 8966SOL    HW238361   4.183   3.151   4.287 -1.3172 -0.8329  0.1328
 8967SOL     OW38362   3.571   3.068   5.452 -0.1327 -0.0530  0.3294
 8967SOL    HW138363   3.579   2.983   5.409  0.5134  1.4994 -2.5848
 8967SOL    HW238364   3.475   3.067   5.445 -0.1363  1.0920  0.3272
 8968SOL     OW38365   0.148   2.840   8.142 -0.2788  0.4299  0.4093
 8968SOL    HW138366   0.150   2.787   8.221 -1.6805 -0.3601 -0.0880
 8968SOL    HW238367   0.236   2.877   8.145  0.6877 -1.8105 -0.0394
 8969SOL     OW38368   0.436   1.058  17.558  0.0036  0.3605  0.1584
 8969SOL    HW138369   0.442   1.041  17.464 -1.5212 -0.8613  0.2773
 8969SOL    HW238370   0.355   1.015  17.586  0.3677 -0.2219  0.3004
 8970SOL     OW38371   0.426   4.503   2.011  0.0310  0.8810  0.6412
 8970SOL    HW138372   0.444   4.566   2.080  1.4228  2.2014 -0.9248
 8970SOL    HW238373   0.356   4.537   1.955 -1.4840 -3.1814  0.0765
 8971SOL     OW38374   0.515   3.429   7.339 -0.1774 -0.3464  0.2226
 8971SOL    HW138375   0.440   3.447   7.282  0.8205  1.9122 -0.3848
 8971SOL    HW238376   0.532   3.514   7.380 -1.6371  0.1067 -0.1029
 8972SOL     OW38377   2.577   3.475  11.622  0.8662 -0.0505 -0.6425
 8972SOL    HW138378   2.499   3.422  11.635  0.5675  0.8882  1.3747
 8972SOL    HW238379   2.536   3.561  11.620  0.4857 -0.1504  2.2338
 8973SOL     OW38380   0.467   1.390  10.005  0.8633  0.4562  0.5144
 8973SOL    HW138381   0.415   1.310  10.012  1.0737  0.1482 -1.3343
 8973SOL    HW238382   0.409   1.452  10.049 -0.6001 -0.9212  0.5163
 8974SOL     OW38383   3.234   3.270  16.383 -0.1071 -0.1246  0.4366
 8974SOL    HW138384   3.292   3.231  16.319 -0.4271 -0.1617  0.1710
 8974SOL    HW238385   3.185   3.334  16.332 -4.2729 -0.0180  4.5183
 8975SOL     OW38386   0.486   4.522   4.418 -0.6017 -0.8734  0.4872
 8975SOL    HW138387   0.424   4.578   4.464  0.3171  0.1218  0.5163
 8975SOL    HW238388   0.431   4.479   4.353 -0.4298 -1.4340  0.7173
 8976SOL     OW38389   3.852   4.302   6.559 -0.1130  0.3294 -0.5339
 8976SOL    HW138390   3.920   4.249   6.518  0.7829  2.1661 -1.4676
 8976SOL    HW238391   3.905   4.370   6.601 -0.2445  0.0637  0.0651
 8977SOL     OW38392   2.504   1.022   5.714  0.2982  0.3028 -0.5679
 8977SOL    HW138393   2.539   0.946   5.761  1.9086  2.2910  1.4456
 8977SOL    HW238394   2.588   1.060   5.688 -0.8750  2.8204 -0.7066
 8978SOL     OW38395   1.043   0.035   2.264 -0.1779  0.5949  0.1043
 8978SOL    HW138396   0.992   4.708   2.200  0.8608  1.0644 -1.0904
 8978SOL    HW238397   1.050   0.117   2.215  0.7236  0.2339 -0.3847
 8979SOL     OW38398   2.621   4.093   2.698 -1.0404  0.2044 -0.1434
 8979SOL    HW138399   2.543   4.064   2.746 -0.7890  0.8791  0.6616
 8979SOL    HW238400   2.677   4.121   2.770 -0.2794 -2.9847  0.4887
 8980SOL     OW38401   0.001   3.009   5.893  0.2928 -0.1057 -0.0284
 8980SOL    HW138402   4.683   2.986   5.810 -1.3811 -1.8001  1.2374
 8980SOL    HW238403   0.031   3.098   5.877  0.6948  0.0575  1.5947
 8981SOL     OW38404   0.770   2.445  16.079  0.1710  0.3613 -0.4806
 8981SOL    HW138405   0.795   2.353  16.088  3.0184  1.2827  1.0498
 8981SOL    HW238406   0.835   2.473  16.014  2.4411 -1.2069  1.1027
 8982SOL     OW38407   2.972   1.802  10.897 -0.5144  0.0680  0.0849
 8982SOL    HW138408   2.961   1.849  10.814 -0.1440  0.0304  0.0130
 8982SOL    HW238409   2.984   1.715  10.858 -0.9926  0.2130 -0.3843
 8983SOL     OW38410   4.722   3.876   3.166 -0.3274 -0.8275  0.2515
 8983SOL    HW138411   4.626   3.877   3.166 -0.3114  0.6974 -1.2102
 8983SOL    HW238412   0.015   3.940   3.236  0.9943 -0.1175 -0.6768
 8984SOL     OW38413   1.284   1.471   4.476  0.0238  0.1154  0.7446
 8984SOL    HW138414   1.291   1.422   4.394 -0.3976  1.4690 -0.1014
 8984SOL    HW238415   1.345   1.429   4.536 -2.7566 -2.0831  2.0778
 8985SOL     OW38416   3.318   0.462   6.287  0.1910 -0.0760 -0.3463
 8985SOL    HW138417   3.313   0.551   6.320 -2.2934 -0.8305  1.2832
 8985SOL    HW238418   3.227   0.434   6.281 -0.5367  1.9325  1.5819
 8986SOL     OW38419   2.748   1.260  11.157  0.2228 -0.4218 -0.1570
 8986SOL    HW138420   2.829   1.302  11.186 -0.6155  1.2791 -0.2249
 8986SOL    HW238421   2.726   1.200  11.228  0.1343  0.5696  0.6580
 8987SOL     OW38422   4.052   0.496   2.247  0.7630  0.0337  0.0917
 8987SOL    HW138423   4.025   0.556   2.177 -0.0446 -1.0286 -0.5092
 8987SOL    HW238424   4.088   0.562   2.306 -2.0793  2.2619 -0.6408
 8988SOL     OW38425   0.383   2.971  17.524  0.3971  0.4616 -0.2456
 8988SOL    HW138426   0.311   2.908  17.529  0.5772  0.2878  0.1458
 8988SOL    HW238427   0.396   2.984  17.618 -4.0340  1.3829  0.2105
 8989SOL     OW38428   0.219   3.958   6.694 -0.1477 -0.0473 -0.8740
 8989SOL    HW138429   0.149   3.895   6.680 -1.3523  1.0873  0.0209
 8989SOL    HW238430   0.275   3.941   6.618  0.1504  1.1299 -0.9240
 8990SOL     OW38431   3.215   4.342   2.068  0.1142 -0.2428 -0.2900
 8990SOL    HW138432   3.164   4.398   2.127  0.0447 -0.6644  0.0424
 8990SOL    HW238433   3.171   4.343   1.982 -2.3085 -5.1805  0.8757
 8991SOL     OW38434   3.749   1.737  15.425 -0.0164  0.1014 -0.3862
 8991SOL    HW138435   3.799   1.765  15.349 -0.6554  0.3344 -0.7234
 8991SOL    HW238436   3.661   1.768  15.403  0.3364 -0.2308 -2.2006
 8992SOL     OW38437   0.199   1.412   5.756  0.4648  0.8519 -0.0197
 8992SOL    HW138438   0.290   1.429   5.731  0.6693  0.4953  0.4807
 8992SOL    HW238439   0.204   1.442   5.846  1.0178  0.7783 -0.0232
 8993SOL     OW38440   1.481   4.520   8.952  0.8473 -0.5143 -0.3453
 8993SOL    HW138441   1.548   4.540   9.017  0.4380 -1.5651  0.3871
 8993SOL    HW238442   1.408   4.482   9.000  0.8078 -1.0524 -0.8312
 8994SOL     OW38443   4.658   3.985   6.200  0.2211 -0.1644 -0.4421
 8994SOL    HW138444   4.700   4.032   6.273 -1.6249 -0.7066  0.9579
 8994SOL    HW238445   4.597   4.051   6.170 -0.0298 -0.1673  0.0563
 8995SOL     OW38446   3.530   4.123   3.147  0.4721 -0.4638 -0.4514
 8995SOL    HW138447   3.509   4.100   3.057  0.2703 -0.3223 -0.4414
 8995SOL    HW238448   3.623   4.147   3.139 -0.4841  3.3886 -0.4063
 8996SOL     OW38449   0.637   2.205   6.725  0.2266  0.6708 -0.0549
 8996SOL    HW138450   0.582   2.261   6.671 -0.9399 -0.5405 -0.1028
 8996SOL    HW238451   0.673   2.134   6.672 -0.9972 -0.5135  0.7076
 8997SOL     OW38452   4.225   2.205   7.362 -0.1215 -0.2704 -0.0654
 8997SOL    HW138453   4.143   2.228   7.318 -0.1366 -0.6665 -0.2470
 8997SOL    HW238454   4.273   2.288   7.357  0.0573 -0.3458  0.4345
 8998SOL     OW38455   1.477   4.068   6.114 -0.2920  0.3873 -0.1642
 8998SOL    HW138456   1.406   4.125   6.084 -1.7010 -0.6734  1.1985
 8998SOL    HW238457   1.483   4.015   6.035 -0.8494 -0.5216  0.4080
 8999SOL     OW38458   3.379   3.559  10.019 -0.5501 -0.0104 -0.3549
 8999SOL    HW138459   3.399   3.591  10.107 -1.5912 -3.0586  1.0145
 8999SOL    HW238460   3.292   3.524  10.040  0.6738 -2.8379  0.0460
 9000SOL     OW38461   3.913   0.192  16.671  0.4420 -0.6744 -0.1275
 9000SOL    HW138462   3.886   0.271  16.716  1.3280  0.6892 -1.9555
 9000SOL    HW238463   3.842   0.189  16.607 -1.0951 -2.0544  1.6504
 9001SOL     OW38464   1.239   0.688  11.975  0.0435  0.2243 -0.0980
 9001SOL    HW138465   1.257   0.594  11.975  0.6084  0.3258 -0.9006
 9001SOL    HW238466   1.328   0.719  11.995  0.3902 -1.0534  0.2888
 9002SOL     OW38467   1.098   1.840   3.335  0.0750 -0.1753 -0.1637
 9002SOL    HW138468   1.150   1.911   3.373  0.9538 -0.3909 -0.9642
 9002SOL    HW238469   1.011   1.853   3.374 -0.1812 -0.2440 -0.7107
 9003SOL     OW38470   3.371   1.065  17.476 -0.2886  0.1085  0.2623
 9003SOL    HW138471   3.370   0.969  17.472 -0.4429  0.0010  3.0998
 9003SOL    HW238472   3.457   1.082  17.439  0.0649 -2.0388  0.0777
 9004SOL     OW38473   0.598   4.548   5.509  0.2607 -0.0931 -0.0234
 9004SOL    HW138474   0.558   4.475   5.557  0.4201 -1.0888 -1.3872
 9004SOL    HW238475   0.598   4.612   5.579 -1.2104  0.5110 -0.5806
 9005SOL     OW38476   2.899   2.817   4.963 -0.1312  0.6374 -0.2152
 9005SOL    HW138477   2.994   2.820   4.949 -0.1849  0.3649 -0.6283
 9005SOL    HW238478   2.889   2.855   5.051  1.1266  0.9323 -0.2034
 9006SOL     OW38479   3.485   0.656   6.823  0.4550 -0.2673  0.4086
 9006SOL    HW138480   3.551   0.646   6.891  3.2897  2.2837 -1.9425
 9006SOL    HW238481   3.526   0.592   6.765 -0.6844  2.1870 -3.1804
 9007SOL     OW38482   4.521   0.942  17.102  0.1235  0.3756  0.0693
 9007SOL    HW138483   4.543   1.035  17.109  1.5417 -0.0039  0.5522
 9007SOL    HW238484   4.519   0.938  17.007 -1.5145  2.9615 -0.0075
 9008SOL     OW38485   2.547   2.646  16.837  0.3775 -0.0090 -0.3946
 9008SOL    HW138486   2.555   2.684  16.924  4.4615  0.5648 -0.9977
 9008SOL    HW238487   2.638   2.646  16.808  0.2867 -0.4277 -0.6849
 9009SOL     OW38488   0.574   1.880  10.101 -0.1398  0.8177 -0.4333
 9009SOL    HW138489   0.562   1.935  10.178  0.5148  1.6333 -0.9123
 9009SOL    HW238490   0.612   1.798  10.132 -0.2150  1.2180  0.7183
 9010SOL     OW38491   1.957   4.070   9.441  0.1184  0.0196  0.1414
 9010SOL    HW138492   1.891   4.095   9.376  2.7209  2.9234 -1.3851
 9010SOL    HW238493   1.905   4.061   9.521  1.4614 -2.0403  0.7992
 9011SOL     OW38494   1.985   0.520   5.956 -0.6786  0.4365 -0.0833
 9011SOL    HW138495   1.914   0.576   5.926  0.8947  1.7578 -1.3364
 9011SOL    HW238496   1.937   0.448   5.998  0.6200  0.0805  0.8053
 9012SOL     OW38497   3.822   2.755   8.930 -0.1750 -0.5073 -0.0101
 9012SOL    HW138498   3.830   2.803   9.013 -0.1908  1.4626 -1.1505
 9012SOL    HW238499   3.863   2.675   8.963 -0.1567 -0.9819 -1.1905
 9013SOL     OW38500   0.263   4.393   7.703  0.2968 -0.4895  0.0753
 9013SOL    HW138501   0.263   4.480   7.742 -1.1184 -0.2562 -0.4834
 9013SOL    HW238502   0.329   4.336   7.743 -0.3744 -1.9473 -0.9147
 9014SOL     OW38503   0.629   2.720   7.200  1.1974  0.5261 -0.2709
 9014SOL    HW138504   0.652   2.699   7.291  0.0154  4.1583  0.8826
 9014SOL    HW238505   0.704   2.772   7.171  3.1668 -0.3496  3.2905
 9015SOL     OW38506   0.827   3.918   5.146 -0.9132 -0.0872  0.4355
 9015SOL    HW138507   0.828   3.894   5.238 -0.5783 -0.2794  0.3821
 9015SOL    HW238508   0.764   3.991   5.150  1.0182  1.7356 -1.9447
 9016SOL     OW38509   1.127   1.564  12.700 -0.4129 -0.1317  0.1676
 9016SOL    HW138510   1.172   1.550  12.784  0.2221 -1.4597 -0.4029
 9016SOL    HW238511   1.060   1.497  12.707 -2.2980  1.8574  1.0855
 9017SOL     OW38512   1.247   0.774   4.788  0.2533  0.2152 -0.0624
 9017SOL    HW138513   1.286   0.860   4.776  0.4840  0.0503 -0.4985
 9017SOL    HW238514   1.320   0.731   4.832 -0.4092  1.2370  2.0310
 9018SOL     OW38515   1.559   0.321   4.085  0.2834 -0.1438 -0.4092
 9018SOL    HW138516   1.601   0.239   4.113  1.0296  0.6286  0.7373
 9018SOL    HW238517   1.472   0.285   4.101 -2.2199  4.9653 -2.5820
 9019SOL     OW38518   0.526   2.961   6.088 -0.0443  0.1853  0.0052
 9019SOL    HW138519   0.485   2.961   6.175 -1.1811  1.2895 -0.5330
 9019SOL    HW238520   0.524   3.054   6.067 -0.4752  0.1772  0.0200
 9020SOL     OW38521   2.225   4.148  13.801  0.4347  0.0868  0.1471
 9020SOL    HW138522   2.169   4.222  13.825  0.4862 -0.0333  0.6406
 9020SOL    HW238523   2.177   4.111  13.727  0.1848 -1.0207  0.8656
 9021SOL     OW38524   0.705   3.717   4.088 -0.1492  0.2262  0.6277
 9021SOL    HW138525   0.665   3.634   4.065  2.2955 -0.4728 -0.9740
 9021SOL    HW238526   0.793   3.694   4.117  0.3451  1.1009 -0.1836
 9022SOL     OW38527   3.431   2.805   5.083 -0.1754 -0.6558 -0.3770
 9022SOL    HW138528   3.491   2.803   5.009 -0.2921  0.4380 -0.4935
 9022SOL    HW238529   3.358   2.747   5.059 -1.1667 -0.9576  3.3490
 9023SOL     OW38530   2.579   2.903   3.413  0.4879 -0.1423  0.6866
 9023SOL    HW138531   2.545   2.990   3.389 -0.7860 -0.8647 -0.1496
 9023SOL    HW238532   2.535   2.894   3.497 -0.9942  1.1369  0.0567
 9024SOL     OW38533   0.262   4.606   5.617 -0.2633  0.2570  0.5797
 9024SOL    HW138534   0.270   4.609   5.713  0.8470 -2.0268  0.5329
 9024SOL    HW238535   0.283   4.699   5.610  0.8460 -0.0843 -0.5720
 9025SOL     OW38536   1.087   1.809   0.658  0.1556  0.4660  0.5824
 9025SOL    HW138537   0.992   1.827   0.659 -0.1966 -1.4290  0.6058
 9025SOL    HW238538   1.102   1.753   0.582  1.7959  1.3575  0.2626
 9026SOL     OW38539   0.661   3.492  14.382 -0.1271  0.4671 -0.0602
 9026SOL    HW138540   0.659   3.403  14.347  0.4407 -0.9251  3.3953
 9026SOL    HW238541   0.617   3.491  14.467 -0.4701  2.1936 -0.2339
 9027SOL     OW38542   0.526   0.503   2.731  0.0233 -0.1349 -0.5403
 9027SOL    HW138543   0.473   0.470   2.803  3.7081 -0.4432  2.0173
 9027SOL    HW238544   0.468   0.498   2.655 -0.1060  0.2084 -0.4634
 9028SOL     OW38545   2.563   1.302   1.533 -0.4678  0.0447 -0.3263
 9028SOL    HW138546   2.518   1.230   1.578  0.5312 -0.4017 -0.0275
 9028SOL    HW238547   2.509   1.317   1.456  0.2737  1.6690 -0.5321
 9029SOL     OW38548   0.757   0.107   3.803 -0.5344 -0.4968  0.3274
 9029SOL    HW138549   0.792   0.072   3.721 -2.1154 -1.6318  0.1288
 9029SOL    HW238550   0.668   0.071   3.803 -0.4171 -0.7816 -0.6925
 9030SOL     OW38551   1.277   1.966  14.123  0.3116 -0.3906  0.7155
 9030SOL    HW138552   1.281   1.915  14.204 -2.4933 -1.2536  0.3260
 9030SOL    HW238553   1.361   2.010  14.130  1.6332 -2.9040  0.7302
 9031SOL     OW38554   1.946   2.694   6.938  0.1450  0.1413 -0.0658
 9031SOL    HW138555   1.901   2.733   7.013 -0.8636 -0.6461 -0.2707
 9031SOL    HW238556   1.876   2.701   6.874  0.7114 -0.7389 -0.7884
 9032SOL     OW38557   3.493   0.789   7.964 -0.5613  0.0978  0.0518
 9032SOL    HW138558   3.472   0.801   7.871  1.3161  0.9402 -0.2538
 9032SOL    HW238559   3.521   0.697   7.963 -0.8435 -0.0022  1.4563
 9033SOL     OW38560   0.503   3.432   2.917  0.3140  0.3620 -0.7978
 9033SOL    HW138561   0.498   3.502   2.982  0.5222 -0.2788 -0.0893
 9033SOL    HW238562   0.431   3.463   2.861 -1.2594 -2.4460 -0.3038
 9034SOL     OW38563   3.482   2.839   6.853 -0.1240  0.0703  0.7330
 9034SOL    HW138564   3.563   2.839   6.904  1.2064 -0.3486 -1.4000
 9034SOL    HW238565   3.495   2.769   6.789 -1.3687 -0.5052  1.1071
 9035SOL     OW38566   4.182   0.406   9.981 -0.0362  0.8352  0.3074
 9035SOL    HW138567   4.205   0.495  10.008  1.3968 -0.0619  2.0358
 9035SOL    HW238568   4.219   0.354  10.053  0.1216 -1.0597 -1.1299
 9036SOL     OW38569   4.505   1.970   0.217 -0.2580 -0.1741 -0.3560
 9036SOL    HW138570   4.557   1.913   0.273 -0.9960  0.9363  1.4493
 9036SOL    HW238571   4.572   1.999   0.155 -1.3270  2.1307 -0.4401
 9037SOL     OW38572   0.374   3.738   2.036  0.0701  0.2662 -0.2825
 9037SOL    HW138573   0.305   3.805   2.038 -3.0473 -3.0426  3.9861
 9037SOL    HW238574   0.315   3.662   2.044 -1.1288  0.9448 -2.4365
 9038SOL     OW38575   3.762   4.468   3.011 -0.2840  0.7887  0.3899
 9038SOL    HW138576   3.762   4.372   3.009  0.8763  0.8410 -1.9504
 9038SOL    HW238577   3.727   4.503   3.093  0.7036  0.8170  0.7916
 9039SOL     OW38578   2.859   2.611  12.810 -0.0981 -0.3429  0.5964
 9039SOL    HW138579   2.914   2.659  12.748  0.7665 -0.2327  1.4589
 9039SOL    HW238580   2.845   2.522  12.776  1.2359 -0.4653  0.3653
 9040SOL     OW38581   0.740   3.911   9.480 -0.3737  0.0878  1.0878
 9040SOL    HW138582   0.704   3.899   9.392  1.3630 -1.5020  0.5984
 9040SOL    HW238583   0.735   4.007   9.483 -1.5756  0.0894 -1.3117
 9041SOL     OW38584   3.418   2.631   6.207 -0.4093  0.1378  0.0419
 9041SOL    HW138585   3.350   2.625   6.273  0.1510  0.6748  0.6590
 9041SOL    HW238586   3.417   2.725   6.192  1.5752 -0.0051 -1.0331
 9042SOL     OW38587   0.201   1.467  10.814 -0.3495  0.0501  0.2046
 9042SOL    HW138588   0.206   1.493  10.906 -0.0018 -1.3841  0.5938
 9042SOL    HW238589   0.227   1.375  10.821 -0.7125 -0.1833 -1.3890
 9043SOL     OW38590   2.628   2.096   2.869 -0.3675  0.3353 -0.0805
 9043SOL    HW138591   2.533   2.085   2.873 -0.2045  0.3024  3.4317
 9043SOL    HW238592   2.652   2.098   2.776 -2.1133 -3.8810 -0.6179
 9044SOL     OW38593   2.460   0.098   6.847  0.6178 -0.5019  0.3064
 9044SOL    HW138594   2.390   0.156   6.877  0.2073 -1.3951  1.0859
 9044SOL    HW238595   2.413   0.017   6.828 -1.3304  0.5292  0.6928
 9045SOL     OW38596   3.982   3.256  10.277  0.5370 -0.2991 -0.2489
 9045SOL    HW138597   3.921   3.269  10.204 -0.6835 -0.2425  0.7794
 9045SOL    HW238598   4.014   3.165  10.275  2.5530  0.4056  0.1602
 9046SOL     OW38599   0.774   2.641   2.077 -0.1707 -0.4828 -0.0848
 9046SOL    HW138600   0.684   2.639   2.044  0.8760  0.2708 -2.9435
 9046SOL    HW238601   0.816   2.649   1.992  1.3396 -0.3041  0.6643
 9047SOL     OW38602   0.406   1.378   3.777 -0.0056  0.7410  0.0324
 9047SOL    HW138603   0.470   1.313   3.805 -1.7723 -0.7812  0.5373
 9047SOL    HW238604   0.452   1.418   3.703 -1.1395 -0.2818 -1.2114
 9048SOL     OW38605   3.409   0.394   1.706 -0.1699  0.0904 -0.4390
 9048SOL    HW138606   3.361   0.374   1.626  1.2353  0.1832 -1.2905
 9048SOL    HW238607   3.346   0.451   1.750  0.4543 -2.1713  3.4165
 9049SOL     OW38608   1.651   1.484   3.144 -0.1223  0.2247  0.1577
 9049SOL    HW138609   1.734   1.522   3.174 -0.0158  0.9101 -0.9876
 9049SOL    HW238610   1.631   1.426   3.217  0.2332 -0.8844 -0.6100
 9050SOL     OW38611   1.824   0.715  10.080  0.3686 -0.1762  0.4350
 9050SOL    HW138612   1.735   0.685  10.097  0.5350 -0.8930  0.0507
 9050SOL    HW238613   1.878   0.691  10.155 -0.5821  0.2160  1.2394
 9051SOL     OW38614   4.452   1.483  16.109 -0.0609 -0.0469 -0.3273
 9051SOL    HW138615   4.488   1.414  16.053 -1.9531 -0.5119 -0.9601
 9051SOL    HW238616   4.386   1.434  16.159  0.9541 -0.1926  0.8898
 9052SOL     OW38617   0.634   0.940   5.346 -0.2429 -0.2948  0.2164
 9052SOL    HW138618   0.646   1.014   5.405  0.2987  0.0486 -0.3202
 9052SOL    HW238619   0.723   0.903   5.346  0.8026  2.2142  0.2224
 9053SOL     OW38620   0.686   4.649   9.645  0.1332 -0.0624  0.1092
 9053SOL    HW138621   0.726   4.564   9.662  0.2156 -0.3826 -1.6021
 9053SOL    HW238622   0.748   4.676   9.577  0.7042  0.9051  1.0076
 9054SOL     OW38623   0.963   0.549   5.389 -0.3139  0.1028 -0.1379
 9054SOL    HW138624   1.037   0.606   5.408 -1.2778  1.4441 -0.4243
 9054SOL    HW238625   0.996   0.470   5.433  0.2130 -0.7331 -2.0266
 9055SOL     OW38626   3.953   4.027   9.810  0.7701 -0.0658  0.3169
 9055SOL    HW138627   3.991   4.108   9.843 -1.1188  0.5635  0.9278
 9055SOL    HW238628   3.883   4.064   9.757  0.5795 -1.8458 -0.6719
 9056SOL     OW38629   4.522   1.303   5.488 -0.1793 -0.0113  0.0940
 9056SOL    HW138630   4.578   1.261   5.553 -1.9128 -0.8014  1.0858
 9056SOL    HW238631   4.512   1.387   5.533  0.4814 -0.2156  0.6205
 9057SOL     OW38632   2.975   0.924   4.246  0.0539  0.1375  0.0659
 9057SOL    HW138633   3.070   0.934   4.255 -0.0719  0.6013  0.8980
 9057SOL    HW238634   2.981   0.859   4.176 -1.2365  2.0389 -1.8227
 9058SOL     OW38635   0.373   3.743  14.987  0.1150 -0.5298 -0.4993
 9058SOL    HW138636   0.393   3.745  14.893 -0.3167 -0.2664 -0.5861
 9058SOL    HW238637   0.279   3.732  14.973  0.2535  0.0909 -1.9734
 9059SOL     OW38638   1.622   4.245   6.948  0.2916 -0.6067  0.0378
 9059SOL    HW138639   1.587   4.160   6.920  0.0885 -0.6422  0.4016
 9059SOL    HW238640   1.557   4.309   6.920 -0.1446  0.0196  2.4922
 9060SOL     OW38641   1.827   4.052   9.660 -0.0362  0.1857  0.1577
 9060SOL    HW138642   1.739   4.080   9.687  0.5701  1.4410  0.8440
 9060SOL    HW238643   1.874   4.127   9.698  1.8782 -1.5644  1.2262
 9061SOL     OW38644   0.018   3.188  14.828 -0.0918 -0.3054  0.2487
 9061SOL    HW138645   0.096   3.233  14.795 -1.6128  1.3197 -1.1206
 9061SOL    HW238646   4.684   3.168  14.752 -1.4382  2.3996  0.5569
 9062SOL     OW38647   4.019   4.621  13.229  0.1689 -0.2365 -0.6128
 9062SOL    HW138648   4.022   4.590  13.138  2.5465  1.2012 -1.0306
 9062SOL    HW238649   4.045   4.712  13.212 -2.2904  0.4390 -0.6924
 9063SOL     OW38650   2.149   4.564   5.609 -0.2255  0.2221  0.2122
 9063SOL    HW138651   2.144   4.503   5.535  1.9558 -0.4866  0.6359
 9063SOL    HW238652   2.171   4.507   5.683 -2.4756 -1.1048 -0.1347
 9064SOL     OW38653   4.221   4.501   8.109  0.1960 -0.5242 -0.5555
 9064SOL    HW138654   4.170   4.574   8.146  0.7422 -0.2036 -0.4402
 9064SOL    HW238655   4.311   4.530   8.123  0.4605 -1.2164 -0.8364
 9065SOL     OW38656   0.868   1.687   4.598 -0.8956  0.5715 -0.2641
 9065SOL    HW138657   0.945   1.664   4.650 -1.3777 -2.2648 -0.8140
 9065SOL    HW238658   0.849   1.606   4.551 -2.4384 -0.5885  2.3486
 9066SOL     OW38659   0.490   2.793   3.183  0.3143 -0.1411 -0.4629
 9066SOL    HW138660   0.445   2.842   3.251  1.7275 -2.6750  2.2779
 9066SOL    HW238661   0.552   2.861   3.155  0.6780  0.1092  0.9801
 9067SOL     OW38662   0.840   1.743  16.167  0.1112 -0.0346  0.7362
 9067SOL    HW138663   0.845   1.760  16.261 -0.8688 -1.1839  1.0122
 9067SOL    HW238664   0.920   1.761  16.119  0.0473 -0.5009  0.4528
 9068SOL     OW38665   1.430   3.424   1.031 -0.1686  0.0083  0.6537
 9068SOL    HW138666   1.408   3.456   1.118  0.8734 -0.8188  1.2285
 9068SOL    HW238667   1.440   3.330   1.049 -0.4258 -0.5703 -2.2584
 9069SOL     OW38668   0.548   0.406   4.691  0.2745 -0.0843 -0.0471
 9069SOL    HW138669   0.554   0.468   4.618  0.2432 -0.6113 -0.5000
 9069SOL    HW238670   0.469   0.437   4.735 -0.6642 -2.4757 -0.0779
 9070SOL     OW38671   4.658   1.617   3.895 -0.2307 -0.3753  0.1501
 9070SOL    HW138672   4.600   1.587   3.965 -1.3574  1.3615 -0.0468
 9070SOL    HW238673   4.701   1.534   3.877  3.0589  1.1129  1.1981
 9071SOL     OW38674   4.247   0.995   0.849 -0.0585 -0.0286  0.8158
 9071SOL    HW138675   4.185   0.923   0.862  1.2601 -1.2012  0.5531
 9071SOL    HW238676   4.259   1.015   0.942 -0.9331 -0.6597  1.0625
 9072SOL     OW38677   0.824   1.435   4.477 -1.2037 -0.2943 -0.2712
 9072SOL    HW138678   0.878   1.364   4.444 -0.4457 -0.4946  1.4374
 9072SOL    HW238679   0.784   1.471   4.397  0.7311  0.2200 -1.0284
 9073SOL     OW38680   4.397   3.800   3.343  0.0598 -0.1090 -0.7169
 9073SOL    HW138681   4.408   3.827   3.252  0.6456  3.0260  0.2744
 9073SOL    HW238682   4.485   3.770   3.366  0.5936  1.9827 -0.0878
 9074SOL     OW38683   0.803   4.090   9.759  0.1401 -0.2494  0.4788
 9074SOL    HW138684   0.778   4.160   9.819  0.3685 -1.2123  1.6876
 9074SOL    HW238685   0.826   4.139   9.680  0.7842 -0.3141  0.6305
 9075SOL     OW38686   1.038   1.549   0.093 -0.1535  0.0049  0.6006
 9075SOL    HW138687   1.030   1.535  17.689 -4.6595 -3.6190  1.5259
 9075SOL    HW238688   0.973   1.492   0.136 -1.9776  1.1727 -0.6052
 9076SOL     OW38689   0.952   1.548  10.555 -0.1742 -0.2465  0.2019
 9076SOL    HW138690   0.933   1.475  10.614 -2.1810  0.6323  0.6554
 9076SOL    HW238691   0.862   1.551  10.522 -0.3668 -0.2654  0.7256
 9077SOL     OW38692   3.589   2.136   6.655  0.1614  0.4779 -0.2026
 9077SOL    HW138693   3.547   2.137   6.570 -1.1299  0.7338  0.4423
 9077SOL    HW238694   3.619   2.227   6.653  0.0494  0.4918 -0.9697
 9078SOL     OW38695   3.991   3.963   8.917  0.0955 -0.0850  0.6040
 9078SOL    HW138696   4.041   3.916   8.984  1.7670  2.8550  1.4112
 9078SOL    HW238697   4.056   3.978   8.849 -0.0018 -1.1924  0.2611
 9079SOL     OW38698   0.064   1.525  14.383  0.4090 -0.0318 -0.2129
 9079SOL    HW138699   0.004   1.576  14.329 -0.8695 -0.6032  0.6512
 9079SOL    HW238700   0.004   1.456  14.413 -1.6822  1.7615 -0.2431
 9080SOL     OW38701   1.129   2.712   0.408  0.3830 -0.2648  0.3347
 9080SOL    HW138702   1.160   2.800   0.429 -0.5125  0.1265 -0.0018
 9080SOL    HW238703   1.099   2.673   0.490 -0.3026 -0.5314 -0.0445
 9081SOL     OW38704   0.062   2.667   8.860  0.0959 -0.3041 -0.2698
 9081SOL    HW138705   4.719   2.598   8.859  1.5598 -1.6527 -1.6854
 9081SOL    HW238706   0.029   2.717   8.934  0.9375 -2.6091  1.6440
 9082SOL     OW38707   0.499   0.376  12.813  0.6256 -0.4020 -0.4946
 9082SOL    HW138708   0.490   0.457  12.863  1.3265 -0.7405  0.1778
 9082SOL    HW238709   0.545   0.405  12.734 -0.6460 -0.5083 -1.2764
 9083SOL     OW38710   2.577   1.819   7.665 -0.4033 -0.5727 -0.3876
 9083SOL    HW138711   2.618   1.905   7.657 -0.0384 -0.3936  3.3566
 9083SOL    HW238712   2.539   1.823   7.752 -2.6431  0.2260 -1.4114
 9084SOL     OW38713   3.382   3.445   2.918  0.4310  0.0695 -0.1214
 9084SOL    HW138714   3.333   3.508   2.864  1.7943 -0.8306 -2.4117
 9084SOL    HW238715   3.309   3.425   2.976 -0.3017 -2.5460 -1.9495
 9085SOL     OW38716   4.139   2.988   7.966 -0.2603 -0.5722 -0.6674
 9085SOL    HW138717   4.204   3.058   7.963  0.1255 -0.8636  0.6608
 9085SOL    HW238718   4.189   2.913   7.935  0.4713 -0.9538  1.3982
 9086SOL     OW38719   3.272   2.073   5.182 -1.0647 -0.4478 -0.2919
 9086SOL    HW138720   3.178   2.089   5.188 -1.4002 -1.9088 -1.4165
 9086SOL    HW238721   3.309   2.157   5.157  0.6768 -0.9770  0.4744
 9087SOL     OW38722   4.536   0.978   5.741 -0.5368  0.1827  0.3230
 9087SOL    HW138723   4.487   0.904   5.779  1.1353  0.7501  3.5510
 9087SOL    HW238724   4.484   1.055   5.765 -0.6868  0.2862 -0.3261
 9088SOL     OW38725   2.262   1.475  14.796 -0.2296  0.0774  0.1700
 9088SOL    HW138726   2.301   1.525  14.724 -0.1989 -1.5231 -0.9039
 9088SOL    HW238727   2.340   1.466  14.852 -0.1274 -0.2015 -0.0210
 9089SOL     OW38728   2.786   0.704  15.972 -0.1111 -0.1689 -0.4889
 9089SOL    HW138729   2.748   0.675  15.889 -1.0271  0.7832 -0.3995
 9089SOL    HW238730   2.870   0.722  15.930  0.1269 -1.7684 -0.6881
 9090SOL     OW38731   2.016   3.072   5.269  0.3796 -0.0506 -0.5196
 9090SOL    HW138732   2.034   3.166   5.268  2.8038 -0.5198 -1.4126
 9090SOL    HW238733   2.012   3.049   5.362  2.6165  1.9769  0.0675
 9091SOL     OW38734   3.571   4.161   8.320 -0.2988 -0.2888  0.1269
 9091SOL    HW138735   3.613   4.224   8.378 -0.2183  1.2712 -1.6140
 9091SOL    HW238736   3.504   4.122   8.376  0.7661 -0.1463  1.4801
 9092SOL     OW38737   2.113   2.100   3.378 -0.6037 -0.2504 -0.1821
 9092SOL    HW138738   2.205   2.125   3.385 -0.1343 -1.7091 -1.1477
 9092SOL    HW238739   2.110   2.018   3.428  0.3332 -0.0562  0.1863
 9093SOL     OW38740   2.819   0.910   1.102  0.9170  0.4398 -0.4146
 9093SOL    HW138741   2.802   0.989   1.051  2.0379  2.2340  2.0217
 9093SOL    HW238742   2.797   0.945   1.189  2.4994  0.0057  0.1531
 9094SOL     OW38743   1.362   4.465   6.090  0.0006 -0.4587 -0.1162
 9094SOL    HW138744   1.344   4.542   6.036 -2.4664 -0.3288  0.9009
 9094SOL    HW238745   1.321   4.394   6.041 -1.1137  0.4133 -0.4516
 9095SOL     OW38746   3.858   2.962   1.954 -0.3117  0.2453  0.3760
 9095SOL    HW138747   3.839   2.924   2.039 -0.3443 -1.0330 -0.2069
 9095SOL    HW238748   3.775   2.982   1.911  0.2310 -0.7696 -1.1785
 9096SOL     OW38749   3.283   0.419   4.929 -0.1193  0.3185 -0.1896
 9096SOL    HW138750   3.330   0.384   5.005 -1.8667  0.0929  0.7885
 9096SOL    HW238751   3.220   0.471   4.978 -0.1642 -1.2358  1.4008
 9097SOL     OW38752   4.217   2.840   2.315  0.1454 -0.1355  0.3226
 9097SOL    HW138753   4.295   2.856   2.369  1.0122 -0.7965 -0.7441
 9097SOL    HW238754   4.234   2.747   2.298 -0.9643 -0.1585 -0.6182
 9098SOL     OW38755   1.381   1.017   4.869 -0.4141  0.5525  0.2516
 9098SOL    HW138756   1.361   1.043   4.959 -1.8392 -3.1934  1.0231
 9098SOL    HW238757   1.359   1.093   4.815  2.2439  0.0543 -1.5195
 9099SOL     OW38758   2.559   1.761   2.564  0.1054  0.2322  0.1030
 9099SOL    HW138759   2.622   1.744   2.494 -1.4946 -0.2597 -1.2350
 9099SOL    HW238760   2.502   1.828   2.526  0.0995 -0.5483 -1.2833
 9100SOL     OW38761   0.650   0.076   2.325  0.0610 -0.2903 -0.0380
 9100SOL    HW138762   0.683   4.719   2.367  0.7839 -1.0120 -1.9436
 9100SOL    HW238763   0.569   0.040   2.288  0.5090  1.6149 -2.9233
 9101SOL     OW38764   2.286   3.209  13.246  0.1418  0.1718  0.5797
 9101SOL    HW138765   2.315   3.168  13.164  0.1563 -0.6421  0.9930
 9101SOL    HW238766   2.206   3.250  13.215 -0.1971 -1.7157 -1.1086
 9102SOL     OW38767   0.104   3.676  14.899 -1.2043  0.2984 -0.6007
 9102SOL    HW138768   0.043   3.749  14.902 -0.3219  1.0705 -1.6088
 9102SOL    HW238769   0.047   3.601  14.882  0.5035 -0.3798 -3.2562
 9103SOL     OW38770   0.864   3.202   9.057  0.2828  0.6814 -0.1118
 9103SOL    HW138771   0.813   3.233   9.132  0.6859  2.8645 -0.7293
 9103SOL    HW238772   0.941   3.258   9.067  0.4914  0.1333  1.3962
 9104SOL     OW38773   0.439   4.267   9.959 -0.0077 -0.1757 -0.1012
 9104SOL    HW138774   0.532   4.246   9.949 -0.1511 -0.5208 -0.7286
 9104SOL    HW238775   0.421   4.318   9.880 -2.5718  0.8193  1.1406
 9105SOL     OW38776   3.033   2.658   5.395  0.0295  0.4148  0.1699
 9105SOL    HW138777   2.983   2.592   5.443  0.7468  1.5651  2.5014
 9105SOL    HW238778   2.980   2.734   5.421 -0.6090 -0.0938  0.3684
 9106SOL     OW38779   1.625   0.808   4.810  0.9697 -0.5017 -0.6053
 9106SOL    HW138780   1.561   0.877   4.827  0.9197 -0.8394  0.5503
 9106SOL    HW238781   1.633   0.768   4.896 -1.4360  0.0170 -0.1443
 9107SOL     OW38782   3.512   0.242   7.311 -0.4451  0.1148  0.7925
 9107SOL    HW138783   3.520   0.147   7.302  1.1045  0.3037  0.1697
 9107SOL    HW238784   3.569   0.245   7.387  1.9117  0.2984 -0.9742
 9108SOL     OW38785   1.694   3.588   2.522  0.4912  0.8338 -0.0927
 9108SOL    HW138786   1.757   3.518   2.540 -0.3062 -0.0356 -0.7036
 9108SOL    HW238787   1.694   3.581   2.427 -0.7549 -1.8713  0.1062
 9109SOL     OW38788   4.702   3.385   3.858  0.0682  0.1277  0.0227
 9109SOL    HW138789   0.053   3.346   3.907 -0.5240 -1.6628 -0.5657
 9109SOL    HW238790   4.641   3.311   3.857 -1.6416  1.5682 -1.9770
 9110SOL     OW38791   0.887   0.002   2.655  0.3597  0.2669 -0.2589
 9110SOL    HW138792   0.966   0.040   2.616 -0.5812  1.7655 -0.6887
 9110SOL    HW238793   0.826   0.074   2.637  2.2252  1.5366 -1.5209
 9111SOL     OW38794   2.954   4.592  11.637 -0.0430  0.0416  0.0646
 9111SOL    HW138795   2.873   4.589  11.689  0.1986 -0.5003  0.4029
 9111SOL    HW238796   2.930   4.538  11.562 -0.7028  0.7472 -0.2400
 9112SOL     OW38797   2.855   2.404   0.775  0.1114  0.0013  0.1089
 9112SOL    HW138798   2.917   2.342   0.814  1.7860  1.7275  0.1924
 9112SOL    HW238799   2.781   2.389   0.834 -0.7101 -0.1517 -0.9476
 9113SOL     OW38800   1.269   2.372   7.323 -0.3210  0.1498 -0.0262
 9113SOL    HW138801   1.294   2.348   7.234 -0.5485 -0.0757 -0.0306
 9113SOL    HW238802   1.339   2.321   7.364  0.4973 -0.0184 -1.6597
 9114SOL     OW38803   0.774   2.974   8.879  0.5016 -0.1049 -0.1875
 9114SOL    HW138804   0.828   2.963   8.957 -2.2399  2.2117  2.0374
 9114SOL    HW238805   0.728   3.052   8.908 -0.4124 -0.1896 -1.3842
 9115SOL     OW38806   2.193   1.675  17.387 -0.0135  0.2680  0.4417
 9115SOL    HW138807   2.180   1.741  17.318 -0.2491 -1.9585 -1.6371
 9115SOL    HW238808   2.233   1.604  17.337 -1.0249 -0.7732  1.1069
 9116SOL     OW38809   3.492   1.546  12.937 -0.0606  0.4087  0.7231
 9116SOL    HW138810   3.563   1.508  12.989  2.0634  0.3166 -2.2700
 9116SOL    HW238811   3.455   1.470  12.892 -0.2170  2.1903 -2.1860
 9117SOL     OW38812   0.386   2.613   3.671 -0.3282  0.6267  0.2204
 9117SOL    HW138813   0.370   2.611   3.576  0.4710  1.4800  0.0724
 9117SOL    HW238814   0.471   2.651   3.690  0.4224  0.0002 -1.8757
 9118SOL     OW38815   2.091   0.093   4.185 -0.3891 -0.0142  0.3315
 9118SOL    HW138816   2.113   0.052   4.269  3.2183  0.3168 -0.4636
 9118SOL    HW238817   2.010   0.041   4.185  0.3415 -1.1293  2.7345
 9119SOL     OW38818   2.018   2.452  12.582 -0.4649 -0.4824  0.2279
 9119SOL    HW138819   2.012   2.380  12.645 -1.5570 -0.8614 -0.3207
 9119SOL    HW238820   2.071   2.419  12.510 -2.1140 -1.2779 -0.6094
 9120SOL     OW38821   1.554   2.680   9.439 -0.0899 -0.1848 -0.5974
 9120SOL    HW138822   1.585   2.625   9.511 -0.9781  1.0438  0.7188
 9120SOL    HW238823   1.639   2.710   9.407  0.1755  1.0504  1.2214
 9121SOL     OW38824   3.432   3.337   0.483 -0.0910  0.2558 -0.1929
 9121SOL    HW138825   3.478   3.323   0.566  0.5418 -0.4678 -0.6664
 9121SOL    HW238826   3.360   3.390   0.519  2.3411  3.4232  0.0094
 9122SOL     OW38827   0.649   4.110  11.938  0.0044 -0.3128 -0.4067
 9122SOL    HW138828   0.648   4.014  11.934 -0.3387 -0.5243  4.2645
 9122SOL    HW238829   0.723   4.125  11.997  0.0677 -2.1846  0.0140
 9123SOL     OW38830   1.643   4.668  13.669 -0.0864 -0.5140  0.1246
 9123SOL    HW138831   1.706   4.686  13.739 -0.4712  0.5469  0.1990
 9123SOL    HW238832   1.684   4.591  13.629  1.2194  0.3043 -0.1262
 9124SOL     OW38833   4.539   3.085   7.478 -0.4245  0.1912  0.0962
 9124SOL    HW138834   4.514   3.041   7.560  1.3502 -3.8402 -1.5688
 9124SOL    HW238835   4.548   3.171   7.520 -0.8416  0.7931 -1.0603
 9125SOL     OW38836   3.749   3.320   6.810 -0.8699 -0.4349 -0.4364
 9125SOL    HW138837   3.704   3.239   6.834 -1.0775  0.3008  1.6685
 9125SOL    HW238838   3.683   3.382   6.779 -0.9390  0.1517  0.8804
 9126SOL     OW38839   2.808   4.516  15.512  0.1489 -0.2582 -0.0808
 9126SOL    HW138840   2.784   4.543  15.600 -0.1003  1.8351 -0.7654
 9126SOL    HW238841   2.724   4.510  15.465  0.1402  2.5301 -0.4375
 9127SOL     OW38842   1.535   2.124   8.988 -0.3763  1.0358  0.8203
 9127SOL    HW138843   1.484   2.172   9.053  0.8342 -1.3368  3.5137
 9127SOL    HW238844   1.509   2.170   8.908  1.5876 -1.2171 -1.1246
 9128SOL     OW38845   0.599   2.632   4.869  0.2119 -0.2499  0.2263
 9128SOL    HW138846   0.694   2.624   4.875  0.4893  1.3459 -2.1683
 9128SOL    HW238847   0.572   2.542   4.888 -0.4532 -0.3746 -1.3490
 9129SOL     OW38848   2.892   0.681   8.099 -0.1932 -0.1679  0.8482
 9129SOL    HW138849   2.842   0.608   8.135  0.0763 -0.4750  0.5921
 9129SOL    HW238850   2.977   0.652   8.132  0.4938  1.1947  0.2774
 9130SOL     OW38851   1.700   4.571   2.284 -0.2857 -0.2053  0.1201
 9130SOL    HW138852   1.662   4.581   2.372 -3.7667  0.2284 -1.4303
 9130SOL    HW238853   1.769   4.637   2.282 -1.2194  0.6931 -2.4233
 9131SOL     OW38854   1.826   1.043   9.046 -0.0201 -0.2741  0.6537
 9131SOL    HW138855   1.760   0.980   9.017  0.1388 -1.1640  2.1760
 9131SOL    HW238856   1.776   1.125   9.047  2.3666  1.1708  1.1456
 9132SOL     OW38857   1.498   3.050   4.796 -0.6101  0.4339  0.1958
 9132SOL    HW138858   1.550   3.022   4.721 -1.7926 -1.2591  0.0285
 9132SOL    HW238859   1.414   3.015   4.766 -0.5248 -1.9350  2.7243
 9133SOL     OW38860   2.411   3.179  12.630  0.2146 -0.3837  0.2707
 9133SOL    HW138861   2.415   3.205  12.538 -2.6896  0.9178  0.5160
 9133SOL    HW238862   2.358   3.099  12.630  1.0968 -0.9584  1.0245
 9134SOL     OW38863   0.233   1.375   8.212 -0.1245  0.0190  0.9479
 9134SOL    HW138864   0.311   1.322   8.229  0.2776  0.5884  0.8559
 9134SOL    HW238865   0.181   1.337   8.282  0.3999 -0.2682  1.1835
 9135SOL     OW38866   0.237   0.400   0.849 -0.1630 -0.0470  0.5765
 9135SOL    HW138867   0.152   0.440   0.832 -0.1476 -0.5854 -0.8358
 9135SOL    HW238868   0.209   0.316   0.885  1.1080  0.6404  3.1140
 9136SOL     OW38869   1.795   1.512   8.264 -0.2478 -0.0030  0.2983
 9136SOL    HW138870   1.821   1.512   8.171 -1.3630  1.4714 -0.0070
 9136SOL    HW238871   1.867   1.562   8.303 -1.0153 -0.3837  2.1745
 9137SOL     OW38872   3.935   4.675  13.659 -0.1983  0.0249 -0.4879
 9137SOL    HW138873   3.848   4.696  13.627 -1.0529 -1.6305  0.7453
 9137SOL    HW238874   3.941   0.000  13.742 -2.2672  1.4349 -1.1676
 9138SOL     OW38875   3.630   0.684   4.607  0.4892 -0.6272  0.0916
 9138SOL    HW138876   3.570   0.751   4.573  3.1930  0.9690 -1.5295
 9138SOL    HW238877   3.565   0.652   4.669  0.3183  1.4194  0.9778
 9139SOL     OW38878   4.010   2.861   6.933  0.0901  0.2235 -0.5408
 9139SOL    HW138879   4.077   2.886   6.869  1.4010 -1.5052  0.1335
 9139SOL    HW238880   3.989   2.943   6.977  1.7156 -0.2494  1.1389
 9140SOL     OW38881   2.512   1.219   3.973  0.3257 -0.9860 -0.2298
 9140SOL    HW138882   2.465   1.138   3.994 -0.1554 -0.7984 -0.5720
 9140SOL    HW238883   2.438   1.280   3.975  1.5797  0.4830  0.7708
 9141SOL     OW38884   3.086   3.806   6.582  0.2238 -0.4806 -0.1133
 9141SOL    HW138885   3.104   3.765   6.667  0.8517 -1.7454 -0.8600
 9141SOL    HW238886   3.103   3.898   6.601 -1.1552 -0.5047  1.1993
 9142SOL     OW38887   3.141   2.705   3.898 -0.4058 -0.1751 -0.1712
 9142SOL    HW138888   3.054   2.676   3.870 -0.3713  1.7465 -2.2276
 9142SOL    HW238889   3.137   2.673   3.989  1.0501  0.4676  0.1192
 9143SOL     OW38890   1.549   4.530  14.386  0.3665 -0.1077  0.6671
 9143SOL    HW138891   1.612   4.549  14.455  1.5146 -0.7029 -0.2236
 9143SOL    HW238892   1.483   4.599  14.395  0.3446 -0.3399  2.1340
 9144SOL     OW38893   2.529   3.565   1.895 -0.5130 -0.7985  1.2477
 9144SOL    HW138894   2.588   3.490   1.908 -1.7671 -2.2977 -1.9094
 9144SOL    HW238895   2.497   3.540   1.809  2.6437  0.3647 -0.2740
 9145SOL     OW38896   2.931   2.451   1.740  0.1778  0.3062 -0.5301
 9145SOL    HW138897   3.008   2.467   1.686  0.4484 -0.2561 -0.3064
 9145SOL    HW238898   2.959   2.382   1.799 -1.8237  0.7547  0.9458
 9146SOL     OW38899   2.527   3.996   6.916 -0.1106  0.2343 -0.2913
 9146SOL    HW138900   2.563   4.066   6.860  2.8980 -1.6254 -0.6620
 9146SOL    HW238901   2.584   4.008   6.992 -0.5259  0.5599 -0.0280
 9147SOL     OW38902   3.904   0.483  10.926 -0.1700 -0.2879 -0.2937
 9147SOL    HW138903   3.887   0.446  10.839  0.7940  0.6401 -0.8733
 9147SOL    HW238904   3.826   0.453  10.972 -2.4721  1.8437 -2.8027
 9148SOL     OW38905   3.918   3.992   2.302  0.3287  0.0458  0.3849
 9148SOL    HW138906   3.992   3.939   2.330 -0.8866 -1.0245  1.6178
 9148SOL    HW238907   3.849   3.954   2.357  0.6155 -0.3719  0.4575
 9149SOL     OW38908   1.405   0.470   8.171  0.1332 -0.5449 -0.3718
 9149SOL    HW138909   1.422   0.435   8.084  1.7224 -0.3045 -0.1548
 9149SOL    HW238910   1.495   0.476   8.203  0.4400  1.3417 -1.5533
 9150SOL     OW38911   0.988   3.087   8.604 -0.9218  0.5465 -0.0040
 9150SOL    HW138912   1.081   3.071   8.588 -1.2652 -1.0091 -0.4562
 9150SOL    HW238913   0.949   3.000   8.613 -0.7186  0.4767  0.1927
 9151SOL     OW38914   1.695   1.641   4.455 -0.1952  0.0154 -0.1379
 9151SOL    HW138915   1.759   1.571   4.465  1.2207  0.9547 -2.5843
 9151SOL    HW238916   1.678   1.640   4.361  1.3904 -0.2257 -0.4250
 9152SOL     OW38917   0.317   2.267   8.816  0.0123 -0.0710 -0.3238
 9152SOL    HW138918   0.314   2.252   8.722 -0.8702 -2.6252  0.1043
 9152SOL    HW238919   0.288   2.358   8.827  2.3184  0.6086  0.0195
 9153SOL     OW38920   2.289   0.580   8.261 -0.4017 -0.1406  0.1428
 9153SOL    HW138921   2.246   0.577   8.347 -0.6133 -1.3877 -0.0175
 9153SOL    HW238922   2.319   0.490   8.256 -1.9448 -0.5793 -0.8591
 9154SOL     OW38923   0.994   2.962   2.012  0.1190 -0.0215  0.9079
 9154SOL    HW138924   0.973   3.022   1.941  1.6461 -0.7407 -0.1466
 9154SOL    HW238925   0.919   2.902   2.012 -0.3692  0.5967 -0.7513
 9155SOL     OW38926   4.170   0.186  15.205  0.1389  0.0389  0.3326
 9155SOL    HW138927   4.099   0.124  15.192  0.0890  0.6646 -2.3523
 9155SOL    HW238928   4.128   0.266  15.175 -0.3826 -0.9513 -1.5976
 9156SOL     OW38929   2.974   0.946   5.703 -0.2961  0.2983  0.3720
 9156SOL    HW138930   2.999   1.038   5.704 -0.9179  0.4730 -1.3171
 9156SOL    HW238931   3.058   0.902   5.687  0.1684  1.1576  0.4910
 9157SOL     OW38932   2.582   0.914   3.994  0.0230  0.6467  0.2448
 9157SOL    HW138933   2.667   0.954   3.978  0.6692 -0.3680  1.0692
 9157SOL    HW238934   2.533   0.923   3.913  1.1055  0.3482 -0.4420
 9158SOL     OW38935   1.505   2.484  15.411  0.1307  0.1465 -0.1472
 9158SOL    HW138936   1.436   2.549  15.422  1.7765  2.4361 -3.1559
 9158SOL    HW238937   1.446   2.411  15.428  0.1986  0.3399  0.9069
 9159SOL     OW38938   2.664   1.603   4.027  0.0652 -0.1921  0.2417
 9159SOL    HW138939   2.624   1.624   4.111  1.4815  0.7152  0.6924
 9159SOL    HW238940   2.589   1.611   3.968 -0.0092  0.3043  0.3976
 9160SOL     OW38941   2.499   3.329   8.682  0.3893 -0.1696 -0.3684
 9160SOL    HW138942   2.462   3.417   8.677 -0.7326 -0.5467  1.2642
 9160SOL    HW238943   2.526   3.316   8.591  2.6258  1.2484  0.0873
 9161SOL     OW38944   1.191   3.716   8.065  0.4005  0.1986  0.3047
 9161SOL    HW138945   1.096   3.706   8.066  0.3454  0.6804  0.1267
 9161SOL    HW238946   1.230   3.644   8.114 -1.6340 -0.6035  0.7430
 9162SOL     OW38947   2.494   0.053   0.251  0.5170 -0.2016 -0.2884
 9162SOL    HW138948   2.547   0.067   0.330 -0.8288 -0.1642  0.6084
 9162SOL    HW238949   2.407   0.065   0.289  0.7455  0.9014 -0.1107
 9163SOL     OW38950   0.029   4.697   6.735  0.4874  0.4578 -0.4088
 9163SOL    HW138951   0.029   4.652   6.651  0.3274  0.4882 -0.4253
 9163SOL    HW238952   4.709   4.629   6.787  0.4771  2.1442  1.7966
 9164SOL     OW38953   3.305   4.030   1.168 -0.2084 -0.3602 -0.2781
 9164SOL    HW138954   3.238   4.061   1.107 -1.3267 -0.9085  0.6720
 9164SOL    HW238955   3.298   4.103   1.230 -3.2960 -0.2790 -0.7469
 9165SOL     OW38956   3.809   0.542   6.055 -0.1919  0.5305  0.0138
 9165SOL    HW138957   3.792   0.508   6.143  2.9535  0.4733  0.5945
 9165SOL    HW238958   3.744   0.494   6.005  1.3960  1.2395 -2.7345
 9166SOL     OW38959   0.095   3.253  16.111  0.3956 -0.4252  0.0378
 9166SOL    HW138960   0.170   3.222  16.060  1.3016 -0.1174  1.1978
 9166SOL    HW238961   0.062   3.170  16.146 -0.5500  0.7262  1.8688
 9167SOL     OW38962   1.062   1.773   5.185 -0.0567  0.3106 -0.0202
 9167SOL    HW138963   1.030   1.863   5.185  2.7062  1.3086 -1.1559
 9167SOL    HW238964   1.015   1.725   5.253  1.1010  1.0020  1.2539
 9168SOL     OW38965   0.854   1.838   3.452  0.0898  1.0919 -0.3421
 9168SOL    HW138966   0.774   1.805   3.410  1.2366 -0.8781 -0.9896
 9168SOL    HW238967   0.814   1.851   3.538 -0.0653  2.7234 -0.6487
 9169SOL     OW38968   4.458   0.964   7.419  0.1023  0.3474  0.1499
 9169SOL    HW138969   4.527   1.024   7.394 -1.7549  2.1629 -0.5954
 9169SOL    HW238970   4.510   0.906   7.475 -0.1016  1.5870  1.6223
 9170SOL     OW38971   2.790   0.447   4.175  0.2873 -1.0229 -0.1868
 9170SOL    HW138972   2.736   0.473   4.249  1.3076 -0.8058  0.4822
 9170SOL    HW238973   2.835   0.376   4.221  0.5976 -1.5523 -1.2963
 9171SOL     OW38974   0.281   0.077   6.796  0.3665 -0.4680 -0.3505
 9171SOL    HW138975   0.270   0.171   6.778  0.1236 -0.2782  0.7674
 9171SOL    HW238976   0.193   0.053   6.768  0.9136 -0.4060 -2.1378
 9172SOL     OW38977   2.786   4.404  14.864 -0.0935  0.2919 -0.1570
 9172SOL    HW138978   2.840   4.484  14.865 -0.3783  0.4992 -1.1270
 9172SOL    HW238979   2.816   4.361  14.784  0.6023  1.0322 -0.2982
 9173SOL     OW38980   2.048   0.482  14.742  0.0709  0.0926 -0.9237
 9173SOL    HW138981   2.122   0.428  14.769  1.1534  0.8107 -2.4334
 9173SOL    HW238982   2.073   0.512  14.655 -1.4448 -0.1638 -1.4421
 9174SOL     OW38983   0.714   1.056   0.651 -0.5450 -0.4695 -0.5986
 9174SOL    HW138984   0.721   1.150   0.634 -0.0994  0.1601  3.2317
 9174SOL    HW238985   0.800   1.041   0.689  0.2329  1.6932 -1.4923
 9175SOL     OW38986   1.802   1.650   1.750 -0.0806  0.8763 -0.3621
 9175SOL    HW138987   1.876   1.670   1.693  0.6386  1.9572  0.9401
 9175SOL    HW238988   1.738   1.613   1.689  0.2755 -1.8825  0.9181
 9176SOL     OW38989   2.176   2.066   7.771 -0.0583  0.6203 -0.3097
 9176SOL    HW138990   2.183   1.971   7.779 -1.5305  0.5772  0.3616
 9176SOL    HW238991   2.271   2.081   7.766  0.3620 -1.2084  2.2225
 9177SOL     OW38992   2.313   1.115   8.492  0.3000 -0.0330 -0.3807
 9177SOL    HW138993   2.318   1.061   8.413  0.8820 -0.6933  0.1133
 9177SOL    HW238994   2.359   1.062   8.557 -1.5133  1.9463  2.5316
 9178SOL     OW38995   4.423   0.381   8.897  0.1061  0.2162  0.1771
 9178SOL    HW138996   4.453   0.293   8.875 -1.2740 -0.7718  2.2867
 9178SOL    HW238997   4.337   0.391   8.854 -0.1567 -1.0132  0.4141
 9179SOL     OW38998   2.836   3.273   5.347  0.7656  0.2827  0.3271
 9179SOL    HW138999   2.748   3.236   5.347  0.9122 -0.0618 -0.2021
 9179SOL    HW239000   2.841   3.330   5.424  1.4056  0.9475 -0.1995
 9180SOL     OW39001   3.623   3.904  14.057 -0.2391  0.0736 -0.3632
 9180SOL    HW139002   3.626   3.990  14.098  1.1550 -0.9197  1.5926
 9180SOL    HW239003   3.643   3.847  14.131 -1.3790 -1.7399 -1.4523
 9181SOL     OW39004   0.509   0.166   2.679 -0.6780  0.2166 -0.2992
 9181SOL    HW139005   0.581   0.173   2.617 -0.7121 -1.2833 -0.5071
 9181SOL    HW239006   0.548   0.208   2.756 -0.0215 -0.4307 -0.2808
 9182SOL     OW39007   3.033   3.181   1.765 -0.0787 -0.7079  0.0082
 9182SOL    HW139008   2.974   3.117   1.804  2.6756 -2.2306  1.7136
 9182SOL    HW239009   2.976   3.256   1.749  1.9007  0.6444 -0.7323
 9183SOL     OW39010   2.712   3.355   7.744 -0.2005 -0.1351  0.2406
 9183SOL    HW139011   2.673   3.296   7.809 -2.1926 -0.1532 -0.9671
 9183SOL    HW239012   2.769   3.295   7.695 -0.6869  0.6679 -1.3153
 9184SOL     OW39013   2.005   2.711   8.170  0.2634  0.0406  0.2475
 9184SOL    HW139014   1.954   2.723   8.251  2.2716  0.6673  1.4306
 9184SOL    HW239015   1.935   2.679   8.114 -0.1331 -0.2984  0.9291
 9185SOL     OW39016   1.329   2.076   5.457 -0.7679 -0.0539 -0.1455
 9185SOL    HW139017   1.344   2.024   5.379 -1.0144  1.0085 -0.8971
 9185SOL    HW239018   1.234   2.068   5.468 -0.6125 -1.2894  0.2947
 9186SOL     OW39019   1.140   0.737   5.450  0.7026  0.0312 -0.3469
 9186SOL    HW139020   1.171   0.763   5.537  0.8764 -1.0985 -0.0594
 9186SOL    HW239021   1.143   0.822   5.407  2.6989 -1.2107 -2.6085
 9187SOL     OW39022   3.404   1.249   5.176 -0.0212 -0.4952  0.6695
 9187SOL    HW139023   3.449   1.331   5.158  0.8962 -0.8326  1.4312
 9187SOL    HW239024   3.433   1.231   5.266 -1.7872 -1.2577  1.0851
 9188SOL     OW39025   4.271   0.856   8.366  0.2939  0.0899  0.4832
 9188SOL    HW139026   4.311   0.868   8.453  1.7588  0.3905 -0.2351
 9188SOL    HW239027   4.244   0.767   8.386 -1.0706  0.1304 -1.1768
 9189SOL     OW39028   0.623   2.822  15.377 -0.8385  0.5556 -0.2327
 9189SOL    HW139029   0.705   2.811  15.425 -0.7479  0.9238 -0.3051
 9189SOL    HW239030   0.646   2.770  15.300 -0.6548  1.1341 -0.5683
 9190SOL     OW39031   3.846   4.281  15.696  0.3189 -0.0687  0.0312
 9190SOL    HW139032   3.824   4.347  15.630  1.8049  2.5578  2.1329
 9190SOL    HW239033   3.845   4.200  15.645  2.2633  0.8818 -1.5345
 9191SOL     OW39034   3.317   3.458   4.151 -0.6617  0.3047 -0.2284
 9191SOL    HW139035   3.350   3.435   4.238  3.2711 -1.5875 -2.2514
 9191SOL    HW239036   3.355   3.395   4.091 -0.8985  0.9001 -1.0141
 9192SOL     OW39037   4.127   1.565   8.612 -0.8357  0.1198 -0.2748
 9192SOL    HW139038   4.062   1.503   8.647  1.0292 -2.2948 -1.0463
 9192SOL    HW239039   4.070   1.619   8.557 -0.8458  0.4259  0.0363
 9193SOL     OW39040   1.712   2.329  14.888 -0.1147  0.0141 -0.0473
 9193SOL    HW139041   1.692   2.378  14.967 -4.3537  2.1789 -2.4586
 9193SOL    HW239042   1.632   2.282  14.867 -0.8054  1.8671 -1.5767
 9194SOL     OW39043   0.646   1.198   3.568 -0.8320 -0.3498  0.6508
 9194SOL    HW139044   0.575   1.154   3.523 -0.8664  1.6667 -1.2925
 9194SOL    HW239045   0.669   1.269   3.508 -0.3320  1.5519  3.0861
 9195SOL     OW39046   1.942   4.711   6.863  0.2107 -0.0397 -0.1280
 9195SOL    HW139047   1.957   4.698   6.957 -2.2287  0.2645  0.3050
 9195SOL    HW239048   1.865   4.657   6.849  0.0481  0.0558  0.3879
 9196SOL     OW39049   0.263   3.775   6.027  0.0282 -0.0593 -0.3943
 9196SOL    HW139050   0.324   3.847   6.015  0.7780 -0.6810 -0.3289
 9196SOL    HW239051   0.313   3.712   5.976  0.1429 -1.4849  1.4683
 9197SOL     OW39052   3.499   1.587   5.690 -0.7166 -0.1494  0.6021
 9197SOL    HW139053   3.572   1.603   5.630  0.7196 -0.0027  2.4199
 9197SOL    HW239054   3.538   1.596   5.776 -0.9210  3.9191  0.2530
 9198SOL     OW39055   4.365   4.678   7.816 -0.2097  0.0251  0.1512
 9198SOL    HW139056   4.438   4.616   7.810 -0.7815 -0.7324  1.1987
 9198SOL    HW239057   4.295   4.613   7.814  0.8571 -1.0995 -1.2620
 9199SOL     OW39058   2.399   0.640  14.836 -0.2116  0.1847 -0.2733
 9199SOL    HW139059   2.334   0.705  14.810  1.7721  1.1921 -2.7063
 9199SOL    HW239060   2.478   0.693  14.848 -2.2681  2.9562  0.7768
 9200SOL     OW39061   4.699   0.041   9.303  0.0335 -0.1151 -0.3258
 9200SOL    HW139062   0.024   4.694   9.256  1.2134  1.4070 -1.3768
 9200SOL    HW239063   0.045   0.050   9.370 -0.5153  0.3651  0.1637
 9201SOL     OW39064   1.488   4.548   3.335 -0.2214  0.6625  0.2032
 9201SOL    HW139065   1.416   4.500   3.295  1.6301 -0.0399 -2.3155
 9201SOL    HW239066   1.560   4.523   3.277 -0.7340  2.9924 -1.4443
 9202SOL     OW39067   2.231   0.517   9.224  0.1930  0.4106 -0.0450
 9202SOL    HW139068   2.152   0.557   9.260  0.2798  0.0037  0.6065
 9202SOL    HW239069   2.191   0.447   9.172  0.8089 -0.0113  0.0612
 9203SOL     OW39070   1.822   1.249   5.887  0.5235 -0.4126  0.4118
 9203SOL    HW139071   1.818   1.322   5.948  2.3542  0.6427 -0.7199
 9203SOL    HW239072   1.875   1.184   5.933  0.5979 -0.2119  0.6082
 9204SOL     OW39073   0.920   0.381   6.231 -0.4340  0.2519 -0.2273
 9204SOL    HW139074   0.957   0.355   6.146 -2.8246  1.2453 -1.5896
 9204SOL    HW239075   0.925   0.476   6.220 -0.0075  0.3683  1.0585
 9205SOL     OW39076   1.087   3.603   6.186 -0.1377  0.2637 -0.8934
 9205SOL    HW139077   1.004   3.642   6.212 -0.9958  0.0258 -3.3284
 9205SOL    HW239078   1.073   3.509   6.187  1.1095  0.0921  0.9120
 9206SOL     OW39079   0.108   4.130   9.367  0.2175 -0.1414 -0.0248
 9206SOL    HW139080   0.183   4.188   9.382 -1.1328  1.6320 -0.1181
 9206SOL    HW239081   0.081   4.107   9.456 -0.5170  1.5249  0.2009
 9207SOL     OW39082   0.201   4.517  11.397 -0.3860 -0.5281 -0.2996
 9207SOL    HW139083   0.159   4.578  11.336 -1.0988  0.0254  0.7324
 9207SOL    HW239084   0.292   4.546  11.400 -0.5412 -0.0966  0.4592
 9208SOL     OW39085   2.699   3.247   0.759 -0.5516 -0.3779 -0.5927
 9208SOL    HW139086   2.628   3.306   0.784  0.5009  0.3649  0.6765
 9208SOL    HW239087   2.658   3.162   0.776  1.1846 -1.3590 -1.3020
 9209SOL     OW39088   1.354   1.639   9.085 -0.4156  0.7150 -0.1780
 9209SOL    HW139089   1.352   1.734   9.090 -0.6351  0.6938  0.1600
 9209SOL    HW239090   1.372   1.617   9.176  2.6933 -1.0066 -1.2240
 9210SOL     OW39091   3.047   2.367   4.993  0.6649  0.3060  0.1000
 9210SOL    HW139092   2.989   2.442   5.007  0.4877  0.4489 -1.3995
 9210SOL    HW239093   3.098   2.358   5.074 -0.3312  0.8743  0.7936
 9211SOL     OW39094   4.669   3.007  12.628 -0.3550 -0.3693  0.3164
 9211SOL    HW139095   4.677   3.099  12.602  0.8736 -0.5791 -0.0787
 9211SOL    HW239096   4.653   3.016  12.722  1.1819  0.1531  0.5362
 9212SOL     OW39097   1.153   2.395   5.980  0.3657  0.0239  0.0108
 9212SOL    HW139098   1.072   2.378   6.029  0.9430  3.1294  2.0905
 9212SOL    HW239099   1.135   2.485   5.953 -0.4760  0.3560  1.6503
 9213SOL     OW39100   0.216   1.629   6.861  0.1855  0.2184  0.6749
 9213SOL    HW139101   0.211   1.583   6.945 -0.9727  0.0579  0.5163
 9213SOL    HW239102   0.308   1.613   6.842 -0.1989  2.4037 -3.0104
 9214SOL     OW39103   3.508   2.401   7.735 -0.2838  0.2484  0.7258
 9214SOL    HW139104   3.552   2.338   7.791  0.9400 -0.5687 -1.1502
 9214SOL    HW239105   3.540   2.372   7.650  0.7701  1.8431  0.5816
 9215SOL     OW39106   4.086   3.918   6.944 -0.1757  0.4681 -0.0710
 9215SOL    HW139107   4.105   3.960   7.028 -0.8391 -2.7705  1.7063
 9215SOL    HW239108   4.025   3.973   6.895 -1.6803 -0.4344  0.7974
 9216SOL     OW39109   3.658   2.078  16.746  0.4689 -0.1880 -0.1495
 9216SOL    HW139110   3.652   2.161  16.794  1.0076  0.6846 -1.5904
 9216SOL    HW239111   3.568   2.067  16.715  1.1161 -1.7100 -1.4785
 9217SOL     OW39112   2.992   3.812   9.000 -0.0971  0.1029 -0.3977
 9217SOL    HW139113   2.958   3.813   9.089 -1.5931  1.5975 -0.9870
 9217SOL    HW239114   3.057   3.742   9.003 -1.3211 -0.9753  1.0912
 9218SOL     OW39115   2.050   2.713  12.668  0.1575 -0.2358 -0.1621
 9218SOL    HW139116   1.977   2.683  12.613 -0.5209  0.5205  0.3171
 9218SOL    HW239117   2.110   2.639  12.670  3.0505  2.1294 -0.5428
 9219SOL     OW39118   3.719   1.093   1.742  0.3440 -0.5383 -0.0255
 9219SOL    HW139119   3.738   1.016   1.689 -0.5441 -0.9947  0.3174
 9219SOL    HW239120   3.708   1.064   1.832  1.3535  1.3365  0.7138
 9220SOL     OW39121   2.438   3.615   8.685  0.0739  0.0185  0.4317
 9220SOL    HW139122   2.427   3.615   8.780  0.1817  2.4995  0.4421
 9220SOL    HW239123   2.349   3.591   8.660 -0.5858  3.4789 -0.5563
 9221SOL     OW39124   2.523   2.471   7.506  0.7254  0.1341  0.3409
 9221SOL    HW139125   2.468   2.442   7.433  0.3851  1.0943  0.2176
 9221SOL    HW239126   2.549   2.386   7.540  0.8098 -0.3677 -0.9814
 9222SOL     OW39127   3.338   4.002  14.172  0.1782  0.3168 -0.2661
 9222SOL    HW139128   3.410   4.062  14.191  0.5448 -0.3929  0.5646
 9222SOL    HW239129   3.343   3.998  14.076  0.3216 -1.0136 -0.2076
 9223SOL     OW39130   0.177   0.568   8.842 -0.2709  0.0880 -0.3280
 9223SOL    HW139131   0.198   0.548   8.934 -2.7547 -0.8079  0.0605
 9223SOL    HW239132   0.083   0.554   8.847 -0.3592  1.6439  2.1669
 9224SOL     OW39133   2.151   0.096   5.703  0.2574  0.0080 -0.3638
 9224SOL    HW139134   2.162   0.009   5.664  4.1170  0.6850 -0.8092
 9224SOL    HW239135   2.089   0.084   5.775  0.6402  0.1611 -0.0109
 9225SOL     OW39136   0.869   1.647  11.965 -0.2534  0.8300  0.0367
 9225SOL    HW139137   0.782   1.609  11.974 -0.2064  1.1750  2.0082
 9225SOL    HW239138   0.849   1.717  12.027  2.6893  1.7881 -0.0746
 9226SOL     OW39139   1.518   3.054   1.468 -0.1295  0.9720  0.1873
 9226SOL    HW139140   1.612   3.036   1.461 -0.6569 -1.6285 -0.3523
 9226SOL    HW239141   1.517   3.143   1.433 -0.2834  0.5815 -0.7962
 9227SOL     OW39142   3.892   2.952  12.720 -0.0259 -0.2821  0.1139
 9227SOL    HW139143   3.949   2.996  12.657  1.9615  0.3220  2.3311
 9227SOL    HW239144   3.963   2.917  12.774  0.5154  1.0592  0.2824
 9228SOL     OW39145   0.865   2.463   1.443  0.7374 -0.4515  0.0541
 9228SOL    HW139146   0.790   2.521   1.431  2.0936  1.2861 -0.1499
 9228SOL    HW239147   0.857   2.435   1.534  0.2422 -1.2054 -0.2212
 9229SOL     OW39148   1.024   4.278  15.368  0.6069  0.3346  0.1138
 9229SOL    HW139149   0.981   4.262  15.452 -1.0412 -0.1808 -0.8409
 9229SOL    HW239150   1.115   4.256  15.389  1.1193  2.7996  0.5920
 9230SOL     OW39151   2.253   0.453  16.164  0.1686  0.1236  0.4162
 9230SOL    HW139152   2.266   0.415  16.077  1.5076  1.9296 -0.1791
 9230SOL    HW239153   2.344   0.457  16.194 -0.7073 -0.5809  3.1814
 9231SOL     OW39154   2.932   4.352  10.022  0.6894  0.9046 -0.3929
 9231SOL    HW139155   2.996   4.358  10.094  1.3993 -1.2360 -0.8329
 9231SOL    HW239156   2.984   4.365   9.943 -0.5077  1.9061 -1.0075
 9232SOL     OW39157   1.495   4.234   5.720 -0.3052 -0.3271 -0.7715
 9232SOL    HW139158   1.572   4.279   5.686 -0.9241 -0.3117 -2.1362
 9232SOL    HW239159   1.449   4.243   5.637 -1.9620 -1.3035  0.0430
 9233SOL     OW39160   4.195   4.086   9.219 -0.0986  0.6192 -0.1379
 9233SOL    HW139161   4.124   4.150   9.222  0.3933  1.1814 -0.4696
 9233SOL    HW239162   4.177   4.058   9.308  2.2077  0.2813  0.2226
 9234SOL     OW39163   0.445   1.877   6.995 -0.3540  0.1438 -0.0115
 9234SOL    HW139164   0.498   1.954   7.014  0.4230 -0.8427  1.7376
 9234SOL    HW239165   0.398   1.862   7.077 -0.1723 -0.9155 -0.1005
 9235SOL     OW39166   4.274   2.839  15.151  0.3065  0.4090 -0.0029
 9235SOL    HW139167   4.267   2.818  15.058  0.6659  1.7930 -0.3383
 9235SOL    HW239168   4.293   2.933  15.153  1.3327  0.1779  0.9932
 9236SOL     OW39169   1.444   2.875   3.362 -0.1757  0.1211 -0.1580
 9236SOL    HW139170   1.470   2.962   3.394 -0.1991 -0.2209  0.8064
 9236SOL    HW239171   1.509   2.861   3.294 -0.7493  0.5774 -0.7924
 9237SOL     OW39172   4.135   2.082   3.392  0.1552  0.2261 -0.3277
 9237SOL    HW139173   4.189   2.003   3.399  1.7325  1.0770 -2.7183
 9237SOL    HW239174   4.049   2.051   3.419  1.0524 -0.4501  1.8015
 9238SOL     OW39175   1.939   0.230   9.995  0.3710  0.0479  0.3018
 9238SOL    HW139176   1.848   0.257  10.010  1.0403  1.3161  2.1292
 9238SOL    HW239177   1.987   0.309  10.017 -0.3297  0.5822 -0.0872
 9239SOL     OW39178   3.931   2.716   2.941 -0.7643  0.0508 -0.0952
 9239SOL    HW139179   3.991   2.721   3.015 -0.6039 -0.5091 -0.1884
 9239SOL    HW239180   3.916   2.622   2.932  2.6084 -0.4877 -0.3149
 9240SOL     OW39181   3.758   1.307   7.611 -0.5412  0.0169 -0.2222
 9240SOL    HW139182   3.824   1.346   7.667 -2.1137  2.8396 -0.3507
 9240SOL    HW239183   3.806   1.301   7.528  1.9163 -3.0289  1.4101
 9241SOL     OW39184   1.178   2.545   6.688 -0.2520 -0.1661 -0.3884
 9241SOL    HW139185   1.235   2.495   6.630 -2.9364 -3.5025 -0.2085
 9241SOL    HW239186   1.167   2.623   6.635  2.0014 -0.0644 -0.7131
 9242SOL     OW39187   2.806   2.428   4.008 -0.0038 -0.0449  0.4055
 9242SOL    HW139188   2.723   2.393   3.973 -0.3316  0.3767  0.7658
 9242SOL    HW239189   2.853   2.473   3.939 -0.9987 -0.5017 -0.5816
 9243SOL     OW39190   1.244   2.904   7.714 -0.2478 -0.0277 -0.2334
 9243SOL    HW139191   1.199   2.983   7.743 -0.0183  0.6247 -1.6576
 9243SOL    HW239192   1.199   2.880   7.633 -1.0133  0.8275 -0.0616
 9244SOL     OW39193   4.027   2.644   6.248  0.1551  0.1928  0.2620
 9244SOL    HW139194   3.957   2.678   6.192  0.3628 -0.4257 -0.3594
 9244SOL    HW239195   4.060   2.573   6.193  0.8875  1.3668 -0.8240
 9245SOL     OW39196   3.001   4.013   6.280 -0.4591  0.0429  0.2220
 9245SOL    HW139197   3.088   4.009   6.240  0.2859  0.9971  1.7445
 9245SOL    HW239198   3.019   4.085   6.341 -0.3663 -1.6521  2.1740
 9246SOL     OW39199   2.264   3.759   4.988 -0.0128 -0.1769  0.4494
 9246SOL    HW139200   2.306   3.829   5.038  1.4243 -0.2271 -0.6604
 9246SOL    HW239201   2.184   3.801   4.958  0.0214 -1.7103 -1.8104
 9247SOL     OW39202   3.250   3.556   2.455 -0.0424 -0.1417  0.0499
 9247SOL    HW139203   3.199   3.475   2.462  1.0222 -0.7809  0.3504
 9247SOL    HW239204   3.337   3.520   2.473 -0.0728  0.4757  1.4164
 9248SOL     OW39205   1.772   4.153   6.235  0.6101 -0.3165 -0.5644
 9248SOL    HW139206   1.769   4.244   6.264  1.1747  0.0003 -1.5111
 9248SOL    HW239207   1.736   4.167   6.148 -0.8074 -2.9580 -0.4103
 9249SOL     OW39208   2.351   4.207  13.435 -0.3459 -0.3952 -0.0076
 9249SOL    HW139209   2.314   4.185  13.350 -3.1931 -0.2035  1.1956
 9249SOL    HW239210   2.426   4.147  13.435  1.0181  1.3147  0.1262
 9250SOL     OW39211   1.217   2.445   2.396 -0.5151 -0.4409  0.3835
 9250SOL    HW139212   1.184   2.524   2.440 -0.7010  0.3887 -1.2368
 9250SOL    HW239213   1.273   2.480   2.327 -0.6239 -1.6457 -0.3065
 9251SOL     OW39214   2.609   3.741   9.149  0.0213 -0.0630  0.4880
 9251SOL    HW139215   2.642   3.659   9.114  1.0059  0.1081  1.0267
 9251SOL    HW239216   2.637   3.809   9.087 -2.8594  0.0680 -0.6950
 9252SOL     OW39217   3.406   3.482   4.416 -0.1180 -0.3241  0.0962
 9252SOL    HW139218   3.425   3.575   4.411 -0.6223 -0.2792 -1.2649
 9252SOL    HW239219   3.497   3.454   4.418 -0.0603 -0.3209 -1.7602
 9253SOL     OW39220   3.465   1.482  16.279  0.0275 -0.1604 -0.2124
 9253SOL    HW139221   3.559   1.485  16.260  0.0302  0.6664 -0.0789
 9253SOL    HW239222   3.454   1.484  16.374 -0.7964 -1.0906 -0.2963
 9254SOL     OW39223   0.948   3.744   5.923 -0.1773  0.5640 -0.0111
 9254SOL    HW139224   1.008   3.683   5.879 -0.0678  0.7019 -0.0517
 9254SOL    HW239225   0.865   3.715   5.886  0.3775  0.3556 -1.0813
 9255SOL     OW39226   2.704   0.718   2.743  0.3267  0.0469 -0.1450
 9255SOL    HW139227   2.714   0.623   2.757 -1.3394 -0.1551 -0.2958
 9255SOL    HW239228   2.679   0.718   2.651 -0.8579 -0.0607  0.1856
 9256SOL     OW39229   3.944   3.672   1.195  0.3104  0.3709  0.4002
 9256SOL    HW139230   4.035   3.692   1.217  0.1440  1.3450  0.2076
 9256SOL    HW239231   3.911   3.762   1.202 -0.7033  0.0547 -0.4514
 9257SOL     OW39232   4.244   3.083   2.126  0.3201 -0.3036 -0.0444
 9257SOL    HW139233   4.333   3.117   2.127 -0.0180  0.6826 -2.3823
 9257SOL    HW239234   4.231   3.042   2.211  1.2206  0.3181  0.3931
 9258SOL     OW39235   2.926   2.101   6.038 -0.0397  0.1785  0.1774
 9258SOL    HW139236   2.931   2.180   6.092  2.3360  0.2528 -0.1711
 9258SOL    HW239237   2.987   2.125   5.968 -2.5645 -0.9191 -2.4120
 9259SOL     OW39238   0.766   3.302   3.576 -0.4680  0.4026  0.4163
 9259SOL    HW139239   0.855   3.324   3.549  0.0834 -0.8271  1.2280
 9259SOL    HW239240   0.771   3.291   3.671  3.8406 -0.7067  0.0412
 9260SOL     OW39241   0.544   2.249   1.333 -0.3485  0.1289  0.5959
 9260SOL    HW139242   0.510   2.333   1.365 -1.5173 -0.6781  1.4455
 9260SOL    HW239243   0.596   2.267   1.254 -2.2236 -3.3004 -1.3837
 9261SOL     OW39244   2.729   4.431   2.873 -0.3882 -0.3426 -0.0864
 9261SOL    HW139245   2.678   4.485   2.934 -1.0068 -2.2519  1.0753
 9261SOL    HW239246   2.800   4.413   2.935  0.3585 -0.0410 -0.8597
 9262SOL     OW39247   3.438   2.999  16.499  0.2859  0.1259 -0.0012
 9262SOL    HW139248   3.462   3.067  16.561 -0.2469 -1.2774  1.7496
 9262SOL    HW239249   3.500   2.926  16.508  0.4537  0.2998  0.2423
 9263SOL     OW39250   4.555   4.014   4.154 -0.1374  0.4471 -0.4111
 9263SOL    HW139251   4.517   3.960   4.224  0.3027  1.2539  0.4501
 9263SOL    HW239252   4.610   3.954   4.103 -2.6554 -2.8594  0.7190
 9264SOL     OW39253   4.342   3.027   6.276 -0.1669  0.3247  0.4705
 9264SOL    HW139254   4.426   3.016   6.233  0.5216 -0.5307  2.0082
 9264SOL    HW239255   4.328   2.934   6.293 -0.1715  0.3818  0.7945
 9265SOL     OW39256   3.096   3.326   5.804  0.5105  0.4052 -0.3489
 9265SOL    HW139257   3.009   3.309   5.768  0.6850 -0.5606 -0.3039
 9265SOL    HW239258   3.072   3.305   5.894  2.4321 -0.4896 -0.0498
 9266SOL     OW39259   1.581   0.911   8.964 -0.2205 -0.1973 -0.3995
 9266SOL    HW139260   1.551   0.985   8.911  1.1770  1.8250  1.6284
 9266SOL    HW239261   1.574   0.836   8.904  1.4106 -0.1198 -0.6793
 9267SOL     OW39262   0.189   2.118   6.846 -0.3892 -0.2753  0.1536
 9267SOL    HW139263   0.236   2.200   6.863  0.0049 -0.3947 -0.3426
 9267SOL    HW239264   0.174   2.076   6.930 -1.2667 -0.2357  0.0142
 9268SOL     OW39265   3.431   0.336   2.465  0.2812 -0.4128 -0.1686
 9268SOL    HW139266   3.451   0.413   2.518 -2.5927 -0.3856  0.8662
 9268SOL    HW239267   3.476   0.263   2.509 -0.9774 -0.9596  0.2178
 9269SOL     OW39268   0.752   0.750  11.034  0.3005 -0.0148 -0.0054
 9269SOL    HW139269   0.731   0.700  10.955  0.0226  1.2520 -0.7249
 9269SOL    HW239270   0.662   0.775  11.056 -0.0290 -1.5047  0.3742
 9270SOL     OW39271   2.651   1.613   8.321  0.2416 -0.3969 -0.2118
 9270SOL    HW139272   2.567   1.658   8.333 -0.8224 -2.3035 -0.4996
 9270SOL    HW239273   2.677   1.643   8.234  0.4526 -0.0712 -0.0336
 9271SOL     OW39274   0.484   1.133   7.175  0.0773 -0.3091 -0.0773
 9271SOL    HW139275   0.453   1.073   7.107  1.6707 -0.1926 -0.9127
 9271SOL    HW239276   0.483   1.221   7.137 -0.0621  0.1312  0.9371
 9272SOL     OW39277   0.090   3.447   5.443 -0.0776 -0.1897  0.0950
 9272SOL    HW139278   0.035   3.465   5.520 -0.9879  1.2376 -0.8928
 9272SOL    HW239279   0.028   3.410   5.380  0.6449 -1.2674  0.0111
 9273SOL     OW39280   2.862   3.642   3.997 -0.4206  0.0361  0.3066
 9273SOL    HW139281   2.876   3.673   4.086 -1.3305 -0.2483  0.5510
 9273SOL    HW239282   2.953   3.621   3.973  0.2817  3.4174 -0.0385
 9274SOL     OW39283   1.300   1.152   0.597  0.2424  0.2831 -0.3613
 9274SOL    HW139284   1.386   1.186   0.573  0.7757 -1.1356 -0.4715
 9274SOL    HW239285   1.313   1.064   0.635 -1.2478  0.5189  0.6840
 9275SOL     OW39286   4.486   4.650   8.931 -0.0591 -0.7395  0.1862
 9275SOL    HW139287   4.486   4.676   9.023 -0.5536 -2.2850  0.6242
 9275SOL    HW239288   4.495   0.012   8.887  0.2639 -0.9730 -0.2015
 9276SOL     OW39289   4.414   4.355   1.265 -0.3622  0.5826 -0.5040
 9276SOL    HW139290   4.364   4.275   1.252  2.0823 -1.5148  2.7960
 9276SOL    HW239291   4.409   4.359   1.361  0.9493  0.9617 -0.4537
 9277SOL     OW39292   3.445   1.068   3.172  0.3659  0.0534 -0.1590
 9277SOL    HW139293   3.456   1.162   3.187 -1.0030  0.1547  0.2414
 9277SOL    HW239294   3.418   1.035   3.257 -0.6085 -0.2602 -0.5932
 9278SOL     OW39295   0.681   3.884   4.801  0.1149  0.1936  0.2717
 9278SOL    HW139296   0.710   3.920   4.885  1.3138  0.1976 -0.1458
 9278SOL    HW239297   0.594   3.849   4.821  1.0462 -2.6152 -0.5474
 9279SOL     OW39298   0.401   0.236   2.108 -0.3009 -0.1415 -0.2002
 9279SOL    HW139299   0.494   0.238   2.086  0.1193 -1.1866  1.4421
 9279SOL    HW239300   0.384   0.327   2.130  5.2098  1.0298 -0.8097
 9280SOL     OW39301   2.904   3.094  13.753 -0.2675  0.1091 -0.0289
 9280SOL    HW139302   2.849   3.019  13.732  0.1950 -0.4462  0.7221
 9280SOL    HW239303   2.855   3.133  13.825  0.2421 -0.5680  0.6816
 9281SOL     OW39304   3.074   3.347  10.344 -0.5622 -0.2532  0.4429
 9281SOL    HW139305   3.020   3.425  10.358 -0.1647  0.3896 -1.5788
 9281SOL    HW239306   3.161   3.380  10.365 -0.9199  0.7565  0.3299
 9282SOL     OW39307   3.657   1.766   7.659 -0.0515  0.5366  0.4033
 9282SOL    HW139308   3.591   1.701   7.681 -1.0369  1.5858  0.5378
 9282SOL    HW239309   3.680   1.726   7.575  0.5278  0.5821  0.5400
 9283SOL     OW39310   2.634   1.991   6.331  0.2844 -0.6583  0.1082
 9283SOL    HW139311   2.642   1.955   6.243  0.5712 -0.8603  0.2176
 9283SOL    HW239312   2.722   1.981   6.368  0.0479  0.3460  0.9466
 9284SOL     OW39313   0.096   2.458   3.354 -0.4868  0.0146  0.0853
 9284SOL    HW139314   0.068   2.513   3.427 -4.3421  0.4198 -1.6976
 9284SOL    HW239315   0.186   2.490   3.351 -0.3800 -0.3677 -0.7769
 9285SOL     OW39316   3.933   3.227   1.450 -0.2359 -0.4792  0.3792
 9285SOL    HW139317   3.874   3.198   1.380 -0.7538 -1.5273  1.2626
 9285SOL    HW239318   3.898   3.315   1.464  1.1419 -0.5039  3.9044
 9286SOL     OW39319   2.162   2.876   8.363 -0.2416  0.5768  0.0479
 9286SOL    HW139320   2.142   2.806   8.301 -0.3273  1.2516 -0.6829
 9286SOL    HW239321   2.226   2.931   8.319  0.3268 -0.1149  0.0198
 9287SOL     OW39322   2.643   2.912   9.670 -0.2846 -0.0319 -0.2319
 9287SOL    HW139323   2.603   2.826   9.659 -1.1913  0.5188 -1.2035
 9287SOL    HW239324   2.736   2.891   9.660 -0.4193 -0.7291  0.0294
 9288SOL     OW39325   0.559   4.511   4.871  0.0817 -0.1334  0.2041
 9288SOL    HW139326   0.465   4.527   4.874 -0.0853 -0.9579 -0.5659
 9288SOL    HW239327   0.565   4.432   4.816 -0.3310 -0.6286  0.8728
 9289SOL     OW39328   1.020   1.653   2.953  0.0337  0.1276 -0.4030
 9289SOL    HW139329   1.097   1.598   2.958 -0.1670 -0.2270 -1.2327
 9289SOL    HW239330   0.982   1.618   2.872  0.1554  1.0396 -0.8467
 9290SOL     OW39331   0.757   3.274   6.042  0.7210  0.0614 -0.4534
 9290SOL    HW139332   0.663   3.268   6.060  0.6263 -2.9506 -2.0362
 9290SOL    HW239333   0.782   3.300   6.131  1.0169  3.6008 -1.5623
 9291SOL     OW39334   4.563   2.990  14.409  0.1727  0.0181 -0.2366
 9291SOL    HW139335   4.637   2.961  14.355  0.9816  1.3861  0.1622
 9291SOL    HW239336   4.484   2.974  14.356 -0.3899 -1.3430  1.0237
 9292SOL     OW39337   3.518   4.433   3.983  0.3000  0.6903 -0.0369
 9292SOL    HW139338   3.427   4.455   4.002  0.8739  1.3838  1.8922
 9292SOL    HW239339   3.559   4.490   4.048 -0.9146  2.3091 -0.6806
 9293SOL     OW39340   2.997   4.057   5.553  0.2930 -0.1663 -0.0342
 9293SOL    HW139341   3.021   3.969   5.523 -0.1420 -0.0691 -0.6732
 9293SOL    HW239342   2.937   4.038   5.625 -1.4604  0.9392 -1.1981
 9294SOL     OW39343   3.060   3.684   3.208 -0.0272  0.3774 -0.6512
 9294SOL    HW139344   3.033   3.754   3.150 -0.8670 -0.6552 -1.4999
 9294SOL    HW239345   2.982   3.629   3.212 -0.0421  0.3046 -1.8608
 9295SOL     OW39346   0.731   1.336   0.681  0.3355 -0.4873 -0.0966
 9295SOL    HW139347   0.670   1.318   0.753  0.6120 -0.8392  0.0504
 9295SOL    HW239348   0.767   1.415   0.721  1.1014 -1.3379  0.8965
 9296SOL     OW39349   0.168   3.117   4.314 -0.3062 -0.0463  0.6436
 9296SOL    HW139350   0.180   3.037   4.264  2.1319 -0.4291  1.8609
 9296SOL    HW239351   0.256   3.153   4.323  0.1134 -0.5627 -1.3860
 9297SOL     OW39352   3.701   0.073  13.555 -0.6287  0.1834  0.2877
 9297SOL    HW139353   3.730   0.084  13.465 -0.7091 -1.0905  0.1112
 9297SOL    HW239354   3.624   0.130  13.560 -2.5239 -2.3154 -0.6012
 9298SOL     OW39355   0.999   0.526  10.020 -0.1911 -0.2965  0.0776
 9298SOL    HW139356   0.965   0.533  10.110 -1.8276 -0.0795 -0.5553
 9298SOL    HW239357   1.055   0.449  10.030 -0.0530 -0.4240 -1.6439
 9299SOL     OW39358   0.214   3.309   6.064  0.1181 -0.0110 -0.2400
 9299SOL    HW139359   0.166   3.256   6.128 -2.5297 -0.6980 -2.7734
 9299SOL    HW239360   0.139   3.305   6.005 -1.5624 -1.3800  1.9870
 9300SOL     OW39361   1.450   2.845   5.039  0.6536 -0.1128 -0.2143
 9300SOL    HW139362   1.529   2.897   5.024  1.4720 -1.2487  0.1439
 9300SOL    HW239363   1.458   2.768   4.982  1.1787  0.3578 -0.7732
 9301SOL     OW39364   3.093   1.517   0.762 -0.2318  0.5906  0.0396
 9301SOL    HW139365   3.104   1.566   0.843  0.3053  0.2392  0.1766
 9301SOL    HW239366   3.094   1.591   0.702  1.1868  1.9040  1.6754
 9302SOL     OW39367   1.215   3.565   3.418  0.0781 -0.1154  0.3061
 9302SOL    HW139368   1.176   3.652   3.410  3.5713  1.2799 -1.5829
 9302SOL    HW239369   1.254   3.579   3.505  2.8571 -1.0993 -0.8024
 9303SOL     OW39370   0.264   2.781   2.017  0.9607  0.3639  0.4922
 9303SOL    HW139371   0.217   2.823   1.945  0.8078 -0.1596  0.2899
 9303SOL    HW239372   0.301   2.857   2.062  0.3014  0.5492  0.7088
 9304SOL     OW39373   0.243   3.930  13.037 -0.3071  0.1910 -0.4317
 9304SOL    HW139374   0.212   3.840  13.043 -3.1367  1.1082 -1.0405
 9304SOL    HW239375   0.336   3.910  13.035 -0.6139 -1.1374 -2.0382
 9305SOL     OW39376   2.422   2.377   4.966 -0.3768  0.7795  0.7766
 9305SOL    HW139377   2.350   2.389   5.028  1.0956  0.6900  2.5033
 9305SOL    HW239378   2.424   2.282   4.960  3.4726  0.8184  1.6329
 9306SOL     OW39379   1.894   0.966   3.668  0.1280  0.6800 -0.2094
 9306SOL    HW139380   1.987   0.988   3.661  1.1183 -2.9546  1.4363
 9306SOL    HW239381   1.911   0.872   3.670  1.3670  0.9099  0.0367
 9307SOL     OW39382   2.088   3.574   5.710 -0.1606 -0.8500  0.0794
 9307SOL    HW139383   1.995   3.555   5.716  0.1184 -1.6258  1.9169
 9307SOL    HW239384   2.113   3.495   5.663  1.7039 -0.4370  0.3626
 9308SOL     OW39385   2.719   2.228   9.342  0.1517 -0.3164 -0.4568
 9308SOL    HW139386   2.720   2.132   9.345  1.6340 -0.3017 -0.4526
 9308SOL    HW239387   2.656   2.245   9.413  0.5127 -1.1348  0.0695
 9309SOL     OW39388   3.103   4.698   5.496 -0.0814  0.3167 -0.7075
 9309SOL    HW139389   3.093   0.071   5.497 -0.5073  0.2565  0.2840
 9309SOL    HW239390   3.061   4.681   5.412  1.2870  1.2368 -1.5767
 9310SOL     OW39391   4.524   0.240  14.782 -0.3577  0.6298 -0.3513
 9310SOL    HW139392   4.586   0.249  14.709  0.3979  0.6165  0.2908
 9310SOL    HW239393   4.579   0.218  14.857  0.8522 -1.1288 -1.7506
 9311SOL     OW39394   0.575   3.772   1.032 -0.1260 -0.3680  0.7082
 9311SOL    HW139395   0.543   3.766   1.122  1.6133 -0.0593  1.3547
 9311SOL    HW239396   0.610   3.860   1.019  0.6299 -0.7692 -0.0084
 9312SOL     OW39397   0.663   4.357   2.024 -0.2002  0.8614 -0.8854
 9312SOL    HW139398   0.699   4.398   1.946  0.5448 -1.0546 -1.5256
 9312SOL    HW239399   0.585   4.411   2.037  0.3961  1.4113  0.4658
 9313SOL     OW39400   0.970   4.694   1.819  0.0685  0.2374 -0.4571
 9313SOL    HW139401   0.916   0.014   1.752  2.1810 -0.2049 -2.4234
 9313SOL    HW239402   1.027   4.654   1.753  2.7253  1.3407  1.1896
 9314SOL     OW39403   1.976   3.971   9.993 -0.1687  0.1324  0.2169
 9314SOL    HW139404   1.894   3.922   9.994 -0.7706  1.0907 -1.2310
 9314SOL    HW239405   2.029   3.924  10.057 -0.1472  0.3619  0.3674
 9315SOL     OW39406   0.656   3.139  10.690  0.2579 -0.3897  0.3287
 9315SOL    HW139407   0.595   3.124  10.763 -0.7231 -0.8612 -0.5915
 9315SOL    HW239408   0.686   3.213  10.744  2.3136 -0.7917 -0.2870
 9316SOL     OW39409   4.227   2.314   5.840  0.2500 -0.3672  0.0523
 9316SOL    HW139410   4.245   2.222   5.821 -0.9979 -0.3418 -1.2300
 9316SOL    HW239411   4.258   2.349   5.756  0.3101 -2.3973 -0.7807
 9317SOL     OW39412   2.912   2.100   1.058  0.0873 -0.1507  0.3532
 9317SOL    HW139413   2.892   2.120   1.150  0.2011 -0.4195  0.4364
 9317SOL    HW239414   2.851   2.165   1.023  0.7402  0.8974  1.1808
 9318SOL     OW39415   4.410   3.857   6.003  0.1835  0.3829  0.2890
 9318SOL    HW139416   4.406   3.894   6.091  0.2035  0.6569  0.1746
 9318SOL    HW239417   4.349   3.918   5.962  0.3510 -0.6467 -1.5066
 9319SOL     OW39418   3.106   4.395   3.473 -0.2205 -0.1657  0.6569
 9319SOL    HW139419   3.030   4.337   3.485 -1.3446  1.5707  1.8502
 9319SOL    HW239420   3.128   4.365   3.385 -1.9789  0.9779 -0.1553
 9320SOL     OW39421   0.404   1.430  16.333  0.0594 -0.3183 -0.0964
 9320SOL    HW139422   0.478   1.487  16.311 -0.8963  2.0038  2.6744
 9320SOL    HW239423   0.451   1.369  16.388  0.7176 -0.8803 -1.2877
 9321SOL     OW39424   1.043   0.937  15.694  0.6103 -0.5993  0.3121
 9321SOL    HW139425   1.080   0.927  15.606  0.2074  1.1865 -0.0734
 9321SOL    HW239426   1.004   0.850  15.702 -0.6276  0.1346  2.3723
 9322SOL     OW39427   0.025   1.861   4.993  0.4532 -0.4471  0.2161
 9322SOL    HW139428   0.026   1.787   5.053  1.4315 -0.3058  0.3803
 9322SOL    HW239429   0.090   1.917   5.036  0.0795  0.1016  0.0632
 9323SOL     OW39430   2.502   0.166   3.527 -0.3033  0.4238  0.4334
 9323SOL    HW139431   2.457   0.227   3.586  1.0941  0.0025  1.9416
 9323SOL    HW239432   2.593   0.181   3.553 -0.0046  0.5644 -0.7364
 9324SOL     OW39433   1.986   2.213  16.245 -0.0758 -0.0134  0.4600
 9324SOL    HW139434   1.952   2.210  16.335  0.4379  1.4758  0.7078
 9324SOL    HW239435   2.042   2.136  16.239  0.3711  0.1819  2.1281
 9325SOL     OW39436   0.401   1.552   0.662  0.7372  0.2711  0.0410
 9325SOL    HW139437   0.354   1.568   0.581  1.5122  3.5091  0.2427
 9325SOL    HW239438   0.378   1.466   0.699  1.5350  0.1445  0.2465
 9326SOL     OW39439   3.896   2.866   2.405 -0.2815 -0.1779  0.2824
 9326SOL    HW139440   3.898   2.884   2.499  0.8311  0.6220  0.1121
 9326SOL    HW239441   3.890   2.771   2.399  0.1112 -0.1132 -1.2100
 9327SOL     OW39442   0.261   3.432  12.874  0.1848 -0.3018 -0.0283
 9327SOL    HW139443   0.258   3.338  12.862 -1.8092 -0.5443  2.5160
 9327SOL    HW239444   0.248   3.467  12.785 -1.8498  0.1523  0.4450
 9328SOL     OW39445   3.687   1.333   6.150 -0.2770 -0.2237  0.6344
 9328SOL    HW139446   3.705   1.383   6.230 -0.4644  0.3524  0.3227
 9328SOL    HW239447   3.775   1.314   6.117 -0.5629  1.7896 -1.3160
 9329SOL     OW39448   3.884   4.382   6.048  0.1930  0.2552  0.0183
 9329SOL    HW139449   3.822   4.450   6.075  0.2924  0.8748 -1.3154
 9329SOL    HW239450   3.897   4.413   5.959 -3.0274 -1.7839 -1.1502
 9330SOL     OW39451   1.420   0.323   6.888 -0.2013 -0.3429 -0.3139
 9330SOL    HW139452   1.471   0.403   6.878 -1.7397  0.8235  1.1683
 9330SOL    HW239453   1.333   0.354   6.914  0.4812  0.0968  1.3971
 9331SOL     OW39454   3.574   0.743  11.709 -0.0255 -0.2550 -0.1375
 9331SOL    HW139455   3.654   0.791  11.725  1.3194 -1.9152 -1.8383
 9331SOL    HW239456   3.502   0.804  11.693  0.7869  0.4938 -0.9580
 9332SOL     OW39457   4.054   3.827   6.225 -0.0222  0.5511  0.5394
 9332SOL    HW139458   4.041   3.803   6.133  0.3613  1.3836  0.2678
 9332SOL    HW239459   4.068   3.737   6.254  2.2527  0.9443  0.7273
 9333SOL     OW39460   1.694   2.586   2.715 -0.7549  0.1822  0.5101
 9333SOL    HW139461   1.784   2.590   2.746 -0.4429 -0.3961 -0.3482
 9333SOL    HW239462   1.690   2.492   2.700 -0.3771 -0.1396  2.4710
 9334SOL     OW39463   1.447   4.275   7.389  0.3012 -0.3447 -0.2608
 9334SOL    HW139464   1.497   4.248   7.311  0.1678 -0.3527 -0.3426
 9334SOL    HW239465   1.515   4.266   7.456  1.4316  1.5561 -1.1335
 9335SOL     OW39466   1.102   3.238   2.982  0.0769 -0.1302 -0.2132
 9335SOL    HW139467   1.162   3.240   2.908 -1.2407  2.5707 -1.2360
 9335SOL    HW239468   1.117   3.325   3.018 -2.0792 -0.0046  0.3916
 9336SOL     OW39469   0.898   0.941   5.606  0.1464 -0.3210 -0.5717
 9336SOL    HW139470   0.941   0.921   5.688  0.0246 -0.0115 -0.4334
 9336SOL    HW239471   0.807   0.949   5.636  0.8417 -1.2323  1.7021
 9337SOL     OW39472   3.053   2.812   6.186  0.6329  1.0243 -0.6717
 9337SOL    HW139473   3.100   2.750   6.241  0.0365  1.2491  0.0943
 9337SOL    HW239474   2.998   2.849   6.255  1.0783 -0.5532  0.5168
 9338SOL     OW39475   3.207   1.297   5.409 -0.0873 -0.2824 -0.3911
 9338SOL    HW139476   3.229   1.205   5.425 -1.2434 -0.7562 -1.5434
 9338SOL    HW239477   3.224   1.338   5.494  0.0925  0.8151 -0.9595
 9339SOL     OW39478   2.084   3.380  17.504 -0.3243 -0.2569  0.1569
 9339SOL    HW139479   2.052   3.310  17.561 -1.6217 -0.7690 -1.2057
 9339SOL    HW239480   2.178   3.389  17.521  0.2167 -2.4900 -1.6072
 9340SOL     OW39481   1.616   3.152   5.206  0.3766  0.1175 -0.2725
 9340SOL    HW139482   1.522   3.161   5.224  0.5689  2.8125 -0.5664
 9340SOL    HW239483   1.615   3.202   5.124 -2.6471 -0.6221 -0.6972
 9341SOL     OW39484   1.243   2.706   2.638 -0.6387  0.6055  0.0033
 9341SOL    HW139485   1.245   2.620   2.678  0.2012 -0.8528 -3.1452
 9341SOL    HW239486   1.262   2.773   2.704 -2.0973 -0.5823  1.6321
 9342SOL     OW39487   2.095   1.795   7.358 -0.0273  0.9620  0.0521
 9342SOL    HW139488   2.095   1.885   7.391 -2.9368  0.7269  0.7027
 9342SOL    HW239489   2.138   1.742   7.425  1.0609  0.6110 -0.9341
 9343SOL     OW39490   4.321   3.593   0.404  0.0428 -0.2939  0.3594
 9343SOL    HW139491   4.343   3.643   0.326 -1.9582 -0.4697 -0.3263
 9343SOL    HW239492   4.402   3.606   0.454  0.2850  0.1294 -0.1484
 9344SOL     OW39493   0.144   0.370   3.467 -0.2096 -0.8073 -0.4697
 9344SOL    HW139494   0.184   0.378   3.380 -1.0445  1.1252 -0.6889
 9344SOL    HW239495   0.210   0.331   3.524 -0.5743 -0.5271  0.1468
 9345SOL     OW39496   3.400   1.863   0.660  0.1362  0.4091 -0.3141
 9345SOL    HW139497   3.387   1.827   0.748 -2.6486 -1.7933 -1.6569
 9345SOL    HW239498   3.359   1.788   0.619  0.0954  0.7976 -0.9877
 9346SOL     OW39499   1.144   4.062  12.235  0.1573 -0.5026  0.0288
 9346SOL    HW139500   1.106   4.089  12.319  0.3969  1.3813 -0.4690
 9346SOL    HW239501   1.156   3.969  12.250 -1.2529 -0.5958  0.5349
 9347SOL     OW39502   1.683   2.687   5.795 -0.0534  0.3962  0.0054
 9347SOL    HW139503   1.621   2.696   5.722 -0.7146 -2.1316  0.2441
 9347SOL    HW239504   1.682   2.775   5.832 -1.2075  0.6676 -0.6647
 9348SOL     OW39505   3.560   0.842   7.191  0.0363  0.4135  0.2131
 9348SOL    HW139506   3.495   0.848   7.261 -0.6333  0.8913 -0.4493
 9348SOL    HW239507   3.614   0.921   7.200  1.0508 -0.0548 -1.6195
 9349SOL     OW39508   1.069   1.588   6.980  0.4346  0.4467 -0.2641
 9349SOL    HW139509   1.134   1.656   6.964 -0.6395  1.3112 -0.9617
 9349SOL    HW239510   1.040   1.606   7.069  0.3323  3.3166 -0.8826
 9350SOL     OW39511   4.720   0.246   2.179 -0.1335  0.2191 -0.0521
 9350SOL    HW139512   4.685   0.170   2.225 -1.2751  0.5585 -0.3422
 9350SOL    HW239513   4.686   0.309   2.243  1.5255 -0.0871  1.1028
 9351SOL     OW39514   0.157   0.581   6.195 -0.0044  0.8670  0.1462
 9351SOL    HW139515   0.142   0.486   6.201  1.3618  0.5811 -0.8767
 9351SOL    HW239516   0.075   0.618   6.163 -0.5176 -1.1174 -0.8686
 9352SOL     OW39517   1.977   3.283   3.835  0.5161 -0.1527 -0.0157
 9352SOL    HW139518   2.000   3.359   3.888 -3.1362  1.4205 -0.7175
 9352SOL    HW239519   1.886   3.270   3.861  0.5649 -0.8479 -0.1824
 9353SOL     OW39520   0.276   3.772   5.348  0.4280  0.1876  0.0361
 9353SOL    HW139521   0.371   3.779   5.359  0.0430  1.9647  2.3092
 9353SOL    HW239522   0.277   3.680   5.322 -0.5993  0.1103  0.2779
 9354SOL     OW39523   3.962   1.500  17.357  0.0732 -0.1675  0.3377
 9354SOL    HW139524   4.052   1.513  17.327  0.1848 -3.5121 -0.7623
 9354SOL    HW239525   3.916   1.544  17.285  1.8877 -0.6217 -1.1039
 9355SOL     OW39526   1.802   0.801  11.533  0.0468 -0.6084  0.2176
 9355SOL    HW139527   1.737   0.802  11.463  0.5582 -0.0783 -0.2488
 9355SOL    HW239528   1.880   0.830  11.485  0.2885 -1.0487  0.3450
 9356SOL     OW39529   0.217   2.832   5.821 -0.0075 -0.7065 -1.1209
 9356SOL    HW139530   0.184   2.746   5.849 -1.2969  0.5434  1.1320
 9356SOL    HW239531   0.154   2.885   5.869  0.6221  0.5493 -1.6707
 9357SOL     OW39532   1.676   4.043   4.034  0.4788  0.2106 -0.1147
 9357SOL    HW139533   1.742   4.112   4.024  0.6593  0.1541  0.7089
 9357SOL    HW239534   1.601   4.087   4.073 -0.0031 -0.0699 -0.7211
 9358SOL     OW39535   2.625   2.775   2.904 -0.0919  0.0063  0.5673
 9358SOL    HW139536   2.616   2.753   2.997 -1.0093  2.1279  0.9803
 9358SOL    HW239537   2.601   2.698   2.852  1.4128  1.3643 -2.1082
 9359SOL     OW39538   2.186   2.415   3.529 -0.3723 -0.3744 -0.2005
 9359SOL    HW139539   2.214   2.331   3.566  0.5201  0.7022  1.5813
 9359SOL    HW239540   2.261   2.474   3.531  0.1975 -1.0453 -1.6671
 9360SOL     OW39541   2.534   2.585   6.244 -0.5882  0.5881  0.0685
 9360SOL    HW139542   2.474   2.550   6.309  1.4612 -2.7167  0.1656
 9360SOL    HW239543   2.543   2.669   6.290 -0.3927  0.0685  0.9644
 9361SOL     OW39544   0.200   0.871   3.026  0.1090  0.3612  0.3455
 9361SOL    HW139545   0.233   0.928   2.956  0.1533  0.0998  0.1512
 9361SOL    HW239546   0.105   0.882   3.021  0.4047  2.0529 -1.5155
 9362SOL     OW39547   4.305   0.177   6.381  0.8415 -0.1350  0.4884
 9362SOL    HW139548   4.396   0.150   6.390  1.4829  1.9013 -0.1018
 9362SOL    HW239549   4.311   0.251   6.442 -1.5649  0.8691 -0.4835
 9363SOL     OW39550   4.438   3.268  10.490 -0.4199  0.2290 -0.3187
 9363SOL    HW139551   4.345   3.281  10.508 -0.0575 -1.5633  2.8257
 9363SOL    HW239552   4.483   3.335  10.543  0.8696 -0.1420 -0.9309
 9364SOL     OW39553   1.937   0.333   4.457  0.2001  0.1420 -0.4147
 9364SOL    HW139554   2.029   0.359   4.448 -0.1558  1.8522  0.7402
 9364SOL    HW239555   1.938   0.245   4.420  1.3416 -0.7478  1.7310
 9365SOL     OW39556   2.697   2.846   7.943  0.0938  0.1122  0.4320
 9365SOL    HW139557   2.675   2.793   8.020  0.2316  1.0002  1.0819
 9365SOL    HW239558   2.790   2.829   7.929 -0.3143 -3.0072  1.2708
 9366SOL     OW39559   4.587   1.736   3.392  0.2359 -0.2790 -0.1176
 9366SOL    HW139560   4.540   1.752   3.473  1.4101  0.8667  0.3318
 9366SOL    HW239561   4.658   1.680   3.423 -0.5704 -0.2980  1.6907
 9367SOL     OW39562   4.475   0.758   5.908 -0.2412  0.3193 -0.3170
 9367SOL    HW139563   4.466   0.674   5.863  0.0810 -0.8213  1.7733
 9367SOL    HW239564   4.407   0.749   5.975 -0.3127  0.7731 -0.3262
 9368SOL     OW39565   4.440   3.907  17.194  0.5492 -0.7218  0.1864
 9368SOL    HW139566   4.429   3.992  17.151  1.8836 -0.3634  0.5456
 9368SOL    HW239567   4.434   3.853  17.115 -0.8489 -0.8097  0.3569
 9369SOL     OW39568   2.618   3.915  11.743  0.3538  0.1618 -0.1235
 9369SOL    HW139569   2.669   3.844  11.704  1.3976  0.5488  0.5350
 9369SOL    HW239570   2.643   3.989  11.686  0.1102 -0.0257 -0.4704
 9370SOL     OW39571   2.025   0.104   6.162 -0.2540 -0.1155 -0.6537
 9370SOL    HW139572   2.016   0.111   6.257  2.5504 -1.3477 -0.3083
 9370SOL    HW239573   2.012   0.197   6.144  0.4273 -0.0276 -0.6747
 9371SOL     OW39574   0.239   0.420   3.162  0.3659  0.4922  0.5221
 9371SOL    HW139575   0.250   0.507   3.125  1.6525  1.4996  3.2436
 9371SOL    HW239576   0.144   0.411   3.156  0.3139 -0.9300  3.2481
 9372SOL     OW39577   1.973   1.266   4.723 -0.6845 -0.3746  0.0210
 9372SOL    HW139578   1.956   1.173   4.741  1.0043 -0.8339 -0.7385
 9372SOL    HW239579   2.068   1.265   4.709 -0.5197 -1.3920  1.1662
 9373SOL     OW39580   2.963   0.406   2.964  1.0414 -0.5307  0.2283
 9373SOL    HW139581   2.890   0.466   2.974  2.4296  1.1414  0.2378
 9373SOL    HW239582   2.928   0.362   2.887  0.9506  0.8904 -0.5308
 9374SOL     OW39583   2.093   1.135   1.733  0.1034 -0.0874 -0.2217
 9374SOL    HW139584   2.148   1.057   1.739  1.3133  0.8156  0.5092
 9374SOL    HW239585   2.039   1.097   1.664  0.8313 -2.6060  0.5936
 9375SOL     OW39586   0.940   3.632  15.382 -0.6121  0.8740 -0.1424
 9375SOL    HW139587   0.966   3.684  15.306  2.4829 -1.6179 -0.7676
 9375SOL    HW239588   0.845   3.644  15.380 -0.2304  4.0001 -0.8054
 9376SOL     OW39589   4.198   0.712   3.138 -0.2953  0.1224 -0.4009
 9376SOL    HW139590   4.247   0.793   3.123 -2.9657  1.8806  0.3581
 9376SOL    HW239591   4.197   0.690   3.045  0.6186  0.4109 -0.4876
 9377SOL     OW39592   2.463   2.535   3.455  0.4560 -0.1587 -0.3970
 9377SOL    HW139593   2.450   2.443   3.431 -2.7888 -0.0015  0.8596
 9377SOL    HW239594   2.556   2.547   3.437 -0.0423  0.9756 -2.1694
 9378SOL     OW39595   0.092   3.336  10.386 -0.4818  0.1842  0.2830
 9378SOL    HW139596   0.086   3.255  10.436  4.0141  0.2550  0.8855
 9378SOL    HW239597   0.136   3.401  10.441  0.7498 -0.0552 -0.4336
 9379SOL     OW39598   2.479   0.712  13.450  0.5663  0.1951  0.4947
 9379SOL    HW139599   2.511   0.622  13.457  3.9722  1.3741 -0.2863
 9379SOL    HW239600   2.388   0.700  13.477 -0.4015  1.2828 -2.2794
 9380SOL     OW39601   1.280   1.047   8.452  0.0973  1.4408 -0.0069
 9380SOL    HW139602   1.185   1.043   8.448  0.1793  1.0483 -1.5733
 9380SOL    HW239603   1.299   1.138   8.474  1.3209  1.0227  0.7106
 9381SOL     OW39604   3.667   4.637   7.073  0.0097 -0.8424  0.1135
 9381SOL    HW139605   3.610   4.674   7.140  2.5587 -0.0676  1.8921
 9381SOL    HW239606   3.726   4.710   7.051  1.5049 -2.4777 -1.3016
 9382SOL     OW39607   3.840   2.992  13.109 -0.2667 -0.4661 -0.3065
 9382SOL    HW139608   3.789   2.929  13.058 -1.1111  0.0937 -0.1513
 9382SOL    HW239609   3.916   2.993  13.051  1.3620 -2.1200  1.8004
 9383SOL     OW39610   3.607   3.407   2.784 -0.5687 -0.3718 -0.4903
 9383SOL    HW139611   3.655   3.328   2.808  0.4071  1.2192  2.8419
 9383SOL    HW239612   3.524   3.404   2.831  0.4008  1.4145  1.3345
 9384SOL     OW39613   3.970   0.494  15.792  0.2709  0.0676  0.2791
 9384SOL    HW139614   3.941   0.403  15.792 -1.1445  0.5237 -0.3050
 9384SOL    HW239615   3.958   0.511  15.886 -4.3891 -1.4568 -0.0207
 9385SOL     OW39616   3.085   1.786   9.652 -0.3995 -0.4884 -0.2697
 9385SOL    HW139617   3.169   1.761   9.689  0.2159  1.5438 -0.2870
 9385SOL    HW239618   3.025   1.751   9.718 -0.9262 -0.4449 -0.7231
 9386SOL     OW39619   0.437   0.339   9.267 -0.0488  0.4466 -0.0037
 9386SOL    HW139620   0.440   0.363   9.175 -1.6785  0.3953 -0.0652
 9386SOL    HW239621   0.481   0.417   9.303  1.5802  0.6977 -2.5731
 9387SOL     OW39622   2.045   2.693  17.231  0.2875 -0.0097 -0.3433
 9387SOL    HW139623   2.075   2.659  17.147 -1.2513  0.7867 -1.2145
 9387SOL    HW239624   1.950   2.697  17.219  0.0246  0.4252  1.8441
 9388SOL     OW39625   1.844   4.684   9.254 -0.0926  0.0055  0.9218
 9388SOL    HW139626   1.908   4.705   9.186 -1.2054  0.2110 -0.0578
 9388SOL    HW239627   1.901   4.664   9.328 -0.7228 -0.4072  1.2916
 9389SOL     OW39628   3.112   3.818   7.233  0.4059 -0.6106  0.5011
 9389SOL    HW139629   3.188   3.762   7.220  0.0182 -0.4603 -2.4420
 9389SOL    HW239630   3.161   3.900   7.235 -0.2201 -0.2557  1.4455
 9390SOL     OW39631   4.310   0.668   0.839  0.4982 -0.2341 -0.1955
 9390SOL    HW139632   4.236   0.726   0.859  1.2286 -0.5483  3.3707
 9390SOL    HW239633   4.277   0.602   0.778 -0.2893  0.1759 -0.2098
 9391SOL     OW39634   1.421   4.126   8.958  0.2475  0.0056 -0.3548
 9391SOL    HW139635   1.498   4.114   9.013 -0.1065  0.9566  0.3474
 9391SOL    HW239636   1.377   4.202   8.997  2.1876  1.2453 -0.5682
 9392SOL     OW39637   3.812   3.986   3.656 -0.1429 -0.2816 -0.2234
 9392SOL    HW139638   3.760   3.917   3.696 -0.8878  0.7622  0.5995
 9392SOL    HW239639   3.847   3.937   3.581  0.2740 -0.1439 -0.1196
 9393SOL     OW39640   2.691   4.322   8.371 -0.1891 -0.7121  0.0114
 9393SOL    HW139641   2.712   4.371   8.451  0.3535 -0.3246 -0.3636
 9393SOL    HW239642   2.768   4.271   8.346 -1.2326 -2.3171  0.0828
 9394SOL     OW39643   1.742   1.476   2.276  0.5047  0.2796  0.3102
 9394SOL    HW139644   1.706   1.500   2.191  3.1921  1.2885 -0.5460
 9394SOL    HW239645   1.738   1.564   2.314  1.4577  1.3796 -2.1412
 9395SOL     OW39646   2.585   0.134   4.833  0.5631 -0.2177  0.6318
 9395SOL    HW139647   2.561   0.050   4.794  2.9832 -1.6970  2.3637
 9395SOL    HW239648   2.585   0.111   4.925  1.4136 -1.8625  0.2158
 9396SOL     OW39649   2.467   1.679   7.053  0.4038  0.0171 -0.2902
 9396SOL    HW139650   2.373   1.680   7.035  0.1387  1.7042  1.2358
 9396SOL    HW239651   2.469   1.650   7.144 -0.9140 -0.0369 -0.2855
 9397SOL     OW39652   2.761   0.460   2.572 -0.2876 -0.0919  0.2055
 9397SOL    HW139653   2.670   0.435   2.557 -0.0928 -1.2282  0.9129
 9397SOL    HW239654   2.769   0.527   2.504  1.7979  0.6152  1.1661
 9398SOL     OW39655   3.872   4.411  17.689 -0.2408  0.2781 -0.3646
 9398SOL    HW139656   3.913   4.406   0.085  2.0603  1.3771 -1.3972
 9398SOL    HW239657   3.781   4.392   0.024  0.1800 -0.9393  0.1843
 9399SOL     OW39658   3.458   1.651   8.113 -0.0945 -0.2401 -0.1538
 9399SOL    HW139659   3.366   1.648   8.087  0.4657  0.7396 -2.2690
 9399SOL    HW239660   3.477   1.557   8.102  0.1108 -0.1872 -0.2590
 9400SOL     OW39661   3.407   0.729   4.191 -0.0375 -0.6330  0.3296
 9400SOL    HW139662   3.381   0.664   4.126 -1.0362  1.2401 -1.1269
 9400SOL    HW239663   3.486   0.688   4.227  0.2143 -2.0651 -1.8967
 9401SOL     OW39664   0.178   3.571   3.381 -0.4506  0.4490  0.1956
 9401SOL    HW139665   0.216   3.617   3.456 -1.0216  1.6962 -0.2831
 9401SOL    HW239666   0.085   3.571   3.402 -0.6847 -0.2963 -0.8585
 9402SOL     OW39667   2.340   3.624   5.311 -0.1410  0.0161  0.5962
 9402SOL    HW139668   2.246   3.622   5.295 -0.1655  3.5975  0.2311
 9402SOL    HW239669   2.347   3.691   5.379 -1.0355  1.6588 -0.9482
 9403SOL     OW39670   2.866   4.252   3.509 -0.0282  0.4014  0.0013
 9403SOL    HW139671   2.803   4.209   3.566 -1.3436  2.3924  0.0248
 9403SOL    HW239672   2.820   4.269   3.427  0.3731  1.5354  0.0093
 9404SOL     OW39673   2.375   4.131   2.830  0.5482 -0.7418 -0.0558
 9404SOL    HW139674   2.295   4.159   2.785 -0.1271 -2.6502 -0.0427
 9404SOL    HW239675   2.351   4.040   2.850  2.0552 -1.4643 -1.5548
 9405SOL     OW39676   3.619   0.164   1.354  0.4355  0.4708 -0.2732
 9405SOL    HW139677   3.562   0.093   1.383  1.1797 -0.2357 -0.5342
 9405SOL    HW239678   3.614   0.161   1.258 -2.0360  2.0781 -0.2002
 9406SOL     OW39679   2.687   0.284   1.331 -0.4059 -0.0384  0.0711
 9406SOL    HW139680   2.677   0.208   1.274 -0.9096  0.4913 -0.5477
 9406SOL    HW239681   2.598   0.298   1.364 -0.5568 -1.1136  0.1277
 9407SOL     OW39682   3.913   3.454   6.518  0.7954  0.0586 -0.0905
 9407SOL    HW139683   3.951   3.474   6.603 -0.1080  1.5921 -0.0658
 9407SOL    HW239684   3.983   3.393   6.493  1.0712 -0.0110  0.8485
 9408SOL     OW39685   0.113   3.922   5.676 -0.4725  0.4063  0.2426
 9408SOL    HW139686   0.173   3.853   5.704  0.5265  0.0505 -2.7264
 9408SOL    HW239687   0.074   3.950   5.759 -1.5101  1.5515 -0.6349
 9409SOL     OW39688   4.034   1.747  12.800  0.3103 -0.3092 -0.3317
 9409SOL    HW139689   4.041   1.778  12.890 -0.8602 -0.4178 -0.2082
 9409SOL    HW239690   4.086   1.811  12.751 -1.0526  1.6793  0.8063
 9410SOL     OW39691   2.020   4.466  13.735 -0.1831  0.0298 -0.2838
 9410SOL    HW139692   2.027   4.397  13.668 -0.0113  0.1423 -0.3825
 9410SOL    HW239693   1.933   4.502  13.719 -0.0991  1.2733  2.0592
 9411SOL     OW39694   3.124   3.930   9.348 -0.2223 -0.3306  0.4292
 9411SOL    HW139695   3.184   3.899   9.280  1.1137 -0.2114  1.5551
 9411SOL    HW239696   3.046   3.891   9.308 -0.1168 -0.2123  0.1068
 9412SOL     OW39697   3.906   0.935   9.304 -0.1388 -0.1056 -0.1418
 9412SOL    HW139698   3.941   0.983   9.379 -1.1898 -1.3028  1.0950
 9412SOL    HW239699   3.950   0.851   9.312  1.0726  0.7365  2.1235
 9413SOL     OW39700   3.286   3.391   6.359  0.7053 -0.0425 -0.0916
 9413SOL    HW139701   3.258   3.387   6.268 -3.4933  0.7543  1.1724
 9413SOL    HW239702   3.259   3.306   6.393 -0.0434  1.4940  3.1728
 9414SOL     OW39703   0.537   3.993   6.755 -0.3226  0.3579  0.2009
 9414SOL    HW139704   0.607   3.952   6.806  0.8476  1.8103 -0.2552
 9414SOL    HW239705   0.453   3.958   6.786  1.2773 -1.7875  2.0971
 9415SOL     OW39706   2.528   0.116   3.268  0.1264  0.2741  0.2940
 9415SOL    HW139707   2.481   0.188   3.225  0.6739  0.0188 -0.7146
 9415SOL    HW239708   2.518   0.137   3.361 -0.8092  0.1199  0.2299
 9416SOL     OW39709   4.260   1.867   1.855  0.1775  0.3595  0.1563
 9416SOL    HW139710   4.176   1.894   1.893 -0.3326 -0.9461 -0.0714
 9416SOL    HW239711   4.270   1.940   1.793 -0.2816  0.1544 -0.1646
 9417SOL     OW39712   0.037   2.801  12.453 -0.1965  0.3236 -0.7568
 9417SOL    HW139713   0.002   2.864  12.391  0.4561  0.7059 -0.7335
 9417SOL    HW239714   0.021   2.866  12.520 -0.5888 -0.4313 -0.1116
 9418SOL     OW39715   1.133   3.472   7.767 -0.1770  0.3781  0.3964
 9418SOL    HW139716   1.105   3.536   7.833  0.5154  1.9267 -0.8073
 9418SOL    HW239717   1.148   3.529   7.692  1.7937  1.3754  1.5502
 9419SOL     OW39718   0.357   0.855   3.745  0.9519 -0.2390  0.3987
 9419SOL    HW139719   0.334   0.947   3.744  1.3807 -0.1270  0.5503
 9419SOL    HW239720   0.325   0.836   3.657 -3.6868 -1.4735  2.3691
 9420SOL     OW39721   0.489   0.374   8.285 -0.1913  0.2798 -0.8319
 9420SOL    HW139722   0.406   0.414   8.259 -0.0350  0.8835 -0.3966
 9420SOL    HW239723   0.458   0.309   8.349 -2.3884  1.0008 -1.1733
 9421SOL     OW39724   0.475   4.445  12.650  0.4980  0.5190 -0.6155
 9421SOL    HW139725   0.499   4.402  12.568  0.9369 -0.6161  0.1122
 9421SOL    HW239726   0.439   4.364  12.686  2.6952 -0.4439 -0.6011
 9422SOL     OW39727   0.315   1.293   0.695  0.4451 -0.2194 -0.5270
 9422SOL    HW139728   0.386   1.249   0.741  0.7168 -0.5313 -1.2549
 9422SOL    HW239729   0.341   1.280   0.604 -0.6228  0.7902 -0.9829
 9423SOL     OW39730   1.064   0.278   8.610 -0.2549 -0.1434 -0.3478
 9423SOL    HW139731   1.104   0.344   8.553 -0.0958 -0.2838 -0.3966
 9423SOL    HW239732   0.985   0.271   8.557 -0.0677  0.9587 -0.7743
 9424SOL     OW39733   0.119   2.130   8.977 -0.2404  0.6634  0.0560
 9424SOL    HW139734   0.194   2.145   8.919  1.3487 -0.6774  1.7627
 9424SOL    HW239735   0.139   2.043   9.011 -0.7987  1.3233  2.1084
 9425SOL     OW39736   1.715   0.131   8.413 -0.1859  0.1096  0.2106
 9425SOL    HW139737   1.675   0.097   8.493  0.4071  1.3604  1.0384
 9425SOL    HW239738   1.700   0.220   8.445  0.9991  0.0364  0.9968
 9426SOL     OW39739   3.471   3.766   4.415  0.3551 -0.9213 -0.6193
 9426SOL    HW139740   3.379   3.743   4.399  0.4679 -1.0429 -1.0948
 9426SOL    HW239741   3.459   3.839   4.475  0.3729 -1.0923 -0.4096
 9427SOL     OW39742   2.128   1.936   1.964  0.2675  0.0301 -0.0433
 9427SOL    HW139743   2.069   1.933   1.888  1.4767 -1.1132 -0.9387
 9427SOL    HW239744   2.217   1.937   1.930  0.1972 -0.6646 -0.2620
 9428SOL     OW39745   1.385   4.121   0.483  1.1338 -0.0317 -0.0788
 9428SOL    HW139746   1.406   4.155   0.570 -2.3426  2.2541 -0.1631
 9428SOL    HW239747   1.298   4.152   0.461  1.5114 -0.2711 -1.8831
 9429SOL     OW39748   3.928   1.523   7.420 -0.3375 -0.6480 -0.2571
 9429SOL    HW139749   3.920   1.512   7.515 -2.1231  1.2964 -0.1760
 9429SOL    HW239750   4.016   1.486   7.415  0.2369  0.1767  3.7246
 9430SOL     OW39751   3.310   0.032  14.224  0.1203  0.5480 -0.1356
 9430SOL    HW139752   3.328   4.682  14.164  1.0437  0.5311  0.1439
 9430SOL    HW239753   3.402   0.057  14.239  0.4314 -0.5811 -0.1755
 9431SOL     OW39754   2.706   2.670   3.374  0.5228 -0.0548 -0.1858
 9431SOL    HW139755   2.783   2.661   3.430  1.0796  0.8136 -0.8129
 9431SOL    HW239756   2.667   2.751   3.408  0.6091 -0.1502  0.1384
 9432SOL     OW39757   2.678   1.940   1.834  0.0314  0.1364  0.7344
 9432SOL    HW139758   2.740   1.929   1.763  1.8905  1.2941  2.1615
 9432SOL    HW239759   2.678   2.036   1.845  0.6910  0.4778 -2.3148
 9433SOL     OW39760   0.932   1.498   4.973  1.0151  0.2134 -0.1338
 9433SOL    HW139761   0.921   1.591   4.955  0.0983  0.4448  1.6047
 9433SOL    HW239762   0.862   1.475   4.911  3.1209  0.4800 -2.6314
 9434SOL     OW39763   3.726   3.938   7.541  0.3383 -0.0197  0.2401
 9434SOL    HW139764   3.639   3.927   7.504  0.8826 -3.1484 -0.0711
 9434SOL    HW239765   3.696   3.970   7.626  1.7866  1.3525  0.2333
 9435SOL     OW39766   4.093   2.791   7.423 -0.6674 -0.3236 -0.0947
 9435SOL    HW139767   4.046   2.869   7.393 -1.0793  0.4621  2.6154
 9435SOL    HW239768   4.182   2.817   7.398  0.1008 -2.3278  0.5724
 9436SOL     OW39769   3.047   0.072   3.780 -0.4341  0.3389 -0.0723
 9436SOL    HW139770   2.978   0.033   3.834  1.8952 -1.1527  1.8047
 9436SOL    HW239771   3.017   0.032   3.698  0.9429  0.4675 -0.6298
 9437SOL     OW39772   2.541   2.509   2.789 -0.0142 -0.2201 -0.1045
 9437SOL    HW139773   2.488   2.471   2.859 -0.5515  1.7309  0.5189
 9437SOL    HW239774   2.570   2.430   2.743  1.3777  1.9856 -3.0189
 9438SOL     OW39775   4.320   3.597   6.061  0.0941 -0.2179 -0.2720
 9438SOL    HW139776   4.343   3.685   6.031 -3.3479  0.1598 -1.8417
 9438SOL    HW239777   4.229   3.611   6.032 -0.5378 -1.0303  1.3117
 9439SOL     OW39778   2.431   3.784  10.430 -0.3867  0.2986 -0.1684
 9439SOL    HW139779   2.409   3.694  10.451  1.3535 -0.4836 -1.6948
 9439SOL    HW239780   2.350   3.831  10.451 -0.8780 -1.1761  1.2167
 9440SOL     OW39781   3.990   2.088  16.065 -0.3258 -0.4324 -0.0352
 9440SOL    HW139782   4.027   2.137  16.139  2.2856 -1.7438 -0.4924
 9440SOL    HW239783   4.065   2.044  16.025  0.9515  1.1334  0.6099
 9441SOL     OW39784   0.120   0.366   4.390 -0.3396 -0.1398  0.3505
 9441SOL    HW139785   0.030   0.360   4.359  0.6275 -1.4094 -2.2261
 9441SOL    HW239786   0.150   0.443   4.341  0.4440 -0.2728  0.6239
 9442SOL     OW39787   3.206   1.889   3.306  0.2585  0.3920  0.1941
 9442SOL    HW139788   3.222   1.953   3.237 -0.8497 -0.5375 -0.9454
 9442SOL    HW239789   3.194   1.810   3.252 -1.1267  0.4801  0.3825
 9443SOL     OW39790   0.551   1.858  14.372  0.0060 -0.3702 -0.0876
 9443SOL    HW139791   0.645   1.840  14.377 -0.0297 -0.1769  1.3885
 9443SOL    HW239792   0.530   1.814  14.290  2.7883 -0.9869 -0.4732
 9444SOL     OW39793   2.289   1.185   9.436  1.0313 -0.3138  0.1203
 9444SOL    HW139794   2.299   1.277   9.412 -1.4407  0.0293  0.3509
 9444SOL    HW239795   2.290   1.152   9.346  1.7546 -0.0400  0.0274
 9445SOL     OW39796   1.145   0.864   6.809  0.4960 -0.1864 -0.1977
 9445SOL    HW139797   1.207   0.820   6.867  0.1565 -0.7352 -0.2501
 9445SOL    HW239798   1.198   0.940   6.785  1.1539  0.2551  2.5673
 9446SOL     OW39799   1.466   2.760  13.956 -0.2041 -0.0667 -0.0837
 9446SOL    HW139800   1.499   2.764  13.866  2.0270  1.4486  0.8053
 9446SOL    HW239801   1.394   2.823  13.949  0.0969  0.3585  0.6309
 9447SOL     OW39802   1.060   4.363  11.576  0.2208 -0.2798 -0.0143
 9447SOL    HW139803   1.015   4.284  11.608 -0.7696  0.1235 -0.4003
 9447SOL    HW239804   1.095   4.413  11.650  0.4369 -1.1120  0.4520
 9448SOL     OW39805   2.905   3.786   9.571 -0.0759 -0.0523 -0.5355
 9448SOL    HW139806   2.902   3.724   9.498 -3.1619 -0.2042 -0.2619
 9448SOL    HW239807   2.835   3.759   9.630  0.1256 -2.0324 -1.2068
 9449SOL     OW39808   2.126   3.227  14.453  0.3844 -0.2633  0.0621
 9449SOL    HW139809   2.068   3.153  14.474 -0.3799 -0.3036 -2.1147
 9449SOL    HW239810   2.101   3.293  14.517 -1.3150 -1.2107  0.3852
 9450SOL     OW39811   4.668   0.705  17.101  0.4003  0.0876  0.6124
 9450SOL    HW139812   4.604   0.775  17.096  2.8186  1.9868 -3.5795
 9450SOL    HW239813   4.708   0.731  17.183 -0.2705 -2.4220  1.7338
 9451SOL     OW39814   4.444   3.630  12.655  0.0940 -0.1738 -0.5466
 9451SOL    HW139815   4.478   3.598  12.570  0.9742  2.6276 -1.2352
 9451SOL    HW239816   4.362   3.582  12.662 -0.9011  1.7421  0.6674
 9452SOL     OW39817   3.031   4.708   1.846  0.2230 -0.0407  0.3459
 9452SOL    HW139818   2.969   4.648   1.806  1.3186 -0.3232 -0.9447
 9452SOL    HW239819   3.034   0.061   1.787  1.0222  0.7889  1.4451
 9453SOL     OW39820   3.870   2.329   4.308  0.3373  0.3701 -0.3540
 9453SOL    HW139821   3.805   2.350   4.375  0.0227 -0.9311 -0.2682
 9453SOL    HW239822   3.837   2.367   4.226  1.7427  2.1454 -0.1125
 9454SOL     OW39823   3.512   0.213  15.919 -0.3896  0.0034  0.0133
 9454SOL    HW139824   3.593   0.209  15.868  0.0676  3.6826  0.4553
 9454SOL    HW239825   3.473   0.129  15.894 -0.6298  0.3671 -0.8111
 9455SOL     OW39826   1.232   3.586   4.633 -0.1986  0.2131  0.1906
 9455SOL    HW139827   1.230   3.582   4.729  0.6704  2.7680  0.3142
 9455SOL    HW239828   1.290   3.513   4.613  0.5593 -0.1696  3.8068
 9456SOL     OW39829   0.495   2.864   4.746  0.1434 -0.0548 -0.5274
 9456SOL    HW139830   0.528   2.799   4.808 -0.4823 -2.0330 -2.3116
 9456SOL    HW239831   0.402   2.845   4.749  1.0175 -4.3880 -1.0254
 9457SOL     OW39832   3.359   4.560   8.840  0.1659  0.4796 -0.1338
 9457SOL    HW139833   3.269   4.581   8.816 -0.5073 -0.2425  1.8236
 9457SOL    HW239834   3.394   4.561   8.751  0.3685 -0.9095 -0.0588
 9458SOL     OW39835   1.709   1.413   9.356  0.9130 -0.1145 -0.0742
 9458SOL    HW139836   1.653   1.338   9.341  0.6195  0.0351  0.2676
 9458SOL    HW239837   1.680   1.475   9.288 -0.3640  1.3570  1.7981
 9459SOL     OW39838   2.451   3.370  17.364  0.5975 -0.4652  0.0466
 9459SOL    HW139839   2.518   3.396  17.301  1.2845  0.6470  1.2347
 9459SOL    HW239840   2.437   3.279  17.336 -1.0469 -0.1755 -0.0803
 9460SOL     OW39841   4.445   2.679   4.927 -0.3862  0.1711  0.6895
 9460SOL    HW139842   4.473   2.597   4.887 -0.3202  0.6340 -0.2013
 9460SOL    HW239843   4.507   2.674   5.000 -1.0815  0.7182  1.3186
 9461SOL     OW39844   2.550   1.319  14.250  0.1470 -0.1040  0.0171
 9461SOL    HW139845   2.534   1.331  14.156  1.1139  0.6651 -0.0447
 9461SOL    HW239846   2.475   1.265  14.275 -0.4421  1.2425  1.1718
 9462SOL     OW39847   2.748   1.899   6.074  0.0675 -0.3809  0.4726
 9462SOL    HW139848   2.721   1.888   5.982 -0.1661  1.2725  0.3362
 9462SOL    HW239849   2.803   1.976   6.056  2.4646 -2.6559 -1.9841
 9463SOL     OW39850   1.282   1.687   5.053  0.3626 -0.5567 -0.0176
 9463SOL    HW139851   1.282   1.631   5.131 -0.8059  1.0660  1.1628
 9463SOL    HW239852   1.375   1.677   5.029 -0.3982 -1.9115 -2.4156
 9464SOL     OW39853   0.898   1.128   3.561  0.1011  0.2648 -0.3275
 9464SOL    HW139854   0.880   1.034   3.550  0.7630  0.1131 -0.1224
 9464SOL    HW239855   0.807   1.158   3.565  0.0645  0.0873  0.1484
 9465SOL     OW39856   1.166   2.681   7.222  0.1690 -0.2238  0.4037
 9465SOL    HW139857   1.182   2.668   7.316  0.0346  0.0330  0.4612
 9465SOL    HW239858   1.242   2.631   7.192  0.1476 -0.7620  1.2552
 9466SOL     OW39859   1.219   0.631   6.165 -0.1500  0.3279 -0.5819
 9466SOL    HW139860   1.251   0.554   6.118 -0.1738 -0.8671  1.3573
 9466SOL    HW239861   1.277   0.628   6.241  0.1362  0.3521 -0.8011
 9467SOL     OW39862   0.554   0.991   7.501  0.5852  0.1711  0.3606
 9467SOL    HW139863   0.542   1.026   7.412  2.1360 -0.1369  0.0296
 9467SOL    HW239864   0.524   0.903   7.482 -0.2068  0.2166  1.4143
 9468SOL     OW39865   2.059   1.357   0.694 -0.1952 -0.2242 -0.0190
 9468SOL    HW139866   1.974   1.400   0.703  0.0649  0.8055 -2.3702
 9468SOL    HW239867   2.072   1.362   0.599  0.8041 -0.7059  0.0972
 9469SOL     OW39868   2.814   2.608   7.742 -0.0403  0.0241  0.4243
 9469SOL    HW139869   2.847   2.691   7.778  2.0702 -1.3462  1.6543
 9469SOL    HW239870   2.794   2.557   7.820  0.8148  0.1598  0.7306
 9470SOL     OW39871   1.950   0.163   7.355  0.9581 -1.3750  0.0240
 9470SOL    HW139872   1.919   0.175   7.445  1.5072 -1.8007  0.2705
 9470SOL    HW239873   2.009   0.089   7.370  2.7856  0.0856  0.0920
 9471SOL     OW39874   2.939   1.920  13.708  0.2960  0.5196 -0.6548
 9471SOL    HW139875   2.907   1.990  13.766  0.0034  0.7580 -1.1077
 9471SOL    HW239876   2.985   1.969  13.639 -0.1018 -0.0063 -1.2877
 9472SOL     OW39877   1.792   2.899   5.243  0.3053  0.5861 -0.1064
 9472SOL    HW139878   1.728   2.970   5.245 -0.6202 -0.2980  1.9351
 9472SOL    HW239879   1.874   2.947   5.242  0.0241  1.0712  0.0047
 9473SOL     OW39880   4.434   2.037  11.000  0.5081  0.3190 -0.5681
 9473SOL    HW139881   4.442   1.955  10.951 -0.4197  0.4815 -0.9873
 9473SOL    HW239882   4.393   2.007  11.081  1.9852 -1.6631 -0.5415
 9474SOL     OW39883   0.523   2.868   5.159  0.0783 -0.0061  0.2936
 9474SOL    HW139884   0.450   2.892   5.102 -1.9696 -2.3122  1.9686
 9474SOL    HW239885   0.504   2.775   5.171 -0.5271 -0.1790 -2.0931
 9475SOL     OW39886   4.120   4.614   9.370  0.1481 -0.2700  0.4800
 9475SOL    HW139887   4.166   4.690   9.405  1.3170 -1.3853  1.3716
 9475SOL    HW239888   4.069   4.596   9.450 -2.4532 -2.2334 -1.6042
 9476SOL     OW39889   4.214   2.403   7.594 -0.4337  0.1239  0.0547
 9476SOL    HW139890   4.265   2.475   7.556  0.5025 -0.5730 -0.0142
 9476SOL    HW239891   4.272   2.328   7.577  1.0197  1.1311  0.5633
 9477SOL     OW39892   4.678   2.227   0.134 -0.6559  0.4182 -0.8678
 9477SOL    HW139893   4.645   2.233   0.045  0.2313 -2.7253 -1.4052
 9477SOL    HW239894   4.605   2.259   0.187 -0.8945  0.0224 -0.9570
 9478SOL     OW39895   1.678   0.046   7.810  0.0343  0.3250  0.1851
 9478SOL    HW139896   1.703   4.696   7.751 -0.3885  0.2070  0.1543
 9478SOL    HW239897   1.591   0.021   7.840 -0.0336  1.2479  0.7313
 9479SOL     OW39898   4.295   3.043   1.714 -0.2277 -0.3549 -0.1276
 9479SOL    HW139899   4.210   3.007   1.739 -1.3610 -0.2977 -3.9010
 9479SOL    HW239900   4.278   3.127   1.671 -1.7858 -0.6719 -0.1110
 9480SOL     OW39901   1.724   1.180   3.843 -0.6209  0.0815  0.0144
 9480SOL    HW139902   1.636   1.154   3.813 -1.7884  3.7837  0.2482
 9480SOL    HW239903   1.771   1.097   3.846 -0.8839 -0.1348 -1.8887
 9481SOL     OW39904   1.817   2.589   1.242  0.4546 -0.4634  0.1542
 9481SOL    HW139905   1.902   2.545   1.237 -0.4163 -2.1436 -0.1909
 9481SOL    HW239906   1.805   2.604   1.335  1.1900  1.2090 -0.0166
 9482SOL     OW39907   0.169   0.878  10.074  0.0671  0.7108  0.1380
 9482SOL    HW139908   0.131   0.858  10.160  1.6650  1.4065  1.0096
 9482SOL    HW239909   0.181   0.789  10.040  0.3707  1.2287 -1.1004
 9483SOL     OW39910   1.545   3.695   7.290  0.1960  0.1053  0.2880
 9483SOL    HW139911   1.499   3.753   7.350  0.5845 -0.5642  1.2357
 9483SOL    HW239912   1.531   3.623   7.351  0.2246  0.2116  0.4185
 9484SOL     OW39913   0.897   0.116   7.502  0.0768  0.0725 -0.0758
 9484SOL    HW139914   0.939   0.144   7.583 -0.7579 -0.0618  0.3976
 9484SOL    HW239915   0.809   0.100   7.536  0.0758 -1.2297 -0.6807
 9485SOL     OW39916   3.162   3.620  12.075  0.1481  0.4439  0.2725
 9485SOL    HW139917   3.103   3.690  12.103 -2.2277 -1.2404 -0.4505
 9485SOL    HW239918   3.242   3.663  12.044  0.6044  0.6155  1.7190
 9486SOL     OW39919   3.511   1.106  11.408  0.4933 -0.4491 -0.0361
 9486SOL    HW139920   3.471   1.189  11.382  0.5034 -0.1916  0.7932
 9486SOL    HW239921   3.530   1.067  11.322 -0.6945  1.6122 -1.2432
 9487SOL     OW39922   0.273   0.566   9.437 -0.3941 -0.0478  0.3441
 9487SOL    HW139923   0.321   0.486   9.458 -0.4871 -0.0257  0.6329
 9487SOL    HW239924   0.251   0.587   9.527  0.1304  1.4270  0.1158
 9488SOL     OW39925   4.018   1.283   1.388 -0.3027 -0.2891  0.1397
 9488SOL    HW139926   4.013   1.216   1.457 -1.1728 -0.8108 -0.4254
 9488SOL    HW239927   4.103   1.264   1.349 -0.3470  0.5794 -0.3619
 9489SOL     OW39928   2.575   1.901   0.742  0.0501 -0.0701 -0.4515
 9489SOL    HW139929   2.581   1.911   0.837 -2.5566 -0.5569 -0.2205
 9489SOL    HW239930   2.663   1.930   0.717  0.5137 -1.2548 -0.1935
 9490SOL     OW39931   1.777   0.093   6.577 -0.3018 -1.0825 -0.3043
 9490SOL    HW139932   1.686   0.102   6.605  0.7987  2.3276  2.1328
 9490SOL    HW239933   1.799   0.007   6.613 -0.0062 -1.6781 -1.9323
 9491SOL     OW39934   1.928   1.429   8.914 -0.3665 -0.1949 -0.1851
 9491SOL    HW139935   1.932   1.431   8.818 -1.2323 -0.6991 -0.2349
 9491SOL    HW239936   1.862   1.361   8.927 -0.3542  0.2964  2.4799
 9492SOL     OW39937   1.903   2.854   2.656 -0.0051  0.2789 -0.4887
 9492SOL    HW139938   1.963   2.817   2.721 -1.0592  0.0321  0.3400
 9492SOL    HW239939   1.911   2.783   2.592  2.8932  0.8995 -0.8118
 9493SOL     OW39940   1.633   2.857  15.433  0.0591  0.0028  0.0746
 9493SOL    HW139941   1.545   2.845  15.467  0.6814 -3.7659  0.3435
 9493SOL    HW239942   1.631   2.950  15.412 -0.0056 -0.1847 -0.7396
 9494SOL     OW39943   0.430   0.202   7.358  0.1159  0.0829 -0.0659
 9494SOL    HW139944   0.524   0.211   7.343  0.3688 -0.7274  1.0548
 9494SOL    HW239945   0.392   0.186   7.272 -2.0609  1.4108  0.6504
 9495SOL     OW39946   2.534   3.037   0.842 -0.1924 -0.7156 -0.1402
 9495SOL    HW139947   2.480   2.989   0.780 -2.1682  0.0120  1.0291
 9495SOL    HW239948   2.467   3.050   0.909 -0.3100  0.3803 -0.4658
 9496SOL     OW39949   3.233   1.031   5.477 -0.2975  0.5226  0.2943
 9496SOL    HW139950   3.250   0.938   5.491 -2.5729  0.3167  1.7443
 9496SOL    HW239951   3.182   1.018   5.397  1.9524 -0.9303 -0.8986
 9497SOL     OW39952   4.555   0.874   0.026  0.1000  0.4609 -0.3501
 9497SOL    HW139953   4.500   0.951   0.040  0.9605  1.2913 -1.5435
 9497SOL    HW239954   4.489   0.819  17.673 -1.5541 -0.3636  3.1926
 9498SOL     OW39955   0.399   1.153   3.457  0.6178  0.0451  0.0315
 9498SOL    HW139956   0.320   1.115   3.494  0.6437 -0.0033  0.0375
 9498SOL    HW239957   0.378   1.142   3.364  1.6894  0.9924 -0.3213
 9499SOL     OW39958   2.925   4.071   3.173 -0.3998 -0.9769 -0.1810
 9499SOL    HW139959   2.981   4.030   3.108 -0.8609 -0.4946 -0.8837
 9499SOL    HW239960   2.980   4.072   3.251 -0.3184  1.4049 -0.2610
 9500SOL     OW39961   1.494   1.548   3.536  0.2885  0.6836  0.5482
 9500SOL    HW139962   1.508   1.623   3.479 -0.9841 -0.6458 -1.4913
 9500SOL    HW239963   1.401   1.549   3.561  0.2404 -2.0335  0.5270
 9501SOL     OW39964   4.362   1.232   7.271  0.3442  0.3416 -0.1272
 9501SOL    HW139965   4.451   1.232   7.306  0.6252  1.5198 -0.8526
 9501SOL    HW239966   4.358   1.315   7.223 -0.0879  0.5729  0.3075
 9502SOL     OW39967   2.858   2.135  17.518 -0.1605 -0.0569  0.0957
 9502SOL    HW139968   2.779   2.176  17.482 -0.7441 -1.2145  0.0525
 9502SOL    HW239969   2.893   2.211  17.563  0.8721  1.0726 -2.6134
 9503SOL     OW39970   0.124   1.114  14.198 -0.1100 -0.8054  0.1561
 9503SOL    HW139971   0.167   1.169  14.264 -0.8039 -1.2409  0.9819
 9503SOL    HW239972   0.070   1.181  14.157  0.3416  0.9553  2.4710
 9504SOL     OW39973   4.137   0.731   3.439  0.9732  0.3363  0.0837
 9504SOL    HW139974   4.160   0.716   3.530  1.0890 -1.7002 -0.2895
 9504SOL    HW239975   4.207   0.680   3.399  1.2021  0.6708  0.0546
 9505SOL     OW39976   0.404   0.337  11.419  0.2337 -0.8514 -0.3303
 9505SOL    HW139977   0.466   0.384  11.362  2.4678 -0.6325  2.2933
 9505SOL    HW239978   0.468   0.295  11.476 -2.2322 -1.0692  2.2621
 9506SOL     OW39979   3.831   0.195  17.514  0.1668  0.0806  0.1875
 9506SOL    HW139980   3.926   0.201  17.524  0.5320 -1.0362 -2.5658
 9506SOL    HW239981   3.824   0.112  17.467 -0.7063  1.3450 -1.9190
 9507SOL     OW39982   3.552   0.280  12.287  0.8469 -0.0389  0.2602
 9507SOL    HW139983   3.619   0.280  12.356  0.1121  0.6356  0.9625
 9507SOL    HW239984   3.590   0.225  12.219  0.4089  0.5924 -0.4986
 9508SOL     OW39985   1.285   3.210   9.890  0.4758  0.4087 -0.2675
 9508SOL    HW139986   1.229   3.236   9.816 -0.6151 -1.2070 -0.0045
 9508SOL    HW239987   1.369   3.198   9.846 -0.0877  0.2376 -1.3045
 9509SOL     OW39988   1.987   1.690   8.432 -0.3643  0.4960  0.4219
 9509SOL    HW139989   1.998   1.785   8.436  0.9087  0.3843 -0.5330
 9509SOL    HW239990   2.077   1.662   8.417 -1.0613 -1.3298 -0.3552
 9510SOL     OW39991   0.464   2.986  16.525 -0.6797 -0.0449  0.3687
 9510SOL    HW139992   0.482   3.079  16.538  0.7636 -0.6514  2.6682
 9510SOL    HW239993   0.447   2.982  16.431  0.1383  0.2558  0.2131
 9511SOL     OW39994   1.664   4.667   7.179  0.5573  0.1184 -0.1154
 9511SOL    HW139995   1.674   0.019   7.119 -0.6212  1.8733  1.8046
 9511SOL    HW239996   1.588   4.627   7.136  0.5807  1.0565 -1.0481
 9512SOL     OW39997   0.667   4.708   7.591  0.6127 -0.2313  0.0834
 9512SOL    HW139998   0.644   4.629   7.543 -1.0526  1.0105 -1.1357
 9512SOL    HW239999   0.672   4.663   7.675 -1.0930  1.6373  1.1975
 9513SOL     OW40000   2.038   2.230  14.315  0.1190 -0.0681  0.1802
 9513SOL    HW140001   2.104   2.291  14.283  0.0306 -0.5234 -0.8682
 9513SOL    HW240002   2.035   2.253  14.408  0.4452 -2.6960  0.8467
 9514SOL     OW40003   4.144   3.451   7.764 -0.3349 -0.1067  0.0517
 9514SOL    HW140004   4.177   3.534   7.797  1.7327 -1.2857  0.9498
 9514SOL    HW240005   4.191   3.394   7.825 -0.7660 -0.3080  0.1965
 9515SOL     OW40006   0.247   4.091   8.425  0.4707  0.2650 -0.5506
 9515SOL    HW140007   0.309   4.163   8.416  0.1710  0.4890 -0.8612
 9515SOL    HW240008   0.170   4.141   8.454  1.9617  2.0252  0.3682
 9516SOL     OW40009   2.880   3.527   2.871  0.3056  0.1291 -0.2733
 9516SOL    HW140010   2.877   3.623   2.863 -0.7922  0.1517  0.3954
 9516SOL    HW240011   2.946   3.498   2.809  0.0290  1.2728 -1.1098
 9517SOL     OW40012   4.673   3.059   4.497  0.0471 -0.7751 -0.0068
 9517SOL    HW140013   0.037   3.062   4.455 -1.0278  0.9567 -2.0296
 9517SOL    HW240014   4.634   2.990   4.443  1.2982 -0.5235 -1.2290
 9518SOL     OW40015   0.893   4.402   5.266  0.1437  0.0327  0.6847
 9518SOL    HW140016   0.883   4.319   5.312 -0.6730 -0.1893  0.0929
 9518SOL    HW240017   0.912   4.362   5.181  0.3971 -0.8227  1.1438
 9519SOL     OW40018   4.054   3.150   0.702 -0.5870 -0.1475 -0.2498
 9519SOL    HW140019   3.965   3.121   0.682 -1.3163  0.7769  1.7647
 9519SOL    HW240020   4.067   3.098   0.781  2.8744  0.6758 -0.3052
 9520SOL     OW40021   3.278   1.411   4.876 -0.2059  0.6397 -0.2405
 9520SOL    HW140022   3.298   1.429   4.968  1.8243  2.3714 -1.0321
 9520SOL    HW240023   3.345   1.346   4.855 -0.4086  0.1752  0.5391
 9521SOL     OW40024   1.717   0.975   8.083 -0.6038  0.1540 -0.1587
 9521SOL    HW140025   1.800   0.970   8.131 -2.1165 -0.8213  2.3804
 9521SOL    HW240026   1.661   1.002   8.156  2.0630 -1.2332  2.3872
 9522SOL     OW40027   1.214   1.580   6.114 -0.2370  0.0403 -0.4997
 9522SOL    HW140028   1.262   1.526   6.052 -4.1890 -2.9184 -1.0408
 9522SOL    HW240029   1.143   1.612   6.058  0.9071  0.6037 -1.6082
 9523SOL     OW40030   4.497   1.419   9.019  0.9397 -0.6898  0.1565
 9523SOL    HW140031   4.536   1.339   8.983  2.4970  0.6002 -1.0260
 9523SOL    HW240032   4.406   1.411   8.991  0.6222  0.5399  0.8652
 9524SOL     OW40033   2.065   3.582  10.267 -0.4547  0.5277  0.0190
 9524SOL    HW140034   2.001   3.511  10.264  2.1535 -1.8728  1.4895
 9524SOL    HW240035   2.022   3.644  10.207 -0.6156  0.1515 -0.2520
 9525SOL     OW40036   0.082   0.300   1.737 -0.6575 -0.5910 -0.2157
 9525SOL    HW140037   0.004   0.246   1.752 -2.1253  2.1892  2.0070
 9525SOL    HW240038   0.039   0.380   1.708 -0.8618 -0.6007  0.0621
 9526SOL     OW40039   3.930   1.698   8.467  0.0453  0.0736 -0.0432
 9526SOL    HW140040   3.927   1.646   8.387  0.6946 -0.3883  0.2335
 9526SOL    HW240041   3.880   1.776   8.441 -0.0003  0.9416  2.6362
 9527SOL     OW40042   0.474   1.753  11.466 -0.0647  0.0832  0.6515
 9527SOL    HW140043   0.515   1.705  11.538  0.0617 -1.3399 -0.3623
 9527SOL    HW240044   0.457   1.683  11.404 -0.1565  1.2175 -0.5946
 9528SOL     OW40045   1.450   1.673  16.497 -0.1600 -0.3501 -0.1534
 9528SOL    HW140046   1.411   1.756  16.468  0.2396  0.8059  2.5620
 9528SOL    HW240047   1.392   1.655  16.571  0.1546 -2.5155 -0.4550
 9529SOL     OW40048   2.865   2.085   5.721  0.1401  0.0001 -0.1570
 9529SOL    HW140049   2.809   2.158   5.694  0.4853  0.4302  0.2987
 9529SOL    HW240050   2.951   2.106   5.686  1.7133 -1.8803  2.5583
 9530SOL     OW40051   0.911   2.117   5.752  0.0124  0.5541  0.0213
 9530SOL    HW140052   0.970   2.189   5.775  1.4484 -0.6534  0.0861
 9530SOL    HW240053   0.953   2.080   5.674  1.3342  0.4341  0.8045
 9531SOL     OW40054   3.257   2.825   4.253  0.7522  0.5381  0.3395
 9531SOL    HW140055   3.344   2.801   4.284  0.2445  0.4858  1.7382
 9531SOL    HW240056   3.231   2.902   4.303  0.9289 -0.2680  1.6497
 9532SOL     OW40057   0.948   1.124   3.181  0.5987  0.7511  0.0333
 9532SOL    HW140058   0.872   1.068   3.198 -0.1282  2.1824  1.3977
 9532SOL    HW240059   1.009   1.086   3.244  1.6681 -0.6724 -1.8443
 9533SOL     OW40060   3.693   2.841  13.739 -0.3179 -0.1090 -0.2333
 9533SOL    HW140061   3.719   2.885  13.658  0.0316  1.2749  0.6215
 9533SOL    HW240062   3.782   2.834  13.775  0.6154  2.1767 -2.1008
 9534SOL     OW40063   3.068   0.013  10.345 -0.0862  0.0361  0.0837
 9534SOL    HW140064   3.102   4.692  10.423  3.3276  0.6809 -1.0656
 9534SOL    HW240065   3.141   0.046  10.294 -1.0766 -0.9075 -1.9632
 9535SOL     OW40066   1.156   3.879   9.124 -0.5848  0.1928  0.1682
 9535SOL    HW140067   1.155   3.803   9.183  0.6190  0.5357  0.6228
 9535SOL    HW240068   1.198   3.834   9.051  1.4057  0.9114  0.8792
 9536SOL     OW40069   4.128   2.629  11.193  0.0051 -0.5302  0.3140
 9536SOL    HW140070   4.161   2.717  11.180 -0.9025 -0.2291  0.0384
 9536SOL    HW240071   4.057   2.610  11.130 -1.0472 -1.4087  1.7602
 9537SOL     OW40072   3.411   1.402  15.275  0.2574  0.1391  0.1627
 9537SOL    HW140073   3.416   1.323  15.222  0.4870 -0.9196  1.7525
 9537SOL    HW240074   3.502   1.429  15.282  1.1838 -3.1813  1.0718
 9538SOL     OW40075   2.548   0.111   5.097 -0.5046  0.2024  0.1326
 9538SOL    HW140076   2.486   0.050   5.137 -0.3747 -1.2014 -1.7939
 9538SOL    HW240077   2.539   0.182   5.160  1.6441 -0.4496  1.1702
 9539SOL     OW40078   4.016   4.446   0.223  0.2033 -0.3165 -0.0266
 9539SOL    HW140079   4.094   4.399   0.195 -0.8900 -3.3751  1.9845
 9539SOL    HW240080   4.055   4.514   0.279  1.4341 -1.2141  0.2078
 9540SOL     OW40081   3.892   0.645   7.984  0.3543 -0.7616 -0.0337
 9540SOL    HW140082   3.814   0.591   7.970 -0.5561  0.3445  0.8159
 9540SOL    HW240083   3.866   0.720   7.930 -0.5957  0.5920  2.2900
 9541SOL     OW40084   0.514   2.992   3.888  0.6497  0.2168 -0.7226
 9541SOL    HW140085   0.506   2.901   3.859 -0.2545 -0.5451  1.8703
 9541SOL    HW240086   0.543   2.978   3.978 -0.8611 -1.4291 -0.4756
 9542SOL     OW40087   1.305   0.555  10.628  0.0356 -0.1986  0.2723
 9542SOL    HW140088   1.337   0.467  10.607 -0.8228 -0.0835 -1.4918
 9542SOL    HW240089   1.306   0.594  10.541 -0.2253  1.2138  0.9019
 9543SOL     OW40090   0.972   3.661   8.456 -0.0049  0.1491  0.3432
 9543SOL    HW140091   0.996   3.577   8.418  0.8295  0.1747  0.8180
 9543SOL    HW240092   1.006   3.657   8.545 -0.3343 -0.2214  0.4542
 9544SOL     OW40093   1.461   3.788   1.525  0.0968 -0.2245  0.5211
 9544SOL    HW140094   1.546   3.800   1.481 -0.1129  1.3406  0.5453
 9544SOL    HW240095   1.478   3.710   1.578  0.0304 -1.4104 -1.1857
 9545SOL     OW40096   0.652   0.997   8.588 -0.0155 -0.6271 -0.2684
 9545SOL    HW140097   0.634   1.011   8.680  1.1864  2.7278 -0.5340
 9545SOL    HW240098   0.609   1.073   8.548 -0.1532 -0.9798 -0.8000
 9546SOL     OW40099   3.229   0.667   7.939  0.2499  0.0715  0.2892
 9546SOL    HW140100   3.300   0.718   7.979  0.2356 -0.8197  1.4478
 9546SOL    HW240101   3.249   0.583   7.980  2.9856 -0.0806 -1.3563
 9547SOL     OW40102   2.003   1.081   0.915  0.1769  0.4183  0.2807
 9547SOL    HW140103   1.948   1.003   0.905 -0.6670  1.0489 -0.0391
 9547SOL    HW240104   1.944   1.136   0.966 -0.3813 -0.1980  0.3075
 9548SOL     OW40105   4.638   2.504   0.625 -0.7313 -0.2264  0.6830
 9548SOL    HW140106   0.006   2.486   0.654  0.3907  0.8486 -2.0533
 9548SOL    HW240107   4.627   2.593   0.659  0.9207  0.4867 -0.6047
 9549SOL     OW40108   2.238   2.018   2.671 -0.1567 -0.3628 -0.1876
 9549SOL    HW140109   2.146   2.027   2.646 -0.0535 -0.8376 -0.7471
 9549SOL    HW240110   2.270   1.955   2.606  2.0171  0.2836  0.2487
 9550SOL     OW40111   3.588   0.023   1.082  0.2073 -0.4877 -0.0088
 9550SOL    HW140112   3.497   0.016   1.054  0.0616 -2.5849  1.0353
 9550SOL    HW240113   3.618   4.655   1.091  0.1634 -0.4346  0.6752
 9551SOL     OW40114   1.219   3.350   9.229 -0.0598  0.8478 -0.8111
 9551SOL    HW140115   1.226   3.256   9.209 -0.9565  0.0371  2.6387
 9551SOL    HW240116   1.125   3.365   9.240  0.4877  2.2674  1.9266
 9552SOL     OW40117   3.401   2.135  16.658 -0.5997  0.1860 -0.4247
 9552SOL    HW140118   3.342   2.151  16.585  0.8318 -2.3484 -2.1566
 9552SOL    HW240119   3.390   2.216  16.707 -1.3863 -0.8079  1.0430
 9553SOL     OW40120   1.622   2.957   1.141 -0.3580 -0.2512  0.5394
 9553SOL    HW140121   1.574   2.875   1.130 -0.0036 -0.5644  1.3128
 9553SOL    HW240122   1.655   2.949   1.231  0.5439  0.8562  0.3131
 9554SOL     OW40123   3.123   2.728  11.717  0.0541  0.0202 -0.5484
 9554SOL    HW140124   3.041   2.680  11.724  0.3629 -0.6289 -1.4070
 9554SOL    HW240125   3.134   2.780  11.796  0.8873 -1.0470  0.0371
 9555SOL     OW40126   2.112   3.774  15.608  0.0699  0.0897  0.2762
 9555SOL    HW140127   2.199   3.735  15.600 -0.0777 -0.6223  1.9812
 9555SOL    HW240128   2.062   3.693  15.613  0.5969 -0.1768  1.3470
 9556SOL     OW40129   3.630   2.226   8.667  0.1649 -0.2378 -0.3864
 9556SOL    HW140130   3.592   2.259   8.586  0.9874  1.3704 -0.1275
 9556SOL    HW240131   3.612   2.132   8.670 -0.1553 -0.0849  2.2543
 9557SOL     OW40132   0.352   4.036   5.255 -0.5244  0.1758  0.5942
 9557SOL    HW140133   0.443   4.032   5.225 -1.1064  0.2405 -1.1621
 9557SOL    HW240134   0.331   3.943   5.251  0.0546  0.1427 -1.6105
 9558SOL     OW40135   2.013   3.811  17.401  0.3549  0.4241 -0.1362
 9558SOL    HW140136   2.006   3.906  17.388 -1.3432  0.2578 -0.4071
 9558SOL    HW240137   1.924   3.792  17.431  0.4142 -0.5599 -0.6008
 9559SOL     OW40138   3.726   0.978   1.991  0.4451 -0.3777 -0.3337
 9559SOL    HW140139   3.814   0.946   1.973  1.0679  1.2333 -0.1431
 9559SOL    HW240140   3.746   1.047   2.053 -2.2444 -0.7993  1.0003
 9560SOL     OW40141   2.885   2.132   4.930  0.2551 -0.4045  0.0514
 9560SOL    HW140142   2.941   2.210   4.926 -0.9822  0.5078  0.2225
 9560SOL    HW240143   2.804   2.182   4.937  0.7066  0.4943 -1.2075
 9561SOL     OW40144   1.556   1.765   4.977 -0.2779 -0.2225 -0.3030
 9561SOL    HW140145   1.553   1.843   4.922  0.1016  0.6660  0.9167
 9561SOL    HW240146   1.597   1.794   5.059  1.2628  1.2650 -1.6127
 9562SOL     OW40147   2.379   3.111   8.768  0.7141  0.4295 -0.2677
 9562SOL    HW140148   2.372   3.051   8.694 -1.6574 -0.5836  0.7737
 9562SOL    HW240149   2.422   3.184   8.724  1.6445 -0.9684 -1.6662
 9563SOL     OW40150   4.628   0.098   4.895  0.5217  0.6479 -0.7296
 9563SOL    HW140151   4.557   0.127   4.952  0.3532  0.6452 -0.9407
 9563SOL    HW240152   4.663   0.186   4.883 -0.3073  1.2696  1.4976
 9564SOL     OW40153   3.803   3.918   4.804  0.0447 -0.3294  0.1526
 9564SOL    HW140154   3.793   4.013   4.804  1.7059 -0.1669 -2.2992
 9564SOL    HW240155   3.710   3.897   4.809  0.5154 -1.5611  4.0185
 9565SOL     OW40156   4.228   4.188   4.169  0.0795  0.4714  0.0077
 9565SOL    HW140157   4.317   4.211   4.196  0.3559 -1.7571  1.0315
 9565SOL    HW240158   4.176   4.231   4.238  0.1631  0.5400  0.0276
 9566SOL     OW40159   0.762   1.084  13.187 -0.0922  0.1566 -0.0498
 9566SOL    HW140160   0.736   1.024  13.256 -0.5898 -2.0250 -2.1091
 9566SOL    HW240161   0.681   1.109  13.142 -0.5689  1.4638  1.5813
 9567SOL     OW40162   0.334   2.509   4.288 -0.1343 -0.8019 -0.1391
 9567SOL    HW140163   0.382   2.579   4.242 -1.3670  0.6135  0.7244
 9567SOL    HW240164   0.257   2.508   4.231  0.4572  0.1447 -0.9592
 9568SOL     OW40165   2.723   0.878  16.391  0.1496 -0.1634 -0.1332
 9568SOL    HW140166   2.628   0.875  16.402  0.2949 -1.1521  0.8048
 9568SOL    HW240167   2.745   0.950  16.450 -0.9528  0.2135 -0.1769
   4.72203   4.72203  17.69026
